<event>
 5    1  0.1681111E-003  0.9118800E+02  0.7818608E-02  0.1130116E+00
         25   -1    0    0    0    0  0.00000000000E+00  0.00000000000E+00  0.99999998245E-14  0.12500000000E+03  0.12500000000E+03 0.  0.
        -11    1    3    3    0    0  0.17072500229E+02  0.43957862080E+02  0.39761005785E+02  0.61682262312E+02  0.51100000000E-03 0.  1.
         23    2    1    0    0    0  0.15566604641E+02  0.20459850952E+02  0.19805700571E+02  0.92547104041E+02  0.86670502538E+02 0.  0.
         11    1    3    3    0    0 -0.15058955879E+01 -0.23498011128E+02 -0.19955305213E+02  0.30864841728E+02  0.51100000000E-03 0. -1.
         22    1    1    0    0    0 -0.15566604641E+02 -0.20459850952E+02 -0.19805700571E+02  0.32452895959E+02  0.00000000000E+00 0.  1.
</event>
<event>
 5    1  0.1681111E-003  0.9118800E+02  0.7818608E-02  0.1130116E+00
         25   -1    0    0    0    0  0.00000000000E+00  0.00000000000E+00  0.99999998245E-14  0.12500000000E+03  0.12500000000E+03 0.  0.
        -11    1    3    3    0    0 -0.23832084576E+02 -0.97313056673E+01  0.37086382575E+02  0.45144948089E+02  0.51100000000E-03 0.  1.
         23    2    1    0    0    0  0.11812378719E+02  0.20321274548E+02  0.17408582111E+02  0.95750295362E+02  0.91173317591E+02 0.  0.
         11    1    3    3    0    0  0.35644463296E+02  0.30052580216E+02 -0.19677800464E+02  0.50605347273E+02  0.51100000000E-03 0. -1.
         22    1    1    0    0    0 -0.11812378719E+02 -0.20321274548E+02 -0.17408582111E+02  0.29249704638E+02  0.00000000000E+00 0. -1.
</event>
<event>
 5    1  0.1681111E-003  0.9118800E+02  0.7818608E-02  0.1130116E+00
         25   -1    0    0    0    0  0.00000000000E+00  0.00000000000E+00  0.99999998245E-14  0.12500000000E+03  0.12500000000E+03 0.  0.
        -11    1    3    3    0    0  0.38427071971E+02 -0.18240774158E+02 -0.12252630302E+02  0.44266156957E+02  0.51100000000E-03 0. -1.
         23    2    1    0    0    0  0.77752884780E+01 -0.40686585093E+02 -0.24347133717E+01  0.83505649220E+02  0.72466628905E+02 0.  0.
         11    1    3    3    0    0 -0.30651783493E+02 -0.22445810936E+02  0.98179169307E+01  0.39239492262E+02  0.51100000000E-03 0.  1.
         22    1    1    0    0    0 -0.77752884780E+01  0.40686585093E+02  0.24347133717E+01  0.41494350780E+02  0.00000000000E+00 0.  1.
</event>
<event>
 5    1  0.1681111E-003  0.9118800E+02  0.7818608E-02  0.1130116E+00
         25   -1    0    0    0    0  0.00000000000E+00  0.00000000000E+00  0.99999998245E-14  0.12500000000E+03  0.12500000000E+03 0.  0.
        -11    1    3    3    0    0 -0.32052289378E+02 -0.26832886526E+02 -0.40987996996E+02  0.58543735375E+02  0.51100000000E-03 0.  1.
         23    2    1    0    0    0  0.17163035082E+01 -0.13870988399E+02 -0.20721824372E+02  0.10000512008E+03  0.96831193425E+02 0.  0.
         11    1    3    3    0    0  0.33768592886E+02  0.12961898126E+02  0.20266172625E+02  0.41461384705E+02  0.51100000000E-03 0. -1.
         22    1    1    0    0    0 -0.17163035082E+01  0.13870988399E+02  0.20721824372E+02  0.24994879920E+02  0.00000000000E+00 0.  1.
</event>
<event>
 5    1  0.1681111E-003  0.9118800E+02  0.7818608E-02  0.1130116E+00
         25   -1    0    0    0    0  0.00000000000E+00  0.00000000000E+00  0.99999998245E-14  0.12500000000E+03  0.12500000000E+03 0.  0.
        -11    1    3    3    0    0  0.37122864880E+02 -0.18224752884E+02 -0.57092146542E+01  0.41747381317E+02  0.51100000000E-03 0.  1.
         23    2    1    0    0    0 -0.14028471722E+02 -0.77611042837E+01 -0.23190857432E+02  0.96806940092E+02  0.92610663657E+02 0.  0.
         11    1    3    3    0    0 -0.51151336601E+02  0.10463648601E+02 -0.17481642777E+02  0.55059558776E+02  0.51100000000E-03 0. -1.
         22    1    1    0    0    0  0.14028471722E+02  0.77611042837E+01  0.23190857432E+02  0.28193059908E+02  0.00000000000E+00 0.  1.
</event>
<event>
 5    1  0.1681111E-003  0.9118800E+02  0.7818608E-02  0.1130116E+00
         25   -1    0    0    0    0  0.00000000000E+00  0.00000000000E+00  0.99999998245E-14  0.12500000000E+03  0.12500000000E+03 0.  0.
        -11    1    3    3    0    0 -0.22507055920E+02  0.10054490473E+02 -0.29599842658E+02  0.38520267788E+02  0.51100000000E-03 0. -1.
         23    2    1    0    0    0 -0.89759252940E+01 -0.15644655408E+02  0.21279017310E+02  0.97105214549E+02  0.93012384321E+02 0.  0.
         11    1    3    3    0    0  0.13531130626E+02 -0.25699145881E+02  0.50878859968E+02  0.58584946760E+02  0.51100000000E-03 0.  1.
         22    1    1    0    0    0  0.89759252940E+01  0.15644655408E+02 -0.21279017310E+02  0.27894785451E+02  0.00000000000E+00 0.  1.
</event>
<event>
 5    1  0.1681111E-003  0.9118800E+02  0.7818608E-02  0.1130116E+00
         25   -1    0    0    0    0  0.00000000000E+00  0.00000000000E+00  0.99999998245E-14  0.12500000000E+03  0.12500000000E+03 0.  0.
        -11    1    3    3    0    0 -0.38621133024E+02 -0.13049328909E+02 -0.65962391857E+01  0.41296334857E+02  0.51100000000E-03 0.  1.
         23    2    1    0    0    0  0.16722382759E+01 -0.14957976899E+02  0.27194800261E+02  0.93917937408E+02  0.88625528782E+02 0.  0.
         11    1    3    3    0    0  0.40293371299E+02 -0.19086479905E+01  0.33791039447E+02  0.52621602550E+02  0.51100000000E-03 0. -1.
         22    1    1    0    0    0 -0.16722382759E+01  0.14957976899E+02 -0.27194800261E+02  0.31082062592E+02  0.00000000000E+00 0. -1.
</event>
<event>
 5    1  0.1681111E-003  0.9118800E+02  0.7818608E-02  0.1130116E+00
         25   -1    0    0    0    0  0.00000000000E+00  0.00000000000E+00  0.99999998245E-14  0.12500000000E+03  0.12500000000E+03 0.  0.
        -11    1    3    3    0    0  0.48152842935E+02  0.31666072588E+02  0.23392289838E+01  0.57679358772E+02  0.51100000000E-03 0.  1.
         23    2    1    0    0    0  0.21233693382E+02  0.12183989755E+02  0.18195108815E+02  0.94497847194E+02  0.89439710412E+02 0.  0.
         11    1    3    3    0    0 -0.26919149553E+02 -0.19482082833E+02  0.15855879832E+02  0.36818488422E+02  0.51100000000E-03 0. -1.
         22    1    1    0    0    0 -0.21233693382E+02 -0.12183989755E+02 -0.18195108815E+02  0.30502152806E+02  0.00000000000E+00 0.  1.
</event>
<event>
 5    1  0.1681111E-003  0.9118800E+02  0.7818608E-02  0.1130116E+00
         25   -1    0    0    0    0  0.00000000000E+00  0.00000000000E+00  0.99999998245E-14  0.12500000000E+03  0.12500000000E+03 0.  0.
        -11    1    3    3    0    0  0.33460041339E+02 -0.38840027041E+02 -0.96875287661E+01  0.52172505027E+02  0.51100000000E-03 0.  1.
         23    2    1    0    0    0  0.24916902730E+02 -0.55491154715E+01  0.15815378617E+02  0.94970499089E+02  0.90097862196E+02 0.  0.
         11    1    3    3    0    0 -0.85431386096E+01  0.33290911569E+02  0.25502907383E+02  0.42797994062E+02  0.51100000000E-03 0. -1.
         22    1    1    0    0    0 -0.24916902730E+02  0.55491154715E+01 -0.15815378617E+02  0.30029500911E+02  0.00000000000E+00 0.  1.
</event>
<event>
 4    1  0.1681111E-003  0.9118800E+02  0.7818608E-02  0.1130116E+00
         25   -1    0    0    0    0  0.00000000000E+00  0.00000000000E+00  0.99999998245E-14  0.12500000000E+03  0.12500000000E+03 0.  0.
        -11    1    1    0    0    0 -0.21323447926E+02 -0.27065804705E+02 -0.40614514612E+02  0.53261487148E+02  0.51100000000E-03 0.  1.
         11    1    1    0    0    0  0.75024008437E+01  0.15693153849E+02 -0.85755322764E+01  0.19393319732E+02  0.51100000000E-03 0. -1.
         22    1    1    0    0    0  0.13821047082E+02  0.11372650856E+02  0.49190046888E+02  0.52345193120E+02  0.00000000000E+00 0.  1.
</event>
<event>
 5    1  0.1681111E-003  0.9118800E+02  0.7818608E-02  0.1130116E+00
         25   -1    0    0    0    0  0.00000000000E+00  0.00000000000E+00  0.99999998245E-14  0.12500000000E+03  0.12500000000E+03 0.  0.
        -11    1    3    3    0    0 -0.10356866935E+02  0.45108999743E+02 -0.20430281920E+02  0.50591332955E+02  0.51100000000E-03 0. -1.
         23    2    1    0    0    0 -0.16571021402E+02  0.15554169934E+02  0.15471351592E+02  0.97506479442E+02  0.93550092787E+02 0.  0.
         11    1    3    3    0    0 -0.62141544662E+01 -0.29554829810E+02  0.35901633512E+02  0.46915146487E+02  0.51100000000E-03 0.  1.
         22    1    1    0    0    0  0.16571021402E+02 -0.15554169934E+02 -0.15471351592E+02  0.27493520558E+02  0.00000000000E+00 0. -1.
</event>
<event>
 5    1  0.1681111E-003  0.9118800E+02  0.7818608E-02  0.1130116E+00
         25   -1    0    0    0    0  0.00000000000E+00  0.00000000000E+00  0.99999998245E-14  0.12500000000E+03  0.12500000000E+03 0.  0.
        -11    1    3    3    0    0  0.38813956508E+01 -0.20150422536E+02  0.49366841806E+02  0.53462041027E+02  0.51100000000E-03 0. -1.
         23    2    1    0    0    0  0.21945276891E+02 -0.14731093285E+02  0.10695562149E+02  0.96486926913E+02  0.92177718177E+02 0.  0.
         11    1    3    3    0    0  0.18063881240E+02  0.54193292509E+01 -0.38671279657E+02  0.43024885887E+02  0.51100000000E-03 0.  1.
         22    1    1    0    0    0 -0.21945276891E+02  0.14731093285E+02 -0.10695562149E+02  0.28513073087E+02  0.00000000000E+00 0. -1.
</event>
<event>
 5    1  0.1681111E-003  0.9118800E+02  0.7818608E-02  0.1130116E+00
         25   -1    0    0    0    0  0.00000000000E+00  0.00000000000E+00  0.99999998245E-14  0.12500000000E+03  0.12500000000E+03 0.  0.
        -11    1    3    3    0    0 -0.24373874987E+01 -0.33258931117E+02 -0.49220117766E+01  0.33709398645E+02  0.51100000000E-03 0.  1.
         23    2    1    0    0    0  0.83966051343E+01  0.19316714099E+02  0.22661286001E+02  0.94061798621E+02  0.88828203039E+02 0.  0.
         11    1    3    3    0    0  0.10833992633E+02  0.52575645216E+02  0.27583297778E+02  0.60352399975E+02  0.51100000000E-03 0. -1.
         22    1    1    0    0    0 -0.83966051343E+01 -0.19316714099E+02 -0.22661286001E+02  0.30938201379E+02  0.00000000000E+00 0. -1.
</event>
<event>
 5    1  0.1681111E-003  0.9118800E+02  0.7818608E-02  0.1130116E+00
         25   -1    0    0    0    0  0.00000000000E+00  0.00000000000E+00  0.99999998245E-14  0.12500000000E+03  0.12500000000E+03 0.  0.
        -11    1    3    3    0    0 -0.22429344252E+02 -0.47287323426E+02 -0.18143212623E+02  0.55392622297E+02  0.51100000000E-03 0.  1.
         23    2    1    0    0    0  0.95055172542E+01 -0.23843090908E+02  0.83091042879E+00  0.99318523126E+02  0.95940767046E+02 0.  0.
         11    1    3    3    0    0  0.31934861506E+02  0.23444232518E+02  0.18974123052E+02  0.43925900829E+02  0.51100000000E-03 0. -1.
         22    1    1    0    0    0 -0.95055172542E+01  0.23843090908E+02 -0.83091042879E+00  0.25681476874E+02  0.00000000000E+00 0.  1.
</event>
<event>
 5    1  0.1681111E-003  0.9118800E+02  0.7818608E-02  0.1130116E+00
         25   -1    0    0    0    0  0.00000000000E+00  0.00000000000E+00  0.99999998245E-14  0.12500000000E+03  0.12500000000E+03 0.  0.
        -11    1    3    3    0    0 -0.35091446930E+02  0.26209190068E+02 -0.21775861733E+02  0.48913387187E+02  0.51100000000E-03 0. -1.
         23    2    1    0    0    0 -0.21978780789E+02  0.69253855939E+01  0.18497014886E+02  0.95450595094E+02  0.90761493892E+02 0.  0.
         11    1    3    3    0    0  0.13112666141E+02 -0.19283804474E+02  0.40272876619E+02  0.46537207907E+02  0.51100000000E-03 0.  1.
         22    1    1    0    0    0  0.21978780789E+02 -0.69253855939E+01 -0.18497014886E+02  0.29549404906E+02  0.00000000000E+00 0. -1.
</event>
<event>
 5    1  0.1681111E-003  0.9118800E+02  0.7818608E-02  0.1130116E+00
         25   -1    0    0    0    0  0.00000000000E+00  0.00000000000E+00  0.99999998245E-14  0.12500000000E+03  0.12500000000E+03 0.  0.
        -11    1    3    3    0    0  0.15282501462E+02 -0.81808319297E+01 -0.30457041409E+02  0.35044432277E+02  0.51100000000E-03 0. -1.
         23    2    1    0    0    0 -0.27829989151E+02  0.26271441311E+01  0.10162703503E+02  0.95256248977E+02  0.90493437576E+02 0.  0.
         11    1    3    3    0    0 -0.43112490612E+02  0.10807976061E+02  0.40619744912E+02  0.60211816700E+02  0.51100000000E-03 0.  1.
         22    1    1    0    0    0  0.27829989151E+02 -0.26271441311E+01 -0.10162703503E+02  0.29743751023E+02  0.00000000000E+00 0.  1.
</event>
<event>
 5    1  0.1681111E-003  0.9118800E+02  0.7818608E-02  0.1130116E+00
         25   -1    0    0    0    0  0.00000000000E+00  0.00000000000E+00  0.99999998245E-14  0.12500000000E+03  0.12500000000E+03 0.  0.
        -11    1    3    3    0    0 -0.27089427888E+01 -0.43625812013E+02 -0.30252453068E+01  0.43814403502E+02  0.51100000000E-03 0.  1.
         23    2    1    0    0    0  0.25396861347E+02 -0.38109498274E+00 -0.13186303416E+02  0.96381397703E+02  0.92034501279E+02 0.  0.
         11    1    3    3    0    0  0.28105804136E+02  0.43244717030E+02 -0.10161058109E+02  0.52566994201E+02  0.51100000000E-03 0. -1.
         22    1    1    0    0    0 -0.25396861347E+02  0.38109498274E+00  0.13186303416E+02  0.28618602297E+02  0.00000000000E+00 0. -1.
</event>
<event>
 5    1  0.1681111E-003  0.9118800E+02  0.7818608E-02  0.1130116E+00
         25   -1    0    0    0    0  0.00000000000E+00  0.00000000000E+00  0.99999998245E-14  0.12500000000E+03  0.12500000000E+03 0.  0.
        -11    1    3    3    0    0  0.46610838628E+02 -0.32666698511E+02  0.21668831071E+02  0.60903380115E+02  0.51100000000E-03 0.  1.
         23    2    1    0    0    0  0.27641762099E+02 -0.88352296132E+01  0.52383484379E+01  0.95511551607E+02  0.90845406608E+02 0.  0.
         11    1    3    3    0    0 -0.18969076529E+02  0.23831468898E+02 -0.16430482633E+02  0.34608171492E+02  0.51100000000E-03 0. -1.
         22    1    1    0    0    0 -0.27641762099E+02  0.88352296132E+01 -0.52383484379E+01  0.29488448393E+02  0.00000000000E+00 0.  1.
</event>
<event>
 4    1  0.1681111E-003  0.9118800E+02  0.7818608E-02  0.1130116E+00
         25   -1    0    0    0    0  0.00000000000E+00  0.00000000000E+00  0.99999998245E-14  0.12500000000E+03  0.12500000000E+03 0.  0.
        -11    1    1    0    0    0  0.31353913163E+02  0.28707749261E+02  0.17472396502E+02  0.45961803468E+02  0.51100000000E-03 0.  1.
         11    1    1    0    0    0 -0.12897515108E+02  0.20633754869E+02 -0.39681456377E+01  0.24654490789E+02  0.51100000000E-03 0. -1.
         22    1    1    0    0    0 -0.18456398054E+02 -0.49341504130E+02 -0.13504250864E+02  0.54383705744E+02  0.00000000000E+00 0.  1.
</event>
<event>
 5    1  0.1681111E-003  0.9118800E+02  0.7818608E-02  0.1130116E+00
         25   -1    0    0    0    0  0.00000000000E+00  0.00000000000E+00  0.99999998245E-14  0.12500000000E+03  0.12500000000E+03 0.  0.
        -11    1    3    3    0    0 -0.79148071032E+01 -0.15406574156E+02  0.40484751348E+02  0.44034325142E+02  0.51100000000E-03 0. -1.
         23    2    1    0    0    0 -0.22205173177E+02 -0.13188451083E+02 -0.10567437133E+02  0.97095239020E+02  0.92998977171E+02 0.  0.
         11    1    3    3    0    0 -0.14290366074E+02  0.22181230735E+01 -0.51052188482E+02  0.53060913878E+02  0.51100000000E-03 0.  1.
         22    1    1    0    0    0  0.22205173177E+02  0.13188451083E+02  0.10567437133E+02  0.27904760980E+02  0.00000000000E+00 0.  1.
</event>
<event>
 5    1  0.1681111E-003  0.9118800E+02  0.7818608E-02  0.1130116E+00
         25   -1    0    0    0    0  0.00000000000E+00  0.00000000000E+00  0.99999998245E-14  0.12500000000E+03  0.12500000000E+03 0.  0.
        -11    1    3    3    0    0 -0.35685800378E+02 -0.10784955294E+02  0.10196914724E+02  0.38649303738E+02  0.51100000000E-03 0.  1.
         23    2    1    0    0    0  0.16819003333E+02 -0.17912376385E+02 -0.13802859926E+02  0.96817540153E+02  0.92624969842E+02 0.  0.
         11    1    3    3    0    0  0.52504803711E+02 -0.71274210916E+01 -0.23999774650E+02  0.58168236415E+02  0.51100000000E-03 0. -1.
         22    1    1    0    0    0 -0.16819003333E+02  0.17912376385E+02  0.13802859926E+02  0.28182459847E+02  0.00000000000E+00 0. -1.
</event>
<event>
 5    1  0.1681111E-003  0.9118800E+02  0.7818608E-02  0.1130116E+00
         25   -1    0    0    0    0  0.00000000000E+00  0.00000000000E+00  0.99999998245E-14  0.12500000000E+03  0.12500000000E+03 0.  0.
        -11    1    3    3    0    0  0.20503761968E+01  0.74968567457E+01 -0.60189050459E+02  0.60688785612E+02  0.51100000000E-03 0. -1.
         23    2    1    0    0    0 -0.56329372204E+01  0.11440943058E+02 -0.24837663489E+02  0.97079851588E+02  0.92978292611E+02 0.  0.
         11    1    3    3    0    0 -0.76833134172E+01  0.39440863119E+01  0.35351386970E+02  0.36391065976E+02  0.51100000000E-03 0.  1.
         22    1    1    0    0    0  0.56329372204E+01 -0.11440943058E+02  0.24837663489E+02  0.27920148412E+02  0.00000000000E+00 0. -1.
</event>
<event>
 5    1  0.1681111E-003  0.9118800E+02  0.7818608E-02  0.1130116E+00
         25   -1    0    0    0    0  0.00000000000E+00  0.00000000000E+00  0.99999998245E-14  0.12500000000E+03  0.12500000000E+03 0.  0.
        -11    1    3    3    0    0 -0.27043278496E+02  0.47214297723E+02 -0.22002606619E+02  0.58691085520E+02  0.51100000000E-03 0. -1.
         23    2    1    0    0    0 -0.82832789061E+00  0.28359224821E+02 -0.22617241567E+01  0.96538672629E+02  0.92247862616E+02 0.  0.
         11    1    3    3    0    0  0.26214950605E+02 -0.18855072901E+02  0.19740882462E+02  0.37847587109E+02  0.51100000000E-03 0.  1.
         22    1    1    0    0    0  0.82832789061E+00 -0.28359224821E+02  0.22617241567E+01  0.28461327371E+02  0.00000000000E+00 0. -1.
</event>
<event>
 5    1  0.1681111E-003  0.9118800E+02  0.7818608E-02  0.1130116E+00
         25   -1    0    0    0    0  0.00000000000E+00  0.00000000000E+00  0.99999998245E-14  0.12500000000E+03  0.12500000000E+03 0.  0.
        -11    1    3    3    0    0  0.25566069040E+02 -0.27974609910E+02  0.27292446151E+01  0.37995413700E+02  0.51100000000E-03 0. -1.
         23    2    1    0    0    0 -0.42993168731E+01  0.17573081911E+02  0.22669328556E+02  0.95996624496E+02  0.91510415386E+02 0.  0.
         11    1    3    3    0    0 -0.29865385913E+02  0.45547691822E+02  0.19940083941E+02  0.58001210796E+02  0.51100000000E-03 0.  1.
         22    1    1    0    0    0  0.42993168731E+01 -0.17573081911E+02 -0.22669328556E+02  0.29003375504E+02  0.00000000000E+00 0.  1.
</event>
<event>
 5    1  0.1681111E-003  0.9118800E+02  0.7818608E-02  0.1130116E+00
         25   -1    0    0    0    0  0.00000000000E+00  0.00000000000E+00  0.99999998245E-14  0.12500000000E+03  0.12500000000E+03 0.  0.
        -11    1    3    3    0    0  0.34221136470E+02  0.27914015553E+02 -0.34266135815E+00  0.44163286366E+02  0.51100000000E-03 0. -1.
         23    2    1    0    0    0  0.11407203343E+02 -0.14137774814E+02  0.21582720981E+02  0.96789810179E+02  0.92587539900E+02 0.  0.
         11    1    3    3    0    0 -0.22813933127E+02 -0.42051790366E+02  0.21925382339E+02  0.52626523814E+02  0.51100000000E-03 0.  1.
         22    1    1    0    0    0 -0.11407203343E+02  0.14137774814E+02 -0.21582720981E+02  0.28210189821E+02  0.00000000000E+00 0.  1.
</event>
<event>
 5    1  0.1681111E-003  0.9118800E+02  0.7818608E-02  0.1130116E+00
         25   -1    0    0    0    0  0.00000000000E+00  0.00000000000E+00  0.99999998245E-14  0.12500000000E+03  0.12500000000E+03 0.  0.
        -11    1    3    3    0    0 -0.38276027514E+02  0.16854885076E+02 -0.16601756559E+02  0.44997330524E+02  0.51100000000E-03 0. -1.
         23    2    1    0    0    0  0.21280037326E+01 -0.11307734103E+02 -0.27280441931E+02  0.95392302312E+02  0.90681175433E+02 0.  0.
         11    1    3    3    0    0  0.40404031246E+02 -0.28162619179E+02 -0.10678685372E+02  0.50394971788E+02  0.51100000000E-03 0.  1.
         22    1    1    0    0    0 -0.21280037326E+01  0.11307734103E+02  0.27280441931E+02  0.29607697688E+02  0.00000000000E+00 0.  1.
</event>
<event>
 5    1  0.1681111E-003  0.9118800E+02  0.7818608E-02  0.1130116E+00
         25   -1    0    0    0    0  0.00000000000E+00  0.00000000000E+00  0.99999998245E-14  0.12500000000E+03  0.12500000000E+03 0.  0.
        -11    1    3    3    0    0  0.21287954971E+02  0.54390767214E+02 -0.19082927970E+02  0.61446649421E+02  0.51100000000E-03 0.  1.
         23    2    1    0    0    0  0.16754434843E+02  0.20726041983E+02 -0.85727221700E+01  0.97004081216E+02  0.92876371074E+02 0.  0.
         11    1    3    3    0    0 -0.45335201282E+01 -0.33664725231E+02  0.10510205800E+02  0.35557431795E+02  0.51100000000E-03 0. -1.
         22    1    1    0    0    0 -0.16754434843E+02 -0.20726041983E+02  0.85727221700E+01  0.27995918784E+02  0.00000000000E+00 0.  1.
</event>
<event>
 5    1  0.1681111E-003  0.9118800E+02  0.7818608E-02  0.1130116E+00
         25   -1    0    0    0    0  0.00000000000E+00  0.00000000000E+00  0.99999998245E-14  0.12500000000E+03  0.12500000000E+03 0.  0.
        -11    1    3    3    0    0  0.19485001377E+02 -0.41631484846E+02 -0.99562516120E+01  0.47031614426E+02  0.51100000000E-03 0.  1.
         23    2    1    0    0    0 -0.10431252013E+02 -0.67935250577E+01 -0.26404051831E+02  0.95808615066E+02  0.91253239759E+02 0.  0.
         11    1    3    3    0    0 -0.29916253390E+02  0.34837959788E+02 -0.16447800219E+02  0.48777000640E+02  0.51100000000E-03 0. -1.
         22    1    1    0    0    0  0.10431252013E+02  0.67935250577E+01  0.26404051831E+02  0.29191384934E+02  0.00000000000E+00 0.  1.
</event>
<event>
 5    1  0.1681111E-003  0.9118800E+02  0.7818608E-02  0.1130116E+00
         25   -1    0    0    0    0  0.00000000000E+00  0.00000000000E+00  0.99999998245E-14  0.12500000000E+03  0.12500000000E+03 0.  0.
        -11    1    3    3    0    0  0.25730599786E+02 -0.12692513907E+02 -0.53004389229E+02  0.60271294598E+02  0.51100000000E-03 0.  1.
         23    2    1    0    0    0  0.31449183420E+01 -0.14086802696E+02 -0.22874607485E+02  0.97952334866E+02  0.94143952098E+02 0.  0.
         11    1    3    3    0    0 -0.22585681444E+02 -0.13942887886E+01  0.30129781744E+02  0.37681040269E+02  0.51100000000E-03 0. -1.
         22    1    1    0    0    0 -0.31449183420E+01  0.14086802696E+02  0.22874607485E+02  0.27047665134E+02  0.00000000000E+00 0.  1.
</event>
<event>
 5    1  0.1681111E-003  0.9118800E+02  0.7818608E-02  0.1130116E+00
         25   -1    0    0    0    0  0.00000000000E+00  0.00000000000E+00  0.99999998245E-14  0.12500000000E+03  0.12500000000E+03 0.  0.
        -11    1    3    3    0    0  0.10647214942E+02  0.30798859989E+02 -0.64742226284E+01  0.33224215890E+02  0.51100000000E-03 0.  1.
         23    2    1    0    0    0 -0.20442389561E+02 -0.16234284459E+02  0.16514110959E+02  0.94110533452E+02  0.88896756763E+02 0.  0.
         11    1    3    3    0    0 -0.31089604503E+02 -0.47033144447E+02  0.22988333588E+02  0.60886317561E+02  0.51100000000E-03 0. -1.
         22    1    1    0    0    0  0.20442389561E+02  0.16234284459E+02 -0.16514110959E+02  0.30889466548E+02  0.00000000000E+00 0. -1.
</event>
<event>
 5    1  0.1681111E-003  0.9118800E+02  0.7818608E-02  0.1130116E+00
         25   -1    0    0    0    0  0.00000000000E+00  0.00000000000E+00  0.99999998245E-14  0.12500000000E+03  0.12500000000E+03 0.  0.
        -11    1    3    3    0    0  0.16442555214E+02 -0.21050532454E+02 -0.27273476882E+02  0.38174927375E+02  0.51100000000E-03 0. -1.
         23    2    1    0    0    0  0.15977234029E+02  0.47169151692E+01  0.24130561980E+02  0.95677562901E+02  0.91073545694E+02 0.  0.
         11    1    3    3    0    0 -0.46532118471E+00  0.25767447623E+02  0.51404038863E+02  0.57502635526E+02  0.51100000000E-03 0.  1.
         22    1    1    0    0    0 -0.15977234029E+02 -0.47169151692E+01 -0.24130561980E+02  0.29322437099E+02  0.00000000000E+00 0.  1.
</event>
<event>
 5    1  0.1681111E-003  0.9118800E+02  0.7818608E-02  0.1130116E+00
         25   -1    0    0    0    0  0.00000000000E+00  0.00000000000E+00  0.99999998245E-14  0.12500000000E+03  0.12500000000E+03 0.  0.
        -11    1    3    3    0    0  0.65709911408E+00  0.57143321041E+02 -0.24573822327E+02  0.62206620732E+02  0.51100000000E-03 0.  1.
         23    2    1    0    0    0 -0.38343810842E+01  0.27045435196E+02 -0.10485301155E+02  0.95740820525E+02  0.91160326520E+02 0.  0.
         11    1    3    3    0    0 -0.44914801982E+01 -0.30097885845E+02  0.14088521173E+02  0.33534199794E+02  0.51100000000E-03 0. -1.
         22    1    1    0    0    0  0.38343810842E+01 -0.27045435196E+02  0.10485301155E+02  0.29259179475E+02  0.00000000000E+00 0.  1.
</event>
<event>
 5    1  0.1681111E-003  0.9118800E+02  0.7818608E-02  0.1130116E+00
         25   -1    0    0    0    0  0.00000000000E+00  0.00000000000E+00  0.99999998245E-14  0.12500000000E+03  0.12500000000E+03 0.  0.
        -11    1    3    3    0    0 -0.21977145455E+02  0.31719358027E+02 -0.46313600584E+02  0.60283183354E+02  0.51100000000E-03 0.  1.
         23    2    1    0    0    0 -0.11936230647E+02  0.57115164499E+01 -0.29060224731E+02  0.93068954235E+02  0.87419897957E+02 0.  0.
         11    1    3    3    0    0  0.10040914808E+02 -0.26007841577E+02  0.17253375853E+02  0.32785770881E+02  0.51100000000E-03 0. -1.
         22    1    1    0    0    0  0.11936230647E+02 -0.57115164499E+01  0.29060224731E+02  0.31931045765E+02  0.00000000000E+00 0.  1.
</event>
<event>
 5    1  0.1681111E-003  0.9118800E+02  0.7818608E-02  0.1130116E+00
         25   -1    0    0    0    0  0.00000000000E+00  0.00000000000E+00  0.99999998245E-14  0.12500000000E+03  0.12500000000E+03 0.  0.
        -11    1    3    3    0    0  0.22198955993E+02 -0.45174204960E+02 -0.25410068209E+02  0.56384164511E+02  0.51100000000E-03 0. -1.
         23    2    1    0    0    0  0.19805060028E+02 -0.61464089686E+01 -0.20583144706E+02  0.95782118628E+02  0.91216937336E+02 0.  0.
         11    1    3    3    0    0 -0.23938959648E+01  0.39027795991E+02  0.48269235032E+01  0.39397954117E+02  0.51100000000E-03 0.  1.
         22    1    1    0    0    0 -0.19805060028E+02  0.61464089686E+01  0.20583144706E+02  0.29217881372E+02  0.00000000000E+00 0. -1.
</event>
<event>
 5    1  0.1681111E-003  0.9118800E+02  0.7818608E-02  0.1130116E+00
         25   -1    0    0    0    0  0.00000000000E+00  0.00000000000E+00  0.99999998245E-14  0.12500000000E+03  0.12500000000E+03 0.  0.
        -11    1    3    3    0    0 -0.43464623905E+02 -0.44597857265E+01  0.40871886178E+01  0.43883577007E+02  0.51100000000E-03 0.  1.
         23    2    1    0    0    0  0.39702493515E+01 -0.15233391806E+02  0.23879002939E+02  0.96398848150E+02  0.92058199186E+02 0.  0.
         11    1    3    3    0    0  0.47434873256E+02 -0.10773606079E+02  0.19791814321E+02  0.52515271142E+02  0.51100000000E-03 0. -1.
         22    1    1    0    0    0 -0.39702493515E+01  0.15233391806E+02 -0.23879002939E+02  0.28601151850E+02  0.00000000000E+00 0. -1.
</event>
<event>
 5    1  0.1681111E-003  0.9118800E+02  0.7818608E-02  0.1130116E+00
         25   -1    0    0    0    0  0.00000000000E+00  0.00000000000E+00  0.99999998245E-14  0.12500000000E+03  0.12500000000E+03 0.  0.
        -11    1    3    3    0    0 -0.45890335825E+02 -0.34336405078E+02 -0.16193832374E+02  0.59557970441E+02  0.51100000000E-03 0.  1.
         23    2    1    0    0    0 -0.10964941215E+02 -0.24747366617E+02 -0.49297755958E+01  0.97487007111E+02  0.93524070579E+02 0.  0.
         11    1    3    3    0    0  0.34925394611E+02  0.95890384613E+01  0.11264056778E+02  0.37929036670E+02  0.51100000000E-03 0. -1.
         22    1    1    0    0    0  0.10964941215E+02  0.24747366617E+02  0.49297755958E+01  0.27512992889E+02  0.00000000000E+00 0.  1.
</event>
<event>
 5    1  0.1681111E-003  0.9118800E+02  0.7818608E-02  0.1130116E+00
         25   -1    0    0    0    0  0.00000000000E+00  0.00000000000E+00  0.99999998245E-14  0.12500000000E+03  0.12500000000E+03 0.  0.
        -11    1    3    3    0    0 -0.52255130316E+02  0.26430012326E+01  0.28563049537E+02  0.59610669339E+02  0.51100000000E-03 0.  1.
         23    2    1    0    0    0 -0.16168142230E+02  0.57233457881E+01  0.23085198222E+02  0.96240794741E+02  0.91843337729E+02 0.  0.
         11    1    3    3    0    0  0.36086988086E+02  0.30803445555E+01 -0.54778513150E+01  0.36630125402E+02  0.51100000000E-03 0. -1.
         22    1    1    0    0    0  0.16168142230E+02 -0.57233457881E+01 -0.23085198222E+02  0.28759205259E+02  0.00000000000E+00 0.  1.
</event>
<event>
 5    1  0.1681111E-003  0.9118800E+02  0.7818608E-02  0.1130116E+00
         25   -1    0    0    0    0  0.00000000000E+00  0.00000000000E+00  0.99999998245E-14  0.12500000000E+03  0.12500000000E+03 0.  0.
        -11    1    3    3    0    0  0.41296377276E+02 -0.34447098245E+02  0.25128206944E+02  0.59358404107E+02  0.51100000000E-03 0. -1.
         23    2    1    0    0    0  0.17799174972E+02 -0.24313075379E+02  0.51513833544E+00  0.94863616149E+02  0.89949452679E+02 0.  0.
         11    1    3    3    0    0 -0.23497202304E+02  0.10134022866E+02 -0.24613068609E+02  0.35505212042E+02  0.51100000000E-03 0.  1.
         22    1    1    0    0    0 -0.17799174972E+02  0.24313075379E+02 -0.51513833544E+00  0.30136383851E+02  0.00000000000E+00 0. -1.
</event>
<event>
 5    1  0.1681111E-003  0.9118800E+02  0.7818608E-02  0.1130116E+00
         25   -1    0    0    0    0  0.00000000000E+00  0.00000000000E+00  0.99999998245E-14  0.12500000000E+03  0.12500000000E+03 0.  0.
        -11    1    3    3    0    0  0.35759774745E+02 -0.86006211168E+01 -0.89260119700E+01  0.37847138113E+02  0.51100000000E-03 0. -1.
         23    2    1    0    0    0 -0.20210440361E+02 -0.20421055190E+02 -0.84429646785E+01  0.95053964415E+02  0.90213586027E+02 0.  0.
         11    1    3    3    0    0 -0.55970215106E+02 -0.11820434074E+02  0.48304729151E+00  0.57206826303E+02  0.51100000000E-03 0.  1.
         22    1    1    0    0    0  0.20210440361E+02  0.20421055190E+02  0.84429646785E+01  0.29946035585E+02  0.00000000000E+00 0.  1.
</event>
<event>
 5    1  0.1681111E-003  0.9118800E+02  0.7818608E-02  0.1130116E+00
         25   -1    0    0    0    0  0.00000000000E+00  0.00000000000E+00  0.99999998245E-14  0.12500000000E+03  0.12500000000E+03 0.  0.
        -11    1    3    3    0    0 -0.16110082278E+02 -0.21943084963E+02  0.41980112340E+02  0.50033624305E+02  0.51100000000E-03 0.  1.
         23    2    1    0    0    0 -0.27778422520E+00  0.16226844092E+02  0.26023643141E+02  0.94330509695E+02  0.89205534715E+02 0.  0.
         11    1    3    3    0    0  0.15832298053E+02  0.38169929055E+02 -0.15956469199E+02  0.44296885390E+02  0.51100000000E-03 0. -1.
         22    1    1    0    0    0  0.27778422520E+00 -0.16226844092E+02 -0.26023643141E+02  0.30669490305E+02  0.00000000000E+00 0. -1.
</event>
<event>
 5    1  0.1681111E-003  0.9118800E+02  0.7818608E-02  0.1130116E+00
         25   -1    0    0    0    0  0.00000000000E+00  0.00000000000E+00  0.99999998245E-14  0.12500000000E+03  0.12500000000E+03 0.  0.
        -11    1    3    3    0    0 -0.10687320700E+02  0.45200393949E+02 -0.15651266168E+02  0.49012820463E+02  0.51100000000E-03 0.  1.
         23    2    1    0    0    0  0.23700480190E+02  0.20800963338E+02 -0.17205540270E+01  0.93419101609E+02  0.87919141274E+02 0.  0.
         11    1    3    3    0    0  0.34387800890E+02 -0.24399430611E+02  0.13930712141E+02  0.44406281146E+02  0.51100000000E-03 0. -1.
         22    1    1    0    0    0 -0.23700480190E+02 -0.20800963338E+02  0.17205540270E+01  0.31580898391E+02  0.00000000000E+00 0. -1.
</event>
<event>
 5    1  0.1681111E-003  0.9118800E+02  0.7818608E-02  0.1130116E+00
         25   -1    0    0    0    0  0.00000000000E+00  0.00000000000E+00  0.99999998245E-14  0.12500000000E+03  0.12500000000E+03 0.  0.
        -11    1    3    3    0    0  0.20979945365E+02  0.18860923676E+02  0.19087169774E+02  0.34061893659E+02  0.51100000000E-03 0. -1.
         23    2    1    0    0    0  0.78493910908E+01 -0.18347783236E+02 -0.24858440788E+02  0.93122168070E+02  0.87495954292E+02 0.  0.
         11    1    3    3    0    0 -0.13130554274E+02 -0.37208706911E+02 -0.43945610562E+02  0.59060274411E+02  0.51100000000E-03 0.  1.
         22    1    1    0    0    0 -0.78493910908E+01  0.18347783236E+02  0.24858440788E+02  0.31877831930E+02  0.00000000000E+00 0.  1.
</event>
<event>
 5    1  0.1681111E-003  0.9118800E+02  0.7818608E-02  0.1130116E+00
         25   -1    0    0    0    0  0.00000000000E+00  0.00000000000E+00  0.99999998245E-14  0.12500000000E+03  0.12500000000E+03 0.  0.
        -11    1    3    3    0    0  0.91132432423E+01  0.33305641471E+02 -0.20526373824E+02  0.40170249923E+02  0.51100000000E-03 0.  1.
         23    2    1    0    0    0 -0.73621286184E+01  0.10937374487E+02  0.26848040293E+02  0.95089393753E+02  0.90262663589E+02 0.  0.
         11    1    3    3    0    0 -0.16475371861E+02 -0.22368266984E+02  0.47374414118E+02  0.54919143830E+02  0.51100000000E-03 0. -1.
         22    1    1    0    0    0  0.73621286184E+01 -0.10937374487E+02 -0.26848040293E+02  0.29910606247E+02  0.00000000000E+00 0.  1.
</event>
<event>
 5    1  0.1681111E-003  0.9118800E+02  0.7818608E-02  0.1130116E+00
         25   -1    0    0    0    0  0.00000000000E+00  0.00000000000E+00  0.99999998245E-14  0.12500000000E+03  0.12500000000E+03 0.  0.
        -11    1    3    3    0    0 -0.54863367242E+02 -0.25765498166E+01  0.22239778408E+02  0.59255678361E+02  0.51100000000E-03 0.  1.
         23    2    1    0    0    0 -0.20987225661E+02  0.10894288471E+02  0.16512047200E+02  0.96159111232E+02  0.91732098024E+02 0.  0.
         11    1    3    3    0    0  0.33876141581E+02  0.13470838288E+02 -0.57277312082E+01  0.36903432871E+02  0.51100000000E-03 0. -1.
         22    1    1    0    0    0  0.20987225661E+02 -0.10894288471E+02 -0.16512047200E+02  0.28840888768E+02  0.00000000000E+00 0.  1.
</event>
<event>
 5    1  0.1681111E-003  0.9118800E+02  0.7818608E-02  0.1130116E+00
         25   -1    0    0    0    0  0.00000000000E+00  0.00000000000E+00  0.99999998245E-14  0.12500000000E+03  0.12500000000E+03 0.  0.
        -11    1    3    3    0    0 -0.22374742902E+02 -0.42818490669E+02 -0.25499463441E+02  0.54628517270E+02  0.51100000000E-03 0.  1.
         23    2    1    0    0    0 -0.26730253300E+02 -0.46638307677E+01 -0.11947927413E+02  0.95351884910E+02  0.90625444703E+02 0.  0.
         11    1    3    3    0    0 -0.43555103980E+01  0.38154659901E+02  0.13551536028E+02  0.40723367640E+02  0.51100000000E-03 0. -1.
         22    1    1    0    0    0  0.26730253300E+02  0.46638307677E+01  0.11947927413E+02  0.29648115090E+02  0.00000000000E+00 0.  1.
</event>
<event>
 5    1  0.1681111E-003  0.9118800E+02  0.7818608E-02  0.1130116E+00
         25   -1    0    0    0    0  0.00000000000E+00  0.00000000000E+00  0.99999998245E-14  0.12500000000E+03  0.12500000000E+03 0.  0.
        -11    1    3    3    0    0  0.39861585493E+02  0.21485201534E+02 -0.36065848010E+02  0.57890459283E+02  0.51100000000E-03 0. -1.
         23    2    1    0    0    0  0.25596190035E+02 -0.41011134049E+01 -0.96395754514E+01  0.97343075183E+02  0.93331499483E+02 0.  0.
         11    1    3    3    0    0 -0.14265395458E+02 -0.25586314939E+02  0.26426272559E+02  0.39452615900E+02  0.51100000000E-03 0.  1.
         22    1    1    0    0    0 -0.25596190035E+02  0.41011134049E+01  0.96395754514E+01  0.27656924817E+02  0.00000000000E+00 0. -1.
</event>
<event>
 5    1  0.1681111E-003  0.9118800E+02  0.7818608E-02  0.1130116E+00
         25   -1    0    0    0    0  0.00000000000E+00  0.00000000000E+00  0.99999998245E-14  0.12500000000E+03  0.12500000000E+03 0.  0.
        -11    1    3    3    0    0  0.14703662612E+02 -0.76556193187E+01 -0.50620207401E+02  0.53265482247E+02  0.51100000000E-03 0.  1.
         23    2    1    0    0    0  0.21720252208E+02  0.12753678247E+02 -0.12954441595E+02  0.96676101578E+02  0.92433897432E+02 0.  0.
         11    1    3    3    0    0  0.70165895956E+01  0.20409297565E+02  0.37665765806E+02  0.43410619331E+02  0.51100000000E-03 0. -1.
         22    1    1    0    0    0 -0.21720252208E+02 -0.12753678247E+02  0.12954441595E+02  0.28323898422E+02  0.00000000000E+00 0.  1.
</event>
<event>
 5    1  0.1681111E-003  0.9118800E+02  0.7818608E-02  0.1130116E+00
         25   -1    0    0    0    0  0.00000000000E+00  0.00000000000E+00  0.99999998245E-14  0.12500000000E+03  0.12500000000E+03 0.  0.
        -11    1    3    3    0    0 -0.11198606158E+01 -0.12819812293E+02 -0.50211852939E+02  0.51834658780E+02  0.51100000000E-03 0.  1.
         23    2    1    0    0    0  0.38746856079E+01 -0.26017953599E+02 -0.63098174350E+01  0.97948920648E+02  0.94139418747E+02 0.  0.
         11    1    3    3    0    0  0.49945462236E+01 -0.13198141306E+02  0.43902035504E+02  0.46114261868E+02  0.51100000000E-03 0. -1.
         22    1    1    0    0    0 -0.38746856079E+01  0.26017953599E+02  0.63098174350E+01  0.27051079352E+02  0.00000000000E+00 0. -1.
</event>
<event>
 5    1  0.1681111E-003  0.9118800E+02  0.7818608E-02  0.1130116E+00
         25   -1    0    0    0    0  0.00000000000E+00  0.00000000000E+00  0.99999998245E-14  0.12500000000E+03  0.12500000000E+03 0.  0.
        -11    1    3    3    0    0 -0.30227377180E+02  0.48136649252E+02 -0.34656899125E+01  0.56945959815E+02  0.51100000000E-03 0. -1.
         23    2    1    0    0    0 -0.89418991935E+01  0.23815897332E+02  0.16258494076E+02  0.94809055057E+02  0.89873598817E+02 0.  0.
         11    1    3    3    0    0  0.21285477986E+02 -0.24320751920E+02  0.19724183988E+02  0.37863095242E+02  0.51100000000E-03 0.  1.
         22    1    1    0    0    0  0.89418991935E+01 -0.23815897332E+02 -0.16258494076E+02  0.30190944943E+02  0.00000000000E+00 0. -1.
</event>
<event>
 5    1  0.1681111E-003  0.9118800E+02  0.7818608E-02  0.1130116E+00
         25   -1    0    0    0    0  0.00000000000E+00  0.00000000000E+00  0.99999998245E-14  0.12500000000E+03  0.12500000000E+03 0.  0.
        -11    1    3    3    0    0  0.48147903318E+02 -0.13053596331E+02  0.41883235729E+01  0.50061552370E+02  0.51100000000E-03 0. -1.
         23    2    1    0    0    0  0.18772332506E+02  0.21821496169E+02 -0.23188118706E+01  0.96121720078E+02  0.91681132298E+02 0.  0.
         11    1    3    3    0    0 -0.29375570811E+02  0.34875092500E+02 -0.65071354435E+01  0.46060167708E+02  0.51100000000E-03 0.  1.
         22    1    1    0    0    0 -0.18772332506E+02 -0.21821496169E+02  0.23188118706E+01  0.28878279922E+02  0.00000000000E+00 0. -1.
</event>
<event>
 5    1  0.1681111E-003  0.9118800E+02  0.7818608E-02  0.1130116E+00
         25   -1    0    0    0    0  0.00000000000E+00  0.00000000000E+00  0.99999998245E-14  0.12500000000E+03  0.12500000000E+03 0.  0.
        -11    1    3    3    0    0 -0.38408887132E+02  0.21113991556E+02  0.81391515128E+01  0.44579020153E+02  0.51100000000E-03 0. -1.
         23    2    1    0    0    0 -0.13839159975E+02 -0.24274290117E+02  0.69594963295E+01  0.96204199983E+02  0.91793518266E+02 0.  0.
         11    1    3    3    0    0  0.24569727158E+02 -0.45388281673E+02 -0.11796551833E+01  0.51625179830E+02  0.51100000000E-03 0.  1.
         22    1    1    0    0    0  0.13839159975E+02  0.24274290117E+02 -0.69594963295E+01  0.28795800017E+02  0.00000000000E+00 0.  1.
</event>
<event>
 5    1  0.1681111E-003  0.9118800E+02  0.7818608E-02  0.1130116E+00
         25   -1    0    0    0    0  0.00000000000E+00  0.00000000000E+00  0.99999998245E-14  0.12500000000E+03  0.12500000000E+03 0.  0.
        -11    1    3    3    0    0  0.17212366541E+02  0.54736524301E+02  0.23985037033E+02  0.62190309987E+02  0.51100000000E-03 0.  1.
         23    2    1    0    0    0  0.72920269224E+01  0.28310596083E+02  0.77388361435E+01  0.94758421138E+02  0.89803147409E+02 0.  0.
         11    1    3    3    0    0 -0.99203396185E+01 -0.26425928218E+02 -0.16246200890E+02  0.32568111151E+02  0.51100000000E-03 0. -1.
         22    1    1    0    0    0 -0.72920269224E+01 -0.28310596083E+02 -0.77388361435E+01  0.30241578862E+02  0.00000000000E+00 0.  1.
</event>
<event>
 5    1  0.1681111E-003  0.9118800E+02  0.7818608E-02  0.1130116E+00
         25   -1    0    0    0    0  0.00000000000E+00  0.00000000000E+00  0.99999998245E-14  0.12500000000E+03  0.12500000000E+03 0.  0.
        -11    1    3    3    0    0 -0.45295445929E+02 -0.28594966331E+01 -0.89480871162E+01  0.46259295349E+02  0.51100000000E-03 0. -1.
         23    2    1    0    0    0 -0.10022317542E+02  0.10251548341E+02  0.24504436169E+02  0.96609711444E+02  0.92344073232E+02 0.  0.
         11    1    3    3    0    0  0.35273128387E+02  0.13111044974E+02  0.33452523286E+02  0.50350416095E+02  0.51100000000E-03 0.  1.
         22    1    1    0    0    0  0.10022317542E+02 -0.10251548341E+02 -0.24504436169E+02  0.28390288556E+02  0.00000000000E+00 0.  1.
</event>
<event>
 5    1  0.1681111E-003  0.9118800E+02  0.7818608E-02  0.1130116E+00
         25   -1    0    0    0    0  0.00000000000E+00  0.00000000000E+00  0.99999998245E-14  0.12500000000E+03  0.12500000000E+03 0.  0.
        -11    1    3    3    0    0 -0.28915731986E+02  0.16429554230E+02 -0.24544689728E+02  0.41333903790E+02  0.51100000000E-03 0. -1.
         23    2    1    0    0    0 -0.83969907209E+01 -0.26163633858E+02  0.49810681984E+01  0.97074093923E+02  0.92970551685E+02 0.  0.
         11    1    3    3    0    0  0.20518741265E+02 -0.42593188088E+02  0.29525757926E+02  0.55740190132E+02  0.51100000000E-03 0.  1.
         22    1    1    0    0    0  0.83969907209E+01  0.26163633858E+02 -0.49810681984E+01  0.27925906077E+02  0.00000000000E+00 0.  1.
</event>
<event>
 5    1  0.1681111E-003  0.9118800E+02  0.7818608E-02  0.1130116E+00
         25   -1    0    0    0    0  0.00000000000E+00  0.00000000000E+00  0.99999998245E-14  0.12500000000E+03  0.12500000000E+03 0.  0.
        -11    1    3    3    0    0 -0.33458801368E+02 -0.20579045248E+02 -0.46759764088E+02  0.61069337888E+02  0.51100000000E-03 0.  1.
         23    2    1    0    0    0 -0.61091512679E+01  0.35321395275E+01 -0.90643123800E+01  0.11351263748E+03  0.11292988696E+03 0.  0.
         11    1    3    3    0    0  0.27349650100E+02  0.24111184776E+02  0.37695451708E+02  0.52443299587E+02  0.51100000000E-03 0. -1.
         22    1    1    0    0    0  0.61091512679E+01 -0.35321395275E+01  0.90643123800E+01  0.11487362525E+02  0.00000000000E+00 0.  1.
</event>
<event>
 5    1  0.1681111E-003  0.9118800E+02  0.7818608E-02  0.1130116E+00
         25   -1    0    0    0    0  0.00000000000E+00  0.00000000000E+00  0.99999998245E-14  0.12500000000E+03  0.12500000000E+03 0.  0.
        -11    1    3    3    0    0  0.32178519675E+02  0.12579476987E+02 -0.23644883796E+02  0.41866226242E+02  0.51100000000E-03 0. -1.
         23    2    1    0    0    0  0.81188301872E+01  0.16881417394E+02  0.23486548746E+02  0.94958102110E+02  0.90080661229E+02 0.  0.
         11    1    3    3    0    0 -0.24059689488E+02  0.43019404066E+01  0.47131432542E+02  0.53091875868E+02  0.51100000000E-03 0.  1.
         22    1    1    0    0    0 -0.81188301872E+01 -0.16881417394E+02 -0.23486548746E+02  0.30041897890E+02  0.00000000000E+00 0.  1.
</event>
<event>
 5    1  0.1681111E-003  0.9118800E+02  0.7818608E-02  0.1130116E+00
         25   -1    0    0    0    0  0.00000000000E+00  0.00000000000E+00  0.99999998245E-14  0.12500000000E+03  0.12500000000E+03 0.  0.
        -11    1    3    3    0    0 -0.23702292948E+02  0.45898432658E+02 -0.32287008693E+02  0.60917286069E+02  0.51100000000E-03 0. -1.
         23    2    1    0    0    0 -0.86984090263E+01  0.15723794096E+02 -0.22884770681E+02  0.95903389382E+02  0.91382970763E+02 0.  0.
         11    1    3    3    0    0  0.15003883921E+02 -0.30174638562E+02  0.94022380123E+01  0.34986103312E+02  0.51100000000E-03 0.  1.
         22    1    1    0    0    0  0.86984090263E+01 -0.15723794096E+02  0.22884770681E+02  0.29096610618E+02  0.00000000000E+00 0. -1.
</event>
<event>
 5    1  0.1681111E-003  0.9118800E+02  0.7818608E-02  0.1130116E+00
         25   -1    0    0    0    0  0.00000000000E+00  0.00000000000E+00  0.99999998245E-14  0.12500000000E+03  0.12500000000E+03 0.  0.
        -11    1    3    3    0    0 -0.13684500087E+02 -0.27166512042E+02  0.45114003207E+02  0.54411011798E+02  0.51100000000E-03 0.  1.
         23    2    1    0    0    0 -0.25673627259E+02 -0.68397585829E+01  0.10226054883E+02  0.96530900391E+02  0.92237330283E+02 0.  0.
         11    1    3    3    0    0 -0.11989127171E+02  0.20326753459E+02 -0.34887948325E+02  0.42119888593E+02  0.51100000000E-03 0. -1.
         22    1    1    0    0    0  0.25673627259E+02  0.68397585829E+01 -0.10226054883E+02  0.28469099609E+02  0.00000000000E+00 0.  1.
</event>
<event>
 5    1  0.1681111E-003  0.9118800E+02  0.7818608E-02  0.1130116E+00
         25   -1    0    0    0    0  0.00000000000E+00  0.00000000000E+00  0.99999998245E-14  0.12500000000E+03  0.12500000000E+03 0.  0.
        -11    1    3    3    0    0  0.41561934143E+02  0.11774795464E+02  0.59761986547E+01  0.43609117493E+02  0.51100000000E-03 0. -1.
         23    2    1    0    0    0 -0.60683660390E+01  0.74529021759E+01  0.27362266448E+02  0.95998888946E+02  0.91513508492E+02 0.  0.
         11    1    3    3    0    0 -0.47630300182E+02 -0.43218932882E+01  0.21386067793E+02  0.52389771453E+02  0.51100000000E-03 0.  1.
         22    1    1    0    0    0  0.60683660390E+01 -0.74529021759E+01 -0.27362266448E+02  0.29001111054E+02  0.00000000000E+00 0.  1.
</event>
<event>
 5    1  0.1681111E-003  0.9118800E+02  0.7818608E-02  0.1130116E+00
         25   -1    0    0    0    0  0.00000000000E+00  0.00000000000E+00  0.99999998245E-14  0.12500000000E+03  0.12500000000E+03 0.  0.
        -11    1    3    3    0    0 -0.32543509282E+02  0.30697156693E+02  0.39898039810E+02  0.59943715320E+02  0.51100000000E-03 0. -1.
         23    2    1    0    0    0 -0.22969444980E+02  0.45088819005E+01  0.20175702362E+02  0.94097178374E+02  0.88877975862E+02 0.  0.
         11    1    3    3    0    0  0.95740643023E+01 -0.26188274793E+02 -0.19722337448E+02  0.34153463053E+02  0.51100000000E-03 0.  1.
         22    1    1    0    0    0  0.22969444980E+02 -0.45088819005E+01 -0.20175702362E+02  0.30902821626E+02  0.00000000000E+00 0. -1.
</event>
<event>
 5    1  0.1681111E-003  0.9118800E+02  0.7818608E-02  0.1130116E+00
         25   -1    0    0    0    0  0.00000000000E+00  0.00000000000E+00  0.99999998245E-14  0.12500000000E+03  0.12500000000E+03 0.  0.
        -11    1    3    3    0    0 -0.40628037644E+02  0.22662661883E+02 -0.21756386633E+02  0.51357317356E+02  0.51100000000E-03 0. -1.
         23    2    1    0    0    0 -0.11573646282E+02 -0.90939939549E+01 -0.26526802474E+02  0.94663202809E+02  0.89670511888E+02 0.  0.
         11    1    3    3    0    0  0.29054391361E+02 -0.31756655838E+02 -0.47704158406E+01  0.43305885454E+02  0.51100000000E-03 0.  1.
         22    1    1    0    0    0  0.11573646282E+02  0.90939939549E+01  0.26526802474E+02  0.30336797191E+02  0.00000000000E+00 0.  1.
</event>
<event>
 5    1  0.1681111E-003  0.9118800E+02  0.7818608E-02  0.1130116E+00
         25   -1    0    0    0    0  0.00000000000E+00  0.00000000000E+00  0.99999998245E-14  0.12500000000E+03  0.12500000000E+03 0.  0.
        -11    1    3    3    0    0 -0.39974427484E+02  0.10954317849E+02  0.31146185661E+01  0.41565042780E+02  0.51100000000E-03 0.  1.
         23    2    1    0    0    0 -0.37555034344E+00 -0.17063214719E+02  0.24957825231E+02  0.94764468338E+02  0.89811564314E+02 0.  0.
         11    1    3    3    0    0  0.39598877141E+02 -0.28017532569E+02  0.21843206665E+02  0.53199425558E+02  0.51100000000E-03 0. -1.
         22    1    1    0    0    0  0.37555034344E+00  0.17063214719E+02 -0.24957825231E+02  0.30235531662E+02  0.00000000000E+00 0. -1.
</event>
<event>
 5    1  0.1681111E-003  0.9118800E+02  0.7818608E-02  0.1130116E+00
         25   -1    0    0    0    0  0.00000000000E+00  0.00000000000E+00  0.99999998245E-14  0.12500000000E+03  0.12500000000E+03 0.  0.
        -11    1    3    3    0    0 -0.24456694379E+02 -0.16859655465E+02  0.23257000322E+02  0.37726197086E+02  0.51100000000E-03 0. -1.
         23    2    1    0    0    0  0.41774724715E+01 -0.11704567894E+02 -0.26706494327E+02  0.95543506232E+02  0.90889364384E+02 0.  0.
         11    1    3    3    0    0  0.28634166850E+02  0.51550875711E+01 -0.49963494649E+02  0.57817309146E+02  0.51100000000E-03 0.  1.
         22    1    1    0    0    0 -0.41774724715E+01  0.11704567894E+02  0.26706494327E+02  0.29456493768E+02  0.00000000000E+00 0.  1.
</event>
<event>
 5    1  0.1681111E-003  0.9118800E+02  0.7818608E-02  0.1130116E+00
         25   -1    0    0    0    0  0.00000000000E+00  0.00000000000E+00  0.99999998245E-14  0.12500000000E+03  0.12500000000E+03 0.  0.
        -11    1    3    3    0    0 -0.12848380291E+02  0.49491029484E+02 -0.28956096588E+02  0.58761368307E+02  0.51100000000E-03 0. -1.
         23    2    1    0    0    0 -0.26759898921E+01  0.29288330909E+02  0.10733661414E+00  0.95589478575E+02  0.90952568099E+02 0.  0.
         11    1    3    3    0    0  0.10172390399E+02 -0.20202698575E+02  0.29063433202E+02  0.36828110268E+02  0.51100000000E-03 0.  1.
         22    1    1    0    0    0  0.26759898921E+01 -0.29288330909E+02 -0.10733661414E+00  0.29410521425E+02  0.00000000000E+00 0. -1.
</event>
<event>
 5    1  0.1681111E-003  0.9118800E+02  0.7818608E-02  0.1130116E+00
         25   -1    0    0    0    0  0.00000000000E+00  0.00000000000E+00  0.99999998245E-14  0.12500000000E+03  0.12500000000E+03 0.  0.
        -11    1    3    3    0    0 -0.24537058510E+02 -0.50926239887E+02  0.22608050992E+02  0.60882453296E+02  0.51100000000E-03 0.  1.
         23    2    1    0    0    0 -0.16592154504E+02 -0.17376645480E+02  0.16389553321E+02  0.95916244099E+02  0.91400552651E+02 0.  0.
         11    1    3    3    0    0  0.79449040058E+01  0.33549594407E+02 -0.62184976713E+01  0.35033790804E+02  0.51100000000E-03 0. -1.
         22    1    1    0    0    0  0.16592154504E+02  0.17376645480E+02 -0.16389553321E+02  0.29083755901E+02  0.00000000000E+00 0.  1.
</event>
<event>
 5    1  0.1681111E-003  0.9118800E+02  0.7818608E-02  0.1130116E+00
         25   -1    0    0    0    0  0.00000000000E+00  0.00000000000E+00  0.99999998245E-14  0.12500000000E+03  0.12500000000E+03 0.  0.
        -11    1    3    3    0    0  0.50012878418E+02  0.38347013962E+01  0.18285056264E+02  0.53388540206E+02  0.51100000000E-03 0.  1.
         23    2    1    0    0    0  0.14188146837E+02  0.24145132910E+02  0.87513458799E+01  0.95659294340E+02  0.91048468329E+02 0.  0.
         11    1    3    3    0    0 -0.35824731581E+02  0.20310431513E+02 -0.95337103839E+01  0.42270754134E+02  0.51100000000E-03 0. -1.
         22    1    1    0    0    0 -0.14188146837E+02 -0.24145132910E+02 -0.87513458799E+01  0.29340705660E+02  0.00000000000E+00 0.  1.
</event>
<event>
 5    1  0.1681111E-003  0.9118800E+02  0.7818608E-02  0.1130116E+00
         25   -1    0    0    0    0  0.00000000000E+00  0.00000000000E+00  0.99999998245E-14  0.12500000000E+03  0.12500000000E+03 0.  0.
        -11    1    3    3    0    0  0.31834403671E+02  0.26244574885E+02 -0.11352187724E+02  0.42791110460E+02  0.51100000000E-03 0. -1.
         23    2    1    0    0    0  0.14580194455E+02 -0.23943255570E+02 -0.48870049929E+00  0.96962518198E+02  0.92820415586E+02 0.  0.
         11    1    3    3    0    0 -0.17254209217E+02 -0.50187830455E+02  0.10863487225E+02  0.54171407738E+02  0.51100000000E-03 0.  1.
         22    1    1    0    0    0 -0.14580194455E+02  0.23943255570E+02  0.48870049929E+00  0.28037481802E+02  0.00000000000E+00 0.  1.
</event>
<event>
 5    1  0.1681111E-003  0.9118800E+02  0.7818608E-02  0.1130116E+00
         25   -1    0    0    0    0  0.00000000000E+00  0.00000000000E+00  0.99999998245E-14  0.12500000000E+03  0.12500000000E+03 0.  0.
        -11    1    3    3    0    0  0.17565710230E+02  0.21033990346E+02  0.35084254058E+01  0.27627739228E+02  0.51100000000E-03 0.  1.
         23    2    1    0    0    0 -0.33484838163E+02 -0.12173673146E+02  0.72399479948E+01  0.88642751044E+02  0.80843600619E+02 0.  0.
         11    1    3    3    0    0 -0.51050548393E+02 -0.33207663492E+02  0.37315225890E+01  0.61015011816E+02  0.51100000000E-03 0. -1.
         22    1    1    0    0    0  0.33484838163E+02  0.12173673146E+02 -0.72399479948E+01  0.36357248956E+02  0.00000000000E+00 0. -1.
</event>
<event>
 5    1  0.1681111E-003  0.9118800E+02  0.7818608E-02  0.1130116E+00
         25   -1    0    0    0    0  0.00000000000E+00  0.00000000000E+00  0.99999998245E-14  0.12500000000E+03  0.12500000000E+03 0.  0.
        -11    1    3    3    0    0 -0.40525930869E+02  0.52551244097E+01  0.13238108130E+02  0.42955964807E+02  0.51100000000E-03 0.  1.
         23    2    1    0    0    0 -0.50522221344E+01 -0.27050683846E+02 -0.92825534866E+01  0.95958129464E+02  0.91457817413E+02 0.  0.
         11    1    3    3    0    0  0.35473708735E+02 -0.32305808255E+02 -0.22520661617E+02  0.53002164657E+02  0.51100000000E-03 0. -1.
         22    1    1    0    0    0  0.50522221344E+01  0.27050683846E+02  0.92825534866E+01  0.29041870536E+02  0.00000000000E+00 0. -1.
</event>
<event>
 5    1  0.1681111E-003  0.9118800E+02  0.7818608E-02  0.1130116E+00
         25   -1    0    0    0    0  0.00000000000E+00  0.00000000000E+00  0.99999998245E-14  0.12500000000E+03  0.12500000000E+03 0.  0.
        -11    1    3    3    0    0 -0.31372029635E+02 -0.80743390265E+01  0.93791001174E+01  0.33724867878E+02  0.51100000000E-03 0.  1.
         23    2    1    0    0    0  0.23337773057E+02 -0.30385914444E+01 -0.18246622557E+02  0.95220410950E+02  0.90443920402E+02 0.  0.
         11    1    3    3    0    0  0.54709802691E+02  0.50357475821E+01 -0.27625722675E+02  0.61495543073E+02  0.51100000000E-03 0. -1.
         22    1    1    0    0    0 -0.23337773057E+02  0.30385914444E+01  0.18246622557E+02  0.29779589050E+02  0.00000000000E+00 0. -1.
</event>
<event>
 5    1  0.1681111E-003  0.9118800E+02  0.7818608E-02  0.1130116E+00
         25   -1    0    0    0    0  0.00000000000E+00  0.00000000000E+00  0.99999998245E-14  0.12500000000E+03  0.12500000000E+03 0.  0.
        -11    1    3    3    0    0  0.31675315478E+02 -0.39254905808E+02  0.34334991793E+02  0.61017742520E+02  0.51100000000E-03 0.  1.
         23    2    1    0    0    0  0.45792273910E+01 -0.10357095897E+02  0.17709924130E+02  0.10397905398E+03  0.10183203570E+03 0.  0.
         11    1    3    3    0    0 -0.27096088087E+02  0.28897809911E+02 -0.16625067663E+02  0.42961311459E+02  0.51100000000E-03 0. -1.
         22    1    1    0    0    0 -0.45792273910E+01  0.10357095897E+02 -0.17709924130E+02  0.21020946021E+02  0.00000000000E+00 0.  1.
</event>
<event>
 5    1  0.1681111E-003  0.9118800E+02  0.7818608E-02  0.1130116E+00
         25   -1    0    0    0    0  0.00000000000E+00  0.00000000000E+00  0.99999998245E-14  0.12500000000E+03  0.12500000000E+03 0.  0.
        -11    1    3    3    0    0  0.32733034344E+02 -0.20680178413E+02  0.31852953861E+02  0.50137131813E+02  0.51100000000E-03 0.  1.
         23    2    1    0    0    0  0.20158720210E+02  0.15156508083E+02 -0.11449589318E+00  0.99778841282E+02  0.96538646771E+02 0.  0.
         11    1    3    3    0    0 -0.12574314134E+02  0.35836686496E+02 -0.31967449754E+02  0.49641709468E+02  0.51100000000E-03 0. -1.
         22    1    1    0    0    0 -0.20158720210E+02 -0.15156508083E+02  0.11449589318E+00  0.25221158718E+02  0.00000000000E+00 0.  1.
</event>
<event>
 4    1  0.1681111E-003  0.9118800E+02  0.7818608E-02  0.1130116E+00
         25   -1    0    0    0    0  0.00000000000E+00  0.00000000000E+00  0.99999998245E-14  0.12500000000E+03  0.12500000000E+03 0.  0.
        -11    1    1    0    0    0 -0.16374689268E+02  0.22650882327E+02 -0.34887013533E+02  0.44702311264E+02  0.51100000000E-03 0. -1.
         11    1    1    0    0    0 -0.14585213346E+02 -0.17297083717E+02 -0.10623091844E+02  0.24995352249E+02  0.51100000000E-03 0.  1.
         22    1    1    0    0    0  0.30959902615E+02 -0.53537986100E+01  0.45510105377E+02  0.55302336487E+02  0.00000000000E+00 0. -1.
</event>
<event>
 5    1  0.1681111E-003  0.9118800E+02  0.7818608E-02  0.1130116E+00
         25   -1    0    0    0    0  0.00000000000E+00  0.00000000000E+00  0.99999998245E-14  0.12500000000E+03  0.12500000000E+03 0.  0.
        -11    1    3    3    0    0  0.88126823142E+01 -0.24499631277E+02 -0.47021358780E+02  0.53748520762E+02  0.51100000000E-03 0.  1.
         23    2    1    0    0    0 -0.12439238168E+02 -0.24440693112E+02 -0.11247096883E+02  0.95359161377E+02  0.90635480604E+02 0.  0.
         11    1    3    3    0    0 -0.21251920482E+02  0.58938165586E-01  0.35774261897E+02  0.41610640615E+02  0.51100000000E-03 0. -1.
         22    1    1    0    0    0  0.12439238168E+02  0.24440693112E+02  0.11247096883E+02  0.29640838623E+02  0.00000000000E+00 0.  1.
</event>
<event>
 5    1  0.1681111E-003  0.9118800E+02  0.7818608E-02  0.1130116E+00
         25   -1    0    0    0    0  0.00000000000E+00  0.00000000000E+00  0.99999998245E-14  0.12500000000E+03  0.12500000000E+03 0.  0.
        -11    1    3    3    0    0 -0.17555080983E+02  0.23725669604E+02  0.24602952059E+02  0.38423866500E+02  0.51100000000E-03 0.  1.
         23    2    1    0    0    0 -0.98855439246E+01 -0.28033013245E+02  0.26811453755E+01  0.95154357926E+02  0.90352584255E+02 0.  0.
         11    1    3    3    0    0  0.76695370587E+01 -0.51758682849E+02 -0.21921806684E+02  0.56730491427E+02  0.51100000000E-03 0. -1.
         22    1    1    0    0    0  0.98855439246E+01  0.28033013245E+02 -0.26811453755E+01  0.29845642074E+02  0.00000000000E+00 0. -1.
</event>
<event>
 5    1  0.1681111E-003  0.9118800E+02  0.7818608E-02  0.1130116E+00
         25   -1    0    0    0    0  0.00000000000E+00  0.00000000000E+00  0.99999998245E-14  0.12500000000E+03  0.12500000000E+03 0.  0.
        -11    1    3    3    0    0 -0.62723127690E+01 -0.68861298940E+01 -0.45198379826E+02  0.46148176904E+02  0.51100000000E-03 0. -1.
         23    2    1    0    0    0 -0.28021664484E+02  0.48905447532E+01 -0.13115411687E+01  0.96524550071E+02  0.92228723930E+02 0.  0.
         11    1    3    3    0    0 -0.21749351715E+02  0.11776674647E+02  0.43886838658E+02  0.50376373166E+02  0.51100000000E-03 0.  1.
         22    1    1    0    0    0  0.28021664484E+02 -0.48905447532E+01  0.13115411687E+01  0.28475449929E+02  0.00000000000E+00 0.  1.
</event>
<event>
 5    1  0.1681111E-003  0.9118800E+02  0.7818608E-02  0.1130116E+00
         25   -1    0    0    0    0  0.00000000000E+00  0.00000000000E+00  0.99999998245E-14  0.12500000000E+03  0.12500000000E+03 0.  0.
        -11    1    3    3    0    0  0.37669474820E+02 -0.15474189330E+02  0.49543085600E+01  0.41024200689E+02  0.51100000000E-03 0. -1.
         23    2    1    0    0    0 -0.10696405296E+00  0.17655679847E+02 -0.20988980912E+02  0.97572426431E+02  0.93638168541E+02 0.  0.
         11    1    3    3    0    0 -0.37776438873E+02  0.33129869177E+02 -0.25943289472E+02  0.56548225741E+02  0.51100000000E-03 0.  1.
         22    1    1    0    0    0  0.10696405296E+00 -0.17655679847E+02  0.20988980912E+02  0.27427573569E+02  0.00000000000E+00 0.  1.
</event>
<event>
 5    1  0.1681111E-003  0.9118800E+02  0.7818608E-02  0.1130116E+00
         25   -1    0    0    0    0  0.00000000000E+00  0.00000000000E+00  0.99999998245E-14  0.12500000000E+03  0.12500000000E+03 0.  0.
        -11    1    3    3    0    0 -0.38040004581E+02  0.13430256469E+02 -0.31297707090E+02  0.51058399962E+02  0.51100000000E-03 0. -1.
         23    2    1    0    0    0 -0.25953325420E+02 -0.11106239863E+02  0.48173329720E+01  0.96362081759E+02  0.92008262888E+02 0.  0.
         11    1    3    3    0    0  0.12086679161E+02 -0.24536496332E+02  0.36115040062E+02  0.45303681797E+02  0.51100000000E-03 0.  1.
         22    1    1    0    0    0  0.25953325420E+02  0.11106239863E+02 -0.48173329720E+01  0.28637918241E+02  0.00000000000E+00 0. -1.
</event>
<event>
 5    1  0.1681111E-003  0.9118800E+02  0.7818608E-02  0.1130116E+00
         25   -1    0    0    0    0  0.00000000000E+00  0.00000000000E+00  0.99999998245E-14  0.12500000000E+03  0.12500000000E+03 0.  0.
        -11    1    3    3    0    0  0.16573761499E+02  0.30401466257E+02  0.51032299654E+02  0.61670368323E+02  0.51100000000E-03 0.  1.
         23    2    1    0    0    0  0.14206753207E+02  0.11037216424E+02  0.24112351982E+02  0.94915826400E+02  0.90021978428E+02 0.  0.
         11    1    3    3    0    0 -0.23670082917E+01 -0.19364249833E+02 -0.26919947672E+02  0.33245458078E+02  0.51100000000E-03 0. -1.
         22    1    1    0    0    0 -0.14206753207E+02 -0.11037216424E+02 -0.24112351982E+02  0.30084173600E+02  0.00000000000E+00 0.  1.
</event>
<event>
 5    1  0.1681111E-003  0.9118800E+02  0.7818608E-02  0.1130116E+00
         25   -1    0    0    0    0  0.00000000000E+00  0.00000000000E+00  0.99999998245E-14  0.12500000000E+03  0.12500000000E+03 0.  0.
        -11    1    3    3    0    0  0.27186893768E+02 -0.22658287412E+02  0.25484411656E+01  0.35482668076E+02  0.51100000000E-03 0. -1.
         23    2    1    0    0    0 -0.75210031367E+01  0.26920774093E+02  0.70585402714E+01  0.96170907806E+02  0.91748171380E+02 0.  0.
         11    1    3    3    0    0 -0.34707896904E+02  0.49579061505E+02  0.45100991058E+01  0.60688239730E+02  0.51100000000E-03 0.  1.
         22    1    1    0    0    0  0.75210031367E+01 -0.26920774093E+02 -0.70585402714E+01  0.28829092194E+02  0.00000000000E+00 0.  1.
</event>
<event>
 5    1  0.1681111E-003  0.9118800E+02  0.7818608E-02  0.1130116E+00
         25   -1    0    0    0    0  0.00000000000E+00  0.00000000000E+00  0.99999998245E-14  0.12500000000E+03  0.12500000000E+03 0.  0.
        -11    1    3    3    0    0  0.38589896332E+02 -0.22375882925E+02  0.31875717715E+02  0.54826285809E+02  0.51100000000E-03 0.  1.
         23    2    1    0    0    0  0.10860491444E+02 -0.26654271357E+02  0.14975617641E+01  0.96179119597E+02  0.91759358646E+02 0.  0.
         11    1    3    3    0    0 -0.27729404888E+02 -0.42783884325E+01 -0.30378155951E+02  0.41352833787E+02  0.51100000000E-03 0. -1.
         22    1    1    0    0    0 -0.10860491444E+02  0.26654271357E+02 -0.14975617641E+01  0.28820880403E+02  0.00000000000E+00 0.  1.
</event>
<event>
 5    1  0.1681111E-003  0.9118800E+02  0.7818608E-02  0.1130116E+00
         25   -1    0    0    0    0  0.00000000000E+00  0.00000000000E+00  0.99999998245E-14  0.12500000000E+03  0.12500000000E+03 0.  0.
        -11    1    3    3    0    0  0.28546403912E+02 -0.15097005555E+02  0.11977259314E+02  0.34442292229E+02  0.51100000000E-03 0. -1.
         23    2    1    0    0    0 -0.24758309167E+02  0.14578669651E+02  0.47695591930E+01  0.95875093537E+02  0.91344257533E+02 0.  0.
         11    1    3    3    0    0 -0.53304713079E+02  0.29675675206E+02 -0.72077001211E+01  0.61432801308E+02  0.51100000000E-03 0.  1.
         22    1    1    0    0    0  0.24758309167E+02 -0.14578669651E+02 -0.47695591930E+01  0.29124906463E+02  0.00000000000E+00 0.  1.
</event>
<event>
 5    1  0.1681111E-003  0.9118800E+02  0.7818608E-02  0.1130116E+00
         25   -1    0    0    0    0  0.00000000000E+00  0.00000000000E+00  0.99999998245E-14  0.12500000000E+03  0.12500000000E+03 0.  0.
        -11    1    3    3    0    0 -0.50763712747E+02  0.45283845643E+00  0.36168484907E+02  0.62332326246E+02  0.51100000000E-03 0. -1.
         23    2    1    0    0    0 -0.22426936838E+02 -0.18002595086E+01  0.19082693485E+02  0.95498175974E+02  0.90827000355E+02 0.  0.
         11    1    3    3    0    0  0.28336775909E+02 -0.22530979650E+01 -0.17085791423E+02  0.33165849728E+02  0.51100000000E-03 0.  1.
         22    1    1    0    0    0  0.22426936838E+02  0.18002595086E+01 -0.19082693485E+02  0.29501824026E+02  0.00000000000E+00 0. -1.
</event>
<event>
 5    1  0.1681111E-003  0.9118800E+02  0.7818608E-02  0.1130116E+00
         25   -1    0    0    0    0  0.00000000000E+00  0.00000000000E+00  0.99999998245E-14  0.12500000000E+03  0.12500000000E+03 0.  0.
        -11    1    3    3    0    0  0.36239790474E+02  0.28764770374E+02 -0.38283240827E+02  0.60052818059E+02  0.51100000000E-03 0.  1.
         23    2    1    0    0    0  0.14062351008E+02  0.23459310114E+02 -0.11233693270E+02  0.95431692450E+02  0.90735456754E+02 0.  0.
         11    1    3    3    0    0 -0.22177439467E+02 -0.53054602594E+01  0.27049547558E+02  0.35378874391E+02  0.51100000000E-03 0. -1.
         22    1    1    0    0    0 -0.14062351008E+02 -0.23459310114E+02  0.11233693270E+02  0.29568307550E+02  0.00000000000E+00 0.  1.
</event>
<event>
 5    1  0.1681111E-003  0.9118800E+02  0.7818608E-02  0.1130116E+00
         25   -1    0    0    0    0  0.00000000000E+00  0.00000000000E+00  0.99999998245E-14  0.12500000000E+03  0.12500000000E+03 0.  0.
        -11    1    3    3    0    0 -0.10049727510E+02  0.27792185381E+02 -0.99595038461E+01  0.31186444305E+02  0.51100000000E-03 0. -1.
         23    2    1    0    0    0  0.19307809550E+02 -0.18627105499E+02  0.17876594808E+02  0.92761308791E+02  0.86978889381E+02 0.  0.
         11    1    3    3    0    0  0.29357537060E+02 -0.46419290880E+02  0.27836098655E+02  0.61574864487E+02  0.51100000000E-03 0.  1.
         22    1    1    0    0    0 -0.19307809550E+02  0.18627105499E+02 -0.17876594808E+02  0.32238691209E+02  0.00000000000E+00 0.  1.
</event>
<event>
 5    1  0.1681111E-003  0.9118800E+02  0.7818608E-02  0.1130116E+00
         25   -1    0    0    0    0  0.00000000000E+00  0.00000000000E+00  0.99999998245E-14  0.12500000000E+03  0.12500000000E+03 0.  0.
        -11    1    3    3    0    0  0.21575289410E+02 -0.32311916964E-01  0.31530363247E+02  0.38205470340E+02  0.51100000000E-03 0.  1.
         23    2    1    0    0    0 -0.28516246959E+02 -0.83283411145E+01  0.76021281137E+01  0.94335200013E+02  0.89212106820E+02 0.  0.
         11    1    3    3    0    0 -0.50091536370E+02 -0.82960291976E+01 -0.23928235133E+02  0.56129729673E+02  0.51100000000E-03 0. -1.
         22    1    1    0    0    0  0.28516246959E+02  0.83283411145E+01 -0.76021281137E+01  0.30664799987E+02  0.00000000000E+00 0. -1.
</event>
<event>
 5    1  0.1681111E-003  0.9118800E+02  0.7818608E-02  0.1130116E+00
         25   -1    0    0    0    0  0.00000000000E+00  0.00000000000E+00  0.99999998245E-14  0.12500000000E+03  0.12500000000E+03 0.  0.
        -11    1    3    3    0    0 -0.77011371419E+01 -0.29790660018E+02  0.20986717068E+02  0.37245580022E+02  0.51100000000E-03 0. -1.
         23    2    1    0    0    0  0.19221280395E+02  0.20538814808E+02  0.69964321587E+01  0.96012923627E+02  0.91532676715E+02 0.  0.
         11    1    3    3    0    0  0.26922417536E+02  0.50329474826E+02 -0.13990284910E+02  0.58767343605E+02  0.51100000000E-03 0.  1.
         22    1    1    0    0    0 -0.19221280395E+02 -0.20538814808E+02 -0.69964321587E+01  0.28987076373E+02  0.00000000000E+00 0.  1.
</event>
<event>
 5    1  0.1681111E-003  0.9118800E+02  0.7818608E-02  0.1130116E+00
         25   -1    0    0    0    0  0.00000000000E+00  0.00000000000E+00  0.99999998245E-14  0.12500000000E+03  0.12500000000E+03 0.  0.
        -11    1    3    3    0    0  0.32982970614E+02  0.33916164548E+02 -0.27552346076E+02  0.54747733676E+02  0.51100000000E-03 0. -1.
         23    2    1    0    0    0  0.25213785995E+02 -0.35021019343E+01 -0.16984044765E+02  0.94398406925E+02  0.89300625593E+02 0.  0.
         11    1    3    3    0    0 -0.77691846191E+01 -0.37418266483E+02  0.10568301311E+02  0.39650673249E+02  0.51100000000E-03 0.  1.
         22    1    1    0    0    0 -0.25213785995E+02  0.35021019343E+01  0.16984044765E+02  0.30601593075E+02  0.00000000000E+00 0. -1.
</event>
<event>
 5    1  0.1681111E-003  0.9118800E+02  0.7818608E-02  0.1130116E+00
         25   -1    0    0    0    0  0.00000000000E+00  0.00000000000E+00  0.99999998245E-14  0.12500000000E+03  0.12500000000E+03 0.  0.
        -11    1    3    3    0    0 -0.38659193959E+02 -0.80334093771E+00 -0.41239021634E+02  0.56531721536E+02  0.51100000000E-03 0. -1.
         23    2    1    0    0    0 -0.28928010774E+02  0.59627589204E+01 -0.45152688475E+01  0.95120710282E+02  0.90306021785E+02 0.  0.
         11    1    3    3    0    0  0.97311831850E+01  0.67660998581E+01  0.36723752787E+02  0.38588988746E+02  0.51100000000E-03 0.  1.
         22    1    1    0    0    0  0.28928010774E+02 -0.59627589204E+01  0.45152688475E+01  0.29879289718E+02  0.00000000000E+00 0. -1.
</event>
<event>
 5    1  0.1681111E-003  0.9118800E+02  0.7818608E-02  0.1130116E+00
         25   -1    0    0    0    0  0.00000000000E+00  0.00000000000E+00  0.99999998245E-14  0.12500000000E+03  0.12500000000E+03 0.  0.
        -11    1    3    3    0    0 -0.22844088491E+02 -0.33183797787E+02  0.41282781939E+02  0.57682622162E+02  0.51100000000E-03 0. -1.
         23    2    1    0    0    0 -0.22689628142E+02 -0.29798351188E+01  0.15929864902E+02  0.97117043945E+02  0.93028280572E+02 0.  0.
         11    1    3    3    0    0  0.15446034943E+00  0.30203962668E+02 -0.25352917036E+02  0.39434421783E+02  0.51100000000E-03 0.  1.
         22    1    1    0    0    0  0.22689628142E+02  0.29798351188E+01 -0.15929864902E+02  0.27882956055E+02  0.00000000000E+00 0. -1.
</event>
<event>
 5    1  0.1681111E-003  0.9118800E+02  0.7818608E-02  0.1130116E+00
         25   -1    0    0    0    0  0.00000000000E+00  0.00000000000E+00  0.99999998245E-14  0.12500000000E+03  0.12500000000E+03 0.  0.
        -11    1    3    3    0    0 -0.10990103482E+02  0.51414849081E+02 -0.18323752443E+02  0.55677903916E+02  0.51100000000E-03 0.  1.
         23    2    1    0    0    0  0.62549786629E+01  0.27229856191E+02  0.85995578080E+01  0.95767445874E+02  0.91196828171E+02 0.  0.
         11    1    3    3    0    0  0.17245082145E+02 -0.24184992890E+02  0.26923310251E+02  0.40089541958E+02  0.51100000000E-03 0. -1.
         22    1    1    0    0    0 -0.62549786629E+01 -0.27229856191E+02 -0.85995578080E+01  0.29232554126E+02  0.00000000000E+00 0.  1.
</event>
<event>
 5    1  0.1681111E-003  0.9118800E+02  0.7818608E-02  0.1130116E+00
         25   -1    0    0    0    0  0.00000000000E+00  0.00000000000E+00  0.99999998245E-14  0.12500000000E+03  0.12500000000E+03 0.  0.
        -11    1    3    3    0    0  0.77191195109E+01  0.10593825875E+02 -0.44384520366E+02  0.46279580823E+02  0.51100000000E-03 0.  1.
         23    2    1    0    0    0  0.17478840831E+02 -0.18080137839E+02 -0.19722749496E+00  0.99851637036E+02  0.96632858071E+02 0.  0.
         11    1    3    3    0    0  0.97597213205E+01 -0.28673963714E+02  0.44187292872E+02  0.53572056213E+02  0.51100000000E-03 0. -1.
         22    1    1    0    0    0 -0.17478840831E+02  0.18080137839E+02  0.19722749496E+00  0.25148362964E+02  0.00000000000E+00 0.  1.
</event>
<event>
 5    1  0.1681111E-003  0.9118800E+02  0.7818608E-02  0.1130116E+00
         25   -1    0    0    0    0  0.00000000000E+00  0.00000000000E+00  0.99999998245E-14  0.12500000000E+03  0.12500000000E+03 0.  0.
        -11    1    3    3    0    0 -0.34575195283E+02  0.15438725588E+02 -0.18940042102E+02  0.42338204635E+02  0.51100000000E-03 0.  1.
         23    2    1    0    0    0 -0.34200400322E+01 -0.18570722049E+02  0.16039145421E+02  0.10022455698E+03  0.97114052762E+02 0.  0.
         11    1    3    3    0    0  0.31155155251E+02 -0.34009447637E+02  0.34979187522E+02  0.57886352340E+02  0.51100000000E-03 0. -1.
         22    1    1    0    0    0  0.34200400322E+01  0.18570722049E+02 -0.16039145421E+02  0.24775443025E+02  0.00000000000E+00 0. -1.
</event>
<event>
 5    1  0.1681111E-003  0.9118800E+02  0.7818608E-02  0.1130116E+00
         25   -1    0    0    0    0  0.00000000000E+00  0.00000000000E+00  0.99999998245E-14  0.12500000000E+03  0.12500000000E+03 0.  0.
        -11    1    3    3    0    0 -0.30400007471E+02 -0.52593052454E+02 -0.31872952676E+01  0.60830489658E+02  0.51100000000E-03 0.  1.
         23    2    1    0    0    0 -0.98231426354E+01 -0.26089948514E+02 -0.10568478646E+02  0.95186038747E+02  0.90396403064E+02 0.  0.
         11    1    3    3    0    0  0.20576864835E+02  0.26503103940E+02 -0.73811833785E+01  0.34355549090E+02  0.51100000000E-03 0. -1.
         22    1    1    0    0    0  0.98231426354E+01  0.26089948514E+02  0.10568478646E+02  0.29813961253E+02  0.00000000000E+00 0.  1.
</event>
<event>
 5    1  0.1681111E-003  0.9118800E+02  0.7818608E-02  0.1130116E+00
         25   -1    0    0    0    0  0.00000000000E+00  0.00000000000E+00  0.99999998245E-14  0.12500000000E+03  0.12500000000E+03 0.  0.
        -11    1    3    3    0    0  0.44528762774E+02 -0.82444947495E+01  0.23098106094E+02  0.50836059183E+02  0.51100000000E-03 0.  1.
         23    2    1    0    0    0  0.20916077741E+02  0.22205351091E+02  0.28569088326E+01  0.94361431933E+02  0.89248854240E+02 0.  0.
         11    1    3    3    0    0 -0.23612685033E+02  0.30449845841E+02 -0.20241197261E+02  0.43525372750E+02  0.51100000000E-03 0. -1.
         22    1    1    0    0    0 -0.20916077741E+02 -0.22205351091E+02 -0.28569088326E+01  0.30638568067E+02  0.00000000000E+00 0.  1.
</event>
<event>
 5    1  0.1681111E-003  0.9118800E+02  0.7818608E-02  0.1130116E+00
         25   -1    0    0    0    0  0.00000000000E+00  0.00000000000E+00  0.99999998245E-14  0.12500000000E+03  0.12500000000E+03 0.  0.
        -11    1    3    3    0    0 -0.22136221759E+02 -0.74646950716E+01 -0.32100656625E+02  0.39701210842E+02  0.51100000000E-03 0. -1.
         23    2    1    0    0    0 -0.18629784911E+02  0.55604729272E+01  0.22105940969E+02  0.95560904037E+02  0.90913288408E+02 0.  0.
         11    1    3    3    0    0  0.35064368484E+01  0.13025167999E+02  0.54206597595E+02  0.55859693195E+02  0.51100000000E-03 0.  1.
         22    1    1    0    0    0  0.18629784911E+02 -0.55604729272E+01 -0.22105940969E+02  0.29439095963E+02  0.00000000000E+00 0.  1.
</event>
<event>
 5    1  0.1681111E-003  0.9118800E+02  0.7818608E-02  0.1130116E+00
         25   -1    0    0    0    0  0.00000000000E+00  0.00000000000E+00  0.99999998245E-14  0.12500000000E+03  0.12500000000E+03 0.  0.
        -11    1    3    3    0    0  0.12222331596E+02 -0.30285230417E+02 -0.40741783990E+01  0.32911692465E+02  0.51100000000E-03 0. -1.
         23    2    1    0    0    0 -0.13123575736E+02  0.26623019100E+02 -0.21873729899E+01  0.95237641446E+02  0.90467731052E+02 0.  0.
         11    1    3    3    0    0 -0.25345907331E+02  0.56908249517E+02  0.18868054091E+01  0.62325948981E+02  0.51100000000E-03 0.  1.
         22    1    1    0    0    0  0.13123575736E+02 -0.26623019100E+02  0.21873729899E+01  0.29762358554E+02  0.00000000000E+00 0.  1.
</event>
<event>
 5    1  0.1681111E-003  0.9118800E+02  0.7818608E-02  0.1130116E+00
         25   -1    0    0    0    0  0.00000000000E+00  0.00000000000E+00  0.99999998245E-14  0.12500000000E+03  0.12500000000E+03 0.  0.
        -11    1    3    3    0    0 -0.60605442066E+02  0.15960367121E+01 -0.16114263052E+01  0.60647865883E+02  0.51100000000E-03 0. -1.
         23    2    1    0    0    0 -0.25500698105E+02  0.84106431601E+01 -0.80164631689E+01  0.96977005800E+02  0.92839923793E+02 0.  0.
         11    1    3    3    0    0  0.35104743961E+02  0.68146064481E+01 -0.64050368636E+01  0.36329139917E+02  0.51100000000E-03 0.  1.
         22    1    1    0    0    0  0.25500698105E+02 -0.84106431601E+01  0.80164631689E+01  0.28022994200E+02  0.00000000000E+00 0. -1.
</event>
<event>
 5    1  0.1681111E-003  0.9118800E+02  0.7818608E-02  0.1130116E+00
         25   -1    0    0    0    0  0.00000000000E+00  0.00000000000E+00  0.99999998245E-14  0.12500000000E+03  0.12500000000E+03 0.  0.
        -11    1    3    3    0    0 -0.43910282962E+01  0.48589831290E+02  0.28901150375E+02  0.56705637529E+02  0.51100000000E-03 0. -1.
         23    2    1    0    0    0 -0.73685965145E+01  0.27315221388E+02 -0.44339878504E+01  0.96362999767E+02  0.92009510062E+02 0.  0.
         11    1    3    3    0    0 -0.29775682183E+01 -0.21274609902E+02 -0.33335138225E+02  0.39657362238E+02  0.51100000000E-03 0.  1.
         22    1    1    0    0    0  0.73685965145E+01 -0.27315221388E+02  0.44339878504E+01  0.28637000233E+02  0.00000000000E+00 0. -1.
</event>
<event>
 5    1  0.1681111E-003  0.9118800E+02  0.7818608E-02  0.1130116E+00
         25   -1    0    0    0    0  0.00000000000E+00  0.00000000000E+00  0.99999998245E-14  0.12500000000E+03  0.12500000000E+03 0.  0.
        -11    1    3    3    0    0  0.61260338469E+00  0.12546315641E+02  0.63036046766E+01  0.14054207600E+02  0.51100000000E-03 0.  1.
         23    2    1    0    0    0  0.17622223501E+02 -0.46121904147E+02  0.69336364950E+01  0.75141719662E+02  0.56217701087E+02 0.  0.
         11    1    3    3    0    0  0.17009620116E+02 -0.58668219788E+02  0.63003181846E+00  0.61087512062E+02  0.51100000000E-03 0. -1.
         22    1    1    0    0    0 -0.17622223501E+02  0.46121904147E+02 -0.69336364950E+01  0.49858280338E+02  0.00000000000E+00 0. -1.
</event>
<event>
 5    1  0.1681111E-003  0.9118800E+02  0.7818608E-02  0.1130116E+00
         25   -1    0    0    0    0  0.00000000000E+00  0.00000000000E+00  0.99999998245E-14  0.12500000000E+03  0.12500000000E+03 0.  0.
        -11    1    3    3    0    0  0.24856997949E+02 -0.99636043655E+01 -0.19500761955E+02  0.33127382572E+02  0.51100000000E-03 0.  1.
         23    2    1    0    0    0 -0.22101631765E+02  0.19569340281E+02  0.70834900359E+01  0.94641853864E+02  0.89640746684E+02 0.  0.
         11    1    3    3    0    0 -0.46958629714E+02  0.29532944647E+02  0.26584251991E+02  0.61514471292E+02  0.51100000000E-03 0. -1.
         22    1    1    0    0    0  0.22101631765E+02 -0.19569340281E+02 -0.70834900359E+01  0.30358146136E+02  0.00000000000E+00 0. -1.
</event>
<event>
 5    1  0.1681111E-003  0.9118800E+02  0.7818608E-02  0.1130116E+00
         25   -1    0    0    0    0  0.00000000000E+00  0.00000000000E+00  0.99999998245E-14  0.12500000000E+03  0.12500000000E+03 0.  0.
        -11    1    3    3    0    0  0.30312883074E+02 -0.19512774682E+02  0.29888727360E+02  0.46829000411E+02  0.51100000000E-03 0.  1.
         23    2    1    0    0    0 -0.15520724509E+02 -0.21200137349E+02  0.12798702073E+02  0.95774232471E+02  0.91206129826E+02 0.  0.
         11    1    3    3    0    0 -0.45833607583E+02 -0.16873626664E+01 -0.17090025287E+02  0.48945232060E+02  0.51100000000E-03 0. -1.
         22    1    1    0    0    0  0.15520724509E+02  0.21200137349E+02 -0.12798702073E+02  0.29225767529E+02  0.00000000000E+00 0. -1.
</event>
<event>
 5    1  0.1681111E-003  0.9118800E+02  0.7818608E-02  0.1130116E+00
         25   -1    0    0    0    0  0.00000000000E+00  0.00000000000E+00  0.99999998245E-14  0.12500000000E+03  0.12500000000E+03 0.  0.
        -11    1    3    3    0    0 -0.42913190007E+02 -0.45598421650E+01 -0.28862778753E+02  0.51917184388E+02  0.51100000000E-03 0. -1.
         23    2    1    0    0    0 -0.34709507056E+02 -0.10616051730E+01  0.75979184286E+01  0.89452774369E+02  0.82086500670E+02 0.  0.
         11    1    3    3    0    0  0.82036829509E+01  0.34982369920E+01  0.36460697182E+02  0.37535589982E+02  0.51100000000E-03 0.  1.
         22    1    1    0    0    0  0.34709507056E+02  0.10616051730E+01 -0.75979184286E+01  0.35547225631E+02  0.00000000000E+00 0. -1.
</event>
<event>
 5    1  0.1681111E-003  0.9118800E+02  0.7818608E-02  0.1130116E+00
         25   -1    0    0    0    0  0.00000000000E+00  0.00000000000E+00  0.99999998245E-14  0.12500000000E+03  0.12500000000E+03 0.  0.
        -11    1    3    3    0    0 -0.43712577105E+02  0.34491301818E+02  0.18962758145E+02  0.58821981393E+02  0.51100000000E-03 0. -1.
         23    2    1    0    0    0 -0.21427229851E+02  0.10853815898E+02  0.23226976246E+02  0.91587069507E+02  0.85274658467E+02 0.  0.
         11    1    3    3    0    0  0.22285347254E+02 -0.23637485919E+02  0.42642181005E+01  0.32765088114E+02  0.51100000000E-03 0.  1.
         22    1    1    0    0    0  0.21427229851E+02 -0.10853815898E+02 -0.23226976246E+02  0.33412930493E+02  0.00000000000E+00 0. -1.
</event>
<event>
 5    1  0.1681111E-003  0.9118800E+02  0.7818608E-02  0.1130116E+00
         25   -1    0    0    0    0  0.00000000000E+00  0.00000000000E+00  0.99999998245E-14  0.12500000000E+03  0.12500000000E+03 0.  0.
        -11    1    3    3    0    0 -0.29944149983E+02 -0.74923836574E+01 -0.42126631553E+02  0.52224908017E+02  0.51100000000E-03 0.  1.
         23    2    1    0    0    0 -0.18213659422E+02 -0.23680514759E+02 -0.45607299558E+01  0.94779073036E+02  0.89831888876E+02 0.  0.
         11    1    3    3    0    0  0.11730490561E+02 -0.16188131102E+02  0.37565901598E+02  0.42554165019E+02  0.51100000000E-03 0. -1.
         22    1    1    0    0    0  0.18213659422E+02  0.23680514759E+02  0.45607299558E+01  0.30220926964E+02  0.00000000000E+00 0.  1.
</event>
<event>
 5    1  0.1681111E-003  0.9118800E+02  0.7818608E-02  0.1130116E+00
         25   -1    0    0    0    0  0.00000000000E+00  0.00000000000E+00  0.99999998245E-14  0.12500000000E+03  0.12500000000E+03 0.  0.
        -11    1    3    3    0    0  0.11924303113E+02 -0.28882460845E+02 -0.41826632927E+02  0.52209699975E+02  0.51100000000E-03 0.  1.
         23    2    1    0    0    0 -0.14843058385E+02 -0.24303956865E+02 -0.83354443990E+01  0.95327144814E+02  0.90591314173E+02 0.  0.
         11    1    3    3    0    0 -0.26767361498E+02  0.45785039791E+01  0.33491188528E+02  0.43117444840E+02  0.51100000000E-03 0. -1.
         22    1    1    0    0    0  0.14843058385E+02  0.24303956865E+02  0.83354443990E+01  0.29672855186E+02  0.00000000000E+00 0.  1.
</event>
<event>
 5    1  0.1681111E-003  0.9118800E+02  0.7818608E-02  0.1130116E+00
         25   -1    0    0    0    0  0.00000000000E+00  0.00000000000E+00  0.99999998245E-14  0.12500000000E+03  0.12500000000E+03 0.  0.
        -11    1    3    3    0    0  0.11363022596E+02  0.23805344524E+02  0.56324741344E+02  0.62195572175E+02  0.51100000000E-03 0.  1.
         23    2    1    0    0    0  0.24018587487E+01  0.72020443539E+01  0.26032949204E+02  0.97882610513E+02  0.94051329753E+02 0.  0.
         11    1    3    3    0    0 -0.89611638474E+01 -0.16603300170E+02 -0.30291792140E+02  0.35687038338E+02  0.51100000000E-03 0. -1.
         22    1    1    0    0    0 -0.24018587487E+01 -0.72020443539E+01 -0.26032949204E+02  0.27117389487E+02  0.00000000000E+00 0.  1.
</event>
<event>
 5    1  0.1681111E-003  0.9118800E+02  0.7818608E-02  0.1130116E+00
         25   -1    0    0    0    0  0.00000000000E+00  0.00000000000E+00  0.99999998245E-14  0.12500000000E+03  0.12500000000E+03 0.  0.
        -11    1    3    3    0    0  0.54842716418E+01 -0.55687923891E+02  0.56247980086E+01  0.56239314146E+02  0.51100000000E-03 0. -1.
         23    2    1    0    0    0  0.17432164597E+02 -0.16191236831E+02  0.12582629063E+02  0.98086080427E+02  0.94321366120E+02 0.  0.
         11    1    3    3    0    0  0.11947892956E+02  0.39496687061E+02  0.69578310547E+01  0.41846766280E+02  0.51100000000E-03 0.  1.
         22    1    1    0    0    0 -0.17432164597E+02  0.16191236831E+02 -0.12582629063E+02  0.26913919573E+02  0.00000000000E+00 0. -1.
</event>
<event>
 5    1  0.1681111E-003  0.9118800E+02  0.7818608E-02  0.1130116E+00
         25   -1    0    0    0    0  0.00000000000E+00  0.00000000000E+00  0.99999998245E-14  0.12500000000E+03  0.12500000000E+03 0.  0.
        -11    1    3    3    0    0 -0.48363496837E+01 -0.21462466260E+01 -0.58849143209E+02  0.59086532387E+02  0.51100000000E-03 0.  1.
         23    2    1    0    0    0 -0.67734956575E+01 -0.14586220288E+02 -0.24280244141E+02  0.95876670498E+02  0.91346415499E+02 0.  0.
         11    1    3    3    0    0 -0.19371459738E+01 -0.12439973662E+02  0.34568899068E+02  0.36790138111E+02  0.51100000000E-03 0. -1.
         22    1    1    0    0    0  0.67734956575E+01  0.14586220288E+02  0.24280244141E+02  0.29123329502E+02  0.00000000000E+00 0.  1.
</event>
<event>
 5    1  0.1681111E-003  0.9118800E+02  0.7818608E-02  0.1130116E+00
         25   -1    0    0    0    0  0.00000000000E+00  0.00000000000E+00  0.99999998245E-14  0.12500000000E+03  0.12500000000E+03 0.  0.
        -11    1    3    3    0    0 -0.40156734441E+02  0.42489315145E+02  0.20410442319E+02  0.61923270087E+02  0.51100000000E-03 0.  1.
         23    2    1    0    0    0 -0.20920586124E+02  0.16819893749E+02  0.14327252948E+02  0.94572217851E+02  0.89543589735E+02 0.  0.
         11    1    3    3    0    0  0.19236148317E+02 -0.25669421396E+02 -0.60831893701E+01  0.32648947763E+02  0.51100000000E-03 0. -1.
         22    1    1    0    0    0  0.20920586124E+02 -0.16819893749E+02 -0.14327252948E+02  0.30427782149E+02  0.00000000000E+00 0.  1.
</event>
<event>
 5    1  0.1681111E-003  0.9118800E+02  0.7818608E-02  0.1130116E+00
         25   -1    0    0    0    0  0.00000000000E+00  0.00000000000E+00  0.99999998245E-14  0.12500000000E+03  0.12500000000E+03 0.  0.
        -11    1    3    3    0    0 -0.11539546039E+02  0.85854201335E+01  0.32889913852E+02  0.35897311809E+02  0.51100000000E-03 0. -1.
         23    2    1    0    0    0  0.20649399954E+02 -0.24874845633E+02  0.21781894445E+00  0.92670398876E+02  0.86848141713E+02 0.  0.
         11    1    3    3    0    0  0.32188945993E+02 -0.33460265766E+02 -0.32672094907E+02  0.56773087068E+02  0.51100000000E-03 0.  1.
         22    1    1    0    0    0 -0.20649399954E+02  0.24874845633E+02 -0.21781894445E+00  0.32329601124E+02  0.00000000000E+00 0.  1.
</event>
<event>
 5    1  0.1681111E-003  0.9118800E+02  0.7818608E-02  0.1130116E+00
         25   -1    0    0    0    0  0.00000000000E+00  0.00000000000E+00  0.99999998245E-14  0.12500000000E+03  0.12500000000E+03 0.  0.
        -11    1    3    3    0    0  0.65186171429E+01 -0.35366460072E+02 -0.41961053502E+02  0.55263087850E+02  0.51100000000E-03 0. -1.
         23    2    1    0    0    0  0.11603773928E+02 -0.10168789947E+02 -0.41228380292E+02  0.80979195829E+02  0.67969102960E+02 0.  0.
         11    1    3    3    0    0  0.50851567855E+01  0.25197670125E+02  0.73267321024E+00  0.25716107978E+02  0.51100000000E-03 0.  1.
         22    1    1    0    0    0 -0.11603773928E+02  0.10168789947E+02  0.41228380292E+02  0.44020804171E+02  0.00000000000E+00 0. -1.
</event>
<event>
 5    1  0.1681111E-003  0.9118800E+02  0.7818608E-02  0.1130116E+00
         25   -1    0    0    0    0  0.00000000000E+00  0.00000000000E+00  0.99999998245E-14  0.12500000000E+03  0.12500000000E+03 0.  0.
        -11    1    3    3    0    0 -0.19953729339E+02  0.34893959609E+02 -0.79742435648E+01  0.40979608251E+02  0.51100000000E-03 0.  1.
         23    2    1    0    0    0  0.21065452284E+02 -0.86654170846E+01 -0.81347943120E+01  0.10081286268E+03  0.97868358882E+02 0.  0.
         11    1    3    3    0    0  0.41019181623E+02 -0.43559376693E+02 -0.16055074722E+00  0.59833254430E+02  0.51100000000E-03 0. -1.
         22    1    1    0    0    0 -0.21065452284E+02  0.86654170846E+01  0.81347943120E+01  0.24187137319E+02  0.00000000000E+00 0. -1.
</event>
<event>
 5    1  0.1681111E-003  0.9118800E+02  0.7818608E-02  0.1130116E+00
         25   -1    0    0    0    0  0.00000000000E+00  0.00000000000E+00  0.99999998245E-14  0.12500000000E+03  0.12500000000E+03 0.  0.
        -11    1    3    3    0    0 -0.20830522933E+02  0.41571697867E+01  0.36546666754E+02  0.42271167448E+02  0.51100000000E-03 0.  1.
         23    2    1    0    0    0  0.12875916224E+02 -0.25734150512E+02  0.10146217650E+02  0.94488011310E+02  0.89425962827E+02 0.  0.
         11    1    3    3    0    0  0.33706439157E+02 -0.29891320299E+02 -0.26400449103E+02  0.52216843863E+02  0.51100000000E-03 0. -1.
         22    1    1    0    0    0 -0.12875916224E+02  0.25734150512E+02 -0.10146217650E+02  0.30511988690E+02  0.00000000000E+00 0. -1.
</event>
<event>
 5    1  0.1681111E-003  0.9118800E+02  0.7818608E-02  0.1130116E+00
         25   -1    0    0    0    0  0.00000000000E+00  0.00000000000E+00  0.99999998245E-14  0.12500000000E+03  0.12500000000E+03 0.  0.
        -11    1    3    3    0    0  0.26842857354E+02  0.11493996497E+00 -0.27193429641E+02  0.38210401961E+02  0.51100000000E-03 0. -1.
         23    2    1    0    0    0 -0.19280450194E+02 -0.16672130987E+02  0.76314733367E+01  0.98392950246E+02  0.94727174356E+02 0.  0.
         11    1    3    3    0    0 -0.46123307548E+02 -0.16787070952E+02  0.34824902978E+02  0.60182548284E+02  0.51100000000E-03 0.  1.
         22    1    1    0    0    0  0.19280450194E+02  0.16672130987E+02 -0.76314733367E+01  0.26607049754E+02  0.00000000000E+00 0.  1.
</event>
<event>
 5    1  0.1681111E-003  0.9118800E+02  0.7818608E-02  0.1130116E+00
         25   -1    0    0    0    0  0.00000000000E+00  0.00000000000E+00  0.99999998245E-14  0.12500000000E+03  0.12500000000E+03 0.  0.
        -11    1    3    3    0    0 -0.42449548775E+02 -0.26688633871E+02 -0.18867207177E+02  0.53574423711E+02  0.51100000000E-03 0.  1.
         23    2    1    0    0    0 -0.18204990592E+02  0.65708928196E+01 -0.23000607550E+02  0.94939623047E+02  0.90055015194E+02 0.  0.
         11    1    3    3    0    0  0.24244558182E+02  0.33259526691E+02 -0.41334003733E+01  0.41365199335E+02  0.51100000000E-03 0. -1.
         22    1    1    0    0    0  0.18204990592E+02 -0.65708928196E+01  0.23000607550E+02  0.30060376953E+02  0.00000000000E+00 0.  1.
</event>
<event>
 5    1  0.1681111E-003  0.9118800E+02  0.7818608E-02  0.1130116E+00
         25   -1    0    0    0    0  0.00000000000E+00  0.00000000000E+00  0.99999998245E-14  0.12500000000E+03  0.12500000000E+03 0.  0.
        -11    1    3    3    0    0  0.29586599032E+02 -0.94908623504E+01 -0.13619050487E+02  0.33925239083E+02  0.51100000000E-03 0. -1.
         23    2    1    0    0    0 -0.70327091441E+01  0.32530923181E+02  0.15186005962E+01  0.91682945678E+02  0.85415083091E+02 0.  0.
         11    1    3    3    0    0 -0.36619308176E+02  0.42021785532E+02  0.15137651083E+02  0.57757706595E+02  0.51100000000E-03 0.  1.
         22    1    1    0    0    0  0.70327091441E+01 -0.32530923181E+02 -0.15186005962E+01  0.33317054322E+02  0.00000000000E+00 0.  1.
</event>
<event>
 5    1  0.1681111E-003  0.9118800E+02  0.7818608E-02  0.1130116E+00
         25   -1    0    0    0    0  0.00000000000E+00  0.00000000000E+00  0.99999998245E-14  0.12500000000E+03  0.12500000000E+03 0.  0.
        -11    1    3    3    0    0  0.36858036913E+02 -0.32117383608E+02 -0.21766807376E+02  0.53514812141E+02  0.51100000000E-03 0. -1.
         23    2    1    0    0    0 -0.40793323495E+01 -0.15670835408E+02 -0.22061692784E+02  0.97633335547E+02  0.93719442416E+02 0.  0.
         11    1    3    3    0    0 -0.40937369263E+02  0.16446548200E+02 -0.29488540751E+00  0.44118523406E+02  0.51100000000E-03 0.  1.
         22    1    1    0    0    0  0.40793323495E+01  0.15670835408E+02  0.22061692784E+02  0.27366664453E+02  0.00000000000E+00 0. -1.
</event>
<event>
 5    1  0.1681111E-003  0.9118800E+02  0.7818608E-02  0.1130116E+00
         25   -1    0    0    0    0  0.00000000000E+00  0.00000000000E+00  0.99999998245E-14  0.12500000000E+03  0.12500000000E+03 0.  0.
        -11    1    3    3    0    0  0.49828832060E+02 -0.99003594825E+00 -0.10692776446E+02  0.50972817698E+02  0.51100000000E-03 0.  1.
         23    2    1    0    0    0  0.93426609322E+01  0.97147425877E+01 -0.26124882932E+02  0.95603213696E+02  0.90971442903E+02 0.  0.
         11    1    3    3    0    0 -0.40486171128E+02  0.10704778536E+02 -0.15432106485E+02  0.44630395998E+02  0.51100000000E-03 0. -1.
         22    1    1    0    0    0 -0.93426609322E+01 -0.97147425877E+01  0.26124882932E+02  0.29396786304E+02  0.00000000000E+00 0.  1.
</event>
<event>
 5    1  0.1681111E-003  0.9118800E+02  0.7818608E-02  0.1130116E+00
         25   -1    0    0    0    0  0.00000000000E+00  0.00000000000E+00  0.99999998245E-14  0.12500000000E+03  0.12500000000E+03 0.  0.
        -11    1    3    3    0    0  0.38263520625E+02 -0.13519675559E+02 -0.14603449319E+02  0.43129333059E+02  0.51100000000E-03 0. -1.
         23    2    1    0    0    0 -0.13169908470E+02 -0.21271259512E+02 -0.16246323904E+02  0.95169545583E+02  0.90373593464E+02 0.  0.
         11    1    3    3    0    0 -0.51433429096E+02 -0.77515839525E+01 -0.16428745856E+01  0.52040212523E+02  0.51100000000E-03 0.  1.
         22    1    1    0    0    0  0.13169908470E+02  0.21271259512E+02  0.16246323904E+02  0.29830454417E+02  0.00000000000E+00 0.  1.
</event>
<event>
 5    1  0.1681111E-003  0.9118800E+02  0.7818608E-02  0.1130116E+00
         25   -1    0    0    0    0  0.00000000000E+00  0.00000000000E+00  0.99999998245E-14  0.12500000000E+03  0.12500000000E+03 0.  0.
        -11    1    3    3    0    0 -0.35930205396E+02 -0.48908699725E+01 -0.32235892331E+02  0.48518584311E+02  0.51100000000E-03 0. -1.
         23    2    1    0    0    0 -0.22446121081E+02  0.18690239068E+02  0.57627294374E+01  0.95228160309E+02  0.90454629938E+02 0.  0.
         11    1    3    3    0    0  0.13484084315E+02  0.23581109040E+02  0.37998621768E+02  0.46709575998E+02  0.51100000000E-03 0.  1.
         22    1    1    0    0    0  0.22446121081E+02 -0.18690239068E+02 -0.57627294374E+01  0.29771839691E+02  0.00000000000E+00 0.  1.
</event>
<event>
 5    1  0.1681111E-003  0.9118800E+02  0.7818608E-02  0.1130116E+00
         25   -1    0    0    0    0  0.00000000000E+00  0.00000000000E+00  0.99999998245E-14  0.12500000000E+03  0.12500000000E+03 0.  0.
        -11    1    3    3    0    0 -0.18458590486E+01 -0.40016419654E+02  0.25399397156E+02  0.47432588099E+02  0.51100000000E-03 0.  1.
         23    2    1    0    0    0  0.26725100852E+02 -0.10265440323E+02 -0.90935864349E+00  0.96356724808E+02  0.92000984789E+02 0.  0.
         11    1    3    3    0    0  0.28570959900E+02  0.29750979331E+02 -0.26308755800E+02  0.48924136710E+02  0.51100000000E-03 0. -1.
         22    1    1    0    0    0 -0.26725100852E+02  0.10265440323E+02  0.90935864349E+00  0.28643275192E+02  0.00000000000E+00 0.  1.
</event>
<event>
 5    1  0.1681111E-003  0.9118800E+02  0.7818608E-02  0.1130116E+00
         25   -1    0    0    0    0  0.00000000000E+00  0.00000000000E+00  0.99999998245E-14  0.12500000000E+03  0.12500000000E+03 0.  0.
        -11    1    3    3    0    0 -0.50981302484E+02 -0.29478876501E+02  0.26355377050E+01  0.58949498912E+02  0.51100000000E-03 0. -1.
         23    2    1    0    0    0 -0.25593954844E+02 -0.14281798174E+02 -0.13588727012E+02  0.92694059595E+02  0.86882189768E+02 0.  0.
         11    1    3    3    0    0  0.25387347640E+02  0.15197078327E+02 -0.16224264717E+02  0.33744560684E+02  0.51100000000E-03 0.  1.
         22    1    1    0    0    0  0.25593954844E+02  0.14281798174E+02  0.13588727012E+02  0.32305940405E+02  0.00000000000E+00 0. -1.
</event>
<event>
 5    1  0.1681111E-003  0.9118800E+02  0.7818608E-02  0.1130116E+00
         25   -1    0    0    0    0  0.00000000000E+00  0.00000000000E+00  0.99999998245E-14  0.12500000000E+03  0.12500000000E+03 0.  0.
        -11    1    3    3    0    0 -0.36520395283E+02  0.24800382489E+01  0.28795493704E+02  0.46573279026E+02  0.51100000000E-03 0. -1.
         23    2    1    0    0    0 -0.15557853157E+02  0.21838942165E+02 -0.11396931396E+02  0.95864519311E+02  0.91329786093E+02 0.  0.
         11    1    3    3    0    0  0.20962542126E+02  0.19358903916E+02 -0.40192425100E+02  0.49291240285E+02  0.51100000000E-03 0.  1.
         22    1    1    0    0    0  0.15557853157E+02 -0.21838942165E+02  0.11396931396E+02  0.29135480689E+02  0.00000000000E+00 0. -1.
</event>
<event>
 5    1  0.1681111E-003  0.9118800E+02  0.7818608E-02  0.1130116E+00
         25   -1    0    0    0    0  0.00000000000E+00  0.00000000000E+00  0.99999998245E-14  0.12500000000E+03  0.12500000000E+03 0.  0.
        -11    1    3    3    0    0 -0.14322124619E+02 -0.50147827184E+02 -0.24423279484E+02  0.57588405134E+02  0.51100000000E-03 0.  1.
         23    2    1    0    0    0 -0.48187925421E+01 -0.27886354000E+02  0.55978282422E+01  0.96152033312E+02  0.91722452693E+02 0.  0.
         11    1    3    3    0    0  0.95033320772E+01  0.22261473183E+02  0.30021107727E+02  0.38563628178E+02  0.51100000000E-03 0. -1.
         22    1    1    0    0    0  0.48187925421E+01  0.27886354000E+02 -0.55978282422E+01  0.28847966688E+02  0.00000000000E+00 0.  1.
</event>
<event>
 5    1  0.1681111E-003  0.9118800E+02  0.7818608E-02  0.1130116E+00
         25   -1    0    0    0    0  0.00000000000E+00  0.00000000000E+00  0.99999998245E-14  0.12500000000E+03  0.12500000000E+03 0.  0.
        -11    1    3    3    0    0  0.47027034323E+02 -0.32233118794E+02  0.50520060847E+01  0.57236689895E+02  0.51100000000E-03 0.  1.
         23    2    1    0    0    0  0.21756948976E+02 -0.82777923522E+01  0.19203748156E+02  0.94822680401E+02  0.89892547523E+02 0.  0.
         11    1    3    3    0    0 -0.25270085347E+02  0.23955326442E+02  0.14151742071E+02  0.37585990505E+02  0.51100000000E-03 0. -1.
         22    1    1    0    0    0 -0.21756948976E+02  0.82777923522E+01 -0.19203748156E+02  0.30177319599E+02  0.00000000000E+00 0.  1.
</event>
<event>
 5    1  0.1681111E-003  0.9118800E+02  0.7818608E-02  0.1130116E+00
         25   -1    0    0    0    0  0.00000000000E+00  0.00000000000E+00  0.99999998245E-14  0.12500000000E+03  0.12500000000E+03 0.  0.
        -11    1    3    3    0    0 -0.46381757045E+02  0.22372023077E+01  0.16857160789E+02  0.49400772574E+02  0.51100000000E-03 0.  1.
         23    2    1    0    0    0 -0.15561075292E+02  0.28669445893E+02  0.32714734125E+01  0.92216059872E+02  0.86191733757E+02 0.  0.
         11    1    3    3    0    0  0.30820681753E+02  0.26432243585E+02 -0.13585687377E+02  0.42815287298E+02  0.51100000000E-03 0. -1.
         22    1    1    0    0    0  0.15561075292E+02 -0.28669445893E+02 -0.32714734125E+01  0.32783940128E+02  0.00000000000E+00 0.  1.
</event>
<event>
 5    1  0.1681111E-003  0.9118800E+02  0.7818608E-02  0.1130116E+00
         25   -1    0    0    0    0  0.00000000000E+00  0.00000000000E+00  0.99999998245E-14  0.12500000000E+03  0.12500000000E+03 0.  0.
        -11    1    3    3    0    0 -0.13602733057E+02 -0.35367833305E+02  0.49430405265E+02  0.62283889925E+02  0.51100000000E-03 0. -1.
         23    2    1    0    0    0 -0.97491077335E+01 -0.18631923389E+02  0.22691237209E+02  0.94063194786E+02  0.88830167716E+02 0.  0.
         11    1    3    3    0    0  0.38536253234E+01  0.16735909915E+02 -0.26739168056E+02  0.31779304861E+02  0.51100000000E-03 0.  1.
         22    1    1    0    0    0  0.97491077335E+01  0.18631923389E+02 -0.22691237209E+02  0.30936805214E+02  0.00000000000E+00 0. -1.
</event>
<event>
 5    1  0.1681111E-003  0.9118800E+02  0.7818608E-02  0.1130116E+00
         25   -1    0    0    0    0  0.00000000000E+00  0.00000000000E+00  0.99999998245E-14  0.12500000000E+03  0.12500000000E+03 0.  0.
        -11    1    3    3    0    0  0.29144541431E+02 -0.44635741146E+01  0.11520387171E+02  0.31655127703E+02  0.51100000000E-03 0.  1.
         23    2    1    0    0    0 -0.21159391174E+02 -0.28928391855E+02  0.10689832872E+02  0.87598874121E+02  0.79213120948E+02 0.  0.
         11    1    3    3    0    0 -0.50303932604E+02 -0.24464817741E+02 -0.83055429903E+00  0.55943746418E+02  0.51100000000E-03 0. -1.
         22    1    1    0    0    0  0.21159391174E+02  0.28928391855E+02 -0.10689832872E+02  0.37401125879E+02  0.00000000000E+00 0. -1.
</event>
<event>
 5    1  0.1681111E-003  0.9118800E+02  0.7818608E-02  0.1130116E+00
         25   -1    0    0    0    0  0.00000000000E+00  0.00000000000E+00  0.99999998245E-14  0.12500000000E+03  0.12500000000E+03 0.  0.
        -11    1    3    3    0    0 -0.21295006015E+02  0.38142058736E+02 -0.19043455941E+02  0.47654455618E+02  0.51100000000E-03 0. -1.
         23    2    1    0    0    0 -0.69965699156E+01 -0.72072705678E+01 -0.27295225513E+02  0.95915191673E+02  0.91399113334E+02 0.  0.
         11    1    3    3    0    0  0.14298436099E+02 -0.45349329304E+02 -0.82517695712E+01  0.48260736055E+02  0.51100000000E-03 0.  1.
         22    1    1    0    0    0  0.69965699156E+01  0.72072705678E+01  0.27295225513E+02  0.29084808327E+02  0.00000000000E+00 0. -1.
</event>
<event>
 5    1  0.1681111E-003  0.9118800E+02  0.7818608E-02  0.1130116E+00
         25   -1    0    0    0    0  0.00000000000E+00  0.00000000000E+00  0.99999998245E-14  0.12500000000E+03  0.12500000000E+03 0.  0.
        -11    1    3    3    0    0  0.19645918260E+02  0.11106888686E+02  0.25338141153E+02  0.33931496842E+02  0.51100000000E-03 0. -1.
         23    2    1    0    0    0 -0.23886069704E+02  0.56505393744E+01 -0.17190330889E+02  0.95033678951E+02  0.90185474094E+02 0.  0.
         11    1    3    3    0    0 -0.43531987964E+02 -0.54563493113E+01 -0.42528472043E+02  0.61102182109E+02  0.51100000000E-03 0.  1.
         22    1    1    0    0    0  0.23886069704E+02 -0.56505393744E+01  0.17190330889E+02  0.29966321049E+02  0.00000000000E+00 0.  1.
</event>
<event>
 5    1  0.1681111E-003  0.9118800E+02  0.7818608E-02  0.1130116E+00
         25   -1    0    0    0    0  0.00000000000E+00  0.00000000000E+00  0.99999998245E-14  0.12500000000E+03  0.12500000000E+03 0.  0.
        -11    1    3    3    0    0 -0.33041748240E+02  0.11819490451E+02  0.19179069153E+02  0.39991176216E+02  0.51100000000E-03 0.  1.
         23    2    1    0    0    0 -0.42800134333E+01  0.10881391066E+02 -0.27663380781E+02  0.94966921191E+02  0.90092898154E+02 0.  0.
         11    1    3    3    0    0  0.28761734806E+02 -0.93809938527E+00 -0.46842449934E+02  0.54975744976E+02  0.51100000000E-03 0. -1.
         22    1    1    0    0    0  0.42800134333E+01 -0.10881391066E+02  0.27663380781E+02  0.30033078809E+02  0.00000000000E+00 0. -1.
</event>
<event>
 5    1  0.1681111E-003  0.9118800E+02  0.7818608E-02  0.1130116E+00
         25   -1    0    0    0    0  0.00000000000E+00  0.00000000000E+00  0.99999998245E-14  0.12500000000E+03  0.12500000000E+03 0.  0.
        -11    1    3    3    0    0 -0.40531240450E+02 -0.26630889689E+02  0.16871716860E+02  0.51348228480E+02  0.51100000000E-03 0. -1.
         23    2    1    0    0    0  0.11838596316E+01 -0.14457871849E+02  0.25510461567E+02  0.95653531193E+02  0.91040555789E+02 0.  0.
         11    1    3    3    0    0  0.41715100081E+02  0.12173017840E+02  0.86387447076E+01  0.44305302713E+02  0.51100000000E-03 0.  1.
         22    1    1    0    0    0 -0.11838596316E+01  0.14457871849E+02 -0.25510461567E+02  0.29346468807E+02  0.00000000000E+00 0.  1.
</event>
<event>
 5    1  0.1681111E-003  0.9118800E+02  0.7818608E-02  0.1130116E+00
         25   -1    0    0    0    0  0.00000000000E+00  0.00000000000E+00  0.99999998245E-14  0.12500000000E+03  0.12500000000E+03 0.  0.
        -11    1    3    3    0    0  0.37323755660E+02  0.18580910469E+02  0.37628011846E+02  0.56162089048E+02  0.51100000000E-03 0.  1.
         23    2    1    0    0    0  0.22118435783E+02 -0.10727211435E+02  0.17385247186E+02  0.94891112834E+02  0.89987655867E+02 0.  0.
         11    1    3    3    0    0 -0.15205319877E+02 -0.29308121904E+02 -0.20242764660E+02  0.38729023786E+02  0.51100000000E-03 0. -1.
         22    1    1    0    0    0 -0.22118435783E+02  0.10727211435E+02 -0.17385247186E+02  0.30108887166E+02  0.00000000000E+00 0.  1.
</event>
<event>
 5    1  0.1681111E-003  0.9118800E+02  0.7818608E-02  0.1130116E+00
         25   -1    0    0    0    0  0.00000000000E+00  0.00000000000E+00  0.99999998245E-14  0.12500000000E+03  0.12500000000E+03 0.  0.
        -11    1    3    3    0    0 -0.26364278810E+02 -0.30009599637E+02  0.10768503106E+02  0.41371631910E+02  0.51100000000E-03 0. -1.
         23    2    1    0    0    0  0.24549195564E+02 -0.11873015591E+02  0.11452014288E+02  0.95423317743E+02  0.90723918764E+02 0.  0.
         11    1    3    3    0    0  0.50913474373E+02  0.18136584046E+02  0.68351118277E+00  0.54051685833E+02  0.51100000000E-03 0.  1.
         22    1    1    0    0    0 -0.24549195564E+02  0.11873015591E+02 -0.11452014288E+02  0.29576682257E+02  0.00000000000E+00 0.  1.
</event>
<event>
 5    1  0.1681111E-003  0.9118800E+02  0.7818608E-02  0.1130116E+00
         25   -1    0    0    0    0  0.00000000000E+00  0.00000000000E+00  0.99999998245E-14  0.12500000000E+03  0.12500000000E+03 0.  0.
        -11    1    3    3    0    0 -0.37358259303E+02 -0.24993405195E+02 -0.99358538113E+01  0.46032934217E+02  0.51100000000E-03 0.  1.
         23    2    1    0    0    0  0.31882693586E+01 -0.23427160349E+02  0.17990079590E+02  0.95290744419E+02  0.90541074131E+02 0.  0.
         11    1    3    3    0    0  0.40546528661E+02  0.15662448465E+01  0.27925933401E+02  0.49257810203E+02  0.51100000000E-03 0. -1.
         22    1    1    0    0    0 -0.31882693586E+01  0.23427160349E+02 -0.17990079590E+02  0.29709255581E+02  0.00000000000E+00 0. -1.
</event>
<event>
 5    1  0.1681111E-003  0.9118800E+02  0.7818608E-02  0.1130116E+00
         25   -1    0    0    0    0  0.00000000000E+00  0.00000000000E+00  0.99999998245E-14  0.12500000000E+03  0.12500000000E+03 0.  0.
        -11    1    3    3    0    0 -0.34065663160E+02 -0.76496787826E+01 -0.51408746195E+02  0.62143754132E+02  0.51100000000E-03 0. -1.
         23    2    1    0    0    0 -0.13343067186E+02  0.29416964489E+00 -0.25178383894E+02  0.96503070459E+02  0.92199607455E+02 0.  0.
         11    1    3    3    0    0  0.20722595974E+02  0.79438484275E+01  0.26230362301E+02  0.34359316327E+02  0.51100000000E-03 0.  1.
         22    1    1    0    0    0  0.13343067186E+02 -0.29416964489E+00  0.25178383894E+02  0.28496929541E+02  0.00000000000E+00 0. -1.
</event>
<event>
 5    1  0.1681111E-003  0.9118800E+02  0.7818608E-02  0.1130116E+00
         25   -1    0    0    0    0  0.00000000000E+00  0.00000000000E+00  0.99999998245E-14  0.12500000000E+03  0.12500000000E+03 0.  0.
        -11    1    3    3    0    0  0.28967059100E+02 -0.53856522259E+02  0.49211304452E+00  0.61154375790E+02  0.51100000000E-03 0.  1.
         23    2    1    0    0    0  0.20927881278E+02 -0.20607971898E+02  0.31297698649E+01  0.95462563078E+02  0.90777975134E+02 0.  0.
         11    1    3    3    0    0 -0.80391778225E+01  0.33248550361E+02  0.26376568204E+01  0.34308187287E+02  0.51100000000E-03 0. -1.
         22    1    1    0    0    0 -0.20927881278E+02  0.20607971898E+02 -0.31297698649E+01  0.29537436922E+02  0.00000000000E+00 0.  1.
</event>
<event>
 5    1  0.1681111E-003  0.9118800E+02  0.7818608E-02  0.1130116E+00
         25   -1    0    0    0    0  0.00000000000E+00  0.00000000000E+00  0.99999998245E-14  0.12500000000E+03  0.12500000000E+03 0.  0.
        -11    1    3    3    0    0 -0.34763883213E+01  0.19307017418E+02 -0.29256862967E+02  0.35225136313E+02  0.51100000000E-03 0.  1.
         23    2    1    0    0    0  0.18275342833E+02  0.40549172147E+01  0.23894415752E+02  0.94645863323E+02  0.89646337520E+02 0.  0.
         11    1    3    3    0    0  0.21751731154E+02 -0.15252100203E+02  0.53151278718E+02  0.59420727011E+02  0.51100000000E-03 0. -1.
         22    1    1    0    0    0 -0.18275342833E+02 -0.40549172147E+01 -0.23894415752E+02  0.30354136677E+02  0.00000000000E+00 0. -1.
</event>
<event>
 5    1  0.1681111E-003  0.9118800E+02  0.7818608E-02  0.1130116E+00
         25   -1    0    0    0    0  0.00000000000E+00  0.00000000000E+00  0.99999998245E-14  0.12500000000E+03  0.12500000000E+03 0.  0.
        -11    1    3    3    0    0 -0.13899059297E+02  0.20313222790E+02  0.30701770183E+02  0.39349835604E+02  0.51100000000E-03 0.  1.
         23    2    1    0    0    0  0.29202283763E+02 -0.25289852823E+01  0.27774819021E+01  0.95557113775E+02  0.90908076890E+02 0.  0.
         11    1    3    3    0    0  0.43101343059E+02 -0.22842208072E+02 -0.27924288281E+02  0.56207278171E+02  0.51100000000E-03 0. -1.
         22    1    1    0    0    0 -0.29202283763E+02  0.25289852823E+01 -0.27774819021E+01  0.29442886225E+02  0.00000000000E+00 0. -1.
</event>
<event>
 5    1  0.1681111E-003  0.9118800E+02  0.7818608E-02  0.1130116E+00
         25   -1    0    0    0    0  0.00000000000E+00  0.00000000000E+00  0.99999998245E-14  0.12500000000E+03  0.12500000000E+03 0.  0.
        -11    1    3    3    0    0  0.94003353818E+01  0.49531648629E+02  0.53973102658E+01  0.50703860599E+02  0.51100000000E-03 0. -1.
         23    2    1    0    0    0  0.21599425221E+02  0.82838532855E+01  0.18180849821E+02  0.95577207894E+02  0.90935702413E+02 0.  0.
         11    1    3    3    0    0  0.12199089839E+02 -0.41247795344E+02  0.12783539555E+02  0.44873347295E+02  0.51100000000E-03 0.  1.
         22    1    1    0    0    0 -0.21599425221E+02 -0.82838532855E+01 -0.18180849821E+02  0.29422792106E+02  0.00000000000E+00 0. -1.
</event>
<event>
 5    1  0.1681111E-003  0.9118800E+02  0.7818608E-02  0.1130116E+00
         25   -1    0    0    0    0  0.00000000000E+00  0.00000000000E+00  0.99999998245E-14  0.12500000000E+03  0.12500000000E+03 0.  0.
        -11    1    3    3    0    0 -0.25280417803E+02  0.54675802672E+02  0.28427847909E+01  0.60304430582E+02  0.51100000000E-03 0.  1.
         23    2    1    0    0    0 -0.18969045116E+02  0.19120860033E+02 -0.58307507516E+01  0.97442249451E+02  0.93464230392E+02 0.  0.
         11    1    3    3    0    0  0.63113726878E+01 -0.35554942639E+02 -0.86735355425E+01  0.37137818869E+02  0.51100000000E-03 0. -1.
         22    1    1    0    0    0  0.18969045116E+02 -0.19120860033E+02  0.58307507516E+01  0.27557750549E+02  0.00000000000E+00 0.  1.
</event>
<event>
 5    1  0.1681111E-003  0.9118800E+02  0.7818608E-02  0.1130116E+00
         25   -1    0    0    0    0  0.00000000000E+00  0.00000000000E+00  0.99999998245E-14  0.12500000000E+03  0.12500000000E+03 0.  0.
        -11    1    3    3    0    0  0.41731268174E+01  0.21428672052E+02  0.28463890329E+02  0.35871939260E+02  0.51100000000E-03 0. -1.
         23    2    1    0    0    0 -0.99668414820E+01 -0.27569440494E+02 -0.25730549911E+01  0.95571568335E+02  0.90927949959E+02 0.  0.
         11    1    3    3    0    0 -0.14139968299E+02 -0.48998112546E+02 -0.31036945320E+02  0.59699629075E+02  0.51100000000E-03 0.  1.
         22    1    1    0    0    0  0.99668414820E+01  0.27569440494E+02  0.25730549911E+01  0.29428431665E+02  0.00000000000E+00 0.  1.
</event>
<event>
 5    1  0.1681111E-003  0.9118800E+02  0.7818608E-02  0.1130116E+00
         25   -1    0    0    0    0  0.00000000000E+00  0.00000000000E+00  0.99999998245E-14  0.12500000000E+03  0.12500000000E+03 0.  0.
        -11    1    3    3    0    0  0.47001965435E+02  0.13783770533E+02 -0.83453983841E+00  0.48988504181E+02  0.51100000000E-03 0. -1.
         23    2    1    0    0    0  0.15136882536E+02 -0.13278550350E+02 -0.21431674391E+02  0.95593167808E+02  0.90957638229E+02 0.  0.
         11    1    3    3    0    0 -0.31865082899E+02 -0.27062320884E+02 -0.20597134553E+02  0.46604663627E+02  0.51100000000E-03 0.  1.
         22    1    1    0    0    0 -0.15136882536E+02  0.13278550350E+02  0.21431674391E+02  0.29406832192E+02  0.00000000000E+00 0. -1.
</event>
<event>
 5    1  0.1681111E-003  0.9118800E+02  0.7818608E-02  0.1130116E+00
         25   -1    0    0    0    0  0.00000000000E+00  0.00000000000E+00  0.99999998245E-14  0.12500000000E+03  0.12500000000E+03 0.  0.
        -11    1    3    3    0    0  0.27512731828E+02 -0.24163284107E+02 -0.38160280328E+02  0.52886876505E+02  0.51100000000E-03 0. -1.
         23    2    1    0    0    0  0.10812462648E+02  0.12829548505E+02 -0.23676094112E+02  0.95981659321E+02  0.91489971200E+02 0.  0.
         11    1    3    3    0    0 -0.16700269180E+02  0.36992832612E+02  0.14484186216E+02  0.43094782816E+02  0.51100000000E-03 0.  1.
         22    1    1    0    0    0 -0.10812462648E+02 -0.12829548505E+02  0.23676094112E+02  0.29018340679E+02  0.00000000000E+00 0. -1.
</event>
<event>
 5    1  0.1681111E-003  0.9118800E+02  0.7818608E-02  0.1130116E+00
         25   -1    0    0    0    0  0.00000000000E+00  0.00000000000E+00  0.99999998245E-14  0.12500000000E+03  0.12500000000E+03 0.  0.
        -11    1    3    3    0    0  0.30697403771E+02  0.33841757413E+01 -0.30739664628E+02  0.43574192195E+02  0.51100000000E-03 0. -1.
         23    2    1    0    0    0  0.18561031909E+02  0.60525381308E+01  0.20730847369E+02  0.96523463062E+02  0.92227250666E+02 0.  0.
         11    1    3    3    0    0 -0.12136371863E+02  0.26683623895E+01  0.51470511997E+02  0.52949270867E+02  0.51100000000E-03 0.  1.
         22    1    1    0    0    0 -0.18561031909E+02 -0.60525381308E+01 -0.20730847369E+02  0.28476536938E+02  0.00000000000E+00 0.  1.
</event>
<event>
 5    1  0.1681111E-003  0.9118800E+02  0.7818608E-02  0.1130116E+00
         25   -1    0    0    0    0  0.00000000000E+00  0.00000000000E+00  0.99999998245E-14  0.12500000000E+03  0.12500000000E+03 0.  0.
        -11    1    3    3    0    0 -0.26388473670E+02 -0.13252342760E+02  0.41531794025E+02  0.50959454926E+02  0.51100000000E-03 0. -1.
         23    2    1    0    0    0 -0.25423942102E+02  0.13344363209E+02  0.54835153998E+01  0.95767863530E+02  0.91197400635E+02 0.  0.
         11    1    3    3    0    0  0.96453156825E+00  0.26596705969E+02 -0.36048278625E+02  0.44808408604E+02  0.51100000000E-03 0.  1.
         22    1    1    0    0    0  0.25423942102E+02 -0.13344363209E+02 -0.54835153998E+01  0.29232136470E+02  0.00000000000E+00 0. -1.
</event>
<event>
 5    1  0.1681111E-003  0.9118800E+02  0.7818608E-02  0.1130116E+00
         25   -1    0    0    0    0  0.00000000000E+00  0.00000000000E+00  0.99999998245E-14  0.12500000000E+03  0.12500000000E+03 0.  0.
        -11    1    3    3    0    0 -0.21689211628E+02  0.31703751184E+02 -0.16524595406E+02  0.41816408188E+02  0.51100000000E-03 0. -1.
         23    2    1    0    0    0  0.67182624718E+00 -0.17361781202E+02 -0.23054924840E+02  0.96131117853E+02  0.91693944529E+02 0.  0.
         11    1    3    3    0    0  0.22361037875E+02 -0.49065532387E+02 -0.65303294342E+01  0.54314709665E+02  0.51100000000E-03 0.  1.
         22    1    1    0    0    0 -0.67182624718E+00  0.17361781202E+02  0.23054924840E+02  0.28868882147E+02  0.00000000000E+00 0.  1.
</event>
<event>
 5    1  0.1681111E-003  0.9118800E+02  0.7818608E-02  0.1130116E+00
         25   -1    0    0    0    0  0.00000000000E+00  0.00000000000E+00  0.99999998245E-14  0.12500000000E+03  0.12500000000E+03 0.  0.
        -11    1    3    3    0    0 -0.30317553619E+02 -0.20793258473E+02 -0.41091905130E+02  0.55136723903E+02  0.51100000000E-03 0.  1.
         23    2    1    0    0    0 -0.32418642284E+02 -0.25449734197E+01 -0.10484222432E+02  0.90833288463E+02  0.84162474511E+02 0.  0.
         11    1    3    3    0    0 -0.21010886651E+01  0.18248285053E+02  0.30607682698E+02  0.35696564560E+02  0.51100000000E-03 0. -1.
         22    1    1    0    0    0  0.32418642284E+02  0.25449734197E+01  0.10484222432E+02  0.34166711537E+02  0.00000000000E+00 0.  1.
</event>
<event>
 5    1  0.1681111E-003  0.9118800E+02  0.7818608E-02  0.1130116E+00
         25   -1    0    0    0    0  0.00000000000E+00  0.00000000000E+00  0.99999998245E-14  0.12500000000E+03  0.12500000000E+03 0.  0.
        -11    1    3    3    0    0 -0.11173655761E+02 -0.31254462261E+02 -0.88743316783E+01  0.34357615710E+02  0.51100000000E-03 0.  1.
         23    2    1    0    0    0 -0.65371507847E+01  0.28995271733E+02 -0.14265541718E+01  0.95242728955E+02  0.90474760230E+02 0.  0.
         11    1    3    3    0    0  0.46365049766E+01  0.60249733994E+02  0.74477775065E+01  0.60885113245E+02  0.51100000000E-03 0. -1.
         22    1    1    0    0    0  0.65371507847E+01 -0.28995271733E+02  0.14265541718E+01  0.29757271045E+02  0.00000000000E+00 0. -1.
</event>
<event>
 5    1  0.1681111E-003  0.9118800E+02  0.7818608E-02  0.1130116E+00
         25   -1    0    0    0    0  0.00000000000E+00  0.00000000000E+00  0.99999998245E-14  0.12500000000E+03  0.12500000000E+03 0.  0.
        -11    1    3    3    0    0 -0.22228963663E+02  0.25952327070E+02 -0.72844788498E+01  0.34938714032E+02  0.51100000000E-03 0.  1.
         23    2    1    0    0    0  0.29554472195E+02  0.59386999303E+01 -0.15572093452E+02  0.91070292102E+02  0.84513744595E+02 0.  0.
         11    1    3    3    0    0  0.51783435858E+02 -0.20013627139E+02 -0.82876146022E+01  0.56131578069E+02  0.51100000000E-03 0. -1.
         22    1    1    0    0    0 -0.29554472195E+02 -0.59386999303E+01  0.15572093452E+02  0.33929707898E+02  0.00000000000E+00 0. -1.
</event>
<event>
 5    1  0.1681111E-003  0.9118800E+02  0.7818608E-02  0.1130116E+00
         25   -1    0    0    0    0  0.00000000000E+00  0.00000000000E+00  0.99999998245E-14  0.12500000000E+03  0.12500000000E+03 0.  0.
        -11    1    3    3    0    0  0.30510429755E+02 -0.27573172206E+02  0.14394917806E+00  0.41124042493E+02  0.51100000000E-03 0. -1.
         23    2    1    0    0    0  0.11411977091E+02  0.22809156165E+02  0.12788682561E+02  0.96468592258E+02  0.92152851635E+02 0.  0.
         11    1    3    3    0    0 -0.19098452664E+02  0.50382328370E+02  0.12644733383E+02  0.55344549765E+02  0.51100000000E-03 0.  1.
         22    1    1    0    0    0 -0.11411977091E+02 -0.22809156165E+02 -0.12788682561E+02  0.28531407742E+02  0.00000000000E+00 0. -1.
</event>
<event>
 5    1  0.1681111E-003  0.9118800E+02  0.7818608E-02  0.1130116E+00
         25   -1    0    0    0    0  0.00000000000E+00  0.00000000000E+00  0.99999998245E-14  0.12500000000E+03  0.12500000000E+03 0.  0.
        -11    1    3    3    0    0  0.25268492690E+02  0.15563501534E+02  0.39490608351E+02  0.49398658393E+02  0.51100000000E-03 0.  1.
         23    2    1    0    0    0  0.22314558679E+02  0.10117574334E+02 -0.94572251075E+01  0.98737023280E+02  0.95180123030E+02 0.  0.
         11    1    3    3    0    0 -0.29539340109E+01 -0.54459271995E+01 -0.48947833458E+02  0.49338364887E+02  0.51100000000E-03 0. -1.
         22    1    1    0    0    0 -0.22314558679E+02 -0.10117574334E+02  0.94572251075E+01  0.26262976720E+02  0.00000000000E+00 0.  1.
</event>
<event>
 5    1  0.1681111E-003  0.9118800E+02  0.7818608E-02  0.1130116E+00
         25   -1    0    0    0    0  0.00000000000E+00  0.00000000000E+00  0.99999998245E-14  0.12500000000E+03  0.12500000000E+03 0.  0.
        -11    1    3    3    0    0 -0.13611650407E+02  0.20999040719E+02  0.37841584485E+02  0.45367634438E+02  0.51100000000E-03 0.  1.
         23    2    1    0    0    0  0.59015697889E+01  0.24719443650E+02 -0.10400891402E+02  0.97539884154E+02  0.93594716936E+02 0.  0.
         11    1    3    3    0    0  0.19513220196E+02  0.37204029315E+01 -0.48242475887E+02  0.52172249715E+02  0.51100000000E-03 0. -1.
         22    1    1    0    0    0 -0.59015697889E+01 -0.24719443650E+02  0.10400891402E+02  0.27460115846E+02  0.00000000000E+00 0.  1.
</event>
<event>
 5    1  0.1681111E-003  0.9118800E+02  0.7818608E-02  0.1130116E+00
         25   -1    0    0    0    0  0.00000000000E+00  0.00000000000E+00  0.99999998245E-14  0.12500000000E+03  0.12500000000E+03 0.  0.
        -11    1    3    3    0    0 -0.45097794367E+02 -0.14584393962E+02 -0.52969194985E+01  0.47692483270E+02  0.51100000000E-03 0.  1.
         23    2    1    0    0    0  0.10006967140E+01 -0.24562529331E+02 -0.15485297986E+02  0.95946365206E+02  0.91441737196E+02 0.  0.
         11    1    3    3    0    0  0.46098491081E+02 -0.99781353692E+01 -0.10188378487E+02  0.48253881936E+02  0.51100000000E-03 0. -1.
         22    1    1    0    0    0 -0.10006967140E+01  0.24562529331E+02  0.15485297986E+02  0.29053634794E+02  0.00000000000E+00 0. -1.
</event>
<event>
 5    1  0.1681111E-003  0.9118800E+02  0.7818608E-02  0.1130116E+00
         25   -1    0    0    0    0  0.00000000000E+00  0.00000000000E+00  0.99999998245E-14  0.12500000000E+03  0.12500000000E+03 0.  0.
        -11    1    3    3    0    0 -0.15290950613E+02 -0.44612972087E+01 -0.52279068918E+02  0.54651783051E+02  0.51100000000E-03 0.  1.
         23    2    1    0    0    0  0.91232714265E+01  0.13354246192E+02 -0.24116373696E+02  0.95962619727E+02  0.91463954276E+02 0.  0.
         11    1    3    3    0    0  0.24414222039E+02  0.17815543401E+02  0.28162695222E+02  0.41310836676E+02  0.51100000000E-03 0. -1.
         22    1    1    0    0    0 -0.91232714265E+01 -0.13354246192E+02  0.24116373696E+02  0.29037380273E+02  0.00000000000E+00 0.  1.
</event>
<event>
 5    1  0.1681111E-003  0.9118800E+02  0.7818608E-02  0.1130116E+00
         25   -1    0    0    0    0  0.00000000000E+00  0.00000000000E+00  0.99999998245E-14  0.12500000000E+03  0.12500000000E+03 0.  0.
        -11    1    3    3    0    0 -0.15824946455E+02 -0.19320953601E+02  0.54630357854E+02  0.60068329242E+02  0.51100000000E-03 0. -1.
         23    2    1    0    0    0  0.50183436069E+00 -0.10790813226E+01  0.30614046193E+02  0.94362831747E+02  0.89250814768E+02 0.  0.
         11    1    3    3    0    0  0.16326780815E+02  0.18241872279E+02 -0.24016311661E+02  0.34294502505E+02  0.51100000000E-03 0.  1.
         22    1    1    0    0    0 -0.50183436069E+00  0.10790813226E+01 -0.30614046193E+02  0.30637168253E+02  0.00000000000E+00 0. -1.
</event>
<event>
 5    1  0.1681111E-003  0.9118800E+02  0.7818608E-02  0.1130116E+00
         25   -1    0    0    0    0  0.00000000000E+00  0.00000000000E+00  0.99999998245E-14  0.12500000000E+03  0.12500000000E+03 0.  0.
        -11    1    3    3    0    0  0.17092290144E+02  0.10603376461E+02  0.29090911363E+02  0.35367486466E+02  0.51100000000E-03 0. -1.
         23    2    1    0    0    0  0.11827054777E+01 -0.23827979649E+02 -0.17475968623E+02  0.95426686258E+02  0.90728559806E+02 0.  0.
         11    1    3    3    0    0 -0.15909584666E+02 -0.34431356110E+02 -0.46566879986E+02  0.60059199792E+02  0.51100000000E-03 0.  1.
         22    1    1    0    0    0 -0.11827054777E+01  0.23827979649E+02  0.17475968623E+02  0.29573313742E+02  0.00000000000E+00 0.  1.
</event>
<event>
 5    1  0.1681111E-003  0.9118800E+02  0.7818608E-02  0.1130116E+00
         25   -1    0    0    0    0  0.00000000000E+00  0.00000000000E+00  0.99999998245E-14  0.12500000000E+03  0.12500000000E+03 0.  0.
        -11    1    3    3    0    0  0.32249670725E+02 -0.25066193835E+02 -0.26319791102E+01  0.40930216827E+02  0.51100000000E-03 0.  1.
         23    2    1    0    0    0  0.10427935603E+02  0.26024164395E+02 -0.49344035480E+01  0.96533400067E+02  0.92240717780E+02 0.  0.
         11    1    3    3    0    0 -0.21821735122E+02  0.51090358230E+02 -0.23024244377E+01  0.55603183239E+02  0.51100000000E-03 0. -1.
         22    1    1    0    0    0 -0.10427935603E+02 -0.26024164395E+02  0.49344035480E+01  0.28466599933E+02  0.00000000000E+00 0. -1.
</event>
<event>
 5    1  0.1681111E-003  0.9118800E+02  0.7818608E-02  0.1130116E+00
         25   -1    0    0    0    0  0.00000000000E+00  0.00000000000E+00  0.99999998245E-14  0.12500000000E+03  0.12500000000E+03 0.  0.
        -11    1    3    3    0    0 -0.35273829690E+02  0.12381374205E+02 -0.19267169429E+02  0.42056691575E+02  0.51100000000E-03 0. -1.
         23    2    1    0    0    0  0.78026128672E+00  0.30398473858E+02  0.11213649271E+02  0.92589786324E+02  0.86732038953E+02 0.  0.
         11    1    3    3    0    0  0.36054090976E+02  0.18017099653E+02  0.30480818700E+02  0.50533094749E+02  0.51100000000E-03 0.  1.
         22    1    1    0    0    0 -0.78026128672E+00 -0.30398473858E+02 -0.11213649271E+02  0.32410213676E+02  0.00000000000E+00 0.  1.
</event>
<event>
 5    1  0.1681111E-003  0.9118800E+02  0.7818608E-02  0.1130116E+00
         25   -1    0    0    0    0  0.00000000000E+00  0.00000000000E+00  0.99999998245E-14  0.12500000000E+03  0.12500000000E+03 0.  0.
        -11    1    3    3    0    0 -0.28892110942E+02  0.43052667856E+02  0.23700857013E+02  0.57008919544E+02  0.51100000000E-03 0.  1.
         23    2    1    0    0    0 -0.24130384766E+02  0.71706775690E+01  0.85507852183E+00  0.99812200473E+02  0.96581831201E+02 0.  0.
         11    1    3    3    0    0  0.47617261763E+01 -0.35881990287E+02 -0.22845778491E+02  0.42803280929E+02  0.51100000000E-03 0. -1.
         22    1    1    0    0    0  0.24130384766E+02 -0.71706775690E+01 -0.85507852183E+00  0.25187799527E+02  0.00000000000E+00 0.  1.
</event>
<event>
 5    1  0.1681111E-003  0.9118800E+02  0.7818608E-02  0.1130116E+00
         25   -1    0    0    0    0  0.00000000000E+00  0.00000000000E+00  0.99999998245E-14  0.12500000000E+03  0.12500000000E+03 0.  0.
        -11    1    3    3    0    0  0.50705686682E+02 -0.21211593679E+02  0.33725896678E+01  0.55066984025E+02  0.51100000000E-03 0.  1.
         23    2    1    0    0    0  0.11722043929E+02 -0.27261049107E+02  0.64349186017E+01  0.94635888129E+02  0.89632427348E+02 0.  0.
         11    1    3    3    0    0 -0.38983642752E+02 -0.60494554277E+01  0.30623289339E+01  0.39568904104E+02  0.51100000000E-03 0. -1.
         22    1    1    0    0    0 -0.11722043929E+02  0.27261049107E+02 -0.64349186017E+01  0.30364111871E+02  0.00000000000E+00 0.  1.
</event>
<event>
 4    1  0.1681111E-003  0.9118800E+02  0.7818608E-02  0.1130116E+00
         25   -1    0    0    0    0  0.00000000000E+00  0.00000000000E+00  0.99999998245E-14  0.12500000000E+03  0.12500000000E+03 0.  0.
        -11    1    1    0    0    0 -0.16081857106E+02  0.24671388265E+02  0.21595282006E+02  0.36519306292E+02  0.51100000000E-03 0.  1.
         11    1    1    0    0    0  0.11110597575E+02  0.28983535961E+02 -0.14044055846E+02  0.34069432636E+02  0.51100000000E-03 0. -1.
         22    1    1    0    0    0  0.49712595313E+01 -0.53654924225E+02 -0.75512261600E+01  0.54411261072E+02  0.00000000000E+00 0.  1.
</event>
<event>
 5    1  0.1681111E-003  0.9118800E+02  0.7818608E-02  0.1130116E+00
         25   -1    0    0    0    0  0.00000000000E+00  0.00000000000E+00  0.99999998245E-14  0.12500000000E+03  0.12500000000E+03 0.  0.
        -11    1    3    3    0    0 -0.10524747749E+02  0.58739304270E+02 -0.10687655186E+01  0.59684323246E+02  0.51100000000E-03 0.  1.
         23    2    1    0    0    0 -0.12830739416E+02  0.24324021788E+02 -0.10691914724E+02  0.95494018397E+02  0.90821278339E+02 0.  0.
         11    1    3    3    0    0 -0.23059916668E+01 -0.34415282482E+02 -0.96231492052E+01  0.35809695151E+02  0.51100000000E-03 0. -1.
         22    1    1    0    0    0  0.12830739416E+02 -0.24324021788E+02  0.10691914724E+02  0.29505981603E+02  0.00000000000E+00 0.  1.
</event>
<event>
 5    1  0.1681111E-003  0.9118800E+02  0.7818608E-02  0.1130116E+00
         25   -1    0    0    0    0  0.00000000000E+00  0.00000000000E+00  0.99999998245E-14  0.12500000000E+03  0.12500000000E+03 0.  0.
        -11    1    3    3    0    0 -0.35606581815E+02 -0.63063057869E+01 -0.44473163285E+02  0.57318935912E+02  0.51100000000E-03 0. -1.
         23    2    1    0    0    0 -0.32974645223E+01 -0.14063837256E+02 -0.25793521095E+02  0.95437007575E+02  0.90742778742E+02 0.  0.
         11    1    3    3    0    0  0.32309117293E+02 -0.77575314687E+01  0.18679642190E+02  0.38118071663E+02  0.51100000000E-03 0.  1.
         22    1    1    0    0    0  0.32974645223E+01  0.14063837256E+02  0.25793521095E+02  0.29562992425E+02  0.00000000000E+00 0. -1.
</event>
<event>
 5    1  0.1681111E-003  0.9118800E+02  0.7818608E-02  0.1130116E+00
         25   -1    0    0    0    0  0.00000000000E+00  0.00000000000E+00  0.99999998245E-14  0.12500000000E+03  0.12500000000E+03 0.  0.
        -11    1    3    3    0    0 -0.25044948760E+02 -0.21300348522E+02  0.27184329937E+01  0.32990061894E+02  0.51100000000E-03 0. -1.
         23    2    1    0    0    0  0.28816843077E+02  0.88592921284E+01  0.28145653337E+01  0.94720976238E+02  0.89751011468E+02 0.  0.
         11    1    3    3    0    0  0.53861791837E+02  0.30159640650E+02  0.96132339962E-01  0.61730914344E+02  0.51100000000E-03 0.  1.
         22    1    1    0    0    0 -0.28816843077E+02 -0.88592921284E+01 -0.28145653337E+01  0.30279023762E+02  0.00000000000E+00 0.  1.
</event>
<event>
 5    1  0.1681111E-003  0.9118800E+02  0.7818608E-02  0.1130116E+00
         25   -1    0    0    0    0  0.00000000000E+00  0.00000000000E+00  0.99999998245E-14  0.12500000000E+03  0.12500000000E+03 0.  0.
        -11    1    3    3    0    0 -0.93857539658E+01  0.48128723855E+02  0.17096316121E+02  0.51930246125E+02  0.51100000000E-03 0. -1.
         23    2    1    0    0    0  0.20712827601E+02  0.17992958097E+02  0.12756307946E+02  0.94742915528E+02  0.89781562038E+02 0.  0.
         11    1    3    3    0    0  0.30098581567E+02 -0.30135765758E+02 -0.43400081748E+01  0.42812669403E+02  0.51100000000E-03 0.  1.
         22    1    1    0    0    0 -0.20712827601E+02 -0.17992958097E+02 -0.12756307946E+02  0.30257084472E+02  0.00000000000E+00 0. -1.
</event>
<event>
 5    1  0.1681111E-003  0.9118800E+02  0.7818608E-02  0.1130116E+00
         25   -1    0    0    0    0  0.00000000000E+00  0.00000000000E+00  0.99999998245E-14  0.12500000000E+03  0.12500000000E+03 0.  0.
        -11    1    3    3    0    0  0.37641021704E+01  0.33463448168E+02  0.48824993502E+02  0.59311472914E+02  0.51100000000E-03 0.  1.
         23    2    1    0    0    0 -0.29293701930E+01  0.23909588271E+02  0.11710655256E+02  0.98215880311E+02  0.94493227681E+02 0.  0.
         11    1    3    3    0    0 -0.66934723634E+01 -0.95538598967E+01 -0.37114338246E+02  0.38904407397E+02  0.51100000000E-03 0. -1.
         22    1    1    0    0    0  0.29293701930E+01 -0.23909588271E+02 -0.11710655256E+02  0.26784119689E+02  0.00000000000E+00 0.  1.
</event>
<event>
 5    1  0.1681111E-003  0.9118800E+02  0.7818608E-02  0.1130116E+00
         25   -1    0    0    0    0  0.00000000000E+00  0.00000000000E+00  0.99999998245E-14  0.12500000000E+03  0.12500000000E+03 0.  0.
        -11    1    3    3    0    0  0.35547003405E+02 -0.34570171884E+02  0.74440210999E+01  0.50140798613E+02  0.51100000000E-03 0. -1.
         23    2    1    0    0    0  0.27581638429E+02  0.89325827869E+01 -0.37634044891E+01  0.95764729743E+02  0.91193105198E+02 0.  0.
         11    1    3    3    0    0 -0.79653649767E+01  0.43502754671E+02 -0.11207425589E+02  0.45623931130E+02  0.51100000000E-03 0.  1.
         22    1    1    0    0    0 -0.27581638429E+02 -0.89325827869E+01  0.37634044891E+01  0.29235270257E+02  0.00000000000E+00 0.  1.
</event>
<event>
 5    1  0.1681111E-003  0.9118800E+02  0.7818608E-02  0.1130116E+00
         25   -1    0    0    0    0  0.00000000000E+00  0.00000000000E+00  0.99999998245E-14  0.12500000000E+03  0.12500000000E+03 0.  0.
        -11    1    3    3    0    0  0.18543045992E+02 -0.16916233769E+02 -0.33073467691E+02  0.41519366384E+02  0.51100000000E-03 0.  1.
         23    2    1    0    0    0 -0.27837086724E+02 -0.25934311203E+01 -0.95849911714E+01  0.95444943951E+02  0.90753710601E+02 0.  0.
         11    1    3    3    0    0 -0.46380132716E+02  0.14322802649E+02  0.23488476520E+02  0.53925577567E+02  0.51100000000E-03 0. -1.
         22    1    1    0    0    0  0.27837086724E+02  0.25934311203E+01  0.95849911714E+01  0.29555056049E+02  0.00000000000E+00 0. -1.
</event>
<event>
 5    1  0.1681111E-003  0.9118800E+02  0.7818608E-02  0.1130116E+00
         25   -1    0    0    0    0  0.00000000000E+00  0.00000000000E+00  0.99999998245E-14  0.12500000000E+03  0.12500000000E+03 0.  0.
        -11    1    3    3    0    0 -0.30456877381E+02  0.99618969130E+01  0.37867615268E+02  0.49606623109E+02  0.51100000000E-03 0.  1.
         23    2    1    0    0    0  0.12364250017E+02  0.15512001460E+02  0.21401889073E+02  0.95818880699E+02  0.91267300688E+02 0.  0.
         11    1    3    3    0    0  0.42821127398E+02  0.55501045468E+01 -0.16465726196E+02  0.46212257590E+02  0.51100000000E-03 0. -1.
         22    1    1    0    0    0 -0.12364250017E+02 -0.15512001460E+02 -0.21401889073E+02  0.29181119301E+02  0.00000000000E+00 0.  1.
</event>
<event>
 5    1  0.1681111E-003  0.9118800E+02  0.7818608E-02  0.1130116E+00
         25   -1    0    0    0    0  0.00000000000E+00  0.00000000000E+00  0.99999998245E-14  0.12500000000E+03  0.12500000000E+03 0.  0.
        -11    1    3    3    0    0 -0.26185394330E+02  0.38574382040E+02 -0.10500034218E+02  0.47790255752E+02  0.51100000000E-03 0. -1.
         23    2    1    0    0    0 -0.32736672943E+01  0.16268666280E+02  0.24634501334E+02  0.95297389743E+02  0.90550248126E+02 0.  0.
         11    1    3    3    0    0  0.22911727036E+02 -0.22305715760E+02  0.35134535552E+02  0.47507133991E+02  0.51100000000E-03 0.  1.
         22    1    1    0    0    0  0.32736672943E+01 -0.16268666280E+02 -0.24634501334E+02  0.29702610257E+02  0.00000000000E+00 0. -1.
</event>
<event>
 5    1  0.1681111E-003  0.9118800E+02  0.7818608E-02  0.1130116E+00
         25   -1    0    0    0    0  0.00000000000E+00  0.00000000000E+00  0.99999998245E-14  0.12500000000E+03  0.12500000000E+03 0.  0.
        -11    1    3    3    0    0 -0.30605163443E+02  0.20165920322E+02  0.23706874616E+02  0.43650386895E+02  0.51100000000E-03 0. -1.
         23    2    1    0    0    0  0.89818795003E+01  0.34352157794E+02  0.75523212424E+01  0.88698726460E+02  0.80930103268E+02 0.  0.
         11    1    3    3    0    0  0.39587042943E+02  0.14186237472E+02 -0.16154553373E+02  0.45048339565E+02  0.51100000000E-03 0.  1.
         22    1    1    0    0    0 -0.89818795003E+01 -0.34352157794E+02 -0.75523212424E+01  0.36301273540E+02  0.00000000000E+00 0.  1.
</event>
<event>
 5    1  0.1681111E-003  0.9118800E+02  0.7818608E-02  0.1130116E+00
         25   -1    0    0    0    0  0.00000000000E+00  0.00000000000E+00  0.99999998245E-14  0.12500000000E+03  0.12500000000E+03 0.  0.
        -11    1    3    3    0    0  0.11865375372E+02 -0.35014649054E+02  0.52916190852E+01  0.37347208917E+02  0.51100000000E-03 0. -1.
         23    2    1    0    0    0  0.52018173853E+01  0.10288418126E+02 -0.28500157847E+02  0.94256391739E+02  0.89101615780E+02 0.  0.
         11    1    3    3    0    0 -0.66635579870E+01  0.45303067180E+02 -0.33791776932E+02  0.56909182822E+02  0.51100000000E-03 0.  1.
         22    1    1    0    0    0 -0.52018173853E+01 -0.10288418126E+02  0.28500157847E+02  0.30743608261E+02  0.00000000000E+00 0.  1.
</event>
<event>
 5    1  0.1681111E-003  0.9118800E+02  0.7818608E-02  0.1130116E+00
         25   -1    0    0    0    0  0.00000000000E+00  0.00000000000E+00  0.99999998245E-14  0.12500000000E+03  0.12500000000E+03 0.  0.
        -11    1    3    3    0    0  0.79359961516E+01 -0.28561336914E+02  0.28947671245E+02  0.41433050479E+02  0.51100000000E-03 0.  1.
         23    2    1    0    0    0 -0.98104284130E+01 -0.23713658794E+02 -0.19183104871E+02  0.92959812243E+02  0.87263698413E+02 0.  0.
         11    1    3    3    0    0 -0.17746424565E+02  0.48476781204E+01 -0.48130776116E+02  0.51526761763E+02  0.51100000000E-03 0. -1.
         22    1    1    0    0    0  0.98104284130E+01  0.23713658794E+02  0.19183104871E+02  0.32040187757E+02  0.00000000000E+00 0. -1.
</event>
<event>
 5    1  0.1681111E-003  0.9118800E+02  0.7818608E-02  0.1130116E+00
         25   -1    0    0    0    0  0.00000000000E+00  0.00000000000E+00  0.99999998245E-14  0.12500000000E+03  0.12500000000E+03 0.  0.
        -11    1    3    3    0    0 -0.42043451154E+02 -0.43039900963E+01 -0.61943743647E+01  0.42714709290E+02  0.51100000000E-03 0. -1.
         23    2    1    0    0    0  0.56128957294E+01 -0.24501234012E+02 -0.15733562348E+02  0.95345994356E+02  0.90617319475E+02 0.  0.
         11    1    3    3    0    0  0.47656346883E+02 -0.20197243916E+02 -0.95391879838E+01  0.52631285066E+02  0.51100000000E-03 0.  1.
         22    1    1    0    0    0 -0.56128957294E+01  0.24501234012E+02  0.15733562348E+02  0.29654005644E+02  0.00000000000E+00 0.  1.
</event>
<event>
 5    1  0.1681111E-003  0.9118800E+02  0.7818608E-02  0.1130116E+00
         25   -1    0    0    0    0  0.00000000000E+00  0.00000000000E+00  0.99999998245E-14  0.12500000000E+03  0.12500000000E+03 0.  0.
        -11    1    3    3    0    0 -0.41885753444E+02 -0.13136920741E+02 -0.88160408739E+01  0.44774072912E+02  0.51100000000E-03 0. -1.
         23    2    1    0    0    0  0.47389030629E+01 -0.19385789198E+02 -0.23608681877E+02  0.94086639053E+02  0.88863151887E+02 0.  0.
         11    1    3    3    0    0  0.46624656507E+02 -0.62488684562E+01 -0.14792641003E+02  0.49312566142E+02  0.51100000000E-03 0.  1.
         22    1    1    0    0    0 -0.47389030629E+01  0.19385789198E+02  0.23608681877E+02  0.30913360947E+02  0.00000000000E+00 0. -1.
</event>
<event>
 5    1  0.1681111E-003  0.9118800E+02  0.7818608E-02  0.1130116E+00
         25   -1    0    0    0    0  0.00000000000E+00  0.00000000000E+00  0.99999998245E-14  0.12500000000E+03  0.12500000000E+03 0.  0.
        -11    1    3    3    0    0 -0.10783222281E+02  0.18521994088E+02 -0.53789865665E+02  0.57902433422E+02  0.51100000000E-03 0. -1.
         23    2    1    0    0    0 -0.34024419555E+01  0.23504442740E+02 -0.16901503761E+02  0.95850449932E+02  0.91310527777E+02 0.  0.
         11    1    3    3    0    0  0.73807803255E+01  0.49824486525E+01  0.36888361904E+02  0.37948016509E+02  0.51100000000E-03 0.  1.
         22    1    1    0    0    0  0.34024419555E+01 -0.23504442740E+02  0.16901503761E+02  0.29149550068E+02  0.00000000000E+00 0.  1.
</event>
<event>
 5    1  0.1681111E-003  0.9118800E+02  0.7818608E-02  0.1130116E+00
         25   -1    0    0    0    0  0.00000000000E+00  0.00000000000E+00  0.99999998245E-14  0.12500000000E+03  0.12500000000E+03 0.  0.
        -11    1    3    3    0    0 -0.23554989384E+02 -0.20444310183E+02  0.55551205563E+01  0.31680699304E+02  0.51100000000E-03 0. -1.
         23    2    1    0    0    0  0.30955127158E+02 -0.97947910118E+01  0.16943720931E+02  0.88376953878E+02  0.80431576321E+02 0.  0.
         11    1    3    3    0    0  0.54510116542E+02  0.10649519171E+02  0.11388600374E+02  0.56696254574E+02  0.51100000000E-03 0.  1.
         22    1    1    0    0    0 -0.30955127158E+02  0.97947910118E+01 -0.16943720931E+02  0.36623046122E+02  0.00000000000E+00 0.  1.
</event>
<event>
 5    1  0.1681111E-003  0.9118800E+02  0.7818608E-02  0.1130116E+00
         25   -1    0    0    0    0  0.00000000000E+00  0.00000000000E+00  0.99999998245E-14  0.12500000000E+03  0.12500000000E+03 0.  0.
        -11    1    3    3    0    0  0.43285527471E+02  0.34613007969E+02 -0.41451697654E+01  0.55577690144E+02  0.51100000000E-03 0. -1.
         23    2    1    0    0    0  0.20866108266E+02 -0.24847210295E+01 -0.13635152803E+02  0.99950335237E+02  0.96760445479E+02 0.  0.
         11    1    3    3    0    0 -0.22419419205E+02 -0.37097728998E+02 -0.94899830371E+01  0.44372645094E+02  0.51100000000E-03 0.  1.
         22    1    1    0    0    0 -0.20866108266E+02  0.24847210295E+01  0.13635152803E+02  0.25049664763E+02  0.00000000000E+00 0. -1.
</event>
<event>
 5    1  0.1681111E-003  0.9118800E+02  0.7818608E-02  0.1130116E+00
         25   -1    0    0    0    0  0.00000000000E+00  0.00000000000E+00  0.99999998245E-14  0.12500000000E+03  0.12500000000E+03 0.  0.
        -11    1    3    3    0    0 -0.74558087546E+01  0.37016658503E+02 -0.95163025990E+01  0.38940751230E+02  0.51100000000E-03 0. -1.
         23    2    1    0    0    0 -0.83314015554E+01 -0.42401918134E+01  0.28473576213E+02  0.95031082421E+02  0.90181875149E+02 0.  0.
         11    1    3    3    0    0 -0.87559280076E+00 -0.41256850317E+02  0.37989878812E+02  0.56090331192E+02  0.51100000000E-03 0.  1.
         22    1    1    0    0    0  0.83314015554E+01  0.42401918134E+01 -0.28473576213E+02  0.29968917579E+02  0.00000000000E+00 0.  1.
</event>
<event>
 5    1  0.1681111E-003  0.9118800E+02  0.7818608E-02  0.1130116E+00
         25   -1    0    0    0    0  0.00000000000E+00  0.00000000000E+00  0.99999998245E-14  0.12500000000E+03  0.12500000000E+03 0.  0.
        -11    1    3    3    0    0  0.11914862470E+02  0.20666561308E+00 -0.48969170721E+02  0.50398277150E+02  0.51100000000E-03 0.  1.
         23    2    1    0    0    0 -0.39528017503E+01  0.25016803813E+02 -0.14200427832E+02  0.95963518372E+02  0.91465182409E+02 0.  0.
         11    1    3    3    0    0 -0.15867664221E+02  0.24810138200E+02  0.34768742888E+02  0.45565241222E+02  0.51100000000E-03 0. -1.
         22    1    1    0    0    0  0.39528017503E+01 -0.25016803813E+02  0.14200427832E+02  0.29036481628E+02  0.00000000000E+00 0.  1.
</event>
<event>
 5    1  0.1681111E-003  0.9118800E+02  0.7818608E-02  0.1130116E+00
         25   -1    0    0    0    0  0.00000000000E+00  0.00000000000E+00  0.99999998245E-14  0.12500000000E+03  0.12500000000E+03 0.  0.
        -11    1    3    3    0    0  0.34915742601E+02  0.58913569747E+01 -0.11854573775E+02  0.37340970636E+02  0.51100000000E-03 0.  1.
         23    2    1    0    0    0 -0.21720708983E+02  0.57167539096E+01 -0.20447874517E+02  0.94625898429E+02  0.89618494783E+02 0.  0.
         11    1    3    3    0    0 -0.56636451584E+02 -0.17460306515E+00 -0.85933007425E+01  0.57284927793E+02  0.51100000000E-03 0. -1.
         22    1    1    0    0    0  0.21720708983E+02 -0.57167539096E+01  0.20447874517E+02  0.30374101571E+02  0.00000000000E+00 0. -1.
</event>
<event>
 5    1  0.1681111E-003  0.9118800E+02  0.7818608E-02  0.1130116E+00
         25   -1    0    0    0    0  0.00000000000E+00  0.00000000000E+00  0.99999998245E-14  0.12500000000E+03  0.12500000000E+03 0.  0.
        -11    1    3    3    0    0 -0.44521535347E+02  0.14183208248E+02 -0.37594322431E+02  0.59972190098E+02  0.51100000000E-03 0.  1.
         23    2    1    0    0    0 -0.19317144307E+02 -0.58063724436E+01 -0.19801701053E+02  0.96733882656E+02  0.92512002810E+02 0.  0.
         11    1    3    3    0    0  0.25204391041E+02 -0.19989580692E+02  0.17792621377E+02  0.36761692558E+02  0.51100000000E-03 0. -1.
         22    1    1    0    0    0  0.19317144307E+02  0.58063724436E+01  0.19801701053E+02  0.28266117344E+02  0.00000000000E+00 0.  1.
</event>
<event>
 5    1  0.1681111E-003  0.9118800E+02  0.7818608E-02  0.1130116E+00
         25   -1    0    0    0    0  0.00000000000E+00  0.00000000000E+00  0.99999998245E-14  0.12500000000E+03  0.12500000000E+03 0.  0.
        -11    1    3    3    0    0 -0.73441277054E+00  0.31665926349E+02 -0.14336519046E+02  0.34767887947E+02  0.51100000000E-03 0.  1.
         23    2    1    0    0    0 -0.14316884501E+02 -0.22813807049E+02  0.10406623362E+02  0.96125430156E+02  0.91686190558E+02 0.  0.
         11    1    3    3    0    0 -0.13582471730E+02 -0.54479733398E+02  0.24743142408E+02  0.61357542209E+02  0.51100000000E-03 0. -1.
         22    1    1    0    0    0  0.14316884501E+02  0.22813807049E+02 -0.10406623362E+02  0.28874569844E+02  0.00000000000E+00 0. -1.
</event>
<event>
 5    1  0.1681111E-003  0.9118800E+02  0.7818608E-02  0.1130116E+00
         25   -1    0    0    0    0  0.00000000000E+00  0.00000000000E+00  0.99999998245E-14  0.12500000000E+03  0.12500000000E+03 0.  0.
        -11    1    3    3    0    0  0.36755036689E+02 -0.12901228340E+02  0.13901032720E+02  0.41359559060E+02  0.51100000000E-03 0. -1.
         23    2    1    0    0    0 -0.76187351453E+01  0.19374733673E+02  0.19449052729E+02  0.96509807263E+02  0.92208740452E+02 0.  0.
         11    1    3    3    0    0 -0.44373771834E+02  0.32275962013E+02  0.55480200094E+01  0.55150248204E+02  0.51100000000E-03 0.  1.
         22    1    1    0    0    0  0.76187351453E+01 -0.19374733673E+02 -0.19449052729E+02  0.28490192737E+02  0.00000000000E+00 0.  1.
</event>
<event>
 5    1  0.1681111E-003  0.9118800E+02  0.7818608E-02  0.1130116E+00
         25   -1    0    0    0    0  0.00000000000E+00  0.00000000000E+00  0.99999998245E-14  0.12500000000E+03  0.12500000000E+03 0.  0.
        -11    1    3    3    0    0  0.82222003366E+01 -0.35795009676E+02  0.23867344266E+02  0.43801112071E+02  0.51100000000E-03 0. -1.
         23    2    1    0    0    0  0.29579273681E+02 -0.16382204609E+01 -0.70096538852E+01  0.94557390957E+02  0.89522889471E+02 0.  0.
         11    1    3    3    0    0  0.21357073344E+02  0.34156789215E+02 -0.30876998151E+02  0.50756278886E+02  0.51100000000E-03 0.  1.
         22    1    1    0    0    0 -0.29579273681E+02  0.16382204609E+01  0.70096538852E+01  0.30442609043E+02  0.00000000000E+00 0.  1.
</event>
<event>
 5    1  0.1681111E-003  0.9118800E+02  0.7818608E-02  0.1130116E+00
         25   -1    0    0    0    0  0.00000000000E+00  0.00000000000E+00  0.99999998245E-14  0.12500000000E+03  0.12500000000E+03 0.  0.
        -11    1    3    3    0    0 -0.10324284354E+02 -0.45540702226E+02  0.19279730614E+02  0.50519841839E+02  0.51100000000E-03 0.  1.
         23    2    1    0    0    0 -0.10982707683E+02 -0.29690951602E+00  0.26473991731E+02  0.96336778592E+02  0.91973880249E+02 0.  0.
         11    1    3    3    0    0 -0.65842332891E+00  0.45243792710E+02  0.71942611175E+01  0.45816936753E+02  0.51100000000E-03 0. -1.
         22    1    1    0    0    0  0.10982707683E+02  0.29690951602E+00 -0.26473991731E+02  0.28663221408E+02  0.00000000000E+00 0.  1.
</event>
<event>
 5    1  0.1681111E-003  0.9118800E+02  0.7818608E-02  0.1130116E+00
         25   -1    0    0    0    0  0.00000000000E+00  0.00000000000E+00  0.99999998245E-14  0.12500000000E+03  0.12500000000E+03 0.  0.
        -11    1    3    3    0    0  0.51267617218E+01 -0.12454092602E+02  0.43252489047E+02  0.45300837931E+02  0.51100000000E-03 0.  1.
         23    2    1    0    0    0  0.26426956728E+02  0.27678103676E+01 -0.28067919951E+01  0.98280664353E+02  0.94578888174E+02 0.  0.
         11    1    3    3    0    0  0.21300195006E+02  0.15221902970E+02 -0.46059281042E+02  0.52979826422E+02  0.51100000000E-03 0. -1.
         22    1    1    0    0    0 -0.26426956728E+02 -0.27678103676E+01  0.28067919951E+01  0.26719335647E+02  0.00000000000E+00 0. -1.
</event>
<event>
 5    1  0.1681111E-003  0.9118800E+02  0.7818608E-02  0.1130116E+00
         25   -1    0    0    0    0  0.00000000000E+00  0.00000000000E+00  0.99999998245E-14  0.12500000000E+03  0.12500000000E+03 0.  0.
        -11    1    3    3    0    0  0.28857837691E+02  0.31811483838E+02  0.34169624482E+02  0.54884501798E+02  0.51100000000E-03 0. -1.
         23    2    1    0    0    0  0.26454498553E+02  0.11620089390E+02 -0.16344552380E+01  0.96059744039E+02  0.91596593877E+02 0.  0.
         11    1    3    3    0    0 -0.24033391372E+01 -0.20191394448E+02 -0.35804079720E+02  0.41175242241E+02  0.51100000000E-03 0.  1.
         22    1    1    0    0    0 -0.26454498553E+02 -0.11620089390E+02  0.16344552380E+01  0.28940255961E+02  0.00000000000E+00 0. -1.
</event>
<event>
 5    1  0.1681111E-003  0.9118800E+02  0.7818608E-02  0.1130116E+00
         25   -1    0    0    0    0  0.00000000000E+00  0.00000000000E+00  0.99999998245E-14  0.12500000000E+03  0.12500000000E+03 0.  0.
        -11    1    3    3    0    0  0.42665484725E+02  0.55256743303E+01  0.32874054362E+02  0.54144068134E+02  0.51100000000E-03 0.  1.
         23    2    1    0    0    0  0.24610084942E+01 -0.65115694486E+01  0.27710754656E+02  0.96428282812E+02  0.92098157978E+02 0.  0.
         11    1    3    3    0    0 -0.40204476231E+02 -0.12037243779E+02 -0.51632997065E+01  0.42284214678E+02  0.51100000000E-03 0. -1.
         22    1    1    0    0    0 -0.24610084942E+01  0.65115694486E+01 -0.27710754656E+02  0.28571717188E+02  0.00000000000E+00 0.  1.
</event>
<event>
 5    1  0.1681111E-003  0.9118800E+02  0.7818608E-02  0.1130116E+00
         25   -1    0    0    0    0  0.00000000000E+00  0.00000000000E+00  0.99999998245E-14  0.12500000000E+03  0.12500000000E+03 0.  0.
        -11    1    3    3    0    0 -0.96677866892E+01  0.32179790011E+02 -0.20123884393E+01  0.33660877768E+02  0.51100000000E-03 0. -1.
         23    2    1    0    0    0  0.16312121719E+02 -0.21522428472E+02 -0.14108398530E+02  0.94531210208E+02  0.89486326061E+02 0.  0.
         11    1    3    3    0    0  0.25979908409E+02 -0.53702218483E+02 -0.12096010090E+02  0.60870332440E+02  0.51100000000E-03 0.  1.
         22    1    1    0    0    0 -0.16312121719E+02  0.21522428472E+02  0.14108398530E+02  0.30468789792E+02  0.00000000000E+00 0.  1.
</event>
<event>
 5    1  0.1681111E-003  0.9118800E+02  0.7818608E-02  0.1130116E+00
         25   -1    0    0    0    0  0.00000000000E+00  0.00000000000E+00  0.99999998245E-14  0.12500000000E+03  0.12500000000E+03 0.  0.
        -11    1    3    3    0    0 -0.13155283867E+02 -0.31372142238E+02  0.12431635540E+02  0.36219033183E+02  0.51100000000E-03 0.  1.
         23    2    1    0    0    0  0.31321587935E+02 -0.18275917413E+02  0.20593694878E+02  0.83296867063E+02  0.72105594552E+02 0.  0.
         11    1    3    3    0    0  0.44476871802E+02  0.13096224825E+02  0.81620593377E+01  0.47077833880E+02  0.51100000000E-03 0. -1.
         22    1    1    0    0    0 -0.31321587935E+02  0.18275917413E+02 -0.20593694878E+02  0.41703132937E+02  0.00000000000E+00 0.  1.
</event>
<event>
 5    1  0.1681111E-003  0.9118800E+02  0.7818608E-02  0.1130116E+00
         25   -1    0    0    0    0  0.00000000000E+00  0.00000000000E+00  0.99999998245E-14  0.12500000000E+03  0.12500000000E+03 0.  0.
        -11    1    3    3    0    0 -0.23422527459E+02  0.44035424945E+02  0.53174701354E+00  0.49880018021E+02  0.51100000000E-03 0. -1.
         23    2    1    0    0    0 -0.17154335989E+01  0.13255285974E+02  0.26288206809E+02  0.95509066887E+02  0.90841987658E+02 0.  0.
         11    1    3    3    0    0  0.21707093860E+02 -0.30780138971E+02  0.25756459795E+02  0.45629048866E+02  0.51100000000E-03 0.  1.
         22    1    1    0    0    0  0.17154335989E+01 -0.13255285974E+02 -0.26288206809E+02  0.29490933113E+02  0.00000000000E+00 0.  1.
</event>
<event>
 5    1  0.1681111E-003  0.9118800E+02  0.7818608E-02  0.1130116E+00
         25   -1    0    0    0    0  0.00000000000E+00  0.00000000000E+00  0.99999998245E-14  0.12500000000E+03  0.12500000000E+03 0.  0.
        -11    1    3    3    0    0 -0.27463426106E+02  0.49921033262E+02 -0.73144030290E+01  0.57444319365E+02  0.51100000000E-03 0.  1.
         23    2    1    0    0    0  0.83321479874E+00  0.29043760348E+02  0.65014932766E+01  0.95225788392E+02  0.90451352107E+02 0.  0.
         11    1    3    3    0    0  0.28296640905E+02 -0.20877272913E+02  0.13815896306E+02  0.37781469026E+02  0.51100000000E-03 0. -1.
         22    1    1    0    0    0 -0.83321479874E+00 -0.29043760348E+02 -0.65014932766E+01  0.29774211608E+02  0.00000000000E+00 0.  1.
</event>
<event>
 5    1  0.1681111E-003  0.9118800E+02  0.7818608E-02  0.1130116E+00
         25   -1    0    0    0    0  0.00000000000E+00  0.00000000000E+00  0.99999998245E-14  0.12500000000E+03  0.12500000000E+03 0.  0.
        -11    1    3    3    0    0  0.24434150300E+02 -0.30102282751E+02 -0.32676353169E+02  0.50704232411E+02  0.51100000000E-03 0.  1.
         23    2    1    0    0    0  0.23447320234E+02  0.10746208231E+02 -0.10981423807E+02  0.96966992914E+02  0.92826441429E+02 0.  0.
         11    1    3    3    0    0 -0.98683006691E+00  0.40848490982E+02  0.21694929362E+02  0.46262760503E+02  0.51100000000E-03 0. -1.
         22    1    1    0    0    0 -0.23447320234E+02 -0.10746208231E+02  0.10981423807E+02  0.28033007086E+02  0.00000000000E+00 0.  1.
</event>
<event>
 5    1  0.1681111E-003  0.9118800E+02  0.7818608E-02  0.1130116E+00
         25   -1    0    0    0    0  0.00000000000E+00  0.00000000000E+00  0.99999998245E-14  0.12500000000E+03  0.12500000000E+03 0.  0.
        -11    1    3    3    0    0 -0.27601872309E+02 -0.16547938643E+01  0.19666469883E+02  0.33931869026E+02  0.51100000000E-03 0. -1.
         23    2    1    0    0    0  0.29689987036E+02  0.69259066064E+01  0.11407907653E+02  0.92448442902E+02  0.86528092117E+02 0.  0.
         11    1    3    3    0    0  0.57291859345E+02  0.85807004708E+01 -0.82585622302E+01  0.58516573875E+02  0.51100000000E-03 0.  1.
         22    1    1    0    0    0 -0.29689987036E+02 -0.69259066064E+01 -0.11407907653E+02  0.32551557098E+02  0.00000000000E+00 0.  1.
</event>
<event>
 5    1  0.1681111E-003  0.9118800E+02  0.7818608E-02  0.1130116E+00
         25   -1    0    0    0    0  0.00000000000E+00  0.00000000000E+00  0.99999998245E-14  0.12500000000E+03  0.12500000000E+03 0.  0.
        -11    1    3    3    0    0  0.11795169124E+01  0.48094569809E+02 -0.38035227508E+02  0.61328276000E+02  0.51100000000E-03 0.  1.
         23    2    1    0    0    0  0.90884163145E+01  0.22725975489E+02 -0.18983348232E+02  0.94025223437E+02  0.88776719128E+02 0.  0.
         11    1    3    3    0    0  0.79088994020E+01 -0.25368594319E+02  0.19051879276E+02  0.32696947437E+02  0.51100000000E-03 0. -1.
         22    1    1    0    0    0 -0.90884163145E+01 -0.22725975489E+02  0.18983348232E+02  0.30974776563E+02  0.00000000000E+00 0.  1.
</event>
<event>
 5    1  0.1681111E-003  0.9118800E+02  0.7818608E-02  0.1130116E+00
         25   -1    0    0    0    0  0.00000000000E+00  0.00000000000E+00  0.99999998245E-14  0.12500000000E+03  0.12500000000E+03 0.  0.
        -11    1    3    3    0    0  0.20827794245E+02  0.24360991577E+02  0.27619707557E+02  0.42309610841E+02  0.51100000000E-03 0.  1.
         23    2    1    0    0    0  0.33149390599E+01  0.17353896042E+02 -0.22807894673E+02  0.96149582530E+02  0.91719112689E+02 0.  0.
         11    1    3    3    0    0 -0.17512855186E+02 -0.70070955350E+01 -0.50427602229E+02  0.53839971689E+02  0.51100000000E-03 0. -1.
         22    1    1    0    0    0 -0.33149390599E+01 -0.17353896042E+02  0.22807894673E+02  0.28850417470E+02  0.00000000000E+00 0. -1.
</event>
<event>
 5    1  0.1681111E-003  0.9118800E+02  0.7818608E-02  0.1130116E+00
         25   -1    0    0    0    0  0.00000000000E+00  0.00000000000E+00  0.99999998245E-14  0.12500000000E+03  0.12500000000E+03 0.  0.
        -11    1    3    3    0    0  0.48485657891E+02 -0.33898256482E+02 -0.61174830505E+01  0.59475830493E+02  0.51100000000E-03 0. -1.
         23    2    1    0    0    0  0.19358540484E+02 -0.15825741402E+02  0.10873215396E+02  0.97734013980E+02  0.93853628033E+02 0.  0.
         11    1    3    3    0    0 -0.29127117407E+02  0.18072515079E+02  0.16990698447E+02  0.38258183487E+02  0.51100000000E-03 0.  1.
         22    1    1    0    0    0 -0.19358540484E+02  0.15825741402E+02 -0.10873215396E+02  0.27265986020E+02  0.00000000000E+00 0. -1.
</event>
<event>
 5    1  0.1681111E-003  0.9118800E+02  0.7818608E-02  0.1130116E+00
         25   -1    0    0    0    0  0.00000000000E+00  0.00000000000E+00  0.99999998245E-14  0.12500000000E+03  0.12500000000E+03 0.  0.
        -11    1    3    3    0    0  0.38941611825E+02  0.19131799379E+02  0.36514387946E+01  0.43540876019E+02  0.51100000000E-03 0.  1.
         23    2    1    0    0    0 -0.12714597322E+02  0.26165206043E+02  0.37081362082E+01  0.95673744418E+02  0.91068304610E+02 0.  0.
         11    1    3    3    0    0 -0.51656209146E+02  0.70334066643E+01  0.56697413593E-01  0.52132868399E+02  0.51100000000E-03 0. -1.
         22    1    1    0    0    0  0.12714597322E+02 -0.26165206043E+02 -0.37081362082E+01  0.29326255582E+02  0.00000000000E+00 0. -1.
</event>
<event>
 5    1  0.1681111E-003  0.9118800E+02  0.7818608E-02  0.1130116E+00
         25   -1    0    0    0    0  0.00000000000E+00  0.00000000000E+00  0.99999998245E-14  0.12500000000E+03  0.12500000000E+03 0.  0.
        -11    1    3    3    0    0 -0.55019895226E+02 -0.55052629051E+01 -0.28314694672E+02  0.62122610416E+02  0.51100000000E-03 0.  1.
         23    2    1    0    0    0 -0.25301869040E+02  0.19685144915E+01 -0.14874029889E+02  0.95584079288E+02  0.90945147325E+02 0.  0.
         11    1    3    3    0    0  0.29718026186E+02  0.74737773966E+01  0.13440664784E+02  0.33461468872E+02  0.51100000000E-03 0. -1.
         22    1    1    0    0    0  0.25301869040E+02 -0.19685144915E+01  0.14874029889E+02  0.29415920712E+02  0.00000000000E+00 0.  1.
</event>
<event>
 5    1  0.1681111E-003  0.9118800E+02  0.7818608E-02  0.1130116E+00
         25   -1    0    0    0    0  0.00000000000E+00  0.00000000000E+00  0.99999998245E-14  0.12500000000E+03  0.12500000000E+03 0.  0.
        -11    1    3    3    0    0 -0.16917077821E+02 -0.38351027422E+02  0.13758329643E+02  0.44116668745E+02  0.51100000000E-03 0. -1.
         23    2    1    0    0    0 -0.40293704575E+01  0.10518048868E+02  0.26472237984E+02  0.96231187682E+02  0.91830261464E+02 0.  0.
         11    1    3    3    0    0  0.12887707364E+02  0.48869076290E+02  0.12713908342E+02  0.52114518938E+02  0.51100000000E-03 0.  1.
         22    1    1    0    0    0  0.40293704575E+01 -0.10518048868E+02 -0.26472237984E+02  0.28768812318E+02  0.00000000000E+00 0.  1.
</event>
<event>
 5    1  0.1681111E-003  0.9118800E+02  0.7818608E-02  0.1130116E+00
         25   -1    0    0    0    0  0.00000000000E+00  0.00000000000E+00  0.99999998245E-14  0.12500000000E+03  0.12500000000E+03 0.  0.
        -11    1    3    3    0    0 -0.15810392520E+02 -0.44914163201E+02 -0.12662135629E+02  0.49270480479E+02  0.51100000000E-03 0. -1.
         23    2    1    0    0    0 -0.20866172868E+02 -0.72994678448E+01  0.16732475353E+02  0.97275369571E+02  0.93240776449E+02 0.  0.
         11    1    3    3    0    0 -0.50557803483E+01  0.37614695357E+02  0.29394610982E+02  0.48004889092E+02  0.51100000000E-03 0.  1.
         22    1    1    0    0    0  0.20866172868E+02  0.72994678448E+01 -0.16732475353E+02  0.27724630429E+02  0.00000000000E+00 0.  1.
</event>
<event>
 5    1  0.1681111E-003  0.9118800E+02  0.7818608E-02  0.1130116E+00
         25   -1    0    0    0    0  0.00000000000E+00  0.00000000000E+00  0.99999998245E-14  0.12500000000E+03  0.12500000000E+03 0.  0.
        -11    1    3    3    0    0 -0.11051547825E+02 -0.36267970735E+02 -0.44374071589E+02  0.58365748862E+02  0.51100000000E-03 0.  1.
         23    2    1    0    0    0 -0.96145453322E+01 -0.25986637863E+02 -0.80471641195E+01  0.96146894799E+02  0.91715449624E+02 0.  0.
         11    1    3    3    0    0  0.14370024926E+01  0.10281332873E+02  0.36326907469E+02  0.37781145937E+02  0.51100000000E-03 0. -1.
         22    1    1    0    0    0  0.96145453322E+01  0.25986637863E+02  0.80471641195E+01  0.28853105201E+02  0.00000000000E+00 0.  1.
</event>
<event>
 5    1  0.1681111E-003  0.9118800E+02  0.7818608E-02  0.1130116E+00
         25   -1    0    0    0    0  0.00000000000E+00  0.00000000000E+00  0.99999998245E-14  0.12500000000E+03  0.12500000000E+03 0.  0.
        -11    1    3    3    0    0 -0.13254262817E+02  0.48143417250E+02  0.10282341327E+02  0.50982258196E+02  0.51100000000E-03 0.  1.
         23    2    1    0    0    0 -0.20707830811E+02  0.94417696600E+01 -0.14940809730E+02  0.97775212276E+02  0.93908482413E+02 0.  0.
         11    1    3    3    0    0 -0.74535679940E+01 -0.38701647590E+02 -0.25223151057E+02  0.46792954080E+02  0.51100000000E-03 0. -1.
         22    1    1    0    0    0  0.20707830811E+02 -0.94417696600E+01  0.14940809730E+02  0.27224787724E+02  0.00000000000E+00 0.  1.
</event>
<event>
 5    1  0.1681111E-003  0.9118800E+02  0.7818608E-02  0.1130116E+00
         25   -1    0    0    0    0  0.00000000000E+00  0.00000000000E+00  0.99999998245E-14  0.12500000000E+03  0.12500000000E+03 0.  0.
        -11    1    3    3    0    0  0.36175496050E+02  0.13366816930E+02  0.46103525297E+01  0.38840618687E+02  0.51100000000E-03 0.  1.
         23    2    1    0    0    0 -0.14893530477E+02  0.11141746600E+02 -0.21772031003E+02  0.96364757704E+02  0.92011898284E+02 0.  0.
         11    1    3    3    0    0 -0.51069026527E+02 -0.22250703303E+01 -0.26382383533E+02  0.57524139016E+02  0.51100000000E-03 0. -1.
         22    1    1    0    0    0  0.14893530477E+02 -0.11141746600E+02  0.21772031003E+02  0.28635242296E+02  0.00000000000E+00 0. -1.
</event>
<event>
 5    1  0.1681111E-003  0.9118800E+02  0.7818608E-02  0.1130116E+00
         25   -1    0    0    0    0  0.00000000000E+00  0.00000000000E+00  0.99999998245E-14  0.12500000000E+03  0.12500000000E+03 0.  0.
        -11    1    3    3    0    0 -0.56523618500E+02 -0.15655491585E+00 -0.28250749712E+01  0.56594390240E+02  0.51100000000E-03 0.  1.
         23    2    1    0    0    0 -0.23382795456E+02 -0.19958776084E+00  0.17785198528E+02  0.95621296059E+02  0.90996285719E+02 0.  0.
         11    1    3    3    0    0  0.33140823044E+02 -0.43032844988E-01  0.20610273499E+02  0.39026905819E+02  0.51100000000E-03 0. -1.
         22    1    1    0    0    0  0.23382795456E+02  0.19958776084E+00 -0.17785198528E+02  0.29378703941E+02  0.00000000000E+00 0.  1.
</event>
<event>
 5    1  0.1681111E-003  0.9118800E+02  0.7818608E-02  0.1130116E+00
         25   -1    0    0    0    0  0.00000000000E+00  0.00000000000E+00  0.99999998245E-14  0.12500000000E+03  0.12500000000E+03 0.  0.
        -11    1    3    3    0    0  0.89224097456E+01  0.39815296682E+02  0.96278887147E+01  0.41923304819E+02  0.51100000000E-03 0.  1.
         23    2    1    0    0    0 -0.22039949609E+02  0.41648544483E+01 -0.17652968514E+02  0.96456477289E+02  0.92136416917E+02 0.  0.
         11    1    3    3    0    0 -0.30962359355E+02 -0.35650442234E+02 -0.27280857229E+02  0.54533172471E+02  0.51100000000E-03 0. -1.
         22    1    1    0    0    0  0.22039949609E+02 -0.41648544483E+01  0.17652968514E+02  0.28543522711E+02  0.00000000000E+00 0. -1.
</event>
<event>
 5    1  0.1681111E-003  0.9118800E+02  0.7818608E-02  0.1130116E+00
         25   -1    0    0    0    0  0.00000000000E+00  0.00000000000E+00  0.99999998245E-14  0.12500000000E+03  0.12500000000E+03 0.  0.
        -11    1    3    3    0    0  0.41866762729E+02  0.14043394883E+02 -0.18734420152E+02  0.47968961423E+02  0.51100000000E-03 0. -1.
         23    2    1    0    0    0  0.49475511838E+01 -0.13715450415E+02 -0.26447896426E+02  0.94799286960E+02  0.89860011907E+02 0.  0.
         11    1    3    3    0    0 -0.36919211545E+02 -0.27758845298E+02 -0.77134762738E+01  0.46830325537E+02  0.51100000000E-03 0.  1.
         22    1    1    0    0    0 -0.49475511838E+01  0.13715450415E+02  0.26447896426E+02  0.30200713040E+02  0.00000000000E+00 0.  1.
</event>
<event>
 5    1  0.1681111E-003  0.9118800E+02  0.7818608E-02  0.1130116E+00
         25   -1    0    0    0    0  0.00000000000E+00  0.00000000000E+00  0.99999998245E-14  0.12500000000E+03  0.12500000000E+03 0.  0.
        -11    1    3    3    0    0  0.28837649787E+02 -0.13266835985E+02 -0.24998719327E+02  0.40404887706E+02  0.51100000000E-03 0.  1.
         23    2    1    0    0    0 -0.24616910422E+02 -0.19412870510E+01 -0.15442968728E+02  0.95875334211E+02  0.91344586883E+02 0.  0.
         11    1    3    3    0    0 -0.53454560209E+02  0.11325548934E+02  0.95557505986E+01  0.55470446506E+02  0.51100000000E-03 0. -1.
         22    1    1    0    0    0  0.24616910422E+02  0.19412870510E+01  0.15442968728E+02  0.29124665789E+02  0.00000000000E+00 0. -1.
</event>
<event>
 5    1  0.1681111E-003  0.9118800E+02  0.7818608E-02  0.1130116E+00
         25   -1    0    0    0    0  0.00000000000E+00  0.00000000000E+00  0.99999998245E-14  0.12500000000E+03  0.12500000000E+03 0.  0.
        -11    1    3    3    0    0 -0.20584527467E+02 -0.54504014937E+01  0.34042603234E+02  0.40153810313E+02  0.51100000000E-03 0.  1.
         23    2    1    0    0    0  0.19101217394E+02 -0.25843899166E+02  0.77545697466E+01  0.91941007547E+02  0.85791910381E+02 0.  0.
         11    1    3    3    0    0  0.39685744861E+02 -0.20393497672E+02 -0.26288033487E+02  0.51787197234E+02  0.51100000000E-03 0. -1.
         22    1    1    0    0    0 -0.19101217394E+02  0.25843899166E+02 -0.77545697466E+01  0.33058992453E+02  0.00000000000E+00 0. -1.
</event>
<event>
 5    1  0.1681111E-003  0.9118800E+02  0.7818608E-02  0.1130116E+00
         25   -1    0    0    0    0  0.00000000000E+00  0.00000000000E+00  0.99999998245E-14  0.12500000000E+03  0.12500000000E+03 0.  0.
        -11    1    3    3    0    0 -0.30092457608E+02 -0.48409540596E+01 -0.50052925596E+02  0.58602783228E+02  0.51100000000E-03 0. -1.
         23    2    1    0    0    0  0.35255824455E-01 -0.46008052491E+01 -0.29662469732E+02  0.94982825541E+02  0.90114962050E+02 0.  0.
         11    1    3    3    0    0  0.30127713432E+02  0.24014881045E+00  0.20390455864E+02  0.36380042313E+02  0.51100000000E-03 0.  1.
         22    1    1    0    0    0 -0.35255824455E-01  0.46008052491E+01  0.29662469732E+02  0.30017174459E+02  0.00000000000E+00 0. -1.
</event>
<event>
 5    1  0.1681111E-003  0.9118800E+02  0.7818608E-02  0.1130116E+00
         25   -1    0    0    0    0  0.00000000000E+00  0.00000000000E+00  0.99999998245E-14  0.12500000000E+03  0.12500000000E+03 0.  0.
        -11    1    3    3    0    0 -0.34190203996E+02  0.74032366083E+01 -0.37545158671E+02  0.51316828638E+02  0.51100000000E-03 0.  1.
         23    2    1    0    0    0 -0.85768296554E+01  0.27116770581E+02 -0.71745372684E+01  0.95668187258E+02  0.91060676554E+02 0.  0.
         11    1    3    3    0    0  0.25613374341E+02  0.19713533973E+02  0.30370621403E+02  0.44351358620E+02  0.51100000000E-03 0. -1.
         22    1    1    0    0    0  0.85768296554E+01 -0.27116770581E+02  0.71745372684E+01  0.29331812742E+02  0.00000000000E+00 0.  1.
</event>
<event>
 5    1  0.1681111E-003  0.9118800E+02  0.7818608E-02  0.1130116E+00
         25   -1    0    0    0    0  0.00000000000E+00  0.00000000000E+00  0.99999998245E-14  0.12500000000E+03  0.12500000000E+03 0.  0.
        -11    1    3    3    0    0 -0.19249696367E+02  0.19336942525E+02  0.47637001183E+02  0.54897650573E+02  0.51100000000E-03 0.  1.
         23    2    1    0    0    0  0.13141279245E+02  0.12609104463E+02  0.14514640905E+02  0.10171142907E+03  0.99009379689E+02 0.  0.
         11    1    3    3    0    0  0.32390975613E+02 -0.67278380623E+01 -0.33122360278E+02  0.46813778493E+02  0.51100000000E-03 0. -1.
         22    1    1    0    0    0 -0.13141279245E+02 -0.12609104463E+02 -0.14514640905E+02  0.23288570934E+02  0.00000000000E+00 0.  1.
</event>
<event>
 5    1  0.1681111E-003  0.9118800E+02  0.7818608E-02  0.1130116E+00
         25   -1    0    0    0    0  0.00000000000E+00  0.00000000000E+00  0.99999998245E-14  0.12500000000E+03  0.12500000000E+03 0.  0.
        -11    1    3    3    0    0 -0.32044777942E+02 -0.26967990563E+02 -0.23179833521E+02  0.47869040002E+02  0.51100000000E-03 0. -1.
         23    2    1    0    0    0 -0.47699910017E+02 -0.12521873068E+02 -0.58338950508E+01  0.75340025652E+02  0.56656918493E+02 0.  0.
         11    1    3    3    0    0 -0.15655132075E+02  0.14446117495E+02  0.17345938470E+02  0.27470985651E+02  0.51100000000E-03 0.  1.
         22    1    1    0    0    0  0.47699910017E+02  0.12521873068E+02  0.58338950508E+01  0.49659974348E+02  0.00000000000E+00 0. -1.
</event>
<event>
 5    1  0.1681111E-003  0.9118800E+02  0.7818608E-02  0.1130116E+00
         25   -1    0    0    0    0  0.00000000000E+00  0.00000000000E+00  0.99999998245E-14  0.12500000000E+03  0.12500000000E+03 0.  0.
        -11    1    3    3    0    0  0.18627588443E+02 -0.31729758738E+02 -0.43052378437E+02  0.56632781409E+02  0.51100000000E-03 0.  1.
         23    2    1    0    0    0 -0.12480692623E+01 -0.27994131510E+02 -0.10262096683E+02  0.95158088128E+02  0.90357744726E+02 0.  0.
         11    1    3    3    0    0 -0.19875657705E+02  0.37356272286E+01  0.32790281754E+02  0.38525306719E+02  0.51100000000E-03 0. -1.
         22    1    1    0    0    0  0.12480692623E+01  0.27994131510E+02  0.10262096683E+02  0.29841911872E+02  0.00000000000E+00 0.  1.
</event>
<event>
 5    1  0.1681111E-003  0.9118800E+02  0.7818608E-02  0.1130116E+00
         25   -1    0    0    0    0  0.00000000000E+00  0.00000000000E+00  0.99999998245E-14  0.12500000000E+03  0.12500000000E+03 0.  0.
        -11    1    3    3    0    0  0.36013765901E+02  0.41566801975E+01 -0.31038766536E+02  0.47724986674E+02  0.51100000000E-03 0. -1.
         23    2    1    0    0    0 -0.48166704984E+01 -0.20124793096E+02 -0.19400543560E+02  0.96634727178E+02  0.92377929153E+02 0.  0.
         11    1    3    3    0    0 -0.40830436400E+02 -0.24281473294E+02  0.11638222976E+02  0.48909740504E+02  0.51100000000E-03 0.  1.
         22    1    1    0    0    0  0.48166704984E+01  0.20124793096E+02  0.19400543560E+02  0.28365272822E+02  0.00000000000E+00 0.  1.
</event>
<event>
 5    1  0.1681111E-003  0.9118800E+02  0.7818608E-02  0.1130116E+00
         25   -1    0    0    0    0  0.00000000000E+00  0.00000000000E+00  0.99999998245E-14  0.12500000000E+03  0.12500000000E+03 0.  0.
        -11    1    3    3    0    0 -0.24436870105E+02  0.38583730437E+02 -0.37789424644E+02  0.59278204174E+02  0.51100000000E-03 0. -1.
         23    2    1    0    0    0 -0.19643456421E+02  0.14882854887E+02 -0.52775378077E+01  0.99796485264E+02  0.96561489819E+02 0.  0.
         11    1    3    3    0    0  0.47934136846E+01 -0.23700875550E+02  0.32511886836E+02  0.40518281090E+02  0.51100000000E-03 0.  1.
         22    1    1    0    0    0  0.19643456421E+02 -0.14882854887E+02  0.52775378077E+01  0.25203514736E+02  0.00000000000E+00 0. -1.
</event>
<event>
 5    1  0.1681111E-003  0.9118800E+02  0.7818608E-02  0.1130116E+00
         25   -1    0    0    0    0  0.00000000000E+00  0.00000000000E+00  0.99999998245E-14  0.12500000000E+03  0.12500000000E+03 0.  0.
        -11    1    3    3    0    0  0.22359893541E+02 -0.11218667331E+02 -0.23829144519E+02  0.34549261419E+02  0.51100000000E-03 0. -1.
         23    2    1    0    0    0 -0.19936909738E+02 -0.12017327540E+02  0.19150749546E+02  0.94856215578E+02  0.89939167744E+02 0.  0.
         11    1    3    3    0    0 -0.42296803279E+02 -0.79866020897E+00  0.42979894065E+02  0.60306954159E+02  0.51100000000E-03 0.  1.
         22    1    1    0    0    0  0.19936909738E+02  0.12017327540E+02 -0.19150749546E+02  0.30143784422E+02  0.00000000000E+00 0.  1.
</event>
<event>
 5    1  0.1681111E-003  0.9118800E+02  0.7818608E-02  0.1130116E+00
         25   -1    0    0    0    0  0.00000000000E+00  0.00000000000E+00  0.99999998245E-14  0.12500000000E+03  0.12500000000E+03 0.  0.
        -11    1    3    3    0    0 -0.17209414357E+02  0.36355616316E+02 -0.37101451929E+02  0.54721225459E+02  0.51100000000E-03 0. -1.
         23    2    1    0    0    0  0.69727272141E+01  0.48070317169E+01 -0.28334506729E+02  0.95426857619E+02  0.90728795896E+02 0.  0.
         11    1    3    3    0    0  0.24182141571E+02 -0.31548584599E+02  0.87669451999E+01  0.40705632160E+02  0.51100000000E-03 0.  1.
         22    1    1    0    0    0 -0.69727272141E+01 -0.48070317169E+01  0.28334506729E+02  0.29573142381E+02  0.00000000000E+00 0. -1.
</event>
<event>
 5    1  0.1681111E-003  0.9118800E+02  0.7818608E-02  0.1130116E+00
         25   -1    0    0    0    0  0.00000000000E+00  0.00000000000E+00  0.99999998245E-14  0.12500000000E+03  0.12500000000E+03 0.  0.
        -11    1    3    3    0    0  0.10659095953E+02  0.42850572845E+02  0.17885014438E+02  0.47640966210E+02  0.51100000000E-03 0. -1.
         23    2    1    0    0    0  0.28973002324E+02  0.19600847341E+01 -0.20646051316E+00  0.95960037504E+02  0.91460425190E+02 0.  0.
         11    1    3    3    0    0  0.18313906371E+02 -0.40890488111E+02 -0.18091474951E+02  0.48319071294E+02  0.51100000000E-03 0.  1.
         22    1    1    0    0    0 -0.28973002324E+02 -0.19600847341E+01  0.20646051316E+00  0.29039962496E+02  0.00000000000E+00 0.  1.
</event>
<event>
 5    1  0.1681111E-003  0.9118800E+02  0.7818608E-02  0.1130116E+00
         25   -1    0    0    0    0  0.00000000000E+00  0.00000000000E+00  0.99999998245E-14  0.12500000000E+03  0.12500000000E+03 0.  0.
        -11    1    3    3    0    0  0.33489379343E+02 -0.29366964766E+02 -0.79285752051E+01  0.45241788795E+02  0.51100000000E-03 0.  1.
         23    2    1    0    0    0  0.31005831920E+01 -0.10275611913E+02 -0.33834913060E+02  0.89503476817E+02  0.82163673263E+02 0.  0.
         11    1    3    3    0    0 -0.30388796151E+02  0.19091352852E+02 -0.25906337855E+02  0.44261688022E+02  0.51100000000E-03 0. -1.
         22    1    1    0    0    0 -0.31005831920E+01  0.10275611913E+02  0.33834913060E+02  0.35496523183E+02  0.00000000000E+00 0.  1.
</event>
<event>
 5    1  0.1681111E-003  0.9118800E+02  0.7818608E-02  0.1130116E+00
         25   -1    0    0    0    0  0.00000000000E+00  0.00000000000E+00  0.99999998245E-14  0.12500000000E+03  0.12500000000E+03 0.  0.
        -11    1    3    3    0    0 -0.31922338671E+02 -0.17075035459E+02 -0.90190145062E+01  0.37308647324E+02  0.51100000000E-03 0. -1.
         23    2    1    0    0    0  0.25405201861E+02 -0.15623613106E+02 -0.16028368937E+01  0.95132113330E+02  0.90321804302E+02 0.  0.
         11    1    3    3    0    0  0.57327540532E+02  0.14514223538E+01  0.74161776125E+01  0.57823466006E+02  0.51100000000E-03 0.  1.
         22    1    1    0    0    0 -0.25405201861E+02  0.15623613106E+02  0.16028368937E+01  0.29867886670E+02  0.00000000000E+00 0.  1.
</event>
<event>
 5    1  0.1681111E-003  0.9118800E+02  0.7818608E-02  0.1130116E+00
         25   -1    0    0    0    0  0.00000000000E+00  0.00000000000E+00  0.99999998245E-14  0.12500000000E+03  0.12500000000E+03 0.  0.
        -11    1    3    3    0    0  0.46098707662E+00 -0.60864383603E+01 -0.46132938317E+02  0.46534989407E+02  0.51100000000E-03 0.  1.
         23    2    1    0    0    0  0.84134701125E+01 -0.28286901404E+02 -0.34653622298E+01  0.95285626277E+02  0.90534007805E+02 0.  0.
         11    1    3    3    0    0  0.79524830359E+01 -0.22200463044E+02  0.42667576088E+02  0.48750636870E+02  0.51100000000E-03 0. -1.
         22    1    1    0    0    0 -0.84134701125E+01  0.28286901404E+02  0.34653622298E+01  0.29714373723E+02  0.00000000000E+00 0.  1.
</event>
<event>
 5    1  0.1681111E-003  0.9118800E+02  0.7818608E-02  0.1130116E+00
         25   -1    0    0    0    0  0.00000000000E+00  0.00000000000E+00  0.99999998245E-14  0.12500000000E+03  0.12500000000E+03 0.  0.
        -11    1    3    3    0    0  0.36914682113E+02 -0.20712099616E+02 -0.15541833150E+02  0.45091389466E+02  0.51100000000E-03 0.  1.
         23    2    1    0    0    0 -0.11013057778E+02 -0.27450632494E+02 -0.19717565999E+01  0.95356914971E+02  0.90632382418E+02 0.  0.
         11    1    3    3    0    0 -0.47927739892E+02 -0.67385328777E+01  0.13570076550E+02  0.50265525505E+02  0.51100000000E-03 0. -1.
         22    1    1    0    0    0  0.11013057778E+02  0.27450632494E+02  0.19717565999E+01  0.29643085029E+02  0.00000000000E+00 0. -1.
</event>
<event>
 5    1  0.1681111E-003  0.9118800E+02  0.7818608E-02  0.1130116E+00
         25   -1    0    0    0    0  0.00000000000E+00  0.00000000000E+00  0.99999998245E-14  0.12500000000E+03  0.12500000000E+03 0.  0.
        -11    1    3    3    0    0 -0.48564588068E+02  0.60959752919E+01 -0.31632496045E+02  0.58277739621E+02  0.51100000000E-03 0. -1.
         23    2    1    0    0    0 -0.30196314719E+02 -0.65144967323E+00 -0.81182685188E+00  0.94785750512E+02  0.89841180024E+02 0.  0.
         11    1    3    3    0    0  0.18368273349E+02 -0.67474249652E+01  0.30820669193E+02  0.36508010892E+02  0.51100000000E-03 0.  1.
         22    1    1    0    0    0  0.30196314719E+02  0.65144967323E+00  0.81182685188E+00  0.30214249488E+02  0.00000000000E+00 0. -1.
</event>
<event>
 5    1  0.1681111E-003  0.9118800E+02  0.7818608E-02  0.1130116E+00
         25   -1    0    0    0    0  0.00000000000E+00  0.00000000000E+00  0.99999998245E-14  0.12500000000E+03  0.12500000000E+03 0.  0.
        -11    1    3    3    0    0  0.32887217112E+02  0.26226542569E+01  0.67193129120E+01  0.33668925302E+02  0.51100000000E-03 0.  1.
         23    2    1    0    0    0 -0.27895796201E+02 -0.36791908251E+01 -0.63390677003E+01  0.96157398347E+02  0.91729763908E+02 0.  0.
         11    1    3    3    0    0 -0.60783013314E+02 -0.63018450820E+01 -0.13058380612E+02  0.62488473044E+02  0.51100000000E-03 0. -1.
         22    1    1    0    0    0  0.27895796201E+02  0.36791908251E+01  0.63390677003E+01  0.28842601653E+02  0.00000000000E+00 0. -1.
</event>
<event>
 5    1  0.1681111E-003  0.9118800E+02  0.7818608E-02  0.1130116E+00
         25   -1    0    0    0    0  0.00000000000E+00  0.00000000000E+00  0.99999998245E-14  0.12500000000E+03  0.12500000000E+03 0.  0.
        -11    1    3    3    0    0 -0.78242736449E+01 -0.65603398161E+01 -0.58521992671E+02  0.59406068234E+02  0.51100000000E-03 0.  1.
         23    2    1    0    0    0 -0.14613161388E+02 -0.10549686569E+02 -0.23057718442E+02  0.95734000065E+02  0.91150973754E+02 0.  0.
         11    1    3    3    0    0 -0.67888877432E+01 -0.39893467526E+01  0.35464274229E+02  0.36327931831E+02  0.51100000000E-03 0. -1.
         22    1    1    0    0    0  0.14613161388E+02  0.10549686569E+02  0.23057718442E+02  0.29265999935E+02  0.00000000000E+00 0.  1.
</event>
<event>
 5    1  0.1681111E-003  0.9118800E+02  0.7818608E-02  0.1130116E+00
         25   -1    0    0    0    0  0.00000000000E+00  0.00000000000E+00  0.99999998245E-14  0.12500000000E+03  0.12500000000E+03 0.  0.
        -11    1    3    3    0    0 -0.13090273827E+02 -0.70619873294E+01 -0.34242683577E+02  0.37333474426E+02  0.51100000000E-03 0.  1.
         23    2    1    0    0    0 -0.22317991126E+02  0.15455759045E+02  0.16233320344E+02  0.93369415039E+02  0.87848470447E+02 0.  0.
         11    1    3    3    0    0 -0.92277172991E+01  0.22517746375E+02  0.50476003921E+02  0.56035940613E+02  0.51100000000E-03 0. -1.
         22    1    1    0    0    0  0.22317991126E+02 -0.15455759045E+02 -0.16233320344E+02  0.31630584961E+02  0.00000000000E+00 0. -1.
</event>
<event>
 5    1  0.1681111E-003  0.9118800E+02  0.7818608E-02  0.1130116E+00
         25   -1    0    0    0    0  0.00000000000E+00  0.00000000000E+00  0.99999998245E-14  0.12500000000E+03  0.12500000000E+03 0.  0.
        -11    1    3    3    0    0 -0.16306282104E+02 -0.33014463564E+02 -0.48540832551E+02  0.60926694195E+02  0.51100000000E-03 0.  1.
         23    2    1    0    0    0 -0.86365209189E+01 -0.21824403032E+02 -0.14902788181E+02  0.97197353420E+02  0.93136128086E+02 0.  0.
         11    1    3    3    0    0  0.76697611846E+01  0.11190060532E+02  0.33638044370E+02  0.36270659225E+02  0.51100000000E-03 0. -1.
         22    1    1    0    0    0  0.86365209189E+01  0.21824403032E+02  0.14902788181E+02  0.27802646580E+02  0.00000000000E+00 0.  1.
</event>
<event>
 5    1  0.1681111E-003  0.9118800E+02  0.7818608E-02  0.1130116E+00
         25   -1    0    0    0    0  0.00000000000E+00  0.00000000000E+00  0.99999998245E-14  0.12500000000E+03  0.12500000000E+03 0.  0.
        -11    1    3    3    0    0  0.22281578679E+02 -0.31742677890E+02  0.16538500921E+01  0.38817542019E+02  0.51100000000E-03 0.  1.
         23    2    1    0    0    0  0.87777104650E+00  0.14755476932E+02 -0.24565819478E+02  0.96329909869E+02  0.91964544620E+02 0.  0.
         11    1    3    3    0    0 -0.21403807632E+02  0.46498154822E+02 -0.26219669570E+02  0.57512367849E+02  0.51100000000E-03 0. -1.
         22    1    1    0    0    0 -0.87777104650E+00 -0.14755476932E+02  0.24565819478E+02  0.28670090131E+02  0.00000000000E+00 0. -1.
</event>
<event>
 5    1  0.1681111E-003  0.9118800E+02  0.7818608E-02  0.1130116E+00
         25   -1    0    0    0    0  0.00000000000E+00  0.00000000000E+00  0.99999998245E-14  0.12500000000E+03  0.12500000000E+03 0.  0.
        -11    1    3    3    0    0 -0.26828019444E+02 -0.23972960985E+02  0.44281376076E+02  0.57055111542E+02  0.51100000000E-03 0. -1.
         23    2    1    0    0    0 -0.20570208153E+02 -0.62602142247E+01  0.18985588752E+01  0.10341462830E+03  0.10113682354E+03 0.  0.
         11    1    3    3    0    0  0.62578112913E+01  0.17712746760E+02 -0.42382817201E+02  0.46359516758E+02  0.51100000000E-03 0.  1.
         22    1    1    0    0    0  0.20570208153E+02  0.62602142247E+01 -0.18985588752E+01  0.21585371699E+02  0.00000000000E+00 0. -1.
</event>
<event>
 5    1  0.1681111E-003  0.9118800E+02  0.7818608E-02  0.1130116E+00
         25   -1    0    0    0    0  0.00000000000E+00  0.00000000000E+00  0.99999998245E-14  0.12500000000E+03  0.12500000000E+03 0.  0.
        -11    1    3    3    0    0 -0.36170610510E+02  0.35062005776E+02  0.22948240967E+02  0.55355930825E+02  0.51100000000E-03 0.  1.
         23    2    1    0    0    0 -0.49094671515E+01  0.33609577653E+02  0.16191668441E+02  0.87371862860E+02  0.78854078620E+02 0.  0.
         11    1    3    3    0    0  0.31261143358E+02 -0.14524281232E+01 -0.67565725259E+01  0.32015932035E+02  0.51100000000E-03 0. -1.
         22    1    1    0    0    0  0.49094671515E+01 -0.33609577653E+02 -0.16191668441E+02  0.37628137140E+02  0.00000000000E+00 0.  1.
</event>
<event>
 5    1  0.1681111E-003  0.9118800E+02  0.7818608E-02  0.1130116E+00
         25   -1    0    0    0    0  0.00000000000E+00  0.00000000000E+00  0.99999998245E-14  0.12500000000E+03  0.12500000000E+03 0.  0.
        -11    1    3    3    0    0 -0.61245031557E+02 -0.60539457878E+01  0.68528657738E+01  0.61923871969E+02  0.51100000000E-03 0.  1.
         23    2    1    0    0    0 -0.26885208364E+02 -0.84307340468E+01  0.14535460435E+01  0.96786448266E+02  0.92583000959E+02 0.  0.
         11    1    3    3    0    0  0.34359823193E+02 -0.23767882590E+01 -0.53993197303E+01  0.34862576298E+02  0.51100000000E-03 0. -1.
         22    1    1    0    0    0  0.26885208364E+02  0.84307340468E+01 -0.14535460435E+01  0.28213551734E+02  0.00000000000E+00 0.  1.
</event>
<event>
 5    1  0.1681111E-003  0.9118800E+02  0.7818608E-02  0.1130116E+00
         25   -1    0    0    0    0  0.00000000000E+00  0.00000000000E+00  0.99999998245E-14  0.12500000000E+03  0.12500000000E+03 0.  0.
        -11    1    3    3    0    0  0.56191306360E+02  0.41882945452E+01  0.81762625190E+01  0.56937298766E+02  0.51100000000E-03 0.  1.
         23    2    1    0    0    0  0.26095753018E+02 -0.10660217659E+02 -0.99839132942E+01  0.95095032339E+02  0.90270471832E+02 0.  0.
         11    1    3    3    0    0 -0.30095553342E+02 -0.14848512204E+02 -0.18160175813E+02  0.38157733574E+02  0.51100000000E-03 0. -1.
         22    1    1    0    0    0 -0.26095753018E+02  0.10660217659E+02  0.99839132942E+01  0.29904967661E+02  0.00000000000E+00 0.  1.
</event>
<event>
 5    1  0.1681111E-003  0.9118800E+02  0.7818608E-02  0.1130116E+00
         25   -1    0    0    0    0  0.00000000000E+00  0.00000000000E+00  0.99999998245E-14  0.12500000000E+03  0.12500000000E+03 0.  0.
        -11    1    3    3    0    0 -0.13886717319E+02  0.34479039700E+01  0.59283516362E+02  0.60985771063E+02  0.51100000000E-03 0. -1.
         23    2    1    0    0    0 -0.13985039323E+02 -0.39120611343E+01  0.24670618450E+02  0.96372653600E+02  0.92022624392E+02 0.  0.
         11    1    3    3    0    0 -0.98322003692E-01 -0.73599651043E+01 -0.34612897912E+02  0.35386882537E+02  0.51100000000E-03 0.  1.
         22    1    1    0    0    0  0.13985039323E+02  0.39120611343E+01 -0.24670618450E+02  0.28627346400E+02  0.00000000000E+00 0. -1.
</event>
<event>
 5    1  0.1681111E-003  0.9118800E+02  0.7818608E-02  0.1130116E+00
         25   -1    0    0    0    0  0.00000000000E+00  0.00000000000E+00  0.99999998245E-14  0.12500000000E+03  0.12500000000E+03 0.  0.
        -11    1    3    3    0    0 -0.39821801702E+02 -0.43173821399E+02 -0.61366205824E+01  0.59054321243E+02  0.51100000000E-03 0.  1.
         23    2    1    0    0    0 -0.68258655325E+01 -0.25053369566E+02 -0.10581874695E+02  0.96960031403E+02  0.92817066592E+02 0.  0.
         11    1    3    3    0    0  0.32995936170E+02  0.18120451833E+02 -0.44452541122E+01  0.37905710160E+02  0.51100000000E-03 0. -1.
         22    1    1    0    0    0  0.68258655325E+01  0.25053369566E+02  0.10581874695E+02  0.28039968597E+02  0.00000000000E+00 0.  1.
</event>
<event>
 5    1  0.1681111E-003  0.9118800E+02  0.7818608E-02  0.1130116E+00
         25   -1    0    0    0    0  0.00000000000E+00  0.00000000000E+00  0.99999998245E-14  0.12500000000E+03  0.12500000000E+03 0.  0.
        -11    1    3    3    0    0  0.38387798344E+02 -0.13562044916E+02  0.46966524151E+02  0.62156307122E+02  0.51100000000E-03 0.  1.
         23    2    1    0    0    0  0.17891376509E+02 -0.60588270891E+01  0.28820801081E+02  0.90540613557E+02  0.83726658773E+02 0.  0.
         11    1    3    3    0    0 -0.20496421835E+02  0.75032178264E+01 -0.18145723070E+02  0.28384306435E+02  0.51100000000E-03 0. -1.
         22    1    1    0    0    0 -0.17891376509E+02  0.60588270891E+01 -0.28820801081E+02  0.34459386443E+02  0.00000000000E+00 0.  1.
</event>
<event>
 5    1  0.1681111E-003  0.9118800E+02  0.7818608E-02  0.1130116E+00
         25   -1    0    0    0    0  0.00000000000E+00  0.00000000000E+00  0.99999998245E-14  0.12500000000E+03  0.12500000000E+03 0.  0.
        -11    1    3    3    0    0  0.34360659769E+01  0.42434861446E+02 -0.74937217368E+01  0.43228230140E+02  0.51100000000E-03 0.  1.
         23    2    1    0    0    0 -0.94005268721E+01 -0.44294428837E+01 -0.27367518349E+02  0.95725934169E+02  0.91139911905E+02 0.  0.
         11    1    3    3    0    0 -0.12836592849E+02 -0.46864304329E+02 -0.19873796612E+02  0.52497704029E+02  0.51100000000E-03 0. -1.
         22    1    1    0    0    0  0.94005268721E+01  0.44294428837E+01  0.27367518349E+02  0.29274065831E+02  0.00000000000E+00 0. -1.
</event>
<event>
 5    1  0.1681111E-003  0.9118800E+02  0.7818608E-02  0.1130116E+00
         25   -1    0    0    0    0  0.00000000000E+00  0.00000000000E+00  0.99999998245E-14  0.12500000000E+03  0.12500000000E+03 0.  0.
        -11    1    3    3    0    0 -0.43229519016E+02  0.17871061112E+02 -0.34133546591E+01  0.46902208156E+02  0.51100000000E-03 0. -1.
         23    2    1    0    0    0 -0.16834265589E+02 -0.23346368626E+02 -0.45484914780E+01  0.95860092645E+02  0.91323727263E+02 0.  0.
         11    1    3    3    0    0  0.26395253427E+02 -0.41217429739E+02 -0.11351368188E+01  0.48957884489E+02  0.51100000000E-03 0.  1.
         22    1    1    0    0    0  0.16834265589E+02  0.23346368626E+02  0.45484914780E+01  0.29139907355E+02  0.00000000000E+00 0. -1.
</event>
<event>
 5    1  0.1681111E-003  0.9118800E+02  0.7818608E-02  0.1130116E+00
         25   -1    0    0    0    0  0.00000000000E+00  0.00000000000E+00  0.99999998245E-14  0.12500000000E+03  0.12500000000E+03 0.  0.
        -11    1    3    3    0    0 -0.20917441314E+02 -0.58478394250E+02 -0.98550981155E+00  0.62114677613E+02  0.51100000000E-03 0. -1.
         23    2    1    0    0    0 -0.93530901741E+01 -0.27681520037E+02 -0.53365924601E+01  0.95297709407E+02  0.90550689405E+02 0.  0.
         11    1    3    3    0    0  0.11564351140E+02  0.30796874213E+02 -0.43510826486E+01  0.33183031794E+02  0.51100000000E-03 0.  1.
         22    1    1    0    0    0  0.93530901741E+01  0.27681520037E+02  0.53365924601E+01  0.29702290593E+02  0.00000000000E+00 0. -1.
</event>
<event>
 5    1  0.1681111E-003  0.9118800E+02  0.7818608E-02  0.1130116E+00
         25   -1    0    0    0    0  0.00000000000E+00  0.00000000000E+00  0.99999998245E-14  0.12500000000E+03  0.12500000000E+03 0.  0.
        -11    1    3    3    0    0 -0.33383937228E+02  0.19281773306E+02 -0.66981449411E+01  0.39129773735E+02  0.51100000000E-03 0.  1.
         23    2    1    0    0    0  0.11858930061E+02 -0.18734316436E+02 -0.14157865693E+02  0.98693080844E+02  0.95122395948E+02 0.  0.
         11    1    3    3    0    0  0.45242867288E+02 -0.38016089742E+02 -0.74597207519E+01  0.59563307109E+02  0.51100000000E-03 0. -1.
         22    1    1    0    0    0 -0.11858930061E+02  0.18734316436E+02  0.14157865693E+02  0.26306919156E+02  0.00000000000E+00 0. -1.
</event>
<event>
 5    1  0.1681111E-003  0.9118800E+02  0.7818608E-02  0.1130116E+00
         25   -1    0    0    0    0  0.00000000000E+00  0.00000000000E+00  0.99999998245E-14  0.12500000000E+03  0.12500000000E+03 0.  0.
        -11    1    3    3    0    0 -0.19031841159E+02  0.10577260778E+02 -0.24103899748E+02  0.32482109026E+02  0.51100000000E-03 0. -1.
         23    2    1    0    0    0  0.77829536877E+01  0.16066828653E+02  0.28263034893E+02  0.91570724022E+02  0.85250695044E+02 0.  0.
         11    1    3    3    0    0  0.26814794847E+02  0.54895678749E+01  0.52366934641E+02  0.59088614995E+02  0.51100000000E-03 0.  1.
         22    1    1    0    0    0 -0.77829536877E+01 -0.16066828653E+02 -0.28263034893E+02  0.33429275978E+02  0.00000000000E+00 0.  1.
</event>
<event>
 5    1  0.1681111E-003  0.9118800E+02  0.7818608E-02  0.1130116E+00
         25   -1    0    0    0    0  0.00000000000E+00  0.00000000000E+00  0.99999998245E-14  0.12500000000E+03  0.12500000000E+03 0.  0.
        -11    1    3    3    0    0 -0.18639838218E+02 -0.39014469199E+02 -0.13812853431E+02  0.45391268938E+02  0.51100000000E-03 0. -1.
         23    2    1    0    0    0 -0.25118053374E+02  0.65431762933E+01  0.99760492500E+01  0.97192603144E+02  0.93129752420E+02 0.  0.
         11    1    3    3    0    0 -0.64782151560E+01  0.45557645492E+02  0.23788902681E+02  0.51801334205E+02  0.51100000000E-03 0.  1.
         22    1    1    0    0    0  0.25118053374E+02 -0.65431762933E+01 -0.99760492500E+01  0.27807396856E+02  0.00000000000E+00 0. -1.
</event>
<event>
 5    1  0.1681111E-003  0.9118800E+02  0.7818608E-02  0.1130116E+00
         25   -1    0    0    0    0  0.00000000000E+00  0.00000000000E+00  0.99999998245E-14  0.12500000000E+03  0.12500000000E+03 0.  0.
        -11    1    3    3    0    0  0.19402930796E+01 -0.40952539251E+01  0.46634064911E+02  0.46853728265E+02  0.51100000000E-03 0. -1.
         23    2    1    0    0    0 -0.47609159025E+01  0.27047153503E+02  0.91330778661E+01  0.96058197289E+02  0.91594483034E+02 0.  0.
         11    1    3    3    0    0 -0.67012089821E+01  0.31142407428E+02 -0.37500987045E+02  0.49204469024E+02  0.51100000000E-03 0.  1.
         22    1    1    0    0    0  0.47609159025E+01 -0.27047153503E+02 -0.91330778661E+01  0.28941802711E+02  0.00000000000E+00 0.  1.
</event>
<event>
 5    1  0.1681111E-003  0.9118800E+02  0.7818608E-02  0.1130116E+00
         25   -1    0    0    0    0  0.00000000000E+00  0.00000000000E+00  0.99999998245E-14  0.12500000000E+03  0.12500000000E+03 0.  0.
        -11    1    3    3    0    0 -0.24867481711E+02  0.21500957730E+02 -0.27832815758E+02  0.43073756085E+02  0.51100000000E-03 0.  1.
         23    2    1    0    0    0 -0.11535404166E+02  0.10399478985E+02  0.23259817229E+02  0.97031556891E+02  0.92913342544E+02 0.  0.
         11    1    3    3    0    0  0.13332077545E+02 -0.11101478745E+02  0.51092632987E+02  0.53957800806E+02  0.51100000000E-03 0. -1.
         22    1    1    0    0    0  0.11535404166E+02 -0.10399478985E+02 -0.23259817229E+02  0.27968443109E+02  0.00000000000E+00 0. -1.
</event>
<event>
 5    1  0.1681111E-003  0.9118800E+02  0.7818608E-02  0.1130116E+00
         25   -1    0    0    0    0  0.00000000000E+00  0.00000000000E+00  0.99999998245E-14  0.12500000000E+03  0.12500000000E+03 0.  0.
        -11    1    3    3    0    0 -0.53391925232E+01  0.60760744412E+02 -0.19335802635E+01  0.61025517378E+02  0.51100000000E-03 0.  1.
         23    2    1    0    0    0 -0.11285822512E+02  0.31566740681E+02 -0.54877052830E+01  0.91030251454E+02  0.84454501736E+02 0.  0.
         11    1    3    3    0    0 -0.59466299892E+01 -0.29194003731E+02 -0.35541250195E+01  0.30004734076E+02  0.51100000000E-03 0. -1.
         22    1    1    0    0    0  0.11285822512E+02 -0.31566740681E+02  0.54877052830E+01  0.33969748546E+02  0.00000000000E+00 0.  1.
</event>
<event>
 5    1  0.1681111E-003  0.9118800E+02  0.7818608E-02  0.1130116E+00
         25   -1    0    0    0    0  0.00000000000E+00  0.00000000000E+00  0.99999998245E-14  0.12500000000E+03  0.12500000000E+03 0.  0.
        -11    1    3    3    0    0  0.25075255717E+02  0.16550382265E+02  0.16726837654E+02  0.34387071707E+02  0.51100000000E-03 0.  1.
         23    2    1    0    0    0 -0.30038930531E+02  0.77833051416E+01 -0.35565413213E+01  0.93765945307E+02  0.88410894842E+02 0.  0.
         11    1    3    3    0    0 -0.55114186248E+02 -0.87670771232E+01 -0.20283378976E+02  0.59378873600E+02  0.51100000000E-03 0. -1.
         22    1    1    0    0    0  0.30038930531E+02 -0.77833051416E+01  0.35565413213E+01  0.31234054693E+02  0.00000000000E+00 0. -1.
</event>
<event>
 5    1  0.1681111E-003  0.9118800E+02  0.7818608E-02  0.1130116E+00
         25   -1    0    0    0    0  0.00000000000E+00  0.00000000000E+00  0.99999998245E-14  0.12500000000E+03  0.12500000000E+03 0.  0.
        -11    1    3    3    0    0  0.54235217018E+02  0.16074461080E+02 -0.23408217033E+02  0.61219210130E+02  0.51100000000E-03 0.  1.
         23    2    1    0    0    0  0.45680834188E+02  0.11611576727E+02 -0.11615065878E+02  0.76456441400E+02  0.59068691791E+02 0.  0.
         11    1    3    3    0    0 -0.85543828297E+01 -0.44628843528E+01  0.11793151155E+02  0.15237231270E+02  0.51100000000E-03 0. -1.
         22    1    1    0    0    0 -0.45680834188E+02 -0.11611576727E+02  0.11615065878E+02  0.48543558600E+02  0.00000000000E+00 0.  1.
</event>
<event>
 5    1  0.1681111E-003  0.9118800E+02  0.7818608E-02  0.1130116E+00
         25   -1    0    0    0    0  0.00000000000E+00  0.00000000000E+00  0.99999998245E-14  0.12500000000E+03  0.12500000000E+03 0.  0.
        -11    1    3    3    0    0  0.20791626766E+02 -0.28443833920E+02 -0.22220510797E+02  0.41654465931E+02  0.51100000000E-03 0.  1.
         23    2    1    0    0    0  0.80482024239E+01 -0.12157485321E+02  0.26595614769E+02  0.94670068636E+02  0.89680082287E+02 0.  0.
         11    1    3    3    0    0 -0.12743424342E+02  0.16286348599E+02  0.48816125566E+02  0.53015602705E+02  0.51100000000E-03 0. -1.
         22    1    1    0    0    0 -0.80482024239E+01  0.12157485321E+02 -0.26595614769E+02  0.30329931364E+02  0.00000000000E+00 0. -1.
</event>
<event>
 5    1  0.1681111E-003  0.9118800E+02  0.7818608E-02  0.1130116E+00
         25   -1    0    0    0    0  0.00000000000E+00  0.00000000000E+00  0.99999998245E-14  0.12500000000E+03  0.12500000000E+03 0.  0.
        -11    1    3    3    0    0  0.23761445403E+02 -0.30121337380E+02  0.21849293753E+01  0.38427531404E+02  0.51100000000E-03 0.  1.
         23    2    1    0    0    0  0.37934736284E+01  0.15885882834E+02 -0.24742777828E+02  0.95352794900E+02  0.90626699846E+02 0.  0.
         11    1    3    3    0    0 -0.19967971774E+02  0.46007220214E+02 -0.26927707204E+02  0.56925263496E+02  0.51100000000E-03 0. -1.
         22    1    1    0    0    0 -0.37934736284E+01 -0.15885882834E+02  0.24742777828E+02  0.29647205100E+02  0.00000000000E+00 0.  1.
</event>
<event>
 5    1  0.1681111E-003  0.9118800E+02  0.7818608E-02  0.1130116E+00
         25   -1    0    0    0    0  0.00000000000E+00  0.00000000000E+00  0.99999998245E-14  0.12500000000E+03  0.12500000000E+03 0.  0.
        -11    1    3    3    0    0 -0.41213351049E+02 -0.24694632413E+02 -0.18741297316E+01  0.48081987658E+02  0.51100000000E-03 0. -1.
         23    2    1    0    0    0 -0.19146851683E+02  0.91177580126E+01 -0.23053782146E+02  0.93675691360E+02  0.88283196816E+02 0.  0.
         11    1    3    3    0    0  0.22066499366E+02  0.33812390425E+02 -0.21179652415E+02  0.45593703702E+02  0.51100000000E-03 0.  1.
         22    1    1    0    0    0  0.19146851683E+02 -0.91177580126E+01  0.23053782146E+02  0.31324308640E+02  0.00000000000E+00 0.  1.
</event>
<event>
 5    1  0.1681111E-003  0.9118800E+02  0.7818608E-02  0.1130116E+00
         25   -1    0    0    0    0  0.00000000000E+00  0.00000000000E+00  0.99999998245E-14  0.12500000000E+03  0.12500000000E+03 0.  0.
        -11    1    3    3    0    0  0.33972639250E+01  0.33891711121E+02  0.12717432142E+02  0.36358253058E+02  0.51100000000E-03 0. -1.
         23    2    1    0    0    0  0.16144354707E+02 -0.13964359957E+02 -0.20027900573E+02  0.95729531277E+02  0.91144845270E+02 0.  0.
         11    1    3    3    0    0  0.12747090782E+02 -0.47856071078E+02 -0.32745332715E+02  0.59371278219E+02  0.51100000000E-03 0.  1.
         22    1    1    0    0    0 -0.16144354707E+02  0.13964359957E+02  0.20027900573E+02  0.29270468723E+02  0.00000000000E+00 0.  1.
</event>
<event>
 5    1  0.1681111E-003  0.9118800E+02  0.7818608E-02  0.1130116E+00
         25   -1    0    0    0    0  0.00000000000E+00  0.00000000000E+00  0.99999998245E-14  0.12500000000E+03  0.12500000000E+03 0.  0.
        -11    1    3    3    0    0  0.27696315243E+01  0.73420851819E+01  0.31425257936E+02  0.32390182312E+02  0.51100000000E-03 0. -1.
         23    2    1    0    0    0 -0.15017776516E+02  0.10825925408E+02 -0.26268021950E+02  0.92863677099E+02  0.87125881773E+02 0.  0.
         11    1    3    3    0    0 -0.17787408040E+02  0.34838402260E+01 -0.57693279886E+02  0.60473494787E+02  0.51100000000E-03 0.  1.
         22    1    1    0    0    0  0.15017776516E+02 -0.10825925408E+02  0.26268021950E+02  0.32136322901E+02  0.00000000000E+00 0.  1.
</event>
<event>
 5    1  0.1681111E-003  0.9118800E+02  0.7818608E-02  0.1130116E+00
         25   -1    0    0    0    0  0.00000000000E+00  0.00000000000E+00  0.99999998245E-14  0.12500000000E+03  0.12500000000E+03 0.  0.
        -11    1    3    3    0    0  0.35071114295E+02  0.20090332448E+02 -0.14533367220E+01  0.40443994655E+02  0.51100000000E-03 0. -1.
         23    2    1    0    0    0  0.90749338612E+00 -0.18452845742E+02 -0.22329202830E+02  0.96018551464E+02  0.91540361950E+02 0.  0.
         11    1    3    3    0    0 -0.34163620908E+02 -0.38543178190E+02 -0.20875866108E+02  0.55574556809E+02  0.51100000000E-03 0.  1.
         22    1    1    0    0    0 -0.90749338612E+00  0.18452845742E+02  0.22329202830E+02  0.28981448536E+02  0.00000000000E+00 0.  1.
</event>
<event>
 5    1  0.1681111E-003  0.9118800E+02  0.7818608E-02  0.1130116E+00
         25   -1    0    0    0    0  0.00000000000E+00  0.00000000000E+00  0.99999998245E-14  0.12500000000E+03  0.12500000000E+03 0.  0.
        -11    1    3    3    0    0 -0.20561883951E+02 -0.27086462423E+02 -0.98710581217E+01  0.35410525369E+02  0.51100000000E-03 0.  1.
         23    2    1    0    0    0  0.29974978688E+01  0.14791879479E+02  0.25700977214E+02  0.95195219817E+02  0.90409097741E+02 0.  0.
         11    1    3    3    0    0  0.23559381819E+02  0.41878341902E+02  0.35572035336E+02  0.59784694449E+02  0.51100000000E-03 0. -1.
         22    1    1    0    0    0 -0.29974978688E+01 -0.14791879479E+02 -0.25700977214E+02  0.29804780183E+02  0.00000000000E+00 0. -1.
</event>
<event>
 5    1  0.1681111E-003  0.9118800E+02  0.7818608E-02  0.1130116E+00
         25   -1    0    0    0    0  0.00000000000E+00  0.00000000000E+00  0.99999998245E-14  0.12500000000E+03  0.12500000000E+03 0.  0.
        -11    1    3    3    0    0 -0.29575302685E+02 -0.20487256547E+02  0.95046587276E+01  0.37212427326E+02  0.51100000000E-03 0.  1.
         23    2    1    0    0    0  0.17443690035E+02 -0.54797068879E+01 -0.22477849938E+02  0.96024782184E+02  0.91548869715E+02 0.  0.
         11    1    3    3    0    0  0.47018992720E+02  0.15007549659E+02 -0.31982508666E+02  0.58812354858E+02  0.51100000000E-03 0. -1.
         22    1    1    0    0    0 -0.17443690035E+02  0.54797068879E+01  0.22477849938E+02  0.28975217816E+02  0.00000000000E+00 0. -1.
</event>
<event>
 5    1  0.1681111E-003  0.9118800E+02  0.7818608E-02  0.1130116E+00
         25   -1    0    0    0    0  0.00000000000E+00  0.00000000000E+00  0.99999998245E-14  0.12500000000E+03  0.12500000000E+03 0.  0.
        -11    1    3    3    0    0 -0.31406661711E+00 -0.42390310121E+01  0.34440347357E+02  0.34701664918E+02  0.51100000000E-03 0. -1.
         23    2    1    0    0    0 -0.27085462696E+02 -0.25439596230E+01 -0.17144005724E+02  0.92843959319E+02  0.87097587967E+02 0.  0.
         11    1    3    3    0    0 -0.26771396079E+02  0.16950713892E+01 -0.51584353081E+02  0.58142294400E+02  0.51100000000E-03 0.  1.
         22    1    1    0    0    0  0.27085462696E+02  0.25439596230E+01  0.17144005724E+02  0.32156040681E+02  0.00000000000E+00 0.  1.
</event>
<event>
 5    1  0.1681111E-003  0.9118800E+02  0.7818608E-02  0.1130116E+00
         25   -1    0    0    0    0  0.00000000000E+00  0.00000000000E+00  0.99999998245E-14  0.12500000000E+03  0.12500000000E+03 0.  0.
        -11    1    3    3    0    0 -0.50608232749E+02 -0.24716590659E+02 -0.22276174069E+02  0.60566748363E+02  0.51100000000E-03 0.  1.
         23    2    1    0    0    0 -0.22581600534E+02 -0.14460894483E+01 -0.15375253662E+02  0.97642765444E+02  0.93732018868E+02 0.  0.
         11    1    3    3    0    0  0.28026632215E+02  0.23270501211E+02  0.69009204073E+01  0.37076017082E+02  0.51100000000E-03 0. -1.
         22    1    1    0    0    0  0.22581600534E+02  0.14460894483E+01  0.15375253662E+02  0.27357234556E+02  0.00000000000E+00 0.  1.
</event>
<event>
 5    1  0.1681111E-003  0.9118800E+02  0.7818608E-02  0.1130116E+00
         25   -1    0    0    0    0  0.00000000000E+00  0.00000000000E+00  0.99999998245E-14  0.12500000000E+03  0.12500000000E+03 0.  0.
        -11    1    3    3    0    0 -0.34531843305E+02  0.13213872242E+02 -0.10565026927E+01  0.36988793166E+02  0.51100000000E-03 0.  1.
         23    2    1    0    0    0  0.37269094612E+01 -0.29699548339E+02 -0.51570291517E+01  0.94626525136E+02  0.89619368910E+02 0.  0.
         11    1    3    3    0    0  0.38258752766E+02 -0.42913420581E+02 -0.41005264590E+01  0.57637731970E+02  0.51100000000E-03 0. -1.
         22    1    1    0    0    0 -0.37269094612E+01  0.29699548339E+02  0.51570291517E+01  0.30373474864E+02  0.00000000000E+00 0. -1.
</event>
<event>
 5    1  0.1681111E-003  0.9118800E+02  0.7818608E-02  0.1130116E+00
         25   -1    0    0    0    0  0.00000000000E+00  0.00000000000E+00  0.99999998245E-14  0.12500000000E+03  0.12500000000E+03 0.  0.
        -11    1    3    3    0    0  0.18890176866E+02  0.52141925954E+02  0.13929516977E+02  0.57180859278E+02  0.51100000000E-03 0.  1.
         23    2    1    0    0    0 -0.60031030161E+01  0.26240190560E+02 -0.47411939794E+01  0.97667532735E+02  0.93765042440E+02 0.  0.
         11    1    3    3    0    0 -0.24893279882E+02 -0.25901735394E+02 -0.18670710957E+02  0.40486673457E+02  0.51100000000E-03 0. -1.
         22    1    1    0    0    0  0.60031030161E+01 -0.26240190560E+02  0.47411939794E+01  0.27332467265E+02  0.00000000000E+00 0.  1.
</event>
<event>
 5    1  0.1681111E-003  0.9118800E+02  0.7818608E-02  0.1130116E+00
         25   -1    0    0    0    0  0.00000000000E+00  0.00000000000E+00  0.99999998245E-14  0.12500000000E+03  0.12500000000E+03 0.  0.
        -11    1    3    3    0    0  0.62365187915E+01  0.56573363104E+02 -0.99194273313E+01  0.57773996039E+02  0.51100000000E-03 0. -1.
         23    2    1    0    0    0  0.61996822757E+01  0.20819223526E+02 -0.20572747180E+02  0.95081543237E+02  0.90251791170E+02 0.  0.
         11    1    3    3    0    0 -0.36836515765E-01 -0.35754139578E+02 -0.10653319849E+02  0.37307547198E+02  0.51100000000E-03 0.  1.
         22    1    1    0    0    0 -0.61996822757E+01 -0.20819223526E+02  0.20572747180E+02  0.29918456763E+02  0.00000000000E+00 0. -1.
</event>
<event>
 5    1  0.1681111E-003  0.9118800E+02  0.7818608E-02  0.1130116E+00
         25   -1    0    0    0    0  0.00000000000E+00  0.00000000000E+00  0.99999998245E-14  0.12500000000E+03  0.12500000000E+03 0.  0.
        -11    1    3    3    0    0  0.26114995608E+02 -0.12494425395E+01  0.45088952445E+02  0.52120703517E+02  0.51100000000E-03 0. -1.
         23    2    1    0    0    0  0.11363258730E+02  0.23937145169E+02  0.13045598300E+02  0.95465305101E+02  0.90781750783E+02 0.  0.
         11    1    3    3    0    0 -0.14751736878E+02  0.25186587708E+02 -0.32043354145E+02  0.43344601583E+02  0.51100000000E-03 0.  1.
         22    1    1    0    0    0 -0.11363258730E+02 -0.23937145169E+02 -0.13045598300E+02  0.29534694899E+02  0.00000000000E+00 0. -1.
</event>
<event>
 5    1  0.1681111E-003  0.9118800E+02  0.7818608E-02  0.1130116E+00
         25   -1    0    0    0    0  0.00000000000E+00  0.00000000000E+00  0.99999998245E-14  0.12500000000E+03  0.12500000000E+03 0.  0.
        -11    1    3    3    0    0  0.15601064771E+02  0.26398041972E+02  0.39932703675E+02  0.50347499094E+02  0.51100000000E-03 0.  1.
         23    2    1    0    0    0 -0.18908309625E+02  0.18181300521E+02  0.94532274683E+01  0.97117256751E+02  0.93028566515E+02 0.  0.
         11    1    3    3    0    0 -0.34509374396E+02 -0.82167414512E+01 -0.30479476206E+02  0.46769757657E+02  0.51100000000E-03 0. -1.
         22    1    1    0    0    0  0.18908309625E+02 -0.18181300521E+02 -0.94532274683E+01  0.27882743249E+02  0.00000000000E+00 0.  1.
</event>
<event>
 5    1  0.1681111E-003  0.9118800E+02  0.7818608E-02  0.1130116E+00
         25   -1    0    0    0    0  0.00000000000E+00  0.00000000000E+00  0.99999998245E-14  0.12500000000E+03  0.12500000000E+03 0.  0.
        -11    1    3    3    0    0  0.46253818977E+02 -0.14967400240E+02 -0.72340103955E+01  0.49150480634E+02  0.51100000000E-03 0.  1.
         23    2    1    0    0    0  0.12861853893E+01 -0.27143807161E+02  0.51197246886E+01  0.97347656141E+02  0.93337634613E+02 0.  0.
         11    1    3    3    0    0 -0.44967633588E+02 -0.12176406920E+02  0.12353735084E+02  0.48197175506E+02  0.51100000000E-03 0. -1.
         22    1    1    0    0    0 -0.12861853893E+01  0.27143807161E+02 -0.51197246886E+01  0.27652343859E+02  0.00000000000E+00 0. -1.
</event>
<event>
 5    1  0.1681111E-003  0.9118800E+02  0.7818608E-02  0.1130116E+00
         25   -1    0    0    0    0  0.00000000000E+00  0.00000000000E+00  0.99999998245E-14  0.12500000000E+03  0.12500000000E+03 0.  0.
        -11    1    3    3    0    0  0.35677194053E+02  0.31664033555E+02  0.86449429739E+01  0.48478946314E+02  0.51100000000E-03 0. -1.
         23    2    1    0    0    0 -0.11719966595E+02  0.24940528448E+02  0.78090865320E+01  0.96357908444E+02  0.92002592957E+02 0.  0.
         11    1    3    3    0    0 -0.47397160648E+02 -0.67235051063E+01 -0.83585644188E+00  0.47878962130E+02  0.51100000000E-03 0.  1.
         22    1    1    0    0    0  0.11719966595E+02 -0.24940528448E+02 -0.78090865320E+01  0.28642091556E+02  0.00000000000E+00 0. -1.
</event>
<event>
 5    1  0.1681111E-003  0.9118800E+02  0.7818608E-02  0.1130116E+00
         25   -1    0    0    0    0  0.00000000000E+00  0.00000000000E+00  0.99999998245E-14  0.12500000000E+03  0.12500000000E+03 0.  0.
        -11    1    3    3    0    0  0.17393033078E+02 -0.44533642210E+02  0.81812374698E+01  0.48504592926E+02  0.51100000000E-03 0.  1.
         23    2    1    0    0    0  0.23950569435E+02  0.14363609233E+01  0.16768857208E+02  0.95727359514E+02  0.91141866771E+02 0.  0.
         11    1    3    3    0    0  0.65575363573E+01  0.45970003133E+02  0.85876197379E+01  0.47222766588E+02  0.51100000000E-03 0. -1.
         22    1    1    0    0    0 -0.23950569435E+02 -0.14363609233E+01 -0.16768857208E+02  0.29272640486E+02  0.00000000000E+00 0. -1.
</event>
<event>
 5    1  0.1681111E-003  0.9118800E+02  0.7818608E-02  0.1130116E+00
         25   -1    0    0    0    0  0.00000000000E+00  0.00000000000E+00  0.99999998245E-14  0.12500000000E+03  0.12500000000E+03 0.  0.
        -11    1    3    3    0    0  0.19275164651E+02  0.56612639488E+02  0.15152295852E+02  0.61693719227E+02  0.51100000000E-03 0.  1.
         23    2    1    0    0    0  0.22252803464E+01  0.28209243675E+02  0.81406354631E+01  0.95555420752E+02  0.90905748927E+02 0.  0.
         11    1    3    3    0    0 -0.17049884305E+02 -0.28403395813E+02 -0.70116603887E+01  0.33861701525E+02  0.51100000000E-03 0. -1.
         22    1    1    0    0    0 -0.22252803464E+01 -0.28209243675E+02 -0.81406354631E+01  0.29444579248E+02  0.00000000000E+00 0.  1.
</event>
<event>
 5    1  0.1681111E-003  0.9118800E+02  0.7818608E-02  0.1130116E+00
         25   -1    0    0    0    0  0.00000000000E+00  0.00000000000E+00  0.99999998245E-14  0.12500000000E+03  0.12500000000E+03 0.  0.
        -11    1    3    3    0    0 -0.41367527185E+02  0.57659535307E+01  0.37870048978E+02  0.56379598574E+02  0.51100000000E-03 0. -1.
         23    2    1    0    0    0 -0.16170942944E+02  0.21455546117E+02  0.12766426948E+02  0.95254050495E+02  0.90490400728E+02 0.  0.
         11    1    3    3    0    0  0.25196584241E+02  0.15689592587E+02 -0.25103622029E+02  0.38874451921E+02  0.51100000000E-03 0.  1.
         22    1    1    0    0    0  0.16170942944E+02 -0.21455546117E+02 -0.12766426948E+02  0.29745949505E+02  0.00000000000E+00 0. -1.
</event>
<event>
 5    1  0.1681111E-003  0.9118800E+02  0.7818608E-02  0.1130116E+00
         25   -1    0    0    0    0  0.00000000000E+00  0.00000000000E+00  0.99999998245E-14  0.12500000000E+03  0.12500000000E+03 0.  0.
        -11    1    3    3    0    0 -0.24096122866E+02  0.34670600170E+02 -0.24486506163E+02  0.48808427937E+02  0.51100000000E-03 0.  1.
         23    2    1    0    0    0 -0.28852075760E+02 -0.67318506503E+01 -0.44814213285E+01  0.95035967795E+02  0.90188646452E+02 0.  0.
         11    1    3    3    0    0 -0.47559528943E+01 -0.41402450820E+02  0.20005084835E+02  0.46227539858E+02  0.51100000000E-03 0. -1.
         22    1    1    0    0    0  0.28852075760E+02  0.67318506503E+01  0.44814213285E+01  0.29964032205E+02  0.00000000000E+00 0.  1.
</event>
<event>
 5    1  0.1681111E-003  0.9118800E+02  0.7818608E-02  0.1130116E+00
         25   -1    0    0    0    0  0.00000000000E+00  0.00000000000E+00  0.99999998245E-14  0.12500000000E+03  0.12500000000E+03 0.  0.
        -11    1    3    3    0    0 -0.35375103520E+01  0.26413114685E+02  0.23067437853E+02  0.35245897580E+02  0.51100000000E-03 0. -1.
         23    2    1    0    0    0 -0.32251839720E+02 -0.15112064682E+02  0.14916371438E+02  0.86385834191E+02  0.77275213022E+02 0.  0.
         11    1    3    3    0    0 -0.28714329368E+02 -0.41525179368E+02 -0.81510664152E+01  0.51139936611E+02  0.51100000000E-03 0.  1.
         22    1    1    0    0    0  0.32251839720E+02  0.15112064682E+02 -0.14916371438E+02  0.38614165809E+02  0.00000000000E+00 0.  1.
</event>
<event>
 5    1  0.1681111E-003  0.9118800E+02  0.7818608E-02  0.1130116E+00
         25   -1    0    0    0    0  0.00000000000E+00  0.00000000000E+00  0.99999998245E-14  0.12500000000E+03  0.12500000000E+03 0.  0.
        -11    1    3    3    0    0 -0.30065609502E+01  0.95966199630E+01  0.59652892301E+02  0.60494645082E+02  0.51100000000E-03 0.  1.
         23    2    1    0    0    0  0.97297752819E+01  0.37957201126E+01  0.28495542842E+02  0.94650832300E+02  0.89653265836E+02 0.  0.
         11    1    3    3    0    0  0.12736336232E+02 -0.58008998504E+01 -0.31157349459E+02  0.34156187218E+02  0.51100000000E-03 0. -1.
         22    1    1    0    0    0 -0.97297752819E+01 -0.37957201126E+01 -0.28495542842E+02  0.30349167700E+02  0.00000000000E+00 0.  1.
</event>
<event>
 5    1  0.1681111E-003  0.9118800E+02  0.7818608E-02  0.1130116E+00
         25   -1    0    0    0    0  0.00000000000E+00  0.00000000000E+00  0.99999998245E-14  0.12500000000E+03  0.12500000000E+03 0.  0.
        -11    1    3    3    0    0  0.20210903932E+02  0.38200739097E+02  0.79401229010E+01  0.43941127173E+02  0.51100000000E-03 0.  1.
         23    2    1    0    0    0  0.23006171950E+02 -0.60491893641E+01 -0.17872717892E+02  0.95245829122E+02  0.90479043323E+02 0.  0.
         11    1    3    3    0    0  0.27952680182E+01 -0.44249928461E+02 -0.25812840793E+02  0.51304701950E+02  0.51100000000E-03 0. -1.
         22    1    1    0    0    0 -0.23006171950E+02  0.60491893641E+01  0.17872717892E+02  0.29754170878E+02  0.00000000000E+00 0. -1.
</event>
<event>
 5    1  0.1681111E-003  0.9118800E+02  0.7818608E-02  0.1130116E+00
         25   -1    0    0    0    0  0.00000000000E+00  0.00000000000E+00  0.99999998245E-14  0.12500000000E+03  0.12500000000E+03 0.  0.
        -11    1    3    3    0    0  0.19378528669E+02 -0.38928364057E+02 -0.27855475384E+02  0.51641770019E+02  0.51100000000E-03 0. -1.
         23    2    1    0    0    0 -0.44362816757E+01 -0.28266597831E+02  0.73462778521E+01  0.95459367876E+02  0.90773575279E+02 0.  0.
         11    1    3    3    0    0 -0.23814810345E+02  0.10661766227E+02  0.35201753236E+02  0.43817597857E+02  0.51100000000E-03 0.  1.
         22    1    1    0    0    0  0.44362816757E+01  0.28266597831E+02 -0.73462778521E+01  0.29540632124E+02  0.00000000000E+00 0. -1.
</event>
<event>
 5    1  0.1681111E-003  0.9118800E+02  0.7818608E-02  0.1130116E+00
         25   -1    0    0    0    0  0.00000000000E+00  0.00000000000E+00  0.99999998245E-14  0.12500000000E+03  0.12500000000E+03 0.  0.
        -11    1    3    3    0    0  0.68722124692E+00 -0.26502139819E+02  0.24772317254E+02  0.36283651834E+02  0.51100000000E-03 0.  1.
         23    2    1    0    0    0  0.68121679539E+01  0.13339464334E+02 -0.22224415073E+02  0.98199411083E+02  0.94471438916E+02 0.  0.
         11    1    3    3    0    0  0.61249467070E+01  0.39841604153E+02 -0.46996732328E+02  0.61915759249E+02  0.51100000000E-03 0. -1.
         22    1    1    0    0    0 -0.68121679539E+01 -0.13339464334E+02  0.22224415073E+02  0.26800588917E+02  0.00000000000E+00 0. -1.
</event>
<event>
 5    1  0.1681111E-003  0.9118800E+02  0.7818608E-02  0.1130116E+00
         25   -1    0    0    0    0  0.00000000000E+00  0.00000000000E+00  0.99999998245E-14  0.12500000000E+03  0.12500000000E+03 0.  0.
        -11    1    3    3    0    0 -0.87088584964E+01 -0.24945684137E+02  0.50986659995E+02  0.57426221111E+02  0.51100000000E-03 0.  1.
         23    2    1    0    0    0 -0.16046294882E+02 -0.26106948654E+02  0.22190520920E+02  0.87165154075E+02  0.78525718836E+02 0.  0.
         11    1    3    3    0    0 -0.73374363859E+01 -0.11612645167E+01 -0.28796139075E+02  0.29738932965E+02  0.51100000000E-03 0. -1.
         22    1    1    0    0    0  0.16046294882E+02  0.26106948654E+02 -0.22190520920E+02  0.37834845925E+02  0.00000000000E+00 0.  1.
</event>
<event>
 5    1  0.1681111E-003  0.9118800E+02  0.7818608E-02  0.1130116E+00
         25   -1    0    0    0    0  0.00000000000E+00  0.00000000000E+00  0.99999998245E-14  0.12500000000E+03  0.12500000000E+03 0.  0.
        -11    1    3    3    0    0  0.14546768071E+01  0.36994862815E+02 -0.13167150357E+02  0.39295162655E+02  0.51100000000E-03 0.  1.
         23    2    1    0    0    0  0.13722870086E+02 -0.16312034172E+01  0.25936276578E+02  0.95611763736E+02  0.90983190392E+02 0.  0.
         11    1    3    3    0    0  0.12268193279E+02 -0.38626066232E+02  0.39103426935E+02  0.56316601080E+02  0.51100000000E-03 0. -1.
         22    1    1    0    0    0 -0.13722870086E+02  0.16312034172E+01 -0.25936276578E+02  0.29388236264E+02  0.00000000000E+00 0. -1.
</event>
<event>
 5    1  0.1681111E-003  0.9118800E+02  0.7818608E-02  0.1130116E+00
         25   -1    0    0    0    0  0.00000000000E+00  0.00000000000E+00  0.99999998245E-14  0.12500000000E+03  0.12500000000E+03 0.  0.
        -11    1    3    3    0    0 -0.21124586131E+01 -0.61457140221E+02 -0.90675441586E+01  0.62158369693E+02  0.51100000000E-03 0.  1.
         23    2    1    0    0    0 -0.45658823100E+01 -0.31808336634E+02 -0.16289354987E+01  0.92824372709E+02  0.87069473280E+02 0.  0.
         11    1    3    3    0    0 -0.24534236968E+01  0.29648803586E+02  0.74386086598E+01  0.30666003016E+02  0.51100000000E-03 0. -1.
         22    1    1    0    0    0  0.45658823100E+01  0.31808336634E+02  0.16289354987E+01  0.32175627291E+02  0.00000000000E+00 0.  1.
</event>
<event>
 5    1  0.1681111E-003  0.9118800E+02  0.7818608E-02  0.1130116E+00
         25   -1    0    0    0    0  0.00000000000E+00  0.00000000000E+00  0.99999998245E-14  0.12500000000E+03  0.12500000000E+03 0.  0.
        -11    1    3    3    0    0  0.41886756995E+02 -0.12270266222E+02  0.31863781610E+02  0.54040359209E+02  0.51100000000E-03 0.  1.
         23    2    1    0    0    0  0.41186706340E+01 -0.22574674687E+02  0.18874691397E+02  0.95287488151E+02  0.90536578452E+02 0.  0.
         11    1    3    3    0    0 -0.37768086361E+02 -0.10304408466E+02 -0.12989090212E+02  0.41247128942E+02  0.51100000000E-03 0. -1.
         22    1    1    0    0    0 -0.41186706340E+01  0.22574674687E+02 -0.18874691397E+02  0.29712511849E+02  0.00000000000E+00 0.  1.
</event>
<event>
 5    1  0.1681111E-003  0.9118800E+02  0.7818608E-02  0.1130116E+00
         25   -1    0    0    0    0  0.00000000000E+00  0.00000000000E+00  0.99999998245E-14  0.12500000000E+03  0.12500000000E+03 0.  0.
        -11    1    3    3    0    0 -0.36895700557E+01 -0.47453738391E+02 -0.10456751830E+02  0.48732062070E+02  0.51100000000E-03 0. -1.
         23    2    1    0    0    0 -0.16182304631E+02 -0.97128355231E+01  0.19006518682E+02  0.98214669883E+02  0.94491626458E+02 0.  0.
         11    1    3    3    0    0 -0.12492734575E+02  0.37740902868E+02  0.29463270512E+02  0.49482607813E+02  0.51100000000E-03 0.  1.
         22    1    1    0    0    0  0.16182304631E+02  0.97128355231E+01 -0.19006518682E+02  0.26785330117E+02  0.00000000000E+00 0.  1.
</event>
<event>
 5    1  0.1681111E-003  0.9118800E+02  0.7818608E-02  0.1130116E+00
         25   -1    0    0    0    0  0.00000000000E+00  0.00000000000E+00  0.99999998245E-14  0.12500000000E+03  0.12500000000E+03 0.  0.
        -11    1    3    3    0    0  0.17518116525E+02 -0.13881629413E+02  0.42979334443E+01  0.22760849587E+02  0.51100000000E-03 0. -1.
         23    2    1    0    0    0  0.23175089869E+02  0.78723656211E+01 -0.43222199489E+02  0.75328907204E+02  0.56632382971E+02 0.  0.
         11    1    3    3    0    0  0.56569733440E+01  0.21753995034E+02 -0.47520132933E+02  0.52568057617E+02  0.51100000000E-03 0.  1.
         22    1    1    0    0    0 -0.23175089869E+02 -0.78723656211E+01  0.43222199489E+02  0.49671092796E+02  0.00000000000E+00 0.  1.
</event>
<event>
 5    1  0.1681111E-003  0.9118800E+02  0.7818608E-02  0.1130116E+00
         25   -1    0    0    0    0  0.00000000000E+00  0.00000000000E+00  0.99999998245E-14  0.12500000000E+03  0.12500000000E+03 0.  0.
        -11    1    3    3    0    0 -0.51347874500E+02 -0.24318999401E+01 -0.14538565901E+02  0.53421795661E+02  0.51100000000E-03 0.  1.
         23    2    1    0    0    0 -0.12505150667E+02 -0.17632069914E+02 -0.20076260480E+02  0.95498730239E+02  0.90827763155E+02 0.  0.
         11    1    3    3    0    0  0.38842723833E+02 -0.15200169974E+02 -0.55376945790E+01  0.42076934578E+02  0.51100000000E-03 0. -1.
         22    1    1    0    0    0  0.12505150667E+02  0.17632069914E+02  0.20076260480E+02  0.29501269761E+02  0.00000000000E+00 0.  1.
</event>
<event>
 5    1  0.1681111E-003  0.9118800E+02  0.7818608E-02  0.1130116E+00
         25   -1    0    0    0    0  0.00000000000E+00  0.00000000000E+00  0.99999998245E-14  0.12500000000E+03  0.12500000000E+03 0.  0.
        -11    1    3    3    0    0  0.66748180388E+00  0.37727684605E+02 -0.31387057813E+02  0.49081270521E+02  0.51100000000E-03 0.  1.
         23    2    1    0    0    0  0.26723393174E+02  0.93778080489E+01 -0.38525495119E+01  0.96418097260E+02  0.92084332625E+02 0.  0.
         11    1    3    3    0    0  0.26055911370E+02 -0.28349876556E+02  0.27534508301E+02  0.47336826738E+02  0.51100000000E-03 0. -1.
         22    1    1    0    0    0 -0.26723393174E+02 -0.93778080489E+01  0.38525495119E+01  0.28581902740E+02  0.00000000000E+00 0.  1.
</event>
<event>
 5    1  0.1681111E-003  0.9118800E+02  0.7818608E-02  0.1130116E+00
         25   -1    0    0    0    0  0.00000000000E+00  0.00000000000E+00  0.99999998245E-14  0.12500000000E+03  0.12500000000E+03 0.  0.
        -11    1    3    3    0    0  0.96855909980E+01 -0.92032029934E+01 -0.24718809929E+02  0.28098561936E+02  0.51100000000E-03 0.  1.
         23    2    1    0    0    0  0.32373112150E+02 -0.28745682927E+02  0.16175245933E+02  0.78783430912E+02  0.63803273647E+02 0.  0.
         11    1    3    3    0    0  0.22687521152E+02 -0.19542479934E+02  0.40894055862E+02  0.50684868976E+02  0.51100000000E-03 0. -1.
         22    1    1    0    0    0 -0.32373112150E+02  0.28745682927E+02 -0.16175245933E+02  0.46216569088E+02  0.00000000000E+00 0. -1.
</event>
<event>
 5    1  0.1681111E-003  0.9118800E+02  0.7818608E-02  0.1130116E+00
         25   -1    0    0    0    0  0.00000000000E+00  0.00000000000E+00  0.99999998245E-14  0.12500000000E+03  0.12500000000E+03 0.  0.
        -11    1    3    3    0    0  0.17003617674E+02 -0.28525850493E+02  0.10449697647E+02  0.34814412842E+02  0.51100000000E-03 0. -1.
         23    2    1    0    0    0  0.30386795626E+01  0.28410883583E+02 -0.62101902163E+01  0.95759987313E+02  0.91186604434E+02 0.  0.
         11    1    3    3    0    0 -0.13964938112E+02  0.56936734076E+02 -0.16659887864E+02  0.60945574471E+02  0.51100000000E-03 0.  1.
         22    1    1    0    0    0 -0.30386795626E+01 -0.28410883583E+02  0.62101902163E+01  0.29240012687E+02  0.00000000000E+00 0.  1.
</event>
<event>
 5    1  0.1681111E-003  0.9118800E+02  0.7818608E-02  0.1130116E+00
         25   -1    0    0    0    0  0.00000000000E+00  0.00000000000E+00  0.99999998245E-14  0.12500000000E+03  0.12500000000E+03 0.  0.
        -11    1    3    3    0    0 -0.28427166079E+02 -0.17167039796E+02 -0.79257835050E+01  0.34141310331E+02  0.51100000000E-03 0.  1.
         23    2    1    0    0    0  0.16855917133E+02  0.23847650781E+02  0.34323193915E+00  0.95794688868E+02  0.91234161458E+02 0.  0.
         11    1    3    3    0    0  0.45283083212E+02  0.41014690578E+02  0.82690154442E+01  0.61653378537E+02  0.51100000000E-03 0. -1.
         22    1    1    0    0    0 -0.16855917133E+02 -0.23847650781E+02 -0.34323193915E+00  0.29205311132E+02  0.00000000000E+00 0. -1.
</event>
<event>
 5    1  0.1681111E-003  0.9118800E+02  0.7818608E-02  0.1130116E+00
         25   -1    0    0    0    0  0.00000000000E+00  0.00000000000E+00  0.99999998245E-14  0.12500000000E+03  0.12500000000E+03 0.  0.
        -11    1    3    3    0    0  0.60612093224E+00 -0.49230617480E+02  0.23629869494E+02  0.54611279170E+02  0.51100000000E-03 0.  1.
         23    2    1    0    0    0 -0.16715178255E+02 -0.25290176075E+02 -0.31908152904E+01  0.94517685583E+02  0.89467432039E+02 0.  0.
         11    1    3    3    0    0 -0.17321299188E+02  0.23940441405E+02 -0.26820684784E+02  0.39906406413E+02  0.51100000000E-03 0. -1.
         22    1    1    0    0    0  0.16715178255E+02  0.25290176075E+02  0.31908152904E+01  0.30482314417E+02  0.00000000000E+00 0.  1.
</event>
<event>
 5    1  0.1681111E-003  0.9118800E+02  0.7818608E-02  0.1130116E+00
         25   -1    0    0    0    0  0.00000000000E+00  0.00000000000E+00  0.99999998245E-14  0.12500000000E+03  0.12500000000E+03 0.  0.
        -11    1    3    3    0    0  0.28472215212E+02  0.32539080085E+02  0.60342323321E+01  0.43656279410E+02  0.51100000000E-03 0.  1.
         23    2    1    0    0    0  0.81182881013E+01 -0.35434846742E+00 -0.28409990445E+02  0.95450723839E+02  0.90761671205E+02 0.  0.
         11    1    3    3    0    0 -0.20353927111E+02 -0.32893428552E+02 -0.34444222777E+02  0.51794444429E+02  0.51100000000E-03 0. -1.
         22    1    1    0    0    0 -0.81182881013E+01  0.35434846742E+00  0.28409990445E+02  0.29549276161E+02  0.00000000000E+00 0. -1.
</event>
<event>
 5    1  0.1681111E-003  0.9118800E+02  0.7818608E-02  0.1130116E+00
         25   -1    0    0    0    0  0.00000000000E+00  0.00000000000E+00  0.99999998245E-14  0.12500000000E+03  0.12500000000E+03 0.  0.
        -11    1    3    3    0    0 -0.42200858528E+02 -0.15721316803E+02 -0.63732388207E+01  0.45482858704E+02  0.51100000000E-03 0.  1.
         23    2    1    0    0    0 -0.13303312965E+02  0.24821163485E+02 -0.92641495542E+01  0.95353874460E+02  0.90628188854E+02 0.  0.
         11    1    3    3    0    0  0.28897545563E+02  0.40542480287E+02 -0.28909107335E+01  0.49871015756E+02  0.51100000000E-03 0. -1.
         22    1    1    0    0    0  0.13303312965E+02 -0.24821163485E+02  0.92641495542E+01  0.29646125540E+02  0.00000000000E+00 0. -1.
</event>
<event>
 5    1  0.1681111E-003  0.9118800E+02  0.7818608E-02  0.1130116E+00
         25   -1    0    0    0    0  0.00000000000E+00  0.00000000000E+00  0.99999998245E-14  0.12500000000E+03  0.12500000000E+03 0.  0.
        -11    1    3    3    0    0 -0.12971018129E+02  0.12898674751E+02 -0.43212275438E+02  0.46924661644E+02  0.51100000000E-03 0. -1.
         23    2    1    0    0    0  0.17002563214E+02  0.17377321565E+02  0.11619551476E+01  0.10066055464E+03  0.97673633393E+02 0.  0.
         11    1    3    3    0    0  0.29973581343E+02  0.44786468146E+01  0.44374230585E+02  0.53735892997E+02  0.51100000000E-03 0.  1.
         22    1    1    0    0    0 -0.17002563214E+02 -0.17377321565E+02 -0.11619551476E+01  0.24339445359E+02  0.00000000000E+00 0. -1.
</event>
<event>
 5    1  0.1681111E-003  0.9118800E+02  0.7818608E-02  0.1130116E+00
         25   -1    0    0    0    0  0.00000000000E+00  0.00000000000E+00  0.99999998245E-14  0.12500000000E+03  0.12500000000E+03 0.  0.
        -11    1    3    3    0    0  0.23354653841E+02 -0.28580978707E+01 -0.54107737296E+02  0.59002167884E+02  0.51100000000E-03 0.  1.
         23    2    1    0    0    0  0.12259027177E+02  0.13279577491E+02 -0.23214789325E+02  0.95579643628E+02  0.90939050506E+02 0.  0.
         11    1    3    3    0    0 -0.11095626664E+02  0.16137675362E+02  0.30892947971E+02  0.36577475743E+02  0.51100000000E-03 0. -1.
         22    1    1    0    0    0 -0.12259027177E+02 -0.13279577491E+02  0.23214789325E+02  0.29420356372E+02  0.00000000000E+00 0.  1.
</event>
<event>
 5    1  0.1681111E-003  0.9118800E+02  0.7818608E-02  0.1130116E+00
         25   -1    0    0    0    0  0.00000000000E+00  0.00000000000E+00  0.99999998245E-14  0.12500000000E+03  0.12500000000E+03 0.  0.
        -11    1    3    3    0    0  0.52108867610E+02  0.26556666329E+02 -0.66552632221E+01  0.58863257970E+02  0.51100000000E-03 0.  1.
         23    2    1    0    0    0  0.21165366762E+02  0.12365292039E+02 -0.17825095433E+02  0.94691466142E+02  0.89709902105E+02 0.  0.
         11    1    3    3    0    0 -0.30943500847E+02 -0.14191374290E+02 -0.11169832211E+02  0.35828208172E+02  0.51100000000E-03 0. -1.
         22    1    1    0    0    0 -0.21165366762E+02 -0.12365292039E+02  0.17825095433E+02  0.30308533858E+02  0.00000000000E+00 0.  1.
</event>
<event>
 5    1  0.1681111E-003  0.9118800E+02  0.7818608E-02  0.1130116E+00
         25   -1    0    0    0    0  0.00000000000E+00  0.00000000000E+00  0.99999998245E-14  0.12500000000E+03  0.12500000000E+03 0.  0.
        -11    1    3    3    0    0  0.30015724158E+00 -0.38179904595E+02  0.37871693072E+02  0.53777879706E+02  0.51100000000E-03 0.  1.
         23    2    1    0    0    0  0.35510098709E+01 -0.26549504746E+01  0.35168036893E+02  0.89553572084E+02  0.82239850565E+02 0.  0.
         11    1    3    3    0    0  0.32508526294E+01  0.35524954121E+02 -0.27036561795E+01  0.35775692378E+02  0.51100000000E-03 0. -1.
         22    1    1    0    0    0 -0.35510098709E+01  0.26549504746E+01 -0.35168036893E+02  0.35446427916E+02  0.00000000000E+00 0.  1.
</event>
<event>
 5    1  0.1681111E-003  0.9118800E+02  0.7818608E-02  0.1130116E+00
         25   -1    0    0    0    0  0.00000000000E+00  0.00000000000E+00  0.99999998245E-14  0.12500000000E+03  0.12500000000E+03 0.  0.
        -11    1    3    3    0    0 -0.11172549978E+02 -0.38833798139E+02  0.55091631229E+01  0.40782847246E+02  0.51100000000E-03 0. -1.
         23    2    1    0    0    0 -0.23727919189E+01 -0.12136941897E+00 -0.30516019045E+02  0.94391630387E+02  0.89291139519E+02 0.  0.
         11    1    3    3    0    0  0.87997580588E+01  0.38712428720E+02 -0.36025182168E+02  0.53608783141E+02  0.51100000000E-03 0.  1.
         22    1    1    0    0    0  0.23727919189E+01  0.12136941897E+00  0.30516019045E+02  0.30608369613E+02  0.00000000000E+00 0.  1.
</event>
<event>
 5    1  0.1681111E-003  0.9118800E+02  0.7818608E-02  0.1130116E+00
         25   -1    0    0    0    0  0.00000000000E+00  0.00000000000E+00  0.99999998245E-14  0.12500000000E+03  0.12500000000E+03 0.  0.
        -11    1    3    3    0    0  0.33810462101E+02  0.24668283090E+02  0.32843951507E+02  0.53201472620E+02  0.51100000000E-03 0.  1.
         23    2    1    0    0    0  0.12635025601E+02 -0.87804559287E+01  0.27955129151E+02  0.93090291068E+02  0.87450401754E+02 0.  0.
         11    1    3    3    0    0 -0.21175436499E+02 -0.33448739019E+02 -0.48888223559E+01  0.39888818448E+02  0.51100000000E-03 0. -1.
         22    1    1    0    0    0 -0.12635025601E+02  0.87804559287E+01 -0.27955129151E+02  0.31909708932E+02  0.00000000000E+00 0.  1.
</event>
<event>
 5    1  0.1681111E-003  0.9118800E+02  0.7818608E-02  0.1130116E+00
         25   -1    0    0    0    0  0.00000000000E+00  0.00000000000E+00  0.99999998245E-14  0.12500000000E+03  0.12500000000E+03 0.  0.
        -11    1    3    3    0    0  0.23254222943E+02 -0.33650908511E+02 -0.37105700290E+02  0.55226583477E+02  0.51100000000E-03 0.  1.
         23    2    1    0    0    0  0.14558451890E+02  0.19466932418E+01 -0.28605615232E+02  0.92843828604E+02  0.87097400369E+02 0.  0.
         11    1    3    3    0    0 -0.86957710524E+01  0.35597601753E+02  0.85000850579E+01  0.37617245128E+02  0.51100000000E-03 0. -1.
         22    1    1    0    0    0 -0.14558451890E+02 -0.19466932418E+01  0.28605615232E+02  0.32156171396E+02  0.00000000000E+00 0.  1.
</event>
<event>
 5    1  0.1681111E-003  0.9118800E+02  0.7818608E-02  0.1130116E+00
         25   -1    0    0    0    0  0.00000000000E+00  0.00000000000E+00  0.99999998245E-14  0.12500000000E+03  0.12500000000E+03 0.  0.
        -11    1    3    3    0    0 -0.42042180105E+02  0.74436285917E+01  0.11101906577E+02  0.44115811729E+02  0.51100000000E-03 0. -1.
         23    2    1    0    0    0  0.42559733936E+01  0.19965748130E+02  0.23715415002E+02  0.93708382645E+02  0.88329472213E+02 0.  0.
         11    1    3    3    0    0  0.46298153498E+02  0.12522119539E+02  0.12613508425E+02  0.49592570917E+02  0.51100000000E-03 0.  1.
         22    1    1    0    0    0 -0.42559733936E+01 -0.19965748130E+02 -0.23715415002E+02  0.31291617355E+02  0.00000000000E+00 0. -1.
</event>
<event>
 5    1  0.1681111E-003  0.9118800E+02  0.7818608E-02  0.1130116E+00
         25   -1    0    0    0    0  0.00000000000E+00  0.00000000000E+00  0.99999998245E-14  0.12500000000E+03  0.12500000000E+03 0.  0.
        -11    1    3    3    0    0  0.34530797228E+02 -0.19188068072E+02 -0.11240582516E+02  0.41071993001E+02  0.51100000000E-03 0. -1.
         23    2    1    0    0    0 -0.11384491671E+01  0.22499101379E+02 -0.17747603922E+02  0.96321034288E+02  0.91952479966E+02 0.  0.
         11    1    3    3    0    0 -0.35669246395E+02  0.41687169451E+02 -0.65070214054E+01  0.55249041286E+02  0.51100000000E-03 0.  1.
         22    1    1    0    0    0  0.11384491671E+01 -0.22499101379E+02  0.17747603922E+02  0.28678965712E+02  0.00000000000E+00 0. -1.
</event>
<event>
 5    1  0.1681111E-003  0.9118800E+02  0.7818608E-02  0.1130116E+00
         25   -1    0    0    0    0  0.00000000000E+00  0.00000000000E+00  0.99999998245E-14  0.12500000000E+03  0.12500000000E+03 0.  0.
        -11    1    3    3    0    0  0.38580714346E+02  0.18758132281E+02 -0.13892027345E+02  0.45092432515E+02  0.51100000000E-03 0.  1.
         23    2    1    0    0    0  0.18237403472E+01 -0.94672259426E+01 -0.29476802935E+02  0.93986514108E+02  0.88722198615E+02 0.  0.
         11    1    3    3    0    0 -0.36756973999E+02 -0.28225358223E+02 -0.15584775590E+02  0.48894081593E+02  0.51100000000E-03 0. -1.
         22    1    1    0    0    0 -0.18237403472E+01  0.94672259426E+01  0.29476802935E+02  0.31013485892E+02  0.00000000000E+00 0. -1.
</event>
<event>
 5    1  0.1681111E-003  0.9118800E+02  0.7818608E-02  0.1130116E+00
         25   -1    0    0    0    0  0.00000000000E+00  0.00000000000E+00  0.99999998245E-14  0.12500000000E+03  0.12500000000E+03 0.  0.
        -11    1    3    3    0    0  0.12053522718E+02  0.38409198170E+02 -0.13066785145E+02  0.42323690626E+02  0.51100000000E-03 0. -1.
         23    2    1    0    0    0  0.31124561521E+00 -0.10644111184E+02 -0.28095486504E+02  0.94954195990E+02  0.90075240758E+02 0.  0.
         11    1    3    3    0    0 -0.11742277103E+02 -0.49053309353E+02 -0.15028701359E+02  0.52630505364E+02  0.51100000000E-03 0.  1.
         22    1    1    0    0    0 -0.31124561521E+00  0.10644111184E+02  0.28095486504E+02  0.30045804010E+02  0.00000000000E+00 0.  1.
</event>
<event>
 5    1  0.1681111E-003  0.9118800E+02  0.7818608E-02  0.1130116E+00
         25   -1    0    0    0    0  0.00000000000E+00  0.00000000000E+00  0.99999998245E-14  0.12500000000E+03  0.12500000000E+03 0.  0.
        -11    1    3    3    0    0 -0.45678153927E+02 -0.58809740071E+00  0.35891890400E+02  0.58095330290E+02  0.51100000000E-03 0. -1.
         23    2    1    0    0    0 -0.13693450444E+02  0.14264083129E+02  0.20326636602E+02  0.96642517599E+02  0.92388470058E+02 0.  0.
         11    1    3    3    0    0  0.31984703483E+02  0.14852180530E+02 -0.15565253798E+02  0.38547187309E+02  0.51100000000E-03 0.  1.
         22    1    1    0    0    0  0.13693450444E+02 -0.14264083129E+02 -0.20326636602E+02  0.28357482401E+02  0.00000000000E+00 0. -1.
</event>
<event>
 5    1  0.1681111E-003  0.9118800E+02  0.7818608E-02  0.1130116E+00
         25   -1    0    0    0    0  0.00000000000E+00  0.00000000000E+00  0.99999998245E-14  0.12500000000E+03  0.12500000000E+03 0.  0.
        -11    1    3    3    0    0  0.73620091507E+01 -0.47078114266E+02 -0.30094119120E+02  0.56357821351E+02  0.51100000000E-03 0.  1.
         23    2    1    0    0    0  0.19086854608E+02 -0.21628063424E+02 -0.19255586135E+01  0.96089985778E+02  0.91637854867E+02 0.  0.
         11    1    3    3    0    0  0.11724845457E+02  0.25450050841E+02  0.28168560506E+02  0.39732164427E+02  0.51100000000E-03 0. -1.
         22    1    1    0    0    0 -0.19086854608E+02  0.21628063424E+02  0.19255586135E+01  0.28910014222E+02  0.00000000000E+00 0.  1.
</event>
<event>
 5    1  0.1681111E-003  0.9118800E+02  0.7818608E-02  0.1130116E+00
         25   -1    0    0    0    0  0.00000000000E+00  0.00000000000E+00  0.99999998245E-14  0.12500000000E+03  0.12500000000E+03 0.  0.
        -11    1    3    3    0    0  0.14877545073E+02  0.17013076660E+02  0.51918508752E+02  0.56624355857E+02  0.51100000000E-03 0.  1.
         23    2    1    0    0    0  0.24313074150E+02  0.66997582452E+01  0.16084913167E+02  0.95087849178E+02  0.90260524564E+02 0.  0.
         11    1    3    3    0    0  0.94355290771E+01 -0.10313318415E+02 -0.35833595585E+02  0.38463493322E+02  0.51100000000E-03 0. -1.
         22    1    1    0    0    0 -0.24313074150E+02 -0.66997582452E+01 -0.16084913167E+02  0.29912150822E+02  0.00000000000E+00 0.  1.
</event>
<event>
 5    1  0.1681111E-003  0.9118800E+02  0.7818608E-02  0.1130116E+00
         25   -1    0    0    0    0  0.00000000000E+00  0.00000000000E+00  0.99999998245E-14  0.12500000000E+03  0.12500000000E+03 0.  0.
        -11    1    3    3    0    0  0.46639695138E+02  0.22122023669E+02  0.15839892205E+01  0.51644497441E+02  0.51100000000E-03 0. -1.
         23    2    1    0    0    0  0.22904340204E+02  0.21061306757E+02  0.25061740742E+02  0.85046548441E+02  0.75077540651E+02 0.  0.
         11    1    3    3    0    0 -0.23735354934E+02 -0.10607169125E+01  0.23477751521E+02  0.33402051000E+02  0.51100000000E-03 0.  1.
         22    1    1    0    0    0 -0.22904340204E+02 -0.21061306757E+02 -0.25061740742E+02  0.39953451559E+02  0.00000000000E+00 0. -1.
</event>
<event>
 5    1  0.1681111E-003  0.9118800E+02  0.7818608E-02  0.1130116E+00
         25   -1    0    0    0    0  0.00000000000E+00  0.00000000000E+00  0.99999998245E-14  0.12500000000E+03  0.12500000000E+03 0.  0.
        -11    1    3    3    0    0 -0.40740874266E+02 -0.15388831622E+02 -0.11386219964E+02  0.45014230861E+02  0.51100000000E-03 0. -1.
         23    2    1    0    0    0  0.41108351692E+01 -0.34336978996E+01 -0.29630984103E+02  0.94888798331E+02  0.89984440781E+02 0.  0.
         11    1    3    3    0    0  0.44851709435E+02  0.11955133722E+02 -0.18244764139E+02  0.49874567470E+02  0.51100000000E-03 0.  1.
         22    1    1    0    0    0 -0.41108351692E+01  0.34336978996E+01  0.29630984103E+02  0.30111201669E+02  0.00000000000E+00 0. -1.
</event>
<event>
 5    1  0.1681111E-003  0.9118800E+02  0.7818608E-02  0.1130116E+00
         25   -1    0    0    0    0  0.00000000000E+00  0.00000000000E+00  0.99999998245E-14  0.12500000000E+03  0.12500000000E+03 0.  0.
        -11    1    3    3    0    0  0.15819707692E+02 -0.37704565825E+02 -0.10181922798E+02  0.42137500966E+02  0.51100000000E-03 0. -1.
         23    2    1    0    0    0 -0.12565585244E+02 -0.10557639789E+02  0.25150680130E+02  0.94968110258E+02  0.90094547918E+02 0.  0.
         11    1    3    3    0    0 -0.28385292936E+02  0.27146926036E+02  0.35332602929E+02  0.52830609292E+02  0.51100000000E-03 0.  1.
         22    1    1    0    0    0  0.12565585244E+02  0.10557639789E+02 -0.25150680130E+02  0.30031889742E+02  0.00000000000E+00 0.  1.
</event>
<event>
 5    1  0.1681111E-003  0.9118800E+02  0.7818608E-02  0.1130116E+00
         25   -1    0    0    0    0  0.00000000000E+00  0.00000000000E+00  0.99999998245E-14  0.12500000000E+03  0.12500000000E+03 0.  0.
        -11    1    3    3    0    0  0.27720544336E+01 -0.26823639286E+02  0.24119629490E+02  0.36179392439E+02  0.51100000000E-03 0. -1.
         23    2    1    0    0    0 -0.14120728457E+02  0.25874447019E+02  0.31631029945E+01  0.95353968204E+02  0.90628318152E+02 0.  0.
         11    1    3    3    0    0 -0.16892782891E+02  0.52698086304E+02 -0.20956526495E+02  0.59174575765E+02  0.51100000000E-03 0.  1.
         22    1    1    0    0    0  0.14120728457E+02 -0.25874447019E+02 -0.31631029945E+01  0.29646031796E+02  0.00000000000E+00 0.  1.
</event>
<event>
 5    1  0.1681111E-003  0.9118800E+02  0.7818608E-02  0.1130116E+00
         25   -1    0    0    0    0  0.00000000000E+00  0.00000000000E+00  0.99999998245E-14  0.12500000000E+03  0.12500000000E+03 0.  0.
        -11    1    3    3    0    0 -0.71967723961E+00 -0.41632532966E+02  0.45247178568E+02  0.61490592005E+02  0.51100000000E-03 0.  1.
         23    2    1    0    0    0 -0.25869422734E+01 -0.14826409613E+02  0.27369153653E+02  0.93765639689E+02  0.88410462742E+02 0.  0.
         11    1    3    3    0    0 -0.18672650338E+01  0.26806123353E+02 -0.17878024915E+02  0.32275047684E+02  0.51100000000E-03 0. -1.
         22    1    1    0    0    0  0.25869422734E+01  0.14826409613E+02 -0.27369153653E+02  0.31234360311E+02  0.00000000000E+00 0.  1.
</event>
<event>
 5    1  0.1681111E-003  0.9118800E+02  0.7818608E-02  0.1130116E+00
         25   -1    0    0    0    0  0.00000000000E+00  0.00000000000E+00  0.99999998245E-14  0.12500000000E+03  0.12500000000E+03 0.  0.
        -11    1    3    3    0    0 -0.41475262638E+02 -0.26235547042E+02 -0.96336619614E+01  0.50013086113E+02  0.51100000000E-03 0.  1.
         23    2    1    0    0    0 -0.72353455441E+01 -0.21520839372E+02  0.19387367122E+02  0.95144234119E+02  0.90338577195E+02 0.  0.
         11    1    3    3    0    0  0.34239917094E+02  0.47147076697E+01  0.29021029084E+02  0.45131148006E+02  0.51100000000E-03 0. -1.
         22    1    1    0    0    0  0.72353455441E+01  0.21520839372E+02 -0.19387367122E+02  0.29855765881E+02  0.00000000000E+00 0.  1.
</event>
<event>
 5    1  0.1681111E-003  0.9118800E+02  0.7818608E-02  0.1130116E+00
         25   -1    0    0    0    0  0.00000000000E+00  0.00000000000E+00  0.99999998245E-14  0.12500000000E+03  0.12500000000E+03 0.  0.
        -11    1    3    3    0    0 -0.48782759933E+02  0.20345916777E+02 -0.56280813826E+01  0.53154391131E+02  0.51100000000E-03 0.  1.
         23    2    1    0    0    0 -0.94627317515E+01  0.17069733448E+02 -0.21749745531E+02  0.95777225956E+02  0.91210232370E+02 0.  0.
         11    1    3    3    0    0  0.39320028181E+02 -0.32761833291E+01 -0.16121664148E+02  0.42622834825E+02  0.51100000000E-03 0. -1.
         22    1    1    0    0    0  0.94627317515E+01 -0.17069733448E+02  0.21749745531E+02  0.29222774044E+02  0.00000000000E+00 0.  1.
</event>
<event>
 5    1  0.1681111E-003  0.9118800E+02  0.7818608E-02  0.1130116E+00
         25   -1    0    0    0    0  0.00000000000E+00  0.00000000000E+00  0.99999998245E-14  0.12500000000E+03  0.12500000000E+03 0.  0.
        -11    1    3    3    0    0  0.19180270041E+02 -0.35015179020E+02  0.17282608956E+02  0.43504414641E+02  0.51100000000E-03 0. -1.
         23    2    1    0    0    0  0.14968780739E+02  0.18054756781E+02  0.15723616885E+02  0.96764016448E+02  0.92552709911E+02 0.  0.
         11    1    3    3    0    0 -0.42114893027E+01  0.53069935801E+02 -0.15589920713E+01  0.53259601807E+02  0.51100000000E-03 0.  1.
         22    1    1    0    0    0 -0.14968780739E+02 -0.18054756781E+02 -0.15723616885E+02  0.28235983552E+02  0.00000000000E+00 0.  1.
</event>
<event>
 5    1  0.1681111E-003  0.9118800E+02  0.7818608E-02  0.1130116E+00
         25   -1    0    0    0    0  0.00000000000E+00  0.00000000000E+00  0.99999998245E-14  0.12500000000E+03  0.12500000000E+03 0.  0.
        -11    1    3    3    0    0  0.25288362483E+02  0.10884267744E+02  0.20963217212E+02  0.34603829811E+02  0.51100000000E-03 0.  1.
         23    2    1    0    0    0  0.57933115040E+01 -0.12771779899E+02 -0.28752075988E+02  0.93009959463E+02  0.87335501749E+02 0.  0.
         11    1    3    3    0    0 -0.19495050979E+02 -0.23656047643E+02 -0.49715293200E+02  0.58406129652E+02  0.51100000000E-03 0. -1.
         22    1    1    0    0    0 -0.57933115040E+01  0.12771779899E+02  0.28752075988E+02  0.31990040537E+02  0.00000000000E+00 0. -1.
</event>
<event>
 5    1  0.1681111E-003  0.9118800E+02  0.7818608E-02  0.1130116E+00
         25   -1    0    0    0    0  0.00000000000E+00  0.00000000000E+00  0.99999998245E-14  0.12500000000E+03  0.12500000000E+03 0.  0.
        -11    1    3    3    0    0  0.29672921906E+01 -0.61421970632E+02  0.80978681641E+01  0.62024501355E+02  0.51100000000E-03 0. -1.
         23    2    1    0    0    0  0.62259390217E+01 -0.27272906080E+02  0.59763037716E+01  0.96394232583E+02  0.92051931787E+02 0.  0.
         11    1    3    3    0    0  0.32586468311E+01  0.34149064552E+02 -0.21215643924E+01  0.34369731228E+02  0.51100000000E-03 0.  1.
         22    1    1    0    0    0 -0.62259390217E+01  0.27272906080E+02 -0.59763037716E+01  0.28605767417E+02  0.00000000000E+00 0. -1.
</event>
<event>
 5    1  0.1681111E-003  0.9118800E+02  0.7818608E-02  0.1130116E+00
         25   -1    0    0    0    0  0.00000000000E+00  0.00000000000E+00  0.99999998245E-14  0.12500000000E+03  0.12500000000E+03 0.  0.
        -11    1    3    3    0    0 -0.12236689136E+02 -0.30259780869E+02  0.37643607852E+02  0.49824011396E+02  0.51100000000E-03 0. -1.
         23    2    1    0    0    0  0.89529376787E+00 -0.26817148597E+02 -0.76421276262E+01  0.97100840076E+02  0.93006505251E+02 0.  0.
         11    1    3    3    0    0  0.13131982904E+02  0.34426322716E+01 -0.45285735478E+02  0.47276828680E+02  0.51100000000E-03 0.  1.
         22    1    1    0    0    0 -0.89529376787E+00  0.26817148597E+02  0.76421276262E+01  0.27899159924E+02  0.00000000000E+00 0. -1.
</event>
<event>
 5    1  0.1681111E-003  0.9118800E+02  0.7818608E-02  0.1130116E+00
         25   -1    0    0    0    0  0.00000000000E+00  0.00000000000E+00  0.99999998245E-14  0.12500000000E+03  0.12500000000E+03 0.  0.
        -11    1    3    3    0    0 -0.83012481724E+01  0.42863267529E+02 -0.36827088767E+02  0.57117465733E+02  0.51100000000E-03 0. -1.
         23    2    1    0    0    0 -0.21234484266E+02  0.14107233326E+02 -0.16608904428E+02  0.94573480967E+02  0.89545352988E+02 0.  0.
         11    1    3    3    0    0 -0.12933236094E+02 -0.28756034203E+02  0.20218184338E+02  0.37456015233E+02  0.51100000000E-03 0.  1.
         22    1    1    0    0    0  0.21234484266E+02 -0.14107233326E+02  0.16608904428E+02  0.30426519033E+02  0.00000000000E+00 0. -1.
</event>
<event>
 5    1  0.1681111E-003  0.9118800E+02  0.7818608E-02  0.1130116E+00
         25   -1    0    0    0    0  0.00000000000E+00  0.00000000000E+00  0.99999998245E-14  0.12500000000E+03  0.12500000000E+03 0.  0.
        -11    1    3    3    0    0  0.32818450889E+02  0.94871185496E+01 -0.26832469085E+02  0.43440045288E+02  0.51100000000E-03 0. -1.
         23    2    1    0    0    0  0.17318482250E+02 -0.11050521243E+02  0.19651878777E+02  0.96570434638E+02  0.92290891531E+02 0.  0.
         11    1    3    3    0    0 -0.15499968639E+02 -0.20537639793E+02  0.46484347862E+02  0.53130389350E+02  0.51100000000E-03 0.  1.
         22    1    1    0    0    0 -0.17318482250E+02  0.11050521243E+02 -0.19651878777E+02  0.28429565362E+02  0.00000000000E+00 0.  1.
</event>
<event>
 5    1  0.1681111E-003  0.9118800E+02  0.7818608E-02  0.1130116E+00
         25   -1    0    0    0    0  0.00000000000E+00  0.00000000000E+00  0.99999998245E-14  0.12500000000E+03  0.12500000000E+03 0.  0.
        -11    1    3    3    0    0  0.23825605827E+02 -0.16278369425E+02  0.14764488628E+02  0.32413499177E+02  0.51100000000E-03 0.  1.
         23    2    1    0    0    0 -0.22144863003E+02  0.35807367542E+01 -0.21253662087E+02  0.94097980887E+02  0.88879104529E+02 0.  0.
         11    1    3    3    0    0 -0.45970468830E+02  0.19859106179E+02 -0.36018150716E+02  0.61684481711E+02  0.51100000000E-03 0. -1.
         22    1    1    0    0    0  0.22144863003E+02 -0.35807367542E+01  0.21253662087E+02  0.30902019113E+02  0.00000000000E+00 0. -1.
</event>
<event>
 5    1  0.1681111E-003  0.9118800E+02  0.7818608E-02  0.1130116E+00
         25   -1    0    0    0    0  0.00000000000E+00  0.00000000000E+00  0.99999998245E-14  0.12500000000E+03  0.12500000000E+03 0.  0.
        -11    1    3    3    0    0 -0.10346491480E+02  0.34383473844E+01 -0.32248810514E+02  0.34042001975E+02  0.51100000000E-03 0. -1.
         23    2    1    0    0    0 -0.12856851168E+01 -0.95564974218E+01  0.27501648566E+02  0.95856899564E+02  0.91319356606E+02 0.  0.
         11    1    3    3    0    0  0.90608063628E+01 -0.12994844806E+02  0.59750459079E+02  0.61814897589E+02  0.51100000000E-03 0.  1.
         22    1    1    0    0    0  0.12856851168E+01  0.95564974218E+01 -0.27501648566E+02  0.29143100436E+02  0.00000000000E+00 0.  1.
</event>
<event>
 5    1  0.1681111E-003  0.9118800E+02  0.7818608E-02  0.1130116E+00
         25   -1    0    0    0    0  0.00000000000E+00  0.00000000000E+00  0.99999998245E-14  0.12500000000E+03  0.12500000000E+03 0.  0.
        -11    1    3    3    0    0  0.14165086201E+02  0.37046002515E+02  0.19917715174E+02  0.44382106163E+02  0.51100000000E-03 0. -1.
         23    2    1    0    0    0 -0.15023765236E+02 -0.37552959440E+01  0.25816782317E+02  0.94894817411E+02  0.89992801672E+02 0.  0.
         11    1    3    3    0    0 -0.29188851437E+02 -0.40801298459E+02  0.58990671428E+01  0.50512711248E+02  0.51100000000E-03 0.  1.
         22    1    1    0    0    0  0.15023765236E+02  0.37552959440E+01 -0.25816782317E+02  0.30105182589E+02  0.00000000000E+00 0. -1.
</event>
<event>
 5    1  0.1681111E-003  0.9118800E+02  0.7818608E-02  0.1130116E+00
         25   -1    0    0    0    0  0.00000000000E+00  0.00000000000E+00  0.99999998245E-14  0.12500000000E+03  0.12500000000E+03 0.  0.
        -11    1    3    3    0    0 -0.11401125811E+02  0.23852570866E+02 -0.25588899539E+02  0.36792969255E+02  0.51100000000E-03 0. -1.
         23    2    1    0    0    0 -0.92993694067E+01  0.28087071538E+02  0.24182284047E+02  0.86788159941E+02  0.77923295524E+02 0.  0.
         11    1    3    3    0    0  0.21017564046E+01  0.42345006719E+01  0.49771183587E+02  0.49995190687E+02  0.51100000000E-03 0.  1.
         22    1    1    0    0    0  0.92993694067E+01 -0.28087071538E+02 -0.24182284047E+02  0.38211840059E+02  0.00000000000E+00 0.  1.
</event>
<event>
 5    1  0.1681111E-003  0.9118800E+02  0.7818608E-02  0.1130116E+00
         25   -1    0    0    0    0  0.00000000000E+00  0.00000000000E+00  0.99999998245E-14  0.12500000000E+03  0.12500000000E+03 0.  0.
        -11    1    3    3    0    0  0.12003555714E+02 -0.14355122569E+02 -0.34233499233E+02  0.39013938070E+02  0.51100000000E-03 0. -1.
         23    2    1    0    0    0  0.21627742309E+02  0.60705340573E+01  0.18191223823E+02  0.96094442657E+02  0.91643934138E+02 0.  0.
         11    1    3    3    0    0  0.96241865943E+01  0.20425656626E+02  0.52424723056E+02  0.57080504587E+02  0.51100000000E-03 0.  1.
         22    1    1    0    0    0 -0.21627742309E+02 -0.60705340573E+01 -0.18191223823E+02  0.28905557343E+02  0.00000000000E+00 0.  1.
</event>
<event>
 5    1  0.1681111E-003  0.9118800E+02  0.7818608E-02  0.1130116E+00
         25   -1    0    0    0    0  0.00000000000E+00  0.00000000000E+00  0.99999998245E-14  0.12500000000E+03  0.12500000000E+03 0.  0.
        -11    1    3    3    0    0 -0.29646411804E+02  0.37869436757E+02  0.22678254862E+02  0.53172429105E+02  0.51100000000E-03 0.  1.
         23    2    1    0    0    0  0.66026687536E+01  0.22073344709E+02 -0.49817331471E+01  0.10142786716E+03  0.98650731324E+02 0.  0.
         11    1    3    3    0    0  0.36249080557E+02 -0.15796092048E+02 -0.27659988009E+02  0.48255438058E+02  0.51100000000E-03 0. -1.
         22    1    1    0    0    0 -0.66026687536E+01 -0.22073344709E+02  0.49817331471E+01  0.23572132837E+02  0.00000000000E+00 0. -1.
</event>
<event>
 5    1  0.1681111E-003  0.9118800E+02  0.7818608E-02  0.1130116E+00
         25   -1    0    0    0    0  0.00000000000E+00  0.00000000000E+00  0.99999998245E-14  0.12500000000E+03  0.12500000000E+03 0.  0.
        -11    1    3    3    0    0  0.49198696028E+02  0.91437983332E+01 -0.18116913131E+02  0.53219764002E+02  0.51100000000E-03 0. -1.
         23    2    1    0    0    0  0.19369617045E+02  0.19697114587E+02  0.10071673038E+02  0.95595969913E+02  0.90961488985E+02 0.  0.
         11    1    3    3    0    0 -0.29829078983E+02  0.10553316254E+02  0.28188586169E+02  0.42376205911E+02  0.51100000000E-03 0.  1.
         22    1    1    0    0    0 -0.19369617045E+02 -0.19697114587E+02 -0.10071673038E+02  0.29404030087E+02  0.00000000000E+00 0. -1.
</event>
<event>
 5    1  0.1681111E-003  0.9118800E+02  0.7818608E-02  0.1130116E+00
         25   -1    0    0    0    0  0.00000000000E+00  0.00000000000E+00  0.99999998245E-14  0.12500000000E+03  0.12500000000E+03 0.  0.
        -11    1    3    3    0    0  0.22568062219E+02 -0.43763606880E+02  0.18836098474E+01  0.49275944494E+02  0.51100000000E-03 0.  1.
         23    2    1    0    0    0  0.17013646356E+02 -0.58432403590E+01  0.25126141470E+02  0.94098048518E+02  0.88879199645E+02 0.  0.
         11    1    3    3    0    0 -0.55544158629E+01  0.37920366521E+02  0.23242531623E+02  0.44822104024E+02  0.51100000000E-03 0. -1.
         22    1    1    0    0    0 -0.17013646356E+02  0.58432403590E+01 -0.25126141470E+02  0.30901951482E+02  0.00000000000E+00 0.  1.
</event>
<event>
 5    1  0.1681111E-003  0.9118800E+02  0.7818608E-02  0.1130116E+00
         25   -1    0    0    0    0  0.00000000000E+00  0.00000000000E+00  0.99999998245E-14  0.12500000000E+03  0.12500000000E+03 0.  0.
        -11    1    3    3    0    0 -0.46286007595E+02 -0.11885319814E+02  0.10006425156E+02  0.48824009163E+02  0.51100000000E-03 0.  1.
         23    2    1    0    0    0  0.89603669597E-01 -0.18595221453E+02  0.20995248491E+02  0.96953774784E+02  0.92808640201E+02 0.  0.
         11    1    3    3    0    0  0.46375611264E+02 -0.67099016384E+01  0.10988823335E+02  0.48129765620E+02  0.51100000000E-03 0. -1.
         22    1    1    0    0    0 -0.89603669597E-01  0.18595221453E+02 -0.20995248491E+02  0.28046225216E+02  0.00000000000E+00 0. -1.
</event>
<event>
 5    1  0.1681111E-003  0.9118800E+02  0.7818608E-02  0.1130116E+00
         25   -1    0    0    0    0  0.00000000000E+00  0.00000000000E+00  0.99999998245E-14  0.12500000000E+03  0.12500000000E+03 0.  0.
        -11    1    3    3    0    0 -0.14207137758E+02  0.28326929371E+02 -0.92622458348E+01  0.33015858144E+02  0.51100000000E-03 0. -1.
         23    2    1    0    0    0  0.20233470926E+02 -0.21394877596E+02  0.49290029304E+01  0.95143188333E+02  0.90337130147E+02 0.  0.
         11    1    3    3    0    0  0.34440608684E+02 -0.49721806967E+02  0.14191248765E+02  0.62127330188E+02  0.51100000000E-03 0.  1.
         22    1    1    0    0    0 -0.20233470926E+02  0.21394877596E+02 -0.49290029304E+01  0.29856811667E+02  0.00000000000E+00 0.  1.
</event>
<event>
 5    1  0.1681111E-003  0.9118800E+02  0.7818608E-02  0.1130116E+00
         25   -1    0    0    0    0  0.00000000000E+00  0.00000000000E+00  0.99999998245E-14  0.12500000000E+03  0.12500000000E+03 0.  0.
        -11    1    3    3    0    0 -0.41124883840E+01  0.57469583778E+02 -0.11300696130E+02  0.58714319834E+02  0.51100000000E-03 0.  1.
         23    2    1    0    0    0  0.12727247642E+01  0.19679384189E+02 -0.18955875765E+02  0.97646330842E+02  0.93736773523E+02 0.  0.
         11    1    3    3    0    0  0.53852131481E+01 -0.37790199589E+02 -0.76551796348E+01  0.38932011008E+02  0.51100000000E-03 0. -1.
         22    1    1    0    0    0 -0.12727247642E+01 -0.19679384189E+02  0.18955875765E+02  0.27353669158E+02  0.00000000000E+00 0.  1.
</event>
<event>
 5    1  0.1681111E-003  0.9118800E+02  0.7818608E-02  0.1130116E+00
         25   -1    0    0    0    0  0.00000000000E+00  0.00000000000E+00  0.99999998245E-14  0.12500000000E+03  0.12500000000E+03 0.  0.
        -11    1    3    3    0    0 -0.10080603524E+02  0.11195026756E+02 -0.32601201018E+02  0.35913583774E+02  0.51100000000E-03 0. -1.
         23    2    1    0    0    0 -0.13147063534E+01 -0.28404898688E+02  0.10116634570E+02  0.94818664421E+02  0.89886962933E+02 0.  0.
         11    1    3    3    0    0  0.87658971705E+01 -0.39599925444E+02  0.42717835588E+02  0.58905080647E+02  0.51100000000E-03 0.  1.
         22    1    1    0    0    0  0.13147063534E+01  0.28404898688E+02 -0.10116634570E+02  0.30181335579E+02  0.00000000000E+00 0.  1.
</event>
<event>
 5    1  0.1681111E-003  0.9118800E+02  0.7818608E-02  0.1130116E+00
         25   -1    0    0    0    0  0.00000000000E+00  0.00000000000E+00  0.99999998245E-14  0.12500000000E+03  0.12500000000E+03 0.  0.
        -11    1    3    3    0    0  0.29053375321E+01  0.90168161482E+01  0.57731388160E+02  0.58503479715E+02  0.51100000000E-03 0. -1.
         23    2    1    0    0    0 -0.53013075967E+01  0.17807970425E+02  0.22004325811E+02  0.96200381473E+02  0.91788318256E+02 0.  0.
         11    1    3    3    0    0 -0.82066451288E+01  0.87911542764E+01 -0.35727062349E+02  0.37696901758E+02  0.51100000000E-03 0.  1.
         22    1    1    0    0    0  0.53013075967E+01 -0.17807970425E+02 -0.22004325811E+02  0.28799618527E+02  0.00000000000E+00 0.  1.
</event>
<event>
 5    1  0.1681111E-003  0.9118800E+02  0.7818608E-02  0.1130116E+00
         25   -1    0    0    0    0  0.00000000000E+00  0.00000000000E+00  0.99999998245E-14  0.12500000000E+03  0.12500000000E+03 0.  0.
        -11    1    3    3    0    0  0.12206174597E+02  0.45432810462E+02 -0.12690416484E+02  0.48725533713E+02  0.51100000000E-03 0.  1.
         23    2    1    0    0    0  0.12960616456E+02  0.27160224174E+02  0.21851023530E+02  0.87809643919E+02  0.79545024859E+02 0.  0.
         11    1    3    3    0    0  0.75444185810E+00 -0.18272586288E+02  0.34541440013E+02  0.39084110207E+02  0.51100000000E-03 0. -1.
         22    1    1    0    0    0 -0.12960616456E+02 -0.27160224174E+02 -0.21851023530E+02  0.37190356081E+02  0.00000000000E+00 0.  1.
</event>
<event>
 5    1  0.1681111E-003  0.9118800E+02  0.7818608E-02  0.1130116E+00
         25   -1    0    0    0    0  0.00000000000E+00  0.00000000000E+00  0.99999998245E-14  0.12500000000E+03  0.12500000000E+03 0.  0.
        -11    1    3    3    0    0 -0.11249404662E+02 -0.22999188715E+02 -0.50078182268E+02  0.56243542975E+02  0.51100000000E-03 0.  1.
         23    2    1    0    0    0 -0.56050614444E+01  0.90912395108E+01 -0.26399997648E+02  0.96521460265E+02  0.92224536140E+02 0.  0.
         11    1    3    3    0    0  0.56443432181E+01  0.32090428226E+02  0.23678184620E+02  0.40277917290E+02  0.51100000000E-03 0. -1.
         22    1    1    0    0    0  0.56050614444E+01 -0.90912395108E+01  0.26399997648E+02  0.28478539735E+02  0.00000000000E+00 0.  1.
</event>
<event>
 5    1  0.1681111E-003  0.9118800E+02  0.7818608E-02  0.1130116E+00
         25   -1    0    0    0    0  0.00000000000E+00  0.00000000000E+00  0.99999998245E-14  0.12500000000E+03  0.12500000000E+03 0.  0.
        -11    1    3    3    0    0  0.16719135974E+02 -0.35190321350E+02  0.89500887364E+01  0.39974896036E+02  0.51100000000E-03 0. -1.
         23    2    1    0    0    0 -0.15200031498E+02  0.11925630439E+02  0.19156402695E+02  0.97792843164E+02  0.93931947659E+02 0.  0.
         11    1    3    3    0    0 -0.31919167472E+02  0.47115951789E+02  0.10206313958E+02  0.57817947127E+02  0.51100000000E-03 0.  1.
         22    1    1    0    0    0  0.15200031498E+02 -0.11925630439E+02 -0.19156402695E+02  0.27207156836E+02  0.00000000000E+00 0.  1.
</event>
<event>
 5    1  0.1681111E-003  0.9118800E+02  0.7818608E-02  0.1130116E+00
         25   -1    0    0    0    0  0.00000000000E+00  0.00000000000E+00  0.99999998245E-14  0.12500000000E+03  0.12500000000E+03 0.  0.
        -11    1    3    3    0    0 -0.73856954437E+01 -0.39629190331E+02 -0.29675606757E+02  0.50056596569E+02  0.51100000000E-03 0.  1.
         23    2    1    0    0    0 -0.27409597550E+02 -0.40917418050E+01 -0.85217145067E+01  0.96006069481E+02  0.91523315992E+02 0.  0.
         11    1    3    3    0    0 -0.20023902106E+02  0.35537448526E+02  0.21153892250E+02  0.45949472911E+02  0.51100000000E-03 0. -1.
         22    1    1    0    0    0  0.27409597550E+02  0.40917418050E+01  0.85217145067E+01  0.28993930519E+02  0.00000000000E+00 0. -1.
</event>
<event>
 5    1  0.1681111E-003  0.9118800E+02  0.7818608E-02  0.1130116E+00
         25   -1    0    0    0    0  0.00000000000E+00  0.00000000000E+00  0.99999998245E-14  0.12500000000E+03  0.12500000000E+03 0.  0.
        -11    1    3    3    0    0 -0.45253154585E+02  0.10586607851E+02 -0.27459000221E+02  0.53980746189E+02  0.51100000000E-03 0.  1.
         23    2    1    0    0    0 -0.77303695553E+01  0.45661701394E+01 -0.31544745756E+02  0.92202446615E+02  0.86171988801E+02 0.  0.
         11    1    3    3    0    0  0.37522785030E+02 -0.60204377118E+01 -0.40857455345E+01  0.38221700426E+02  0.51100000000E-03 0. -1.
         22    1    1    0    0    0  0.77303695553E+01 -0.45661701394E+01  0.31544745756E+02  0.32797553385E+02  0.00000000000E+00 0.  1.
</event>
<event>
 5    1  0.1681111E-003  0.9118800E+02  0.7818608E-02  0.1130116E+00
         25   -1    0    0    0    0  0.00000000000E+00  0.00000000000E+00  0.99999998245E-14  0.12500000000E+03  0.12500000000E+03 0.  0.
        -11    1    3    3    0    0 -0.46715977553E+02 -0.16929089094E+02  0.17595583220E+01  0.49719942297E+02  0.51100000000E-03 0. -1.
         23    2    1    0    0    0 -0.21617600261E+02  0.20107541357E+02  0.66826504227E+01  0.94729689841E+02  0.89763146448E+02 0.  0.
         11    1    3    3    0    0  0.25098377292E+02  0.37036630451E+02  0.49230921007E+01  0.45009747544E+02  0.51100000000E-03 0.  1.
         22    1    1    0    0    0  0.21617600261E+02 -0.20107541357E+02 -0.66826504227E+01  0.30270310159E+02  0.00000000000E+00 0.  1.
</event>
<event>
 5    1  0.1681111E-003  0.9118800E+02  0.7818608E-02  0.1130116E+00
         25   -1    0    0    0    0  0.00000000000E+00  0.00000000000E+00  0.99999998245E-14  0.12500000000E+03  0.12500000000E+03 0.  0.
        -11    1    3    3    0    0  0.33639926825E+01 -0.13285706678E+02 -0.49597141549E+02  0.51455834448E+02  0.51100000000E-03 0.  1.
         23    2    1    0    0    0  0.83849095259E+01  0.11361297085E+02 -0.46020349402E+02  0.76862090425E+02  0.59920969670E+02 0.  0.
         11    1    3    3    0    0  0.50209168434E+01  0.24647003763E+02  0.35767921473E+01  0.25406255977E+02  0.51100000000E-03 0. -1.
         22    1    1    0    0    0 -0.83849095259E+01 -0.11361297085E+02  0.46020349402E+02  0.48137909575E+02  0.00000000000E+00 0.  1.
</event>
<event>
 5    1  0.1681111E-003  0.9118800E+02  0.7818608E-02  0.1130116E+00
         25   -1    0    0    0    0  0.00000000000E+00  0.00000000000E+00  0.99999998245E-14  0.12500000000E+03  0.12500000000E+03 0.  0.
        -11    1    3    3    0    0 -0.14115173794E+02  0.30021574759E+02 -0.13713696799E+02  0.35897055066E+02  0.51100000000E-03 0. -1.
         23    2    1    0    0    0 -0.16439349550E+02 -0.25096051352E+02  0.58576257942E+01  0.94432438975E+02  0.89348249808E+02 0.  0.
         11    1    3    3    0    0 -0.23241757558E+01 -0.55117626111E+02  0.19571322593E+02  0.58535383909E+02  0.51100000000E-03 0.  1.
         22    1    1    0    0    0  0.16439349550E+02  0.25096051352E+02 -0.58576257942E+01  0.30567561025E+02  0.00000000000E+00 0.  1.
</event>
<event>
 5    1  0.1681111E-003  0.9118800E+02  0.7818608E-02  0.1130116E+00
         25   -1    0    0    0    0  0.00000000000E+00  0.00000000000E+00  0.99999998245E-14  0.12500000000E+03  0.12500000000E+03 0.  0.
        -11    1    3    3    0    0 -0.21271538817E+02  0.32036094218E+02 -0.11494466195E+02  0.40136173830E+02  0.51100000000E-03 0.  1.
         23    2    1    0    0    0  0.20910277574E+02 -0.26996713942E+00 -0.22378624794E+02  0.94371329801E+02  0.89262715902E+02 0.  0.
         11    1    3    3    0    0  0.42181816391E+02 -0.32306061357E+02 -0.10884158599E+02  0.54235155971E+02  0.51100000000E-03 0. -1.
         22    1    1    0    0    0 -0.20910277574E+02  0.26996713942E+00  0.22378624794E+02  0.30628670199E+02  0.00000000000E+00 0.  1.
</event>
<event>
 5    1  0.1681111E-003  0.9118800E+02  0.7818608E-02  0.1130116E+00
         25   -1    0    0    0    0  0.00000000000E+00  0.00000000000E+00  0.99999998245E-14  0.12500000000E+03  0.12500000000E+03 0.  0.
        -11    1    3    3    0    0 -0.15058301162E+02 -0.18826291428E+02  0.26724178826E+02  0.35991157484E+02  0.51100000000E-03 0. -1.
         23    2    1    0    0    0  0.31430819259E+02 -0.40831710116E+01 -0.30928108493E+01  0.93154526793E+02  0.87542170971E+02 0.  0.
         11    1    3    3    0    0  0.46489120421E+02  0.14743120417E+02 -0.29816989676E+02  0.57163369309E+02  0.51100000000E-03 0.  1.
         22    1    1    0    0    0 -0.31430819259E+02  0.40831710116E+01  0.30928108493E+01  0.31845473207E+02  0.00000000000E+00 0.  1.
</event>
<event>
 5    1  0.1681111E-003  0.9118800E+02  0.7818608E-02  0.1130116E+00
         25   -1    0    0    0    0  0.00000000000E+00  0.00000000000E+00  0.99999998245E-14  0.12500000000E+03  0.12500000000E+03 0.  0.
        -11    1    3    3    0    0 -0.46800089605E+02 -0.36722637606E+02 -0.18295157812E+02  0.62237555378E+02  0.51100000000E-03 0. -1.
         23    2    1    0    0    0 -0.24575685853E+02 -0.15230367936E+02 -0.11449454499E+02  0.93903079720E+02  0.88604570593E+02 0.  0.
         11    1    3    3    0    0  0.22224403752E+02  0.21492269670E+02  0.68457033135E+01  0.31665524342E+02  0.51100000000E-03 0.  1.
         22    1    1    0    0    0  0.24575685853E+02  0.15230367936E+02  0.11449454499E+02  0.31096920280E+02  0.00000000000E+00 0. -1.
</event>
<event>
 5    1  0.1681111E-003  0.9118800E+02  0.7818608E-02  0.1130116E+00
         25   -1    0    0    0    0  0.00000000000E+00  0.00000000000E+00  0.99999998245E-14  0.12500000000E+03  0.12500000000E+03 0.  0.
        -11    1    3    3    0    0 -0.42372698470E+02 -0.15259934643E+02 -0.16735418209E+02  0.48045659574E+02  0.51100000000E-03 0.  1.
         23    2    1    0    0    0 -0.21441561363E+02  0.17954294189E+02  0.97269285167E+01  0.95390704637E+02  0.90678973083E+02 0.  0.
         11    1    3    3    0    0  0.20931137108E+02  0.33214228833E+02  0.26462346726E+02  0.47345045064E+02  0.51100000000E-03 0. -1.
         22    1    1    0    0    0  0.21441561363E+02 -0.17954294189E+02 -0.97269285167E+01  0.29609295363E+02  0.00000000000E+00 0. -1.
</event>
<event>
 5    1  0.1681111E-003  0.9118800E+02  0.7818608E-02  0.1130116E+00
         25   -1    0    0    0    0  0.00000000000E+00  0.00000000000E+00  0.99999998245E-14  0.12500000000E+03  0.12500000000E+03 0.  0.
        -11    1    3    3    0    0 -0.33957300643E+02 -0.18247186187E+02 -0.28142293917E+02  0.47728888295E+02  0.51100000000E-03 0. -1.
         23    2    1    0    0    0  0.88885512811E+01  0.54183873923E+01 -0.26304511667E+02  0.96710556742E+02  0.92480480024E+02 0.  0.
         11    1    3    3    0    0  0.42845851924E+02  0.23665573579E+02  0.18377822500E+01  0.48981668447E+02  0.51100000000E-03 0.  1.
         22    1    1    0    0    0 -0.88885512811E+01 -0.54183873923E+01  0.26304511667E+02  0.28289443258E+02  0.00000000000E+00 0.  1.
</event>
<event>
 5    1  0.1681111E-003  0.9118800E+02  0.7818608E-02  0.1130116E+00
         25   -1    0    0    0    0  0.00000000000E+00  0.00000000000E+00  0.99999998245E-14  0.12500000000E+03  0.12500000000E+03 0.  0.
        -11    1    3    3    0    0  0.29306353299E+02  0.10247954436E+02 -0.37987398781E+02  0.49060425805E+02  0.51100000000E-03 0.  1.
         23    2    1    0    0    0 -0.34170857216E+01 -0.19139151680E+02 -0.21453710690E+02  0.96047533710E+02  0.91579929174E+02 0.  0.
         11    1    3    3    0    0 -0.32723439020E+02 -0.29387106116E+02  0.16533688090E+02  0.46987107905E+02  0.51100000000E-03 0. -1.
         22    1    1    0    0    0  0.34170857216E+01  0.19139151680E+02  0.21453710690E+02  0.28952466290E+02  0.00000000000E+00 0. -1.
</event>
<event>
 5    1  0.1681111E-003  0.9118800E+02  0.7818608E-02  0.1130116E+00
         25   -1    0    0    0    0  0.00000000000E+00  0.00000000000E+00  0.99999998245E-14  0.12500000000E+03  0.12500000000E+03 0.  0.
        -11    1    3    3    0    0  0.12946607476E+02 -0.47984013694E+02 -0.31689974207E+02  0.58943487179E+02  0.51100000000E-03 0.  1.
         23    2    1    0    0    0 -0.69418609507E+01 -0.30983662937E+02 -0.16109437875E+02  0.89395354361E+02  0.81999015789E+02 0.  0.
         11    1    3    3    0    0 -0.19888468426E+02  0.17000350757E+02  0.15580536333E+02  0.30451867182E+02  0.51100000000E-03 0. -1.
         22    1    1    0    0    0  0.69418609507E+01  0.30983662937E+02  0.16109437875E+02  0.35604645639E+02  0.00000000000E+00 0.  1.
</event>
<event>
 5    1  0.1681111E-003  0.9118800E+02  0.7818608E-02  0.1130116E+00
         25   -1    0    0    0    0  0.00000000000E+00  0.00000000000E+00  0.99999998245E-14  0.12500000000E+03  0.12500000000E+03 0.  0.
        -11    1    3    3    0    0  0.62951773314E+01  0.33204430043E+02 -0.16926855179E+02  0.37797908125E+02  0.51100000000E-03 0. -1.
         23    2    1    0    0    0  0.88389882289E+01 -0.46386312846E+01  0.27224187956E+02  0.96003430841E+02  0.91519712141E+02 0.  0.
         11    1    3    3    0    0  0.25438108975E+01 -0.37843061327E+02  0.44151043135E+02  0.58205522716E+02  0.51100000000E-03 0.  1.
         22    1    1    0    0    0 -0.88389882289E+01  0.46386312846E+01 -0.27224187956E+02  0.28996569159E+02  0.00000000000E+00 0.  1.
</event>
<event>
 5    1  0.1681111E-003  0.9118800E+02  0.7818608E-02  0.1130116E+00
         25   -1    0    0    0    0  0.00000000000E+00  0.00000000000E+00  0.99999998245E-14  0.12500000000E+03  0.12500000000E+03 0.  0.
        -11    1    3    3    0    0 -0.34218103131E+02 -0.10784803815E+01  0.73824711471E+01  0.35022029957E+02  0.51100000000E-03 0. -1.
         23    2    1    0    0    0  0.16325236896E+02  0.64231158852E+01 -0.24213791047E+02  0.95098872023E+02  0.90275788592E+02 0.  0.
         11    1    3    3    0    0  0.50543340028E+02  0.75015962667E+01 -0.31596262194E+02  0.60076842066E+02  0.51100000000E-03 0.  1.
         22    1    1    0    0    0 -0.16325236896E+02 -0.64231158852E+01  0.24213791047E+02  0.29901127977E+02  0.00000000000E+00 0.  1.
</event>
<event>
 5    1  0.1681111E-003  0.9118800E+02  0.7818608E-02  0.1130116E+00
         25   -1    0    0    0    0  0.00000000000E+00  0.00000000000E+00  0.99999998245E-14  0.12500000000E+03  0.12500000000E+03 0.  0.
        -11    1    3    3    0    0  0.50251722062E+02  0.19406120992E+02  0.10671964535E+02  0.54915607340E+02  0.51100000000E-03 0.  1.
         23    2    1    0    0    0  0.14024954552E+02  0.12561512321E+02 -0.15896244189E+02  0.10035894642E+03  0.97286877872E+02 0.  0.
         11    1    3    3    0    0 -0.36226767510E+02 -0.68446086706E+01 -0.26568208724E+02  0.45443339085E+02  0.51100000000E-03 0. -1.
         22    1    1    0    0    0 -0.14024954552E+02 -0.12561512321E+02  0.15896244189E+02  0.24641053576E+02  0.00000000000E+00 0.  1.
</event>
<event>
 5    1  0.1681111E-003  0.9118800E+02  0.7818608E-02  0.1130116E+00
         25   -1    0    0    0    0  0.00000000000E+00  0.00000000000E+00  0.99999998245E-14  0.12500000000E+03  0.12500000000E+03 0.  0.
        -11    1    3    3    0    0  0.42503764891E+02  0.30677799879E+02  0.91096318380E+01  0.53204161753E+02  0.51100000000E-03 0.  1.
         23    2    1    0    0    0  0.20526674139E+02 -0.36927938025E+01  0.20700273168E+02  0.95614929190E+02  0.90987539243E+02 0.  0.
         11    1    3    3    0    0 -0.21977090752E+02 -0.34370593681E+02  0.11590641330E+02  0.42410767438E+02  0.51100000000E-03 0. -1.
         22    1    1    0    0    0 -0.20526674139E+02  0.36927938025E+01 -0.20700273168E+02  0.29385070810E+02  0.00000000000E+00 0.  1.
</event>
<event>
 5    1  0.1681111E-003  0.9118800E+02  0.7818608E-02  0.1130116E+00
         25   -1    0    0    0    0  0.00000000000E+00  0.00000000000E+00  0.99999998245E-14  0.12500000000E+03  0.12500000000E+03 0.  0.
        -11    1    3    3    0    0 -0.24767273503E+02  0.43410900421E+02 -0.16425977870E+02  0.52609284935E+02  0.51100000000E-03 0.  1.
         23    2    1    0    0    0 -0.20775019114E+02  0.20054457696E+01 -0.22111750307E+02  0.94593541252E+02  0.89573351579E+02 0.  0.
         11    1    3    3    0    0  0.39922543893E+01 -0.41405454651E+02 -0.56857724370E+01  0.41984256317E+02  0.51100000000E-03 0. -1.
         22    1    1    0    0    0  0.20775019114E+02 -0.20054457696E+01  0.22111750307E+02  0.30406458748E+02  0.00000000000E+00 0.  1.
</event>
<event>
 5    1  0.1681111E-003  0.9118800E+02  0.7818608E-02  0.1130116E+00
         25   -1    0    0    0    0  0.00000000000E+00  0.00000000000E+00  0.99999998245E-14  0.12500000000E+03  0.12500000000E+03 0.  0.
        -11    1    3    3    0    0  0.35102390730E+02 -0.41019417673E+02  0.35172880604E+01  0.54103066241E+02  0.51100000000E-03 0.  1.
         23    2    1    0    0    0  0.13942166742E+02 -0.17608114275E+02 -0.21144234655E+02  0.94153470845E+02  0.88957111639E+02 0.  0.
         11    1    3    3    0    0 -0.21160223988E+02  0.23411303398E+02 -0.24661522715E+02  0.40050404603E+02  0.51100000000E-03 0. -1.
         22    1    1    0    0    0 -0.13942166742E+02  0.17608114275E+02  0.21144234655E+02  0.30846529155E+02  0.00000000000E+00 0.  1.
</event>
<event>
 5    1  0.1681111E-003  0.9118800E+02  0.7818608E-02  0.1130116E+00
         25   -1    0    0    0    0  0.00000000000E+00  0.00000000000E+00  0.99999998245E-14  0.12500000000E+03  0.12500000000E+03 0.  0.
        -11    1    3    3    0    0 -0.57340425802E+01 -0.70406996755E+01  0.32246467644E+02  0.33500527937E+02  0.51100000000E-03 0. -1.
         23    2    1    0    0    0 -0.38054464317E+01  0.26067619543E+02 -0.17561189882E+02  0.93339336690E+02  0.87805661392E+02 0.  0.
         11    1    3    3    0    0  0.19285961485E+01  0.33108319218E+02 -0.49807657526E+02  0.59838808754E+02  0.51100000000E-03 0.  1.
         22    1    1    0    0    0  0.38054464317E+01 -0.26067619543E+02  0.17561189882E+02  0.31660663310E+02  0.00000000000E+00 0.  1.
</event>
<event>
 5    1  0.1681111E-003  0.9118800E+02  0.7818608E-02  0.1130116E+00
         25   -1    0    0    0    0  0.00000000000E+00  0.00000000000E+00  0.99999998245E-14  0.12500000000E+03  0.12500000000E+03 0.  0.
        -11    1    3    3    0    0 -0.23494113007E+02 -0.10357972365E+02 -0.21097132979E+02  0.33231761279E+02  0.51100000000E-03 0. -1.
         23    2    1    0    0    0  0.19498460019E+02  0.17686244158E+02  0.13776533639E+02  0.95288284219E+02  0.90537677542E+02 0.  0.
         11    1    3    3    0    0  0.42992573026E+02  0.28044216523E+02  0.34873666618E+02  0.62056522940E+02  0.51100000000E-03 0.  1.
         22    1    1    0    0    0 -0.19498460019E+02 -0.17686244158E+02 -0.13776533639E+02  0.29711715781E+02  0.00000000000E+00 0.  1.
</event>
<event>
 5    1  0.1681111E-003  0.9118800E+02  0.7818608E-02  0.1130116E+00
         25   -1    0    0    0    0  0.00000000000E+00  0.00000000000E+00  0.99999998245E-14  0.12500000000E+03  0.12500000000E+03 0.  0.
        -11    1    3    3    0    0 -0.24196209602E+02  0.64739205106E+01  0.32371494376E+02  0.40930207113E+02  0.51100000000E-03 0.  1.
         23    2    1    0    0    0  0.22804478205E+02 -0.13453477852E+02  0.12627011455E+02  0.95666031451E+02  0.91057717206E+02 0.  0.
         11    1    3    3    0    0  0.47000687808E+02 -0.19927398363E+02 -0.19744482921E+02  0.54735824338E+02  0.51100000000E-03 0. -1.
         22    1    1    0    0    0 -0.22804478205E+02  0.13453477852E+02 -0.12627011455E+02  0.29333968549E+02  0.00000000000E+00 0. -1.
</event>
<event>
 5    1  0.1681111E-003  0.9118800E+02  0.7818608E-02  0.1130116E+00
         25   -1    0    0    0    0  0.00000000000E+00  0.00000000000E+00  0.99999998245E-14  0.12500000000E+03  0.12500000000E+03 0.  0.
        -11    1    3    3    0    0  0.10233328223E+02  0.67586548298E+01  0.34435812247E+02  0.36554419528E+02  0.51100000000E-03 0.  1.
         23    2    1    0    0    0 -0.25433061812E+02 -0.83946032549E+01 -0.10802091374E+02  0.96121025382E+02  0.91680185131E+02 0.  0.
         11    1    3    3    0    0 -0.35666390035E+02 -0.15153258085E+02 -0.45237903621E+02  0.59566605854E+02  0.51100000000E-03 0. -1.
         22    1    1    0    0    0  0.25433061812E+02  0.83946032549E+01  0.10802091374E+02  0.28878974618E+02  0.00000000000E+00 0. -1.
</event>
<event>
 5    1  0.1681111E-003  0.9118800E+02  0.7818608E-02  0.1130116E+00
         25   -1    0    0    0    0  0.00000000000E+00  0.00000000000E+00  0.99999998245E-14  0.12500000000E+03  0.12500000000E+03 0.  0.
        -11    1    3    3    0    0  0.39806782350E+02 -0.67146947610E+01 -0.12366810751E+02  0.42220907797E+02  0.51100000000E-03 0. -1.
         23    2    1    0    0    0 -0.63596472172E+01  0.20940557234E+02 -0.18444834374E+02  0.96378959399E+02  0.92031189549E+02 0.  0.
         11    1    3    3    0    0 -0.46166429567E+02  0.27655251995E+02 -0.60780236231E+01  0.54158051602E+02  0.51100000000E-03 0.  1.
         22    1    1    0    0    0  0.63596472172E+01 -0.20940557234E+02  0.18444834374E+02  0.28621040601E+02  0.00000000000E+00 0.  1.
</event>
<event>
 5    1  0.1681111E-003  0.9118800E+02  0.7818608E-02  0.1130116E+00
         25   -1    0    0    0    0  0.00000000000E+00  0.00000000000E+00  0.99999998245E-14  0.12500000000E+03  0.12500000000E+03 0.  0.
        -11    1    3    3    0    0 -0.25899920070E+02 -0.23787081805E+02  0.44521872790E+02  0.56734718448E+02  0.51100000000E-03 0. -1.
         23    2    1    0    0    0 -0.68585234971E+01 -0.26275452708E+02  0.10338485732E+02  0.95942762575E+02  0.91436812301E+02 0.  0.
         11    1    3    3    0    0  0.19041396573E+02 -0.24883709030E+01 -0.34183387058E+02  0.39208044126E+02  0.51100000000E-03 0.  1.
         22    1    1    0    0    0  0.68585234971E+01  0.26275452708E+02 -0.10338485732E+02  0.29057237425E+02  0.00000000000E+00 0.  1.
</event>
<event>
 5    1  0.1681111E-003  0.9118800E+02  0.7818608E-02  0.1130116E+00
         25   -1    0    0    0    0  0.00000000000E+00  0.00000000000E+00  0.99999998245E-14  0.12500000000E+03  0.12500000000E+03 0.  0.
        -11    1    3    3    0    0 -0.28804955681E+02 -0.27276076944E+02 -0.19986553190E+02  0.44420402451E+02  0.51100000000E-03 0. -1.
         23    2    1    0    0    0  0.88512195217E+01  0.78670291921E+01 -0.26148280598E+02  0.96295177869E+02  0.91917324087E+02 0.  0.
         11    1    3    3    0    0  0.37656175202E+02  0.35143106137E+02 -0.61617274076E+01  0.51874775418E+02  0.51100000000E-03 0.  1.
         22    1    1    0    0    0 -0.88512195217E+01 -0.78670291921E+01  0.26148280598E+02  0.28704822131E+02  0.00000000000E+00 0.  1.
</event>
<event>
 5    1  0.1681111E-003  0.9118800E+02  0.7818608E-02  0.1130116E+00
         25   -1    0    0    0    0  0.00000000000E+00  0.00000000000E+00  0.99999998245E-14  0.12500000000E+03  0.12500000000E+03 0.  0.
        -11    1    3    3    0    0 -0.16217753256E+02 -0.15667395706E+02  0.43791155421E+02  0.49255944842E+02  0.51100000000E-03 0. -1.
         23    2    1    0    0    0 -0.26649141546E+02  0.10419626182E+02  0.70095449975E+01  0.95540212561E+02  0.90884834490E+02 0.  0.
         11    1    3    3    0    0 -0.10431388290E+02  0.26087021888E+02 -0.36781610424E+02  0.46284267719E+02  0.51100000000E-03 0.  1.
         22    1    1    0    0    0  0.26649141546E+02 -0.10419626182E+02 -0.70095449975E+01  0.29459787439E+02  0.00000000000E+00 0. -1.
</event>
<event>
 5    1  0.1681111E-003  0.9118800E+02  0.7818608E-02  0.1130116E+00
         25   -1    0    0    0    0  0.00000000000E+00  0.00000000000E+00  0.99999998245E-14  0.12500000000E+03  0.12500000000E+03 0.  0.
        -11    1    3    3    0    0  0.50043121496E+01  0.40097632797E+02 -0.28816755842E+02  0.49631327944E+02  0.51100000000E-03 0.  1.
         23    2    1    0    0    0  0.14283946761E+02  0.24853963015E+02  0.11803395577E+02  0.93998858734E+02  0.88739589156E+02 0.  0.
         11    1    3    3    0    0  0.92796346119E+01 -0.15243669781E+02  0.40620151418E+02  0.44367530790E+02  0.51100000000E-03 0. -1.
         22    1    1    0    0    0 -0.14283946761E+02 -0.24853963015E+02 -0.11803395577E+02  0.31001141266E+02  0.00000000000E+00 0. -1.
</event>
<event>
 5    1  0.1681111E-003  0.9118800E+02  0.7818608E-02  0.1130116E+00
         25   -1    0    0    0    0  0.00000000000E+00  0.00000000000E+00  0.99999998245E-14  0.12500000000E+03  0.12500000000E+03 0.  0.
        -11    1    3    3    0    0 -0.45588205442E+01 -0.31484854247E+02  0.14098195515E+02  0.34797097706E+02  0.51100000000E-03 0. -1.
         23    2    1    0    0    0  0.24887646760E+02  0.11741879130E+02 -0.13951262879E+02  0.94147051637E+02  0.88948091094E+02 0.  0.
         11    1    3    3    0    0  0.29446467304E+02  0.43226733377E+02 -0.28049458394E+02  0.59349953931E+02  0.51100000000E-03 0.  1.
         22    1    1    0    0    0 -0.24887646760E+02 -0.11741879130E+02  0.13951262879E+02  0.30852948363E+02  0.00000000000E+00 0.  1.
</event>
<event>
 5    1  0.1681111E-003  0.9118800E+02  0.7818608E-02  0.1130116E+00
         25   -1    0    0    0    0  0.00000000000E+00  0.00000000000E+00  0.99999998245E-14  0.12500000000E+03  0.12500000000E+03 0.  0.
        -11    1    3    3    0    0  0.43561828578E+01 -0.15288212681E+02  0.56856875793E+02  0.59037361910E+02  0.51100000000E-03 0.  1.
         23    2    1    0    0    0 -0.49929217559E+01 -0.19517121995E+02  0.22952602570E+02  0.94460365369E+02  0.89387310858E+02 0.  0.
         11    1    3    3    0    0 -0.93491046137E+01 -0.42289093145E+01 -0.33904273223E+02  0.35423003460E+02  0.51100000000E-03 0. -1.
         22    1    1    0    0    0  0.49929217559E+01  0.19517121995E+02 -0.22952602570E+02  0.30539634631E+02  0.00000000000E+00 0.  1.
</event>
<event>
 4    1  0.1681111E-003  0.9118800E+02  0.7818608E-02  0.1130116E+00
         25   -1    0    0    0    0  0.00000000000E+00  0.00000000000E+00  0.99999998245E-14  0.12500000000E+03  0.12500000000E+03 0.  0.
        -11    1    1    0    0    0  0.42683496753E+02  0.15331812130E+02 -0.29218173328E+01  0.45447578319E+02  0.51100000000E-03 0. -1.
         11    1    1    0    0    0  0.67884326218E+01 -0.54106383517E+01  0.23506427440E+02  0.25058131536E+02  0.51100000000E-03 0.  1.
         22    1    1    0    0    0 -0.49471929375E+02 -0.99211737786E+01 -0.20584610107E+02  0.54494290145E+02  0.00000000000E+00 0. -1.
</event>
<event>
 5    1  0.1681111E-003  0.9118800E+02  0.7818608E-02  0.1130116E+00
         25   -1    0    0    0    0  0.00000000000E+00  0.00000000000E+00  0.99999998245E-14  0.12500000000E+03  0.12500000000E+03 0.  0.
        -11    1    3    3    0    0 -0.13096006237E+02 -0.42170025187E+01  0.31484074368E+02  0.34358920657E+02  0.51100000000E-03 0. -1.
         23    2    1    0    0    0  0.19435049031E+02  0.15249029174E+02 -0.16336498472E+02  0.95383531542E+02  0.90669084508E+02 0.  0.
         11    1    3    3    0    0  0.32531055268E+02  0.19466031693E+02 -0.47820572841E+02  0.61024610886E+02  0.51100000000E-03 0.  1.
         22    1    1    0    0    0 -0.19435049031E+02 -0.15249029174E+02  0.16336498472E+02  0.29616468458E+02  0.00000000000E+00 0.  1.
</event>
<event>
 5    1  0.1681111E-003  0.9118800E+02  0.7818608E-02  0.1130116E+00
         25   -1    0    0    0    0  0.00000000000E+00  0.00000000000E+00  0.99999998245E-14  0.12500000000E+03  0.12500000000E+03 0.  0.
        -11    1    3    3    0    0 -0.36645329072E+02 -0.13607805946E+02  0.15349100297E+02  0.41995802238E+02  0.51100000000E-03 0.  1.
         23    2    1    0    0    0 -0.60436077889E+01 -0.10619811438E+02 -0.27599830589E+02  0.94816291834E+02  0.89883663469E+02 0.  0.
         11    1    3    3    0    0  0.30601721283E+02  0.29879945084E+01 -0.42948930886E+02  0.52820489596E+02  0.51100000000E-03 0. -1.
         22    1    1    0    0    0  0.60436077889E+01  0.10619811438E+02  0.27599830589E+02  0.30183708166E+02  0.00000000000E+00 0.  1.
</event>
<event>
 5    1  0.1681111E-003  0.9118800E+02  0.7818608E-02  0.1130116E+00
         25   -1    0    0    0    0  0.00000000000E+00  0.00000000000E+00  0.99999998245E-14  0.12500000000E+03  0.12500000000E+03 0.  0.
        -11    1    3    3    0    0  0.27700584473E+02  0.21500828183E+02  0.53942995342E+01  0.35478253345E+02  0.51100000000E-03 0.  1.
         23    2    1    0    0    0 -0.16932084602E+02 -0.46165677546E+01 -0.24235040930E+02  0.95077677301E+02  0.90246436635E+02 0.  0.
         11    1    3    3    0    0 -0.44632669075E+02 -0.26117395938E+02 -0.29629340464E+02  0.59599423956E+02  0.51100000000E-03 0. -1.
         22    1    1    0    0    0  0.16932084602E+02  0.46165677546E+01  0.24235040930E+02  0.29922322699E+02  0.00000000000E+00 0. -1.
</event>
<event>
 5    1  0.1681111E-003  0.9118800E+02  0.7818608E-02  0.1130116E+00
         25   -1    0    0    0    0  0.00000000000E+00  0.00000000000E+00  0.99999998245E-14  0.12500000000E+03  0.12500000000E+03 0.  0.
        -11    1    3    3    0    0 -0.22216941543E+02 -0.19557652073E+02 -0.13079546936E+02  0.32359987554E+02  0.51100000000E-03 0. -1.
         23    2    1    0    0    0  0.15092577665E+01  0.26055997269E+02  0.18779899830E+02  0.92846034610E+02  0.87100566316E+02 0.  0.
         11    1    3    3    0    0  0.23726199309E+02  0.45613649342E+02  0.31859446767E+02  0.60486047056E+02  0.51100000000E-03 0.  1.
         22    1    1    0    0    0 -0.15092577665E+01 -0.26055997269E+02 -0.18779899830E+02  0.32153965390E+02  0.00000000000E+00 0.  1.
</event>
<event>
 5    1  0.1681111E-003  0.9118800E+02  0.7818608E-02  0.1130116E+00
         25   -1    0    0    0    0  0.00000000000E+00  0.00000000000E+00  0.99999998245E-14  0.12500000000E+03  0.12500000000E+03 0.  0.
        -11    1    3    3    0    0  0.75237835258E+01  0.24078833306E+02  0.48647278784E+02  0.54799226867E+02  0.51100000000E-03 0.  1.
         23    2    1    0    0    0 -0.63994121508E+01 -0.78005319081E+01  0.27965563156E+02  0.95269989967E+02  0.90512416230E+02 0.  0.
         11    1    3    3    0    0 -0.13923195677E+02 -0.31879365214E+02 -0.20681715628E+02  0.40470763100E+02  0.51100000000E-03 0. -1.
         22    1    1    0    0    0  0.63994121508E+01  0.78005319081E+01 -0.27965563156E+02  0.29730010033E+02  0.00000000000E+00 0. -1.
</event>
<event>
 5    1  0.1681111E-003  0.9118800E+02  0.7818608E-02  0.1130116E+00
         25   -1    0    0    0    0  0.00000000000E+00  0.00000000000E+00  0.99999998245E-14  0.12500000000E+03  0.12500000000E+03 0.  0.
        -11    1    3    3    0    0 -0.49626663437E+02  0.10065029617E+02 -0.14397408927E+02  0.52644049324E+02  0.51100000000E-03 0.  1.
         23    2    1    0    0    0 -0.27018618424E+02  0.23829298556E+02  0.88846362015E+01  0.87895041145E+02  0.79679108218E+02 0.  0.
         11    1    3    3    0    0  0.22608045014E+02  0.13764268939E+02  0.23282045129E+02  0.35250991822E+02  0.51100000000E-03 0. -1.
         22    1    1    0    0    0  0.27018618424E+02 -0.23829298556E+02 -0.88846362015E+01  0.37104958855E+02  0.00000000000E+00 0.  1.
</event>
<event>
 5    1  0.1681111E-003  0.9118800E+02  0.7818608E-02  0.1130116E+00
         25   -1    0    0    0    0  0.00000000000E+00  0.00000000000E+00  0.99999998245E-14  0.12500000000E+03  0.12500000000E+03 0.  0.
        -11    1    3    3    0    0  0.68096357772E+01  0.37092052339E+02 -0.33898805123E+02  0.50708189429E+02  0.51100000000E-03 0.  1.
         23    2    1    0    0    0  0.21902172325E+02 -0.23778213882E+01 -0.20145523237E+02  0.95147005282E+02  0.90342411527E+02 0.  0.
         11    1    3    3    0    0  0.15092536548E+02 -0.39469873727E+02  0.13753281886E+02  0.44438815853E+02  0.51100000000E-03 0. -1.
         22    1    1    0    0    0 -0.21902172325E+02  0.23778213882E+01  0.20145523237E+02  0.29852994718E+02  0.00000000000E+00 0. -1.
</event>
<event>
 4    1  0.1681111E-003  0.9118800E+02  0.7818608E-02  0.1130116E+00
         25   -1    0    0    0    0  0.00000000000E+00  0.00000000000E+00  0.99999998245E-14  0.12500000000E+03  0.12500000000E+03 0.  0.
        -11    1    1    0    0    0  0.37021425070E+02  0.82654279144E+01 -0.44036984930E+02  0.58121934369E+02  0.51100000000E-03 0.  1.
         11    1    1    0    0    0 -0.54431517182E+01 -0.11376660884E+02  0.14665106967E-01  0.12611761528E+02  0.51100000000E-03 0. -1.
         22    1    1    0    0    0 -0.31578273352E+02  0.31112329700E+01  0.44022319823E+02  0.54266304103E+02  0.00000000000E+00 0.  1.
</event>
<event>
 5    1  0.1681111E-003  0.9118800E+02  0.7818608E-02  0.1130116E+00
         25   -1    0    0    0    0  0.00000000000E+00  0.00000000000E+00  0.99999998245E-14  0.12500000000E+03  0.12500000000E+03 0.  0.
        -11    1    3    3    0    0 -0.16283409483E+02  0.18098527945E+02 -0.25452738491E+02  0.35221414440E+02  0.51100000000E-03 0.  1.
         23    2    1    0    0    0  0.13312174031E+02 -0.24701110544E+02  0.63830185078E+01  0.96223242628E+02  0.91819445964E+02 0.  0.
         11    1    3    3    0    0  0.29595583514E+02 -0.42799638489E+02  0.31835756999E+02  0.61001828188E+02  0.51100000000E-03 0. -1.
         22    1    1    0    0    0 -0.13312174031E+02  0.24701110544E+02 -0.63830185078E+01  0.28776757372E+02  0.00000000000E+00 0. -1.
</event>
<event>
 5    1  0.1681111E-003  0.9118800E+02  0.7818608E-02  0.1130116E+00
         25   -1    0    0    0    0  0.00000000000E+00  0.00000000000E+00  0.99999998245E-14  0.12500000000E+03  0.12500000000E+03 0.  0.
        -11    1    3    3    0    0  0.14136425326E+02  0.36849162921E+02 -0.62872187415E+01  0.39965340594E+02  0.51100000000E-03 0. -1.
         23    2    1    0    0    0 -0.22667057369E+02  0.16336502793E+02  0.20898473909E+02  0.90108410397E+02  0.83078893825E+02 0.  0.
         11    1    3    3    0    0 -0.36803482696E+02 -0.20512660128E+02  0.27185692651E+02  0.50143069803E+02  0.51100000000E-03 0.  1.
         22    1    1    0    0    0  0.22667057369E+02 -0.16336502793E+02 -0.20898473909E+02  0.34891589603E+02  0.00000000000E+00 0.  1.
</event>
<event>
 5    1  0.1681111E-003  0.9118800E+02  0.7818608E-02  0.1130116E+00
         25   -1    0    0    0    0  0.00000000000E+00  0.00000000000E+00  0.99999998245E-14  0.12500000000E+03  0.12500000000E+03 0.  0.
        -11    1    3    3    0    0  0.14716304399E+02 -0.55134393710E+02 -0.36430407263E-01  0.57064632763E+02  0.51100000000E-03 0.  1.
         23    2    1    0    0    0  0.30958995962E+01 -0.41746007850E+02 -0.15272571699E+02  0.80440318538E+02  0.66970737151E+02 0.  0.
         11    1    3    3    0    0 -0.11620404803E+02  0.13388385860E+02 -0.15236141292E+02  0.23375685775E+02  0.51100000000E-03 0. -1.
         22    1    1    0    0    0 -0.30958995962E+01  0.41746007850E+02  0.15272571699E+02  0.44559681462E+02  0.00000000000E+00 0.  1.
</event>
<event>
 5    1  0.1681111E-003  0.9118800E+02  0.7818608E-02  0.1130116E+00
         25   -1    0    0    0    0  0.00000000000E+00  0.00000000000E+00  0.99999998245E-14  0.12500000000E+03  0.12500000000E+03 0.  0.
        -11    1    3    3    0    0 -0.21002917516E+02 -0.53350192153E+02  0.22660976377E+02  0.61651321134E+02  0.51100000000E-03 0. -1.
         23    2    1    0    0    0 -0.31217080567E+01 -0.27322617240E+02  0.89235726789E+01  0.96088053968E+02  0.91635219713E+02 0.  0.
         11    1    3    3    0    0  0.17881209460E+02  0.26027574913E+02 -0.13737403698E+02  0.34436732833E+02  0.51100000000E-03 0.  1.
         22    1    1    0    0    0  0.31217080567E+01  0.27322617240E+02 -0.89235726789E+01  0.28911946032E+02  0.00000000000E+00 0. -1.
</event>
<event>
 5    1  0.1681111E-003  0.9118800E+02  0.7818608E-02  0.1130116E+00
         25   -1    0    0    0    0  0.00000000000E+00  0.00000000000E+00  0.99999998245E-14  0.12500000000E+03  0.12500000000E+03 0.  0.
        -11    1    3    3    0    0 -0.14979855295E+02  0.56590247464E+02  0.15567169372E+02  0.60573830449E+02  0.51100000000E-03 0.  1.
         23    2    1    0    0    0 -0.14845983641E+02  0.20635095799E+02  0.12534854395E+02  0.96656870610E+02  0.92407887393E+02 0.  0.
         11    1    3    3    0    0  0.13387165354E+00 -0.35955151665E+02 -0.30323149770E+01  0.36083040161E+02  0.51100000000E-03 0. -1.
         22    1    1    0    0    0  0.14845983641E+02 -0.20635095799E+02 -0.12534854395E+02  0.28343129390E+02  0.00000000000E+00 0.  1.
</event>
<event>
 5    1  0.1681111E-003  0.9118800E+02  0.7818608E-02  0.1130116E+00
         25   -1    0    0    0    0  0.00000000000E+00  0.00000000000E+00  0.99999998245E-14  0.12500000000E+03  0.12500000000E+03 0.  0.
        -11    1    3    3    0    0 -0.12094497899E+02  0.26823589057E+02  0.33419958401E+02  0.44527243673E+02  0.51100000000E-03 0.  1.
         23    2    1    0    0    0 -0.14228026914E+02 -0.20908770411E+02  0.13905048777E+02  0.96138887557E+02  0.91704535816E+02 0.  0.
         11    1    3    3    0    0 -0.21335290154E+01 -0.47732359469E+02 -0.19514909624E+02  0.51611643884E+02  0.51100000000E-03 0. -1.
         22    1    1    0    0    0  0.14228026914E+02  0.20908770411E+02 -0.13905048777E+02  0.28861112443E+02  0.00000000000E+00 0. -1.
</event>
<event>
 5    1  0.1681111E-003  0.9118800E+02  0.7818608E-02  0.1130116E+00
         25   -1    0    0    0    0  0.00000000000E+00  0.00000000000E+00  0.99999998245E-14  0.12500000000E+03  0.12500000000E+03 0.  0.
        -11    1    3    3    0    0  0.88273743927E+01  0.39040913628E+02  0.75375693199E+01  0.40729969642E+02  0.51100000000E-03 0. -1.
         23    2    1    0    0    0  0.20254598193E+02 -0.99389450809E+01 -0.17056644983E+02  0.96716426758E+02  0.92488413812E+02 0.  0.
         11    1    3    3    0    0  0.11427223800E+02 -0.48979858709E+02 -0.24594214303E+02  0.55986457115E+02  0.51100000000E-03 0.  1.
         22    1    1    0    0    0 -0.20254598193E+02  0.99389450809E+01  0.17056644983E+02  0.28283573242E+02  0.00000000000E+00 0.  1.
</event>
<event>
 5    1  0.1681111E-003  0.9118800E+02  0.7818608E-02  0.1130116E+00
         25   -1    0    0    0    0  0.00000000000E+00  0.00000000000E+00  0.99999998245E-14  0.12500000000E+03  0.12500000000E+03 0.  0.
        -11    1    3    3    0    0 -0.31472619160E+02  0.17568197871E+02  0.43379250695E+02  0.56399705002E+02  0.51100000000E-03 0.  1.
         23    2    1    0    0    0 -0.27949710660E+02 -0.37002608886E+01  0.12261793230E+02  0.94255409747E+02  0.89100238140E+02 0.  0.
         11    1    3    3    0    0  0.35229084996E+01 -0.21268458760E+02 -0.31117457465E+02  0.37855704744E+02  0.51100000000E-03 0. -1.
         22    1    1    0    0    0  0.27949710660E+02  0.37002608886E+01 -0.12261793230E+02  0.30744590253E+02  0.00000000000E+00 0.  1.
</event>
<event>
 5    1  0.1681111E-003  0.9118800E+02  0.7818608E-02  0.1130116E+00
         25   -1    0    0    0    0  0.00000000000E+00  0.00000000000E+00  0.99999998245E-14  0.12500000000E+03  0.12500000000E+03 0.  0.
        -11    1    3    3    0    0  0.35027382863E+00  0.14917103475E+02  0.34482231064E+02  0.37572156277E+02  0.51100000000E-03 0. -1.
         23    2    1    0    0    0  0.14901118522E+02  0.55656750315E+01 -0.22682243303E+02  0.97296133247E+02  0.93268608395E+02 0.  0.
         11    1    3    3    0    0  0.14550844693E+02 -0.93514284437E+01 -0.57164474368E+02  0.59723976971E+02  0.51100000000E-03 0.  1.
         22    1    1    0    0    0 -0.14901118522E+02 -0.55656750315E+01  0.22682243303E+02  0.27703866753E+02  0.00000000000E+00 0. -1.
</event>
<event>
 5    1  0.1681111E-003  0.9118800E+02  0.7818608E-02  0.1130116E+00
         25   -1    0    0    0    0  0.00000000000E+00  0.00000000000E+00  0.99999998245E-14  0.12500000000E+03  0.12500000000E+03 0.  0.
        -11    1    3    3    0    0 -0.21749989671E+02 -0.51936794980E+02  0.64534786120E+01  0.56675745341E+02  0.51100000000E-03 0. -1.
         23    2    1    0    0    0  0.67939670510E+01 -0.27041820961E+02 -0.58726808430E+01  0.96506027840E+02  0.92203616848E+02 0.  0.
         11    1    3    3    0    0  0.28543956722E+02  0.24894974019E+02 -0.12326159455E+02  0.39830282499E+02  0.51100000000E-03 0.  1.
         22    1    1    0    0    0 -0.67939670510E+01  0.27041820961E+02  0.58726808430E+01  0.28493972160E+02  0.00000000000E+00 0. -1.
</event>
<event>
 5    1  0.1681111E-003  0.9118800E+02  0.7818608E-02  0.1130116E+00
         25   -1    0    0    0    0  0.00000000000E+00  0.00000000000E+00  0.99999998245E-14  0.12500000000E+03  0.12500000000E+03 0.  0.
        -11    1    3    3    0    0 -0.45760947964E+02 -0.33311691581E+01 -0.41225644331E+02  0.61682370231E+02  0.51100000000E-03 0.  1.
         23    2    1    0    0    0 -0.23523768825E+02  0.48251104295E+01 -0.16891884978E+02  0.95640416071E+02  0.91022546755E+02 0.  0.
         11    1    3    3    0    0  0.22237179139E+02  0.81562795876E+01  0.24333759353E+02  0.33958045840E+02  0.51100000000E-03 0. -1.
         22    1    1    0    0    0  0.23523768825E+02 -0.48251104295E+01  0.16891884978E+02  0.29359583929E+02  0.00000000000E+00 0.  1.
</event>
<event>
 5    1  0.1681111E-003  0.9118800E+02  0.7818608E-02  0.1130116E+00
         25   -1    0    0    0    0  0.00000000000E+00  0.00000000000E+00  0.99999998245E-14  0.12500000000E+03  0.12500000000E+03 0.  0.
        -11    1    3    3    0    0 -0.22051428065E+02 -0.16543170934E+02 -0.25193332983E+02  0.37344959651E+02  0.51100000000E-03 0.  1.
         23    2    1    0    0    0 -0.73341924398E+01  0.18587736706E+02  0.20189785343E+02  0.96593631580E+02  0.92322304429E+02 0.  0.
         11    1    3    3    0    0  0.14717235625E+02  0.35130907640E+02  0.45383118327E+02  0.59248671929E+02  0.51100000000E-03 0. -1.
         22    1    1    0    0    0  0.73341924398E+01 -0.18587736706E+02 -0.20189785343E+02  0.28406368420E+02  0.00000000000E+00 0. -1.
</event>
<event>
 5    1  0.1681111E-003  0.9118800E+02  0.7818608E-02  0.1130116E+00
         25   -1    0    0    0    0  0.00000000000E+00  0.00000000000E+00  0.99999998245E-14  0.12500000000E+03  0.12500000000E+03 0.  0.
        -11    1    3    3    0    0  0.32565989835E+02  0.23070333651E+02 -0.10686011685E+02  0.41315551971E+02  0.51100000000E-03 0.  1.
         23    2    1    0    0    0  0.11845314639E+02 -0.23599673759E+02  0.10478911793E+02  0.96591133905E+02  0.92318922634E+02 0.  0.
         11    1    3    3    0    0 -0.20720675195E+02 -0.46670007409E+02  0.21164923478E+02  0.55275581935E+02  0.51100000000E-03 0. -1.
         22    1    1    0    0    0 -0.11845314639E+02  0.23599673759E+02 -0.10478911793E+02  0.28408866095E+02  0.00000000000E+00 0. -1.
</event>
<event>
 5    1  0.1681111E-003  0.9118800E+02  0.7818608E-02  0.1130116E+00
         25   -1    0    0    0    0  0.00000000000E+00  0.00000000000E+00  0.99999998245E-14  0.12500000000E+03  0.12500000000E+03 0.  0.
        -11    1    3    3    0    0 -0.24948622178E+02 -0.30744336564E+02  0.13031800061E+02  0.41683039626E+02  0.51100000000E-03 0. -1.
         23    2    1    0    0    0  0.31072213848E+00  0.22950065851E+02  0.35409841303E+01  0.10177629144E+03  0.99091235028E+02 0.  0.
         11    1    3    3    0    0  0.25259344316E+02  0.53694402415E+02 -0.94908159307E+01  0.60093251812E+02  0.51100000000E-03 0.  1.
         22    1    1    0    0    0 -0.31072213848E+00 -0.22950065851E+02 -0.35409841303E+01  0.23223708563E+02  0.00000000000E+00 0.  1.
</event>
<event>
 5    1  0.1681111E-003  0.9118800E+02  0.7818608E-02  0.1130116E+00
         25   -1    0    0    0    0  0.00000000000E+00  0.00000000000E+00  0.99999998245E-14  0.12500000000E+03  0.12500000000E+03 0.  0.
        -11    1    3    3    0    0  0.17726027055E+02  0.47647165007E+02  0.32705884515E+02  0.60449476842E+02  0.51100000000E-03 0. -1.
         23    2    1    0    0    0  0.18040274489E+02  0.16402396135E+02  0.15258197242E+02  0.96237130087E+02  0.91838349950E+02 0.  0.
         11    1    3    3    0    0  0.31424743355E+00 -0.31244768872E+02 -0.17447687273E+02  0.35787653244E+02  0.51100000000E-03 0.  1.
         22    1    1    0    0    0 -0.18040274489E+02 -0.16402396135E+02 -0.15258197242E+02  0.28762869913E+02  0.00000000000E+00 0. -1.
</event>
<event>
 5    1  0.1681111E-003  0.9118800E+02  0.7818608E-02  0.1130116E+00
         25   -1    0    0    0    0  0.00000000000E+00  0.00000000000E+00  0.99999998245E-14  0.12500000000E+03  0.12500000000E+03 0.  0.
        -11    1    3    3    0    0 -0.27325913937E+02  0.28089730727E+02  0.11723063628E+02  0.40904385656E+02  0.51100000000E-03 0. -1.
         23    2    1    0    0    0 -0.65680282688E+01 -0.75836594439E+00 -0.29173973087E+02  0.95086210204E+02  0.90258254753E+02 0.  0.
         11    1    3    3    0    0  0.20757885668E+02 -0.28848096671E+02 -0.40897036716E+02  0.54181824548E+02  0.51100000000E-03 0.  1.
         22    1    1    0    0    0  0.65680282688E+01  0.75836594439E+00  0.29173973087E+02  0.29913789796E+02  0.00000000000E+00 0.  1.
</event>
<event>
 5    1  0.1681111E-003  0.9118800E+02  0.7818608E-02  0.1130116E+00
         25   -1    0    0    0    0  0.00000000000E+00  0.00000000000E+00  0.99999998245E-14  0.12500000000E+03  0.12500000000E+03 0.  0.
        -11    1    3    3    0    0  0.24710391228E+02 -0.20041843390E+02  0.31967944878E+02  0.45102421455E+02  0.51100000000E-03 0.  1.
         23    2    1    0    0    0  0.28629933946E+02  0.94257455696E+01 -0.69426838736E+01  0.94069131007E+02  0.88838520652E+02 0.  0.
         11    1    3    3    0    0  0.39195427180E+01  0.29467588960E+02 -0.38910628752E+02  0.48966709552E+02  0.51100000000E-03 0. -1.
         22    1    1    0    0    0 -0.28629933946E+02 -0.94257455696E+01  0.69426838736E+01  0.30930868993E+02  0.00000000000E+00 0. -1.
</event>
<event>
 5    1  0.1681111E-003  0.9118800E+02  0.7818608E-02  0.1130116E+00
         25   -1    0    0    0    0  0.00000000000E+00  0.00000000000E+00  0.99999998245E-14  0.12500000000E+03  0.12500000000E+03 0.  0.
        -11    1    3    3    0    0 -0.72184758142E+01  0.34344445179E+02  0.46995723393E+02  0.58653604538E+02  0.51100000000E-03 0.  1.
         23    2    1    0    0    0  0.55752972545E+01  0.47473612583E+01  0.27959466143E+02  0.96097523888E+02  0.91648136762E+02 0.  0.
         11    1    3    3    0    0  0.12793773069E+02 -0.29597083921E+02 -0.19036257250E+02  0.37443919350E+02  0.51100000000E-03 0. -1.
         22    1    1    0    0    0 -0.55752972545E+01 -0.47473612583E+01 -0.27959466143E+02  0.28902476112E+02  0.00000000000E+00 0.  1.
</event>
<event>
 5    1  0.1681111E-003  0.9118800E+02  0.7818608E-02  0.1130116E+00
         25   -1    0    0    0    0  0.00000000000E+00  0.00000000000E+00  0.99999998245E-14  0.12500000000E+03  0.12500000000E+03 0.  0.
        -11    1    3    3    0    0  0.32641245681E+02 -0.44878618148E+02 -0.16945695381E+02  0.58023252914E+02  0.51100000000E-03 0. -1.
         23    2    1    0    0    0  0.15892067602E+02 -0.22795987962E+02  0.87990877555E+01  0.95851435281E+02  0.91311876666E+02 0.  0.
         11    1    3    3    0    0 -0.16749178079E+02  0.22082630186E+02  0.25744783136E+02  0.37828182368E+02  0.51100000000E-03 0.  1.
         22    1    1    0    0    0 -0.15892067602E+02  0.22795987962E+02 -0.87990877555E+01  0.29148564719E+02  0.00000000000E+00 0. -1.
</event>
<event>
 5    1  0.1681111E-003  0.9118800E+02  0.7818608E-02  0.1130116E+00
         25   -1    0    0    0    0  0.00000000000E+00  0.00000000000E+00  0.99999998245E-14  0.12500000000E+03  0.12500000000E+03 0.  0.
        -11    1    3    3    0    0  0.13603042525E+02 -0.50529406644E+02  0.17163028793E+02  0.55071165407E+02  0.51100000000E-03 0.  1.
         23    2    1    0    0    0  0.40280693801E+01 -0.11826460689E+02  0.26218995689E+02  0.95956476621E+02  0.91455558362E+02 0.  0.
         11    1    3    3    0    0 -0.95749731450E+01  0.38702945955E+02  0.90559668958E+01  0.40885311214E+02  0.51100000000E-03 0. -1.
         22    1    1    0    0    0 -0.40280693801E+01  0.11826460689E+02 -0.26218995689E+02  0.29043523379E+02  0.00000000000E+00 0.  1.
</event>
<event>
 5    1  0.1681111E-003  0.9118800E+02  0.7818608E-02  0.1130116E+00
         25   -1    0    0    0    0  0.00000000000E+00  0.00000000000E+00  0.99999998245E-14  0.12500000000E+03  0.12500000000E+03 0.  0.
        -11    1    3    3    0    0  0.12713038682E+02  0.48166330380E+02  0.15223645688E+02  0.52090077012E+02  0.51100000000E-03 0. -1.
         23    2    1    0    0    0  0.10544025028E+01  0.74085226233E+01  0.27721341451E+02  0.96286401411E+02  0.91905388050E+02 0.  0.
         11    1    3    3    0    0 -0.11658636179E+02 -0.40757807757E+02  0.12497695763E+02  0.44196324399E+02  0.51100000000E-03 0.  1.
         22    1    1    0    0    0 -0.10544025028E+01 -0.74085226233E+01 -0.27721341451E+02  0.28713598589E+02  0.00000000000E+00 0. -1.
</event>
<event>
 5    1  0.1681111E-003  0.9118800E+02  0.7818608E-02  0.1130116E+00
         25   -1    0    0    0    0  0.00000000000E+00  0.00000000000E+00  0.99999998245E-14  0.12500000000E+03  0.12500000000E+03 0.  0.
        -11    1    3    3    0    0  0.49347754393E+02  0.81369298742E+01 -0.22834196234E+02  0.54980096483E+02  0.51100000000E-03 0. -1.
         23    2    1    0    0    0  0.24570047336E+02 -0.15850949472E+02 -0.11089587147E+01  0.95739623812E+02  0.91158685559E+02 0.  0.
         11    1    3    3    0    0 -0.24777707057E+02 -0.23987879346E+02  0.21725237520E+02  0.40759527329E+02  0.51100000000E-03 0.  1.
         22    1    1    0    0    0 -0.24570047336E+02  0.15850949472E+02  0.11089587147E+01  0.29260376188E+02  0.00000000000E+00 0. -1.
</event>
<event>
 5    1  0.1681111E-003  0.9118800E+02  0.7818608E-02  0.1130116E+00
         25   -1    0    0    0    0  0.00000000000E+00  0.00000000000E+00  0.99999998245E-14  0.12500000000E+03  0.12500000000E+03 0.  0.
        -11    1    3    3    0    0  0.11286074955E+02  0.31358613559E+02 -0.42399180166E+01  0.33596354524E+02  0.51100000000E-03 0. -1.
         23    2    1    0    0    0 -0.23913089853E+01 -0.28615519414E+02 -0.78961339092E+01  0.95218877779E+02  0.90441801424E+02 0.  0.
         11    1    3    3    0    0 -0.13677383941E+02 -0.59974132974E+02 -0.36562158926E+01  0.61622523255E+02  0.51100000000E-03 0.  1.
         22    1    1    0    0    0  0.23913089853E+01  0.28615519414E+02  0.78961339092E+01  0.29781122221E+02  0.00000000000E+00 0.  1.
</event>
<event>
 5    1  0.1681111E-003  0.9118800E+02  0.7818608E-02  0.1130116E+00
         25   -1    0    0    0    0  0.00000000000E+00  0.00000000000E+00  0.99999998245E-14  0.12500000000E+03  0.12500000000E+03 0.  0.
        -11    1    3    3    0    0 -0.29880561059E+02 -0.31541688363E+02 -0.38661977661E+02  0.58159045306E+02  0.51100000000E-03 0. -1.
         23    2    1    0    0    0  0.11934110975E+01 -0.20905968038E+02 -0.20527320626E+02  0.95676722187E+02  0.91072391792E+02 0.  0.
         11    1    3    3    0    0  0.31073972157E+02  0.10635720325E+02  0.18134657035E+02  0.37517676880E+02  0.51100000000E-03 0.  1.
         22    1    1    0    0    0 -0.11934110975E+01  0.20905968038E+02  0.20527320626E+02  0.29323277813E+02  0.00000000000E+00 0. -1.
</event>
<event>
 5    1  0.1681111E-003  0.9118800E+02  0.7818608E-02  0.1130116E+00
         25   -1    0    0    0    0  0.00000000000E+00  0.00000000000E+00  0.99999998245E-14  0.12500000000E+03  0.12500000000E+03 0.  0.
        -11    1    3    3    0    0 -0.38894131272E+01  0.20286902867E+02 -0.42769272242E+02  0.47496279968E+02  0.51100000000E-03 0. -1.
         23    2    1    0    0    0  0.26129248063E+02  0.94463314163E+01 -0.53024076171E+01  0.96714203067E+02  0.92485408399E+02 0.  0.
         11    1    3    3    0    0  0.30018661191E+02 -0.10840571451E+02  0.37466864625E+02  0.49217923099E+02  0.51100000000E-03 0.  1.
         22    1    1    0    0    0 -0.26129248063E+02 -0.94463314163E+01  0.53024076171E+01  0.28285796933E+02  0.00000000000E+00 0.  1.
</event>
<event>
 5    1  0.1681111E-003  0.9118800E+02  0.7818608E-02  0.1130116E+00
         25   -1    0    0    0    0  0.00000000000E+00  0.00000000000E+00  0.99999998245E-14  0.12500000000E+03  0.12500000000E+03 0.  0.
        -11    1    3    3    0    0  0.34961737179E+02  0.74725062567E+01 -0.21080278862E+02  0.41503488691E+02  0.51100000000E-03 0.  1.
         23    2    1    0    0    0 -0.14096565943E+02  0.24976597318E+02 -0.84630895339E+01  0.95097366848E+02  0.90273704432E+02 0.  0.
         11    1    3    3    0    0 -0.49058303122E+02  0.17504091062E+02  0.12617189328E+02  0.53593878157E+02  0.51100000000E-03 0. -1.
         22    1    1    0    0    0  0.14096565943E+02 -0.24976597318E+02  0.84630895339E+01  0.29902633152E+02  0.00000000000E+00 0. -1.
</event>
<event>
 5    1  0.1681111E-003  0.9118800E+02  0.7818608E-02  0.1130116E+00
         25   -1    0    0    0    0  0.00000000000E+00  0.00000000000E+00  0.99999998245E-14  0.12500000000E+03  0.12500000000E+03 0.  0.
        -11    1    3    3    0    0  0.74119783835E+01  0.11216390674E+02  0.55701797887E+02  0.57301266403E+02  0.51100000000E-03 0. -1.
         23    2    1    0    0    0  0.84385451288E+01  0.21867490115E+02  0.21301202436E+02  0.93327655706E+02  0.87789030787E+02 0.  0.
         11    1    3    3    0    0  0.10265667453E+01  0.10651099441E+02 -0.34400595451E+02  0.36026389303E+02  0.51100000000E-03 0.  1.
         22    1    1    0    0    0 -0.84385451288E+01 -0.21867490115E+02 -0.21301202436E+02  0.31672344294E+02  0.00000000000E+00 0. -1.
</event>
<event>
 5    1  0.1681111E-003  0.9118800E+02  0.7818608E-02  0.1130116E+00
         25   -1    0    0    0    0  0.00000000000E+00  0.00000000000E+00  0.99999998245E-14  0.12500000000E+03  0.12500000000E+03 0.  0.
        -11    1    3    3    0    0  0.54447645384E+02  0.27276268299E+02 -0.25270931745E+01  0.60950201807E+02  0.51100000000E-03 0. -1.
         23    2    1    0    0    0  0.20680724708E+02  0.18958060536E+02  0.49239914646E+01  0.96515861859E+02  0.92216947817E+02 0.  0.
         11    1    3    3    0    0 -0.33766920676E+02 -0.83182077629E+01  0.74510846391E+01  0.35565660052E+02  0.51100000000E-03 0.  1.
         22    1    1    0    0    0 -0.20680724708E+02 -0.18958060536E+02 -0.49239914646E+01  0.28484138141E+02  0.00000000000E+00 0. -1.
</event>
<event>
 5    1  0.1681111E-003  0.9118800E+02  0.7818608E-02  0.1130116E+00
         25   -1    0    0    0    0  0.00000000000E+00  0.00000000000E+00  0.99999998245E-14  0.12500000000E+03  0.12500000000E+03 0.  0.
        -11    1    3    3    0    0 -0.51427142447E+02 -0.90386334877E+01 -0.10672716670E+02  0.53294978722E+02  0.51100000000E-03 0. -1.
         23    2    1    0    0    0 -0.17292628184E+02 -0.20438109143E+02  0.11821084376E+02  0.95734161030E+02  0.91151194492E+02 0.  0.
         11    1    3    3    0    0  0.34134514263E+02 -0.11399475655E+02  0.22493801046E+02  0.42439182308E+02  0.51100000000E-03 0.  1.
         22    1    1    0    0    0  0.17292628184E+02  0.20438109143E+02 -0.11821084376E+02  0.29265838970E+02  0.00000000000E+00 0. -1.
</event>
<event>
 5    1  0.1681111E-003  0.9118800E+02  0.7818608E-02  0.1130116E+00
         25   -1    0    0    0    0  0.00000000000E+00  0.00000000000E+00  0.99999998245E-14  0.12500000000E+03  0.12500000000E+03 0.  0.
        -11    1    3    3    0    0 -0.12202010245E+02 -0.62627709076E+01  0.44805715114E+02  0.46857907130E+02  0.51100000000E-03 0.  1.
         23    2    1    0    0    0  0.68255556500E+01  0.25051101342E+02  0.10695345502E+02  0.96919111414E+02  0.92761941838E+02 0.  0.
         11    1    3    3    0    0  0.19027565895E+02  0.31313872249E+02 -0.34110369612E+02  0.50061204285E+02  0.51100000000E-03 0. -1.
         22    1    1    0    0    0 -0.68255556500E+01 -0.25051101342E+02 -0.10695345502E+02  0.28080888586E+02  0.00000000000E+00 0. -1.
</event>
<event>
 5    1  0.1681111E-003  0.9118800E+02  0.7818608E-02  0.1130116E+00
         25   -1    0    0    0    0  0.00000000000E+00  0.00000000000E+00  0.99999998245E-14  0.12500000000E+03  0.12500000000E+03 0.  0.
        -11    1    3    3    0    0  0.53436741230E+02  0.11383479967E+02  0.85207933432E+01  0.55296228162E+02  0.51100000000E-03 0.  1.
         23    2    1    0    0    0  0.23435214171E+02 -0.11195300467E+02  0.17218272124E+02  0.93838919936E+02  0.88514010100E+02 0.  0.
         11    1    3    3    0    0 -0.30001527059E+02 -0.22578780435E+02  0.86974787808E+01  0.38542691774E+02  0.51100000000E-03 0. -1.
         22    1    1    0    0    0 -0.23435214171E+02  0.11195300467E+02 -0.17218272124E+02  0.31161080064E+02  0.00000000000E+00 0.  1.
</event>
<event>
 5    1  0.1681111E-003  0.9118800E+02  0.7818608E-02  0.1130116E+00
         25   -1    0    0    0    0  0.00000000000E+00  0.00000000000E+00  0.99999998245E-14  0.12500000000E+03  0.12500000000E+03 0.  0.
        -11    1    3    3    0    0  0.48125379273E-01 -0.52755135282E+02  0.18990521612E+02  0.56069122750E+02  0.51100000000E-03 0. -1.
         23    2    1    0    0    0 -0.13461712422E+02 -0.16690287500E+02  0.21463756770E+02  0.94660648444E+02  0.89666951052E+02 0.  0.
         11    1    3    3    0    0 -0.13509837801E+02  0.36064847782E+02  0.24732351584E+01  0.38591525694E+02  0.51100000000E-03 0.  1.
         22    1    1    0    0    0  0.13461712422E+02  0.16690287500E+02 -0.21463756770E+02  0.30339351556E+02  0.00000000000E+00 0.  1.
</event>
<event>
 5    1  0.1681111E-003  0.9118800E+02  0.7818608E-02  0.1130116E+00
         25   -1    0    0    0    0  0.00000000000E+00  0.00000000000E+00  0.99999998245E-14  0.12500000000E+03  0.12500000000E+03 0.  0.
        -11    1    3    3    0    0  0.35584052720E+02  0.14225244783E+02 -0.23670992214E+02  0.45043293283E+02  0.51100000000E-03 0. -1.
         23    2    1    0    0    0 -0.10521475867E+02  0.46216737578E+01 -0.30291915672E+02  0.92601520440E+02  0.86748948754E+02 0.  0.
         11    1    3    3    0    0 -0.46105528586E+02 -0.96035710247E+01 -0.66209234577E+01  0.47558227157E+02  0.51100000000E-03 0.  1.
         22    1    1    0    0    0  0.10521475867E+02 -0.46216737578E+01  0.30291915672E+02  0.32398479560E+02  0.00000000000E+00 0. -1.
</event>
<event>
 5    1  0.1681111E-003  0.9118800E+02  0.7818608E-02  0.1130116E+00
         25   -1    0    0    0    0  0.00000000000E+00  0.00000000000E+00  0.99999998245E-14  0.12500000000E+03  0.12500000000E+03 0.  0.
        -11    1    3    3    0    0 -0.31795958690E+02  0.29295331033E+02 -0.23693046502E+02  0.49300708536E+02  0.51100000000E-03 0.  1.
         23    2    1    0    0    0 -0.27509857117E+02 -0.71183736012E+01  0.53623115835E+01  0.96082568115E+02  0.91627736132E+02 0.  0.
         11    1    3    3    0    0  0.42861015735E+01 -0.36413704634E+02  0.29055358086E+02  0.46781859579E+02  0.51100000000E-03 0. -1.
         22    1    1    0    0    0  0.27509857117E+02  0.71183736012E+01 -0.53623115835E+01  0.28917431885E+02  0.00000000000E+00 0. -1.
</event>
<event>
 5    1  0.1681111E-003  0.9118800E+02  0.7818608E-02  0.1130116E+00
         25   -1    0    0    0    0  0.00000000000E+00  0.00000000000E+00  0.99999998245E-14  0.12500000000E+03  0.12500000000E+03 0.  0.
        -11    1    3    3    0    0 -0.32139804436E+02 -0.11640244848E+02  0.57862000509E+00  0.34187675128E+02  0.51100000000E-03 0.  1.
         23    2    1    0    0    0  0.22855771769E+02  0.11763249251E+02  0.14404154057E+02  0.95534087657E+02  0.90876410109E+02 0.  0.
         11    1    3    3    0    0  0.54995576205E+02  0.23403494099E+02  0.13825534052E+02  0.61346412529E+02  0.51100000000E-03 0. -1.
         22    1    1    0    0    0 -0.22855771769E+02 -0.11763249251E+02 -0.14404154057E+02  0.29465912343E+02  0.00000000000E+00 0. -1.
</event>
<event>
 4    1  0.1681111E-003  0.9118800E+02  0.7818608E-02  0.1130116E+00
         25   -1    0    0    0    0  0.00000000000E+00  0.00000000000E+00  0.99999998245E-14  0.12500000000E+03  0.12500000000E+03 0.  0.
        -11    1    1    0    0    0 -0.17433883157E+02  0.27151572049E+01 -0.16512055268E+02  0.24165271156E+02  0.51100000000E-03 0.  1.
         11    1    1    0    0    0  0.24972049199E+02  0.42488629084E+02 -0.62268033817E+01  0.49675546532E+02  0.51100000000E-03 0. -1.
         22    1    1    0    0    0 -0.75381660422E+01 -0.45203786289E+02  0.22738858650E+02  0.51159182312E+02  0.00000000000E+00 0. -1.
</event>
<event>
 5    1  0.1681111E-003  0.9118800E+02  0.7818608E-02  0.1130116E+00
         25   -1    0    0    0    0  0.00000000000E+00  0.00000000000E+00  0.99999998245E-14  0.12500000000E+03  0.12500000000E+03 0.  0.
        -11    1    3    3    0    0  0.13942588650E+02  0.25044239873E+02  0.18546305455E+02  0.34140521018E+02  0.51100000000E-03 0. -1.
         23    2    1    0    0    0  0.39340932131E+01 -0.31088305213E+02  0.16018525881E+01  0.93622846813E+02  0.88208342594E+02 0.  0.
         11    1    3    3    0    0 -0.10008495437E+02 -0.56132545086E+02 -0.16944452867E+02  0.59482325795E+02  0.51100000000E-03 0.  1.
         22    1    1    0    0    0 -0.39340932131E+01  0.31088305213E+02 -0.16018525881E+01  0.31377153187E+02  0.00000000000E+00 0.  1.
</event>
<event>
 5    1  0.1681111E-003  0.9118800E+02  0.7818608E-02  0.1130116E+00
         25   -1    0    0    0    0  0.00000000000E+00  0.00000000000E+00  0.99999998245E-14  0.12500000000E+03  0.12500000000E+03 0.  0.
        -11    1    3    3    0    0 -0.27200307842E+02  0.24205157756E+02 -0.48173994219E+02  0.60386092173E+02  0.51100000000E-03 0.  1.
         23    2    1    0    0    0 -0.25409928597E+02  0.97040767532E+01 -0.23535416779E+02  0.89031271639E+02  0.81442113859E+02 0.  0.
         11    1    3    3    0    0  0.17903792453E+01 -0.14501081003E+02  0.24638577440E+02  0.28645179465E+02  0.51100000000E-03 0. -1.
         22    1    1    0    0    0  0.25409928597E+02 -0.97040767532E+01  0.23535416779E+02  0.35968728361E+02  0.00000000000E+00 0.  1.
</event>
<event>
 5    1  0.1681111E-003  0.9118800E+02  0.7818608E-02  0.1130116E+00
         25   -1    0    0    0    0  0.00000000000E+00  0.00000000000E+00  0.99999998245E-14  0.12500000000E+03  0.12500000000E+03 0.  0.
        -11    1    3    3    0    0 -0.16259900853E+02  0.10206613963E+02  0.41138894070E+02  0.45397884862E+02  0.51100000000E-03 0. -1.
         23    2    1    0    0    0  0.63994818466E+01  0.29510481986E+02  0.17726016461E+01  0.94751627622E+02  0.89793690789E+02 0.  0.
         11    1    3    3    0    0  0.22659382699E+02  0.19303868022E+02 -0.39366292424E+02  0.49353742760E+02  0.51100000000E-03 0.  1.
         22    1    1    0    0    0 -0.63994818466E+01 -0.29510481986E+02 -0.17726016461E+01  0.30248372378E+02  0.00000000000E+00 0.  1.
</event>
<event>
 5    1  0.1681111E-003  0.9118800E+02  0.7818608E-02  0.1130116E+00
         25   -1    0    0    0    0  0.00000000000E+00  0.00000000000E+00  0.99999998245E-14  0.12500000000E+03  0.12500000000E+03 0.  0.
        -11    1    3    3    0    0  0.25201388658E+01  0.36392239075E+01  0.37815962433E+02  0.38074165329E+02  0.51100000000E-03 0.  1.
         23    2    1    0    0    0  0.10655265787E+02  0.68593827970E+01 -0.22583508312E+02  0.99104041454E+02  0.95660913457E+02 0.  0.
         11    1    3    3    0    0  0.81351269209E+01  0.32201588894E+01 -0.60399470745E+02  0.61029876125E+02  0.51100000000E-03 0. -1.
         22    1    1    0    0    0 -0.10655265787E+02 -0.68593827970E+01  0.22583508312E+02  0.25895958546E+02  0.00000000000E+00 0. -1.
</event>
<event>
 5    1  0.1681111E-003  0.9118800E+02  0.7818608E-02  0.1130116E+00
         25   -1    0    0    0    0  0.00000000000E+00  0.00000000000E+00  0.99999998245E-14  0.12500000000E+03  0.12500000000E+03 0.  0.
        -11    1    3    3    0    0 -0.30498355950E+02  0.41394863529E+00  0.29551695559E+01  0.30643989565E+02  0.51100000000E-03 0. -1.
         23    2    1    0    0    0  0.28358161614E+02 -0.16830168324E+02  0.69203146644E+00  0.92016385833E+02  0.85901667378E+02 0.  0.
         11    1    3    3    0    0  0.58856517564E+02 -0.17244116960E+02 -0.22631380895E+01  0.61372396268E+02  0.51100000000E-03 0.  1.
         22    1    1    0    0    0 -0.28358161614E+02  0.16830168324E+02 -0.69203146644E+00  0.32983614167E+02  0.00000000000E+00 0.  1.
</event>
<event>
 5    1  0.1681111E-003  0.9118800E+02  0.7818608E-02  0.1130116E+00
         25   -1    0    0    0    0  0.00000000000E+00  0.00000000000E+00  0.99999998245E-14  0.12500000000E+03  0.12500000000E+03 0.  0.
        -11    1    3    3    0    0  0.42589270639E+02  0.17174927179E+02  0.15747894839E+01  0.45948928816E+02  0.51100000000E-03 0. -1.
         23    2    1    0    0    0 -0.23162098107E+01  0.13064761982E+02  0.24950488857E+02  0.96740847010E+02  0.92521412400E+02 0.  0.
         11    1    3    3    0    0 -0.44905480449E+02 -0.41101651978E+01  0.23375699373E+02  0.50791918194E+02  0.51100000000E-03 0.  1.
         22    1    1    0    0    0  0.23162098107E+01 -0.13064761982E+02 -0.24950488857E+02  0.28259152990E+02  0.00000000000E+00 0.  1.
</event>
<event>
 5    1  0.1681111E-003  0.9118800E+02  0.7818608E-02  0.1130116E+00
         25   -1    0    0    0    0  0.00000000000E+00  0.00000000000E+00  0.99999998245E-14  0.12500000000E+03  0.12500000000E+03 0.  0.
        -11    1    3    3    0    0  0.15919529959E+02 -0.50050830032E+02 -0.33399518884E+02  0.62241825832E+02  0.51100000000E-03 0.  1.
         23    2    1    0    0    0  0.38055539284E+01 -0.24172151320E+02 -0.17221437091E+02  0.95077549639E+02  0.90246259811E+02 0.  0.
         11    1    3    3    0    0 -0.12113976030E+02  0.25878678712E+02  0.16178081794E+02  0.32835723807E+02  0.51100000000E-03 0. -1.
         22    1    1    0    0    0 -0.38055539284E+01  0.24172151320E+02  0.17221437091E+02  0.29922450361E+02  0.00000000000E+00 0.  1.
</event>
<event>
 5    1  0.1681111E-003  0.9118800E+02  0.7818608E-02  0.1130116E+00
         25   -1    0    0    0    0  0.00000000000E+00  0.00000000000E+00  0.99999998245E-14  0.12500000000E+03  0.12500000000E+03 0.  0.
        -11    1    3    3    0    0  0.33575672524E+02 -0.67905407596E+01  0.10634670349E+02  0.35868279063E+02  0.51100000000E-03 0. -1.
         23    2    1    0    0    0 -0.14403258245E+02 -0.35372087074E-01 -0.25091972759E+02  0.96067972829E+02  0.91607822850E+02 0.  0.
         11    1    3    3    0    0 -0.47978930769E+02  0.67551686725E+01 -0.35726643109E+02  0.60199693766E+02  0.51100000000E-03 0.  1.
         22    1    1    0    0    0  0.14403258245E+02  0.35372087074E-01  0.25091972759E+02  0.28932027171E+02  0.00000000000E+00 0.  1.
</event>
<event>
 5    1  0.1681111E-003  0.9118800E+02  0.7818608E-02  0.1130116E+00
         25   -1    0    0    0    0  0.00000000000E+00  0.00000000000E+00  0.99999998245E-14  0.12500000000E+03  0.12500000000E+03 0.  0.
        -11    1    3    3    0    0  0.39501192840E+02 -0.45726384897E+02 -0.63094053810E+01  0.60754054252E+02  0.51100000000E-03 0.  1.
         23    2    1    0    0    0  0.20895539201E+02 -0.20906673256E+02  0.71838656994E+01  0.94580919286E+02  0.89555735838E+02 0.  0.
         11    1    3    3    0    0 -0.18605653639E+02  0.24819711641E+02  0.13493271080E+02  0.33826865034E+02  0.51100000000E-03 0. -1.
         22    1    1    0    0    0 -0.20895539201E+02  0.20906673256E+02 -0.71838656994E+01  0.30419080714E+02  0.00000000000E+00 0.  1.
</event>
<event>
 5    1  0.1681111E-003  0.9118800E+02  0.7818608E-02  0.1130116E+00
         25   -1    0    0    0    0  0.00000000000E+00  0.00000000000E+00  0.99999998245E-14  0.12500000000E+03  0.12500000000E+03 0.  0.
        -11    1    3    3    0    0  0.56091891641E+02 -0.15803292707E+01 -0.17713624805E+02  0.58843608425E+02  0.51100000000E-03 0. -1.
         23    2    1    0    0    0  0.20350606364E+02  0.65724466500E+01 -0.20193922790E+02  0.95586758900E+02  0.90948830256E+02 0.  0.
         11    1    3    3    0    0 -0.35741285277E+02  0.81527759207E+01 -0.24802979851E+01  0.36743150475E+02  0.51100000000E-03 0.  1.
         22    1    1    0    0    0 -0.20350606364E+02 -0.65724466500E+01  0.20193922790E+02  0.29413241100E+02  0.00000000000E+00 0. -1.
</event>
<event>
 5    1  0.1681111E-003  0.9118800E+02  0.7818608E-02  0.1130116E+00
         25   -1    0    0    0    0  0.00000000000E+00  0.00000000000E+00  0.99999998245E-14  0.12500000000E+03  0.12500000000E+03 0.  0.
        -11    1    3    3    0    0 -0.39362661045E+02 -0.21545346810E+02  0.34978310770E+02  0.56895547087E+02  0.51100000000E-03 0.  1.
         23    2    1    0    0    0 -0.14793230729E+02 -0.24760405581E+02  0.51038076155E+01  0.95708939724E+02  0.91116600743E+02 0.  0.
         11    1    3    3    0    0  0.24569430316E+02 -0.32150587702E+01 -0.29874503155E+02  0.38813392637E+02  0.51100000000E-03 0. -1.
         22    1    1    0    0    0  0.14793230729E+02  0.24760405581E+02 -0.51038076155E+01  0.29291060276E+02  0.00000000000E+00 0.  1.
</event>
<event>
 5    1  0.1681111E-003  0.9118800E+02  0.7818608E-02  0.1130116E+00
         25   -1    0    0    0    0  0.00000000000E+00  0.00000000000E+00  0.99999998245E-14  0.12500000000E+03  0.12500000000E+03 0.  0.
        -11    1    3    3    0    0  0.53900693087E+01  0.10043083298E+02 -0.36528504285E+02  0.38265493527E+02  0.51100000000E-03 0.  1.
         23    2    1    0    0    0  0.21077042175E+02 -0.18999410594E+02  0.96495383811E+01  0.95027797866E+02  0.90177322352E+02 0.  0.
         11    1    3    3    0    0  0.15686972867E+02 -0.29042493893E+02  0.46178042666E+02  0.56762304340E+02  0.51100000000E-03 0. -1.
         22    1    1    0    0    0 -0.21077042175E+02  0.18999410594E+02 -0.96495383811E+01  0.29972202134E+02  0.00000000000E+00 0. -1.
</event>
<event>
 5    1  0.1681111E-003  0.9118800E+02  0.7818608E-02  0.1130116E+00
         25   -1    0    0    0    0  0.00000000000E+00  0.00000000000E+00  0.99999998245E-14  0.12500000000E+03  0.12500000000E+03 0.  0.
        -11    1    3    3    0    0  0.10981332476E+02  0.38777845527E+02 -0.20189798533E+02  0.45077033306E+02  0.51100000000E-03 0.  1.
         23    2    1    0    0    0 -0.25062842076E+02  0.21503933662E+02  0.39030153972E+01  0.91746447632E+02  0.85507964004E+02 0.  0.
         11    1    3    3    0    0 -0.36044174552E+02 -0.17273911865E+02  0.24092813930E+02  0.46669414326E+02  0.51100000000E-03 0. -1.
         22    1    1    0    0    0  0.25062842076E+02 -0.21503933662E+02 -0.39030153972E+01  0.33253552368E+02  0.00000000000E+00 0. -1.
</event>
<event>
 5    1  0.1681111E-003  0.9118800E+02  0.7818608E-02  0.1130116E+00
         25   -1    0    0    0    0  0.00000000000E+00  0.00000000000E+00  0.99999998245E-14  0.12500000000E+03  0.12500000000E+03 0.  0.
        -11    1    3    3    0    0 -0.46825998678E+02  0.29191919863E+01  0.38303520030E+02  0.60566950402E+02  0.51100000000E-03 0.  1.
         23    2    1    0    0    0 -0.12951657009E+02  0.14715679742E+01  0.24645358792E+02  0.97119816328E+02  0.93032005687E+02 0.  0.
         11    1    3    3    0    0  0.33874341669E+02 -0.14476240121E+01 -0.13658161238E+02  0.36552865927E+02  0.51100000000E-03 0. -1.
         22    1    1    0    0    0  0.12951657009E+02 -0.14715679742E+01 -0.24645358792E+02  0.27880183672E+02  0.00000000000E+00 0.  1.
</event>
<event>
 5    1  0.1681111E-003  0.9118800E+02  0.7818608E-02  0.1130116E+00
         25   -1    0    0    0    0  0.00000000000E+00  0.00000000000E+00  0.99999998245E-14  0.12500000000E+03  0.12500000000E+03 0.  0.
        -11    1    3    3    0    0 -0.16427368930E+02 -0.45273303096E+02  0.10857571337E+01  0.48173740690E+02  0.51100000000E-03 0.  1.
         23    2    1    0    0    0 -0.18483915308E+01 -0.72017685712E+01  0.27342223022E+02  0.96664877244E+02  0.92418717319E+02 0.  0.
         11    1    3    3    0    0  0.14578977399E+02  0.38071534525E+02  0.26256465889E+02  0.48491136554E+02  0.51100000000E-03 0. -1.
         22    1    1    0    0    0  0.18483915308E+01  0.72017685712E+01 -0.27342223022E+02  0.28335122756E+02  0.00000000000E+00 0. -1.
</event>
<event>
 5    1  0.1681111E-003  0.9118800E+02  0.7818608E-02  0.1130116E+00
         25   -1    0    0    0    0  0.00000000000E+00  0.00000000000E+00  0.99999998245E-14  0.12500000000E+03  0.12500000000E+03 0.  0.
        -11    1    3    3    0    0  0.33387488536E+02 -0.60274703037E+01 -0.93240217881E+01  0.35185112925E+02  0.51100000000E-03 0.  1.
         23    2    1    0    0    0 -0.22194640425E+02 -0.16357972741E+02  0.11075790882E+02  0.95287065452E+02  0.90535994848E+02 0.  0.
         11    1    3    3    0    0 -0.55582128961E+02 -0.10330502437E+02  0.20399812670E+02  0.60101952527E+02  0.51100000000E-03 0. -1.
         22    1    1    0    0    0  0.22194640425E+02  0.16357972741E+02 -0.11075790882E+02  0.29712934548E+02  0.00000000000E+00 0. -1.
</event>
<event>
 5    1  0.1681111E-003  0.9118800E+02  0.7818608E-02  0.1130116E+00
         25   -1    0    0    0    0  0.00000000000E+00  0.00000000000E+00  0.99999998245E-14  0.12500000000E+03  0.12500000000E+03 0.  0.
        -11    1    3    3    0    0 -0.66218007296E+01  0.37310109112E+02  0.37491948880E+02  0.53306085187E+02  0.51100000000E-03 0. -1.
         23    2    1    0    0    0 -0.32585651786E+01  0.28946519071E+02 -0.38481135013E+01  0.95617570031E+02  0.90991167197E+02 0.  0.
         11    1    3    3    0    0  0.33632355510E+01 -0.83635900415E+01 -0.41340062381E+02  0.42311484844E+02  0.51100000000E-03 0.  1.
         22    1    1    0    0    0  0.32585651786E+01 -0.28946519071E+02  0.38481135013E+01  0.29382429969E+02  0.00000000000E+00 0. -1.
</event>
<event>
 5    1  0.1681111E-003  0.9118800E+02  0.7818608E-02  0.1130116E+00
         25   -1    0    0    0    0  0.00000000000E+00  0.00000000000E+00  0.99999998245E-14  0.12500000000E+03  0.12500000000E+03 0.  0.
        -11    1    3    3    0    0 -0.16537638372E+02  0.56443780835E+02  0.11632374024E+00  0.58816727292E+02  0.51100000000E-03 0. -1.
         23    2    1    0    0    0 -0.70413695654E+01  0.24175964696E+02  0.15099680758E+02  0.95639167019E+02  0.91020831433E+02 0.  0.
         11    1    3    3    0    0  0.94962688068E+01 -0.32267816139E+02  0.14983357018E+02  0.36822439727E+02  0.51100000000E-03 0.  1.
         22    1    1    0    0    0  0.70413695654E+01 -0.24175964696E+02 -0.15099680758E+02  0.29360832981E+02  0.00000000000E+00 0. -1.
</event>
<event>
 5    1  0.1681111E-003  0.9118800E+02  0.7818608E-02  0.1130116E+00
         25   -1    0    0    0    0  0.00000000000E+00  0.00000000000E+00  0.99999998245E-14  0.12500000000E+03  0.12500000000E+03 0.  0.
        -11    1    3    3    0    0 -0.39750362930E+02 -0.64377099622E+01 -0.47227138799E+02  0.62063983936E+02  0.51100000000E-03 0.  1.
         23    2    1    0    0    0 -0.13892139734E+02 -0.36173201363E+01 -0.24492589526E+02  0.96610503825E+02  0.92345145819E+02 0.  0.
         11    1    3    3    0    0  0.25858223195E+02  0.28203898259E+01  0.22734549272E+02  0.34546519889E+02  0.51100000000E-03 0. -1.
         22    1    1    0    0    0  0.13892139734E+02  0.36173201363E+01  0.24492589526E+02  0.28389496175E+02  0.00000000000E+00 0.  1.
</event>
<event>
 5    1  0.1681111E-003  0.9118800E+02  0.7818608E-02  0.1130116E+00
         25   -1    0    0    0    0  0.00000000000E+00  0.00000000000E+00  0.99999998245E-14  0.12500000000E+03  0.12500000000E+03 0.  0.
        -11    1    3    3    0    0  0.23135899303E+02 -0.26360087406E+01  0.98852731481E+01  0.25296976185E+02  0.51100000000E-03 0.  1.
         23    2    1    0    0    0 -0.23336154160E+02  0.23857435893E+01 -0.30120913041E+02  0.86822293601E+02  0.77978031524E+02 0.  0.
         11    1    3    3    0    0 -0.46472053463E+02  0.50217523299E+01 -0.40006186189E+02  0.61525317416E+02  0.51100000000E-03 0. -1.
         22    1    1    0    0    0  0.23336154160E+02 -0.23857435893E+01  0.30120913041E+02  0.38177706399E+02  0.00000000000E+00 0. -1.
</event>
<event>
 5    1  0.1681111E-003  0.9118800E+02  0.7818608E-02  0.1130116E+00
         25   -1    0    0    0    0  0.00000000000E+00  0.00000000000E+00  0.99999998245E-14  0.12500000000E+03  0.12500000000E+03 0.  0.
        -11    1    3    3    0    0 -0.29625078860E+02 -0.11753608058E+02 -0.10840146512E+02  0.33664541828E+02  0.51100000000E-03 0. -1.
         23    2    1    0    0    0  0.20133772768E+02  0.16142925235E+02  0.13721251984E+02  0.95772690903E+02  0.91204017048E+02 0.  0.
         11    1    3    3    0    0  0.49758851628E+02  0.27896533293E+02  0.24561398496E+02  0.62108149075E+02  0.51100000000E-03 0.  1.
         22    1    1    0    0    0 -0.20133772768E+02 -0.16142925235E+02 -0.13721251984E+02  0.29227309097E+02  0.00000000000E+00 0.  1.
</event>
<event>
 5    1  0.1681111E-003  0.9118800E+02  0.7818608E-02  0.1130116E+00
         25   -1    0    0    0    0  0.00000000000E+00  0.00000000000E+00  0.99999998245E-14  0.12500000000E+03  0.12500000000E+03 0.  0.
        -11    1    3    3    0    0 -0.23255708471E+02  0.27418532950E+02 -0.12114313397E+02  0.37938905031E+02  0.51100000000E-03 0.  1.
         23    2    1    0    0    0 -0.18392805603E+02 -0.22216917703E+02  0.12511893945E+02  0.93560626274E+02  0.88120125786E+02 0.  0.
         11    1    3    3    0    0  0.48629028679E+01 -0.49635450653E+02  0.24626207342E+02  0.55621721244E+02  0.51100000000E-03 0. -1.
         22    1    1    0    0    0  0.18392805603E+02  0.22216917703E+02 -0.12511893945E+02  0.31439373726E+02  0.00000000000E+00 0. -1.
</event>
<event>
 5    1  0.1681111E-003  0.9118800E+02  0.7818608E-02  0.1130116E+00
         25   -1    0    0    0    0  0.00000000000E+00  0.00000000000E+00  0.99999998245E-14  0.12500000000E+03  0.12500000000E+03 0.  0.
        -11    1    3    3    0    0  0.16176459219E+02  0.52508974902E+02 -0.20333433424E+02  0.58585994855E+02  0.51100000000E-03 0. -1.
         23    2    1    0    0    0 -0.64271992461E+01  0.27037098680E+02 -0.16045705360E+02  0.92909841762E+02  0.87192089324E+02 0.  0.
         11    1    3    3    0    0 -0.22603658466E+02 -0.25471876222E+02  0.42877280634E+01  0.34323846907E+02  0.51100000000E-03 0.  1.
         22    1    1    0    0    0  0.64271992461E+01 -0.27037098680E+02  0.16045705360E+02  0.32090158238E+02  0.00000000000E+00 0. -1.
</event>
<event>
 5    1  0.1681111E-003  0.9118800E+02  0.7818608E-02  0.1130116E+00
         25   -1    0    0    0    0  0.00000000000E+00  0.00000000000E+00  0.99999998245E-14  0.12500000000E+03  0.12500000000E+03 0.  0.
        -11    1    3    3    0    0 -0.26730405562E+02 -0.99068247057E+01  0.24363054115E+02  0.37499575509E+02  0.51100000000E-03 0.  1.
         23    2    1    0    0    0  0.48344160946E+01  0.28989144632E+02 -0.44317493022E+01  0.95278248919E+02  0.90523821338E+02 0.  0.
         11    1    3    3    0    0  0.31564821656E+02  0.38895969337E+02 -0.28794803418E+02  0.57778673410E+02  0.51100000000E-03 0. -1.
         22    1    1    0    0    0 -0.48344160946E+01 -0.28989144632E+02  0.44317493022E+01  0.29721751081E+02  0.00000000000E+00 0. -1.
</event>
<event>
 5    1  0.1681111E-003  0.9118800E+02  0.7818608E-02  0.1130116E+00
         25   -1    0    0    0    0  0.00000000000E+00  0.00000000000E+00  0.99999998245E-14  0.12500000000E+03  0.12500000000E+03 0.  0.
        -11    1    3    3    0    0 -0.19194741706E+02  0.15191556591E+02 -0.35904319390E+02  0.43455053238E+02  0.51100000000E-03 0.  1.
         23    2    1    0    0    0 -0.12181887672E+02  0.22120023645E+02  0.15216146126E+02  0.95517379081E+02  0.90853424649E+02 0.  0.
         11    1    3    3    0    0  0.70128540340E+01  0.69284670534E+01  0.51120465516E+02  0.52062325843E+02  0.51100000000E-03 0. -1.
         22    1    1    0    0    0  0.12181887672E+02 -0.22120023645E+02 -0.15216146126E+02  0.29482620919E+02  0.00000000000E+00 0. -1.
</event>
<event>
 5    1  0.1681111E-003  0.9118800E+02  0.7818608E-02  0.1130116E+00
         25   -1    0    0    0    0  0.00000000000E+00  0.00000000000E+00  0.99999998245E-14  0.12500000000E+03  0.12500000000E+03 0.  0.
        -11    1    3    3    0    0  0.31619856762E+02 -0.49761486119E+02 -0.11035636602E+01  0.58968115922E+02  0.51100000000E-03 0.  1.
         23    2    1    0    0    0  0.62843647812E+01 -0.27467176470E+02  0.10901484915E+02  0.94787727704E+02  0.89843930936E+02 0.  0.
         11    1    3    3    0    0 -0.25335491981E+02  0.22294309649E+02  0.12005048575E+02  0.35819611782E+02  0.51100000000E-03 0. -1.
         22    1    1    0    0    0 -0.62843647812E+01  0.27467176470E+02 -0.10901484915E+02  0.30212272296E+02  0.00000000000E+00 0.  1.
</event>
<event>
 5    1  0.1681111E-003  0.9118800E+02  0.7818608E-02  0.1130116E+00
         25   -1    0    0    0    0  0.00000000000E+00  0.00000000000E+00  0.99999998245E-14  0.12500000000E+03  0.12500000000E+03 0.  0.
        -11    1    3    3    0    0  0.30526964693E+02 -0.19981279730E+02 -0.14956349394E+02  0.39431453188E+02  0.51100000000E-03 0.  1.
         23    2    1    0    0    0 -0.21726946657E+02 -0.17768280400E+00 -0.19907881801E+02  0.95531108945E+02  0.90872312814E+02 0.  0.
         11    1    3    3    0    0 -0.52253911350E+02  0.19803596926E+02 -0.49515324073E+01  0.56099655757E+02  0.51100000000E-03 0. -1.
         22    1    1    0    0    0  0.21726946657E+02  0.17768280400E+00  0.19907881801E+02  0.29468891055E+02  0.00000000000E+00 0.  1.
</event>
<event>
 5    1  0.1681111E-003  0.9118800E+02  0.7818608E-02  0.1130116E+00
         25   -1    0    0    0    0  0.00000000000E+00  0.00000000000E+00  0.99999998245E-14  0.12500000000E+03  0.12500000000E+03 0.  0.
        -11    1    3    3    0    0  0.62293822686E+01  0.30899635956E+02 -0.45208043864E+02  0.55112248511E+02  0.51100000000E-03 0.  1.
         23    2    1    0    0    0 -0.13841186821E+02 -0.21770836076E+00 -0.22601183725E+02  0.98496427499E+02  0.94863622505E+02 0.  0.
         11    1    3    3    0    0 -0.20070569089E+02 -0.31117344317E+02  0.22606860139E+02  0.43384178988E+02  0.51100000000E-03 0. -1.
         22    1    1    0    0    0  0.13841186821E+02  0.21770836076E+00  0.22601183725E+02  0.26503572501E+02  0.00000000000E+00 0.  1.
</event>
<event>
 5    1  0.1681111E-003  0.9118800E+02  0.7818608E-02  0.1130116E+00
         25   -1    0    0    0    0  0.00000000000E+00  0.00000000000E+00  0.99999998245E-14  0.12500000000E+03  0.12500000000E+03 0.  0.
        -11    1    3    3    0    0  0.30375054935E+02  0.17066163457E+01 -0.17436916868E+02  0.35065689381E+02  0.51100000000E-03 0. -1.
         23    2    1    0    0    0 -0.26582431187E+02 -0.11694179388E+02 -0.59927317330E+00  0.95952821002E+02  0.91450561784E+02 0.  0.
         11    1    3    3    0    0 -0.56957486122E+02 -0.13400795734E+02  0.16837643695E+02  0.60887131621E+02  0.51100000000E-03 0.  1.
         22    1    1    0    0    0  0.26582431187E+02  0.11694179388E+02  0.59927317330E+00  0.29047178998E+02  0.00000000000E+00 0.  1.
</event>
<event>
 5    1  0.1681111E-003  0.9118800E+02  0.7818608E-02  0.1130116E+00
         25   -1    0    0    0    0  0.00000000000E+00  0.00000000000E+00  0.99999998245E-14  0.12500000000E+03  0.12500000000E+03 0.  0.
        -11    1    3    3    0    0 -0.24454234094E+02  0.71225826170E+01  0.26663874685E+02  0.36874150319E+02  0.51100000000E-03 0. -1.
         23    2    1    0    0    0  0.16741511905E+02 -0.25884595370E+02  0.58180379207E+01  0.93628993265E+02  0.88217052298E+02 0.  0.
         11    1    3    3    0    0  0.41195745999E+02 -0.33007177987E+02 -0.20845836764E+02  0.56754842946E+02  0.51100000000E-03 0.  1.
         22    1    1    0    0    0 -0.16741511905E+02  0.25884595370E+02 -0.58180379207E+01  0.31371006735E+02  0.00000000000E+00 0.  1.
</event>
<event>
 5    1  0.1681111E-003  0.9118800E+02  0.7818608E-02  0.1130116E+00
         25   -1    0    0    0    0  0.00000000000E+00  0.00000000000E+00  0.99999998245E-14  0.12500000000E+03  0.12500000000E+03 0.  0.
        -11    1    3    3    0    0  0.39822928482E+02  0.40855355562E+01  0.20434591449E+02  0.44945853664E+02  0.51100000000E-03 0.  1.
         23    2    1    0    0    0 -0.77904661189E+01 -0.14493483268E+02  0.23686469001E+02  0.96159035500E+02  0.91731994827E+02 0.  0.
         11    1    3    3    0    0 -0.47613394601E+02 -0.18579018824E+02  0.32518775513E+01  0.51213181836E+02  0.51100000000E-03 0. -1.
         22    1    1    0    0    0  0.77904661189E+01  0.14493483268E+02 -0.23686469001E+02  0.28840964500E+02  0.00000000000E+00 0. -1.
</event>
<event>
 5    1  0.1681111E-003  0.9118800E+02  0.7818608E-02  0.1130116E+00
         25   -1    0    0    0    0  0.00000000000E+00  0.00000000000E+00  0.99999998245E-14  0.12500000000E+03  0.12500000000E+03 0.  0.
        -11    1    3    3    0    0 -0.46614869368E+01 -0.33160815395E+02 -0.25531651491E+01  0.33584040714E+02  0.51100000000E-03 0.  1.
         23    2    1    0    0    0  0.61504677264E+00  0.27249570546E+02  0.10807823616E+02  0.95678908124E+02  0.91075392017E+02 0.  0.
         11    1    3    3    0    0  0.52765337094E+01  0.60410385941E+02  0.13360988766E+02  0.62094867410E+02  0.51100000000E-03 0. -1.
         22    1    1    0    0    0 -0.61504677264E+00 -0.27249570546E+02 -0.10807823616E+02  0.29321091876E+02  0.00000000000E+00 0. -1.
</event>
<event>
 5    1  0.1681111E-003  0.9118800E+02  0.7818608E-02  0.1130116E+00
         25   -1    0    0    0    0  0.00000000000E+00  0.00000000000E+00  0.99999998245E-14  0.12500000000E+03  0.12500000000E+03 0.  0.
        -11    1    3    3    0    0 -0.88062513400E+01  0.54479125202E+00  0.16830213214E+02  0.19002708682E+02  0.51100000000E-03 0.  1.
         23    2    1    0    0    0  0.40367624980E+02 -0.17154544958E+02 -0.13094285033E+02  0.79225729282E+02  0.64663995550E+02 0.  0.
         11    1    3    3    0    0  0.49173876320E+02 -0.17699336210E+02 -0.29924498247E+02  0.60223020600E+02  0.51100000000E-03 0. -1.
         22    1    1    0    0    0 -0.40367624980E+02  0.17154544958E+02  0.13094285033E+02  0.45774270718E+02  0.00000000000E+00 0. -1.
</event>
<event>
 5    1  0.1681111E-003  0.9118800E+02  0.7818608E-02  0.1130116E+00
         25   -1    0    0    0    0  0.00000000000E+00  0.00000000000E+00  0.99999998245E-14  0.12500000000E+03  0.12500000000E+03 0.  0.
        -11    1    3    3    0    0 -0.26947163667E+02 -0.29471134774E+02  0.45411760852E+01  0.40191039985E+02  0.51100000000E-03 0.  1.
         23    2    1    0    0    0 -0.10937540999E+02  0.17711850086E+02 -0.20351001146E+02  0.95888100642E+02  0.91362055365E+02 0.  0.
         11    1    3    3    0    0  0.16009622668E+02  0.47182984860E+02 -0.24892177231E+02  0.55697060657E+02  0.51100000000E-03 0. -1.
         22    1    1    0    0    0  0.10937540999E+02 -0.17711850086E+02  0.20351001146E+02  0.29111899358E+02  0.00000000000E+00 0. -1.
</event>
<event>
 5    1  0.1681111E-003  0.9118800E+02  0.7818608E-02  0.1130116E+00
         25   -1    0    0    0    0  0.00000000000E+00  0.00000000000E+00  0.99999998245E-14  0.12500000000E+03  0.12500000000E+03 0.  0.
        -11    1    3    3    0    0 -0.38989179479E+02 -0.11052279331E+02  0.14442474181E+02  0.43022018265E+02  0.51100000000E-03 0.  1.
         23    2    1    0    0    0  0.86781243485E+01  0.74890423471E+01  0.26982813126E+02  0.95683318713E+02  0.91081445302E+02 0.  0.
         11    1    3    3    0    0  0.47667303828E+02  0.18541321678E+02  0.12540338945E+02  0.52661300448E+02  0.51100000000E-03 0. -1.
         22    1    1    0    0    0 -0.86781243485E+01 -0.74890423471E+01 -0.26982813126E+02  0.29316681287E+02  0.00000000000E+00 0.  1.
</event>
<event>
 5    1  0.1681111E-003  0.9118800E+02  0.7818608E-02  0.1130116E+00
         25   -1    0    0    0    0  0.00000000000E+00  0.00000000000E+00  0.99999998245E-14  0.12500000000E+03  0.12500000000E+03 0.  0.
        -11    1    3    3    0    0 -0.17271340117E+02 -0.23239298580E+02 -0.27216881700E+02  0.39738178590E+02  0.51100000000E-03 0.  1.
         23    2    1    0    0    0  0.15730914442E+02 -0.17534572334E+02  0.17534030340E+02  0.95633946195E+02  0.91013661331E+02 0.  0.
         11    1    3    3    0    0  0.33002254559E+02  0.57047262458E+01  0.44750912040E+02  0.55895767605E+02  0.51100000000E-03 0. -1.
         22    1    1    0    0    0 -0.15730914442E+02  0.17534572334E+02 -0.17534030340E+02  0.29366053805E+02  0.00000000000E+00 0.  1.
</event>
<event>
 5    1  0.1681111E-003  0.9118800E+02  0.7818608E-02  0.1130116E+00
         25   -1    0    0    0    0  0.00000000000E+00  0.00000000000E+00  0.99999998245E-14  0.12500000000E+03  0.12500000000E+03 0.  0.
        -11    1    3    3    0    0 -0.29786034268E+02  0.41724809900E+02  0.32030757648E+02  0.60449458512E+02  0.51100000000E-03 0.  1.
         23    2    1    0    0    0 -0.19117827944E+02  0.10492191209E+02  0.19477307618E+02  0.95760592795E+02  0.91187434434E+02 0.  0.
         11    1    3    3    0    0  0.10668206323E+02 -0.31232618691E+02 -0.12553450030E+02  0.35311134283E+02  0.51100000000E-03 0. -1.
         22    1    1    0    0    0  0.19117827944E+02 -0.10492191209E+02 -0.19477307618E+02  0.29239407205E+02  0.00000000000E+00 0.  1.
</event>
<event>
 5    1  0.1681111E-003  0.9118800E+02  0.7818608E-02  0.1130116E+00
         25   -1    0    0    0    0  0.00000000000E+00  0.00000000000E+00  0.99999998245E-14  0.12500000000E+03  0.12500000000E+03 0.  0.
        -11    1    3    3    0    0 -0.91802062933E+01  0.36812500738E+02 -0.89394981470E+00  0.37950435369E+02  0.51100000000E-03 0.  1.
         23    2    1    0    0    0  0.22764218420E+02 -0.51028301698E+01  0.19634496059E+02  0.94508001844E+02  0.89453901318E+02 0.  0.
         11    1    3    3    0    0  0.31944424714E+02 -0.41915330908E+02  0.20528445874E+02  0.56557566475E+02  0.51100000000E-03 0. -1.
         22    1    1    0    0    0 -0.22764218420E+02  0.51028301698E+01 -0.19634496059E+02  0.30491998156E+02  0.00000000000E+00 0. -1.
</event>
<event>
 5    1  0.1681111E-003  0.9118800E+02  0.7818608E-02  0.1130116E+00
         25   -1    0    0    0    0  0.00000000000E+00  0.00000000000E+00  0.99999998245E-14  0.12500000000E+03  0.12500000000E+03 0.  0.
        -11    1    3    3    0    0 -0.16066728061E+01  0.58943848180E+02  0.28822962843E+01  0.59036143742E+02  0.51100000000E-03 0. -1.
         23    2    1    0    0    0 -0.15202163815E+02  0.25182304004E+02  0.29974428557E+01  0.95432469104E+02  0.90736526691E+02 0.  0.
         11    1    3    3    0    0 -0.13595491008E+02 -0.33761544176E+02  0.11514657132E+00  0.36396325362E+02  0.51100000000E-03 0.  1.
         22    1    1    0    0    0  0.15202163815E+02 -0.25182304004E+02 -0.29974428557E+01  0.29567530896E+02  0.00000000000E+00 0. -1.
</event>
<event>
 5    1  0.1681111E-003  0.9118800E+02  0.7818608E-02  0.1130116E+00
         25   -1    0    0    0    0  0.00000000000E+00  0.00000000000E+00  0.99999998245E-14  0.12500000000E+03  0.12500000000E+03 0.  0.
        -11    1    3    3    0    0 -0.38005303820E+02  0.33642702388E+02  0.59410634619E+01  0.51103138629E+02  0.51100000000E-03 0.  1.
         23    2    1    0    0    0 -0.29634255042E+02 -0.83867388706E+01  0.20801999816E+01  0.94131671689E+02  0.88926474810E+02 0.  0.
         11    1    3    3    0    0  0.83710487781E+01 -0.42029441259E+02 -0.38608634802E+01  0.43028533060E+02  0.51100000000E-03 0. -1.
         22    1    1    0    0    0  0.29634255042E+02  0.83867388706E+01 -0.20801999816E+01  0.30868328311E+02  0.00000000000E+00 0.  1.
</event>
<event>
 5    1  0.1681111E-003  0.9118800E+02  0.7818608E-02  0.1130116E+00
         25   -1    0    0    0    0  0.00000000000E+00  0.00000000000E+00  0.99999998245E-14  0.12500000000E+03  0.12500000000E+03 0.  0.
        -11    1    3    3    0    0 -0.40216224892E+02 -0.34963528089E+02  0.24508273460E+02  0.58655336579E+02  0.51100000000E-03 0.  1.
         23    2    1    0    0    0 -0.24468548633E+02 -0.16540431111E+02 -0.29953028307E+01  0.95313848808E+02  0.90572966176E+02 0.  0.
         11    1    3    3    0    0  0.15747676259E+02  0.18423096978E+02 -0.27503576290E+02  0.36658512229E+02  0.51100000000E-03 0. -1.
         22    1    1    0    0    0  0.24468548633E+02  0.16540431111E+02  0.29953028307E+01  0.29686151192E+02  0.00000000000E+00 0.  1.
</event>
<event>
 5    1  0.1681111E-003  0.9118800E+02  0.7818608E-02  0.1130116E+00
         25   -1    0    0    0    0  0.00000000000E+00  0.00000000000E+00  0.99999998245E-14  0.12500000000E+03  0.12500000000E+03 0.  0.
        -11    1    3    3    0    0 -0.17096384515E+02  0.20509343514E+02  0.44054022149E+02  0.51513846707E+02  0.51100000000E-03 0.  1.
         23    2    1    0    0    0 -0.23229129631E+02  0.49079455194E+01 -0.26266072216E+01  0.10111319490E+03  0.98251202149E+02 0.  0.
         11    1    3    3    0    0 -0.61327451157E+01 -0.15601397994E+02 -0.46680629370E+02  0.49599348188E+02  0.51100000000E-03 0. -1.
         22    1    1    0    0    0  0.23229129631E+02 -0.49079455194E+01  0.26266072216E+01  0.23886805105E+02  0.00000000000E+00 0. -1.
</event>
<event>
 5    1  0.1681111E-003  0.9118800E+02  0.7818608E-02  0.1130116E+00
         25   -1    0    0    0    0  0.00000000000E+00  0.00000000000E+00  0.99999998245E-14  0.12500000000E+03  0.12500000000E+03 0.  0.
        -11    1    3    3    0    0  0.37427355456E+02  0.15972031561E+01  0.51418796703E+00  0.37464948737E+02  0.51100000000E-03 0.  1.
         23    2    1    0    0    0 -0.69914372164E+01  0.19149776633E+02  0.26285637616E+02  0.91735471079E+02  0.85491916401E+02 0.  0.
         11    1    3    3    0    0 -0.44418792672E+02  0.17552573477E+02  0.25771449649E+02  0.54270522343E+02  0.51100000000E-03 0. -1.
         22    1    1    0    0    0  0.69914372164E+01 -0.19149776633E+02 -0.26285637616E+02  0.33264528921E+02  0.00000000000E+00 0. -1.
</event>
<event>
 5    1  0.1681111E-003  0.9118800E+02  0.7818608E-02  0.1130116E+00
         25   -1    0    0    0    0  0.00000000000E+00  0.00000000000E+00  0.99999998245E-14  0.12500000000E+03  0.12500000000E+03 0.  0.
        -11    1    3    3    0    0 -0.14369395556E+02  0.72815813665E+01  0.35813798547E+02  0.39269951904E+02  0.51100000000E-03 0.  1.
         23    2    1    0    0    0  0.23277909681E+01 -0.19121765108E+02 -0.16124215332E+02  0.99879274857E+02  0.96668602526E+02 0.  0.
         11    1    3    3    0    0  0.16697186524E+02 -0.26403346475E+02 -0.51938013879E+02  0.60609322953E+02  0.51100000000E-03 0. -1.
         22    1    1    0    0    0 -0.23277909681E+01  0.19121765108E+02  0.16124215332E+02  0.25120725143E+02  0.00000000000E+00 0. -1.
</event>
<event>
 5    1  0.1681111E-003  0.9118800E+02  0.7818608E-02  0.1130116E+00
         25   -1    0    0    0    0  0.00000000000E+00  0.00000000000E+00  0.99999998245E-14  0.12500000000E+03  0.12500000000E+03 0.  0.
        -11    1    3    3    0    0 -0.33834221115E+02 -0.23236898581E+02 -0.39528092109E+01  0.41235090336E+02  0.51100000000E-03 0.  1.
         23    2    1    0    0    0 -0.35938898342E+01  0.80831296558E+01  0.28256616496E+02  0.95391058699E+02  0.90679461152E+02 0.  0.
         11    1    3    3    0    0  0.30240331281E+02  0.31320028236E+02  0.32209425706E+02  0.54155968363E+02  0.51100000000E-03 0. -1.
         22    1    1    0    0    0  0.35938898342E+01 -0.80831296558E+01 -0.28256616496E+02  0.29608941301E+02  0.00000000000E+00 0. -1.
</event>
<event>
 5    1  0.1681111E-003  0.9118800E+02  0.7818608E-02  0.1130116E+00
         25   -1    0    0    0    0  0.00000000000E+00  0.00000000000E+00  0.99999998245E-14  0.12500000000E+03  0.12500000000E+03 0.  0.
        -11    1    3    3    0    0 -0.41024538314E+02 -0.27601594565E+02 -0.24374092554E+02  0.55126737202E+02  0.51100000000E-03 0.  1.
         23    2    1    0    0    0 -0.22271541416E+02 -0.17614151846E+02  0.94528860963E+01  0.95072805714E+02  0.90239688765E+02 0.  0.
         11    1    3    3    0    0  0.18752996898E+02  0.99874427188E+01  0.33826978650E+02  0.39946068512E+02  0.51100000000E-03 0. -1.
         22    1    1    0    0    0  0.22271541416E+02  0.17614151846E+02 -0.94528860963E+01  0.29927194286E+02  0.00000000000E+00 0.  1.
</event>
<event>
 5    1  0.1681111E-003  0.9118800E+02  0.7818608E-02  0.1130116E+00
         25   -1    0    0    0    0  0.00000000000E+00  0.00000000000E+00  0.99999998245E-14  0.12500000000E+03  0.12500000000E+03 0.  0.
        -11    1    3    3    0    0 -0.12283532095E+02 -0.14341557447E+02 -0.32331824998E+02  0.37442119848E+02  0.51100000000E-03 0. -1.
         23    2    1    0    0    0  0.15846287019E+02  0.23389968486E+02  0.34150673824E+01  0.96541993687E+02  0.92252362690E+02 0.  0.
         11    1    3    3    0    0  0.28129819114E+02  0.37731525934E+02  0.35746892381E+02  0.59099873839E+02  0.51100000000E-03 0.  1.
         22    1    1    0    0    0 -0.15846287019E+02 -0.23389968486E+02 -0.34150673824E+01  0.28458006313E+02  0.00000000000E+00 0.  1.
</event>
<event>
 5    1  0.1681111E-003  0.9118800E+02  0.7818608E-02  0.1130116E+00
         25   -1    0    0    0    0  0.00000000000E+00  0.00000000000E+00  0.99999998245E-14  0.12500000000E+03  0.12500000000E+03 0.  0.
        -11    1    3    3    0    0  0.33123408658E+02 -0.26571136849E+02 -0.84867223068E+01  0.43303694651E+02  0.51100000000E-03 0. -1.
         23    2    1    0    0    0  0.64956798660E+01  0.17632502061E+02 -0.21421929642E+02  0.96504420423E+02  0.92201437655E+02 0.  0.
         11    1    3    3    0    0 -0.26627728792E+02  0.44203638911E+02 -0.12935207335E+02  0.53200725772E+02  0.51100000000E-03 0.  1.
         22    1    1    0    0    0 -0.64956798660E+01 -0.17632502061E+02  0.21421929642E+02  0.28495579577E+02  0.00000000000E+00 0. -1.
</event>
<event>
 5    1  0.1681111E-003  0.9118800E+02  0.7818608E-02  0.1130116E+00
         25   -1    0    0    0    0  0.00000000000E+00  0.00000000000E+00  0.99999998245E-14  0.12500000000E+03  0.12500000000E+03 0.  0.
        -11    1    3    3    0    0 -0.56592738937E+01  0.98999574572E+01  0.38926639138E+02  0.40562541507E+02  0.51100000000E-03 0.  1.
         23    2    1    0    0    0  0.20730601875E+02 -0.20299691469E+02  0.68564789738E+00  0.95977501126E+02  0.91484289807E+02 0.  0.
         11    1    3    3    0    0  0.26389875769E+02 -0.30199648926E+02 -0.38240991240E+02  0.55414959620E+02  0.51100000000E-03 0. -1.
         22    1    1    0    0    0 -0.20730601875E+02  0.20299691469E+02 -0.68564789738E+00  0.29022498874E+02  0.00000000000E+00 0. -1.
</event>
<event>
 5    1  0.1681111E-003  0.9118800E+02  0.7818608E-02  0.1130116E+00
         25   -1    0    0    0    0  0.00000000000E+00  0.00000000000E+00  0.99999998245E-14  0.12500000000E+03  0.12500000000E+03 0.  0.
        -11    1    3    3    0    0  0.19556582179E+02 -0.21454240612E+02 -0.40734428409E+01  0.29314455199E+02  0.51100000000E-03 0.  1.
         23    2    1    0    0    0 -0.28716705371E+02  0.15050372187E+02  0.92482334631E+01  0.91285126539E+02  0.84830900235E+02 0.  0.
         11    1    3    3    0    0 -0.48273287550E+02  0.36504612799E+02  0.13321676304E+02  0.61970671340E+02  0.51100000000E-03 0. -1.
         22    1    1    0    0    0  0.28716705371E+02 -0.15050372187E+02 -0.92482334631E+01  0.33714873461E+02  0.00000000000E+00 0. -1.
</event>
<event>
 5    1  0.1681111E-003  0.9118800E+02  0.7818608E-02  0.1130116E+00
         25   -1    0    0    0    0  0.00000000000E+00  0.00000000000E+00  0.99999998245E-14  0.12500000000E+03  0.12500000000E+03 0.  0.
        -11    1    3    3    0    0 -0.24285281849E+02 -0.15956619213E+02  0.19373662968E+02  0.34924596322E+02  0.51100000000E-03 0.  1.
         23    2    1    0    0    0  0.27201801486E+02 -0.12434938636E+02 -0.89327858090E+01  0.93785254041E+02  0.88438190338E+02 0.  0.
         11    1    3    3    0    0  0.51487083335E+02  0.35216805775E+01 -0.28306448777E+02  0.58860657719E+02  0.51100000000E-03 0. -1.
         22    1    1    0    0    0 -0.27201801486E+02  0.12434938636E+02  0.89327858090E+01  0.31214745959E+02  0.00000000000E+00 0. -1.
</event>
<event>
 5    1  0.1681111E-003  0.9118800E+02  0.7818608E-02  0.1130116E+00
         25   -1    0    0    0    0  0.00000000000E+00  0.00000000000E+00  0.99999998245E-14  0.12500000000E+03  0.12500000000E+03 0.  0.
        -11    1    3    3    0    0 -0.26605287627E+02 -0.49122457171E+02  0.19472711933E+02  0.59161166643E+02  0.51100000000E-03 0. -1.
         23    2    1    0    0    0 -0.12271448052E+02 -0.11533434231E+02  0.19293029781E+02  0.99390830928E+02  0.96034929749E+02 0.  0.
         11    1    3    3    0    0  0.14333839575E+02  0.37589022940E+02 -0.17968215197E+00  0.40229664285E+02  0.51100000000E-03 0.  1.
         22    1    1    0    0    0  0.12271448052E+02  0.11533434231E+02 -0.19293029781E+02  0.25609169072E+02  0.00000000000E+00 0. -1.
</event>
<event>
 5    1  0.1681111E-003  0.9118800E+02  0.7818608E-02  0.1130116E+00
         25   -1    0    0    0    0  0.00000000000E+00  0.00000000000E+00  0.99999998245E-14  0.12500000000E+03  0.12500000000E+03 0.  0.
        -11    1    3    3    0    0 -0.17769494293E+02  0.27771420641E+02  0.20930497779E+02  0.39052432311E+02  0.51100000000E-03 0.  1.
         23    2    1    0    0    0 -0.21051225976E+02 -0.15025759623E+02 -0.15063284092E+02  0.95069579105E+02  0.90235219157E+02 0.  0.
         11    1    3    3    0    0 -0.32817316828E+01 -0.42797180264E+02 -0.35993781871E+02  0.56017146794E+02  0.51100000000E-03 0. -1.
         22    1    1    0    0    0  0.21051225976E+02  0.15025759623E+02  0.15063284092E+02  0.29930420895E+02  0.00000000000E+00 0. -1.
</event>
<event>
 5    1  0.1681111E-003  0.9118800E+02  0.7818608E-02  0.1130116E+00
         25   -1    0    0    0    0  0.00000000000E+00  0.00000000000E+00  0.99999998245E-14  0.12500000000E+03  0.12500000000E+03 0.  0.
        -11    1    3    3    0    0 -0.20029181496E+02  0.22624112027E+02  0.52035159823E+02  0.60172056758E+02  0.51100000000E-03 0. -1.
         23    2    1    0    0    0 -0.20063681406E+02  0.68350398208E+01  0.20139138274E+02  0.95762114110E+02  0.91189519834E+02 0.  0.
         11    1    3    3    0    0 -0.34499909152E-01 -0.15789072206E+02 -0.31896021549E+02  0.35590057352E+02  0.51100000000E-03 0.  1.
         22    1    1    0    0    0  0.20063681406E+02 -0.68350398208E+01 -0.20139138274E+02  0.29237885890E+02  0.00000000000E+00 0. -1.
</event>
<event>
 5    1  0.1681111E-003  0.9118800E+02  0.7818608E-02  0.1130116E+00
         25   -1    0    0    0    0  0.00000000000E+00  0.00000000000E+00  0.99999998245E-14  0.12500000000E+03  0.12500000000E+03 0.  0.
        -11    1    3    3    0    0  0.33482923731E+02  0.35552054225E+02 -0.31706943942E+02  0.58227012937E+02  0.51100000000E-03 0. -1.
         23    2    1    0    0    0  0.27815812432E+02  0.75751734378E+01 -0.87075239615E+01  0.94884826957E+02  0.89978923862E+02 0.  0.
         11    1    3    3    0    0 -0.56671112988E+01 -0.27976880787E+02  0.22999419980E+02  0.36657814020E+02  0.51100000000E-03 0.  1.
         22    1    1    0    0    0 -0.27815812432E+02 -0.75751734378E+01  0.87075239615E+01  0.30115173043E+02  0.00000000000E+00 0. -1.
</event>
<event>
 5    1  0.1681111E-003  0.9118800E+02  0.7818608E-02  0.1130116E+00
         25   -1    0    0    0    0  0.00000000000E+00  0.00000000000E+00  0.99999998245E-14  0.12500000000E+03  0.12500000000E+03 0.  0.
        -11    1    3    3    0    0 -0.13973651320E+01 -0.46098693180E+02 -0.37559518234E+02  0.59479068188E+02  0.51100000000E-03 0.  1.
         23    2    1    0    0    0 -0.13510048952E+02 -0.16330785396E+02 -0.18655135291E+02  0.96764737524E+02  0.92553683779E+02 0.  0.
         11    1    3    3    0    0 -0.12112683820E+02  0.29767907784E+02  0.18904382943E+02  0.37285669336E+02  0.51100000000E-03 0. -1.
         22    1    1    0    0    0  0.13510048952E+02  0.16330785396E+02  0.18655135291E+02  0.28235262476E+02  0.00000000000E+00 0.  1.
</event>
<event>
 5    1  0.1681111E-003  0.9118800E+02  0.7818608E-02  0.1130116E+00
         25   -1    0    0    0    0  0.00000000000E+00  0.00000000000E+00  0.99999998245E-14  0.12500000000E+03  0.12500000000E+03 0.  0.
        -11    1    3    3    0    0 -0.49060100799E+01 -0.57553776654E+02 -0.50284281696E+01  0.57980955771E+02  0.51100000000E-03 0. -1.
         23    2    1    0    0    0 -0.17927854836E+02 -0.19468040392E+02 -0.39147462411E+01  0.98246723306E+02  0.94534019414E+02 0.  0.
         11    1    3    3    0    0 -0.13021844757E+02  0.38085736262E+02  0.11136819285E+01  0.40265767535E+02  0.51100000000E-03 0.  1.
         22    1    1    0    0    0  0.17927854836E+02  0.19468040392E+02  0.39147462411E+01  0.26753276694E+02  0.00000000000E+00 0. -1.
</event>
<event>
 5    1  0.1681111E-003  0.9118800E+02  0.7818608E-02  0.1130116E+00
         25   -1    0    0    0    0  0.00000000000E+00  0.00000000000E+00  0.99999998245E-14  0.12500000000E+03  0.12500000000E+03 0.  0.
        -11    1    3    3    0    0  0.33402848370E+02  0.88424644840E+01  0.13688315164E+02  0.37165971394E+02  0.51100000000E-03 0. -1.
         23    2    1    0    0    0 -0.12353789956E+02 -0.25856324290E+02  0.97676493461E+01  0.94725049862E+02  0.89756684796E+02 0.  0.
         11    1    3    3    0    0 -0.45756638327E+02 -0.34698788774E+02 -0.39206658177E+01  0.57559078468E+02  0.51100000000E-03 0.  1.
         22    1    1    0    0    0  0.12353789956E+02  0.25856324290E+02 -0.97676493461E+01  0.30274950138E+02  0.00000000000E+00 0.  1.
</event>
<event>
 5    1  0.1681111E-003  0.9118800E+02  0.7818608E-02  0.1130116E+00
         25   -1    0    0    0    0  0.00000000000E+00  0.00000000000E+00  0.99999998245E-14  0.12500000000E+03  0.12500000000E+03 0.  0.
        -11    1    3    3    0    0  0.54178999377E+02  0.27103433007E+02 -0.14826291645E+02  0.62368092631E+02  0.51100000000E-03 0.  1.
         23    2    1    0    0    0  0.18970083542E+02  0.11857698302E+02 -0.73055071349E+01  0.10146620487E+03  0.98699296948E+02 0.  0.
         11    1    3    3    0    0 -0.35208915835E+02 -0.15245734705E+02  0.75207845103E+01  0.39098112242E+02  0.51100000000E-03 0. -1.
         22    1    1    0    0    0 -0.18970083542E+02 -0.11857698302E+02  0.73055071349E+01  0.23533795127E+02  0.00000000000E+00 0.  1.
</event>
<event>
 5    1  0.1681111E-003  0.9118800E+02  0.7818608E-02  0.1130116E+00
         25   -1    0    0    0    0  0.00000000000E+00  0.00000000000E+00  0.99999998245E-14  0.12500000000E+03  0.12500000000E+03 0.  0.
        -11    1    3    3    0    0 -0.35311150317E+01  0.33648620064E+02 -0.89902379860E+01  0.35007467559E+02  0.51100000000E-03 0.  1.
         23    2    1    0    0    0 -0.58304188077E+01 -0.18135633843E+02  0.22390999892E+02  0.95601838927E+02  0.90969553872E+02 0.  0.
         11    1    3    3    0    0 -0.22993037761E+01 -0.51784253906E+02  0.31381237878E+02  0.60594371368E+02  0.51100000000E-03 0. -1.
         22    1    1    0    0    0  0.58304188077E+01  0.18135633843E+02 -0.22390999892E+02  0.29398161073E+02  0.00000000000E+00 0. -1.
</event>
<event>
 5    1  0.1681111E-003  0.9118800E+02  0.7818608E-02  0.1130116E+00
         25   -1    0    0    0    0  0.00000000000E+00  0.00000000000E+00  0.99999998245E-14  0.12500000000E+03  0.12500000000E+03 0.  0.
        -11    1    3    3    0    0 -0.32505435309E+02 -0.80140729240E+01 -0.17724210602E+00  0.33479248864E+02  0.51100000000E-03 0.  1.
         23    2    1    0    0    0  0.23743381233E+02  0.13226949692E+02  0.12749877847E+02  0.94979011748E+02  0.90109671717E+02 0.  0.
         11    1    3    3    0    0  0.56248816543E+02  0.21241022616E+02  0.12927119953E+02  0.61499762884E+02  0.51100000000E-03 0. -1.
         22    1    1    0    0    0 -0.23743381233E+02 -0.13226949692E+02 -0.12749877847E+02  0.30020988252E+02  0.00000000000E+00 0. -1.
</event>
<event>
 5    1  0.1681111E-003  0.9118800E+02  0.7818608E-02  0.1130116E+00
         25   -1    0    0    0    0  0.00000000000E+00  0.00000000000E+00  0.99999998245E-14  0.12500000000E+03  0.12500000000E+03 0.  0.
        -11    1    3    3    0    0 -0.63318358747E+01 -0.35543950090E+02  0.36407208247E+02  0.51273281016E+02  0.51100000000E-03 0. -1.
         23    2    1    0    0    0 -0.52725598653E+01  0.84394427273E+01  0.26946034458E+02  0.96275222297E+02  0.91890182143E+02 0.  0.
         11    1    3    3    0    0  0.10592760095E+01  0.43983392817E+02 -0.94611737895E+01  0.45001941281E+02  0.51100000000E-03 0.  1.
         22    1    1    0    0    0  0.52725598653E+01 -0.84394427273E+01 -0.26946034458E+02  0.28724777703E+02  0.00000000000E+00 0. -1.
</event>
<event>
 5    1  0.1681111E-003  0.9118800E+02  0.7818608E-02  0.1130116E+00
         25   -1    0    0    0    0  0.00000000000E+00  0.00000000000E+00  0.99999998245E-14  0.12500000000E+03  0.12500000000E+03 0.  0.
        -11    1    3    3    0    0 -0.14679488931E+02 -0.17877767870E+02  0.35348574254E+02  0.42244806560E+02  0.51100000000E-03 0. -1.
         23    2    1    0    0    0 -0.13719980433E+01  0.26654501332E+02  0.21457350207E+02  0.90754376954E+02  0.84045191644E+02 0.  0.
         11    1    3    3    0    0  0.13307490888E+02  0.44532269202E+02 -0.13891224047E+02  0.48509570394E+02  0.51100000000E-03 0.  1.
         22    1    1    0    0    0  0.13719980433E+01 -0.26654501332E+02 -0.21457350207E+02  0.34245623046E+02  0.00000000000E+00 0. -1.
</event>
<event>
 5    1  0.1681111E-003  0.9118800E+02  0.7818608E-02  0.1130116E+00
         25   -1    0    0    0    0  0.00000000000E+00  0.00000000000E+00  0.99999998245E-14  0.12500000000E+03  0.12500000000E+03 0.  0.
        -11    1    3    3    0    0  0.14468674459E+02  0.32146500445E+01  0.36959632315E+02  0.39820735008E+02  0.51100000000E-03 0. -1.
         23    2    1    0    0    0  0.20631059403E+02 -0.11208001712E+02 -0.16999506450E+02  0.96013052351E+02  0.91532852505E+02 0.  0.
         11    1    3    3    0    0  0.61623849444E+01 -0.14422651756E+02 -0.53959138764E+02  0.56192317343E+02  0.51100000000E-03 0.  1.
         22    1    1    0    0    0 -0.20631059403E+02  0.11208001712E+02  0.16999506450E+02  0.28986947649E+02  0.00000000000E+00 0.  1.
</event>
<event>
 5    1  0.1681111E-003  0.9118800E+02  0.7818608E-02  0.1130116E+00
         25   -1    0    0    0    0  0.00000000000E+00  0.00000000000E+00  0.99999998245E-14  0.12500000000E+03  0.12500000000E+03 0.  0.
        -11    1    3    3    0    0  0.18943648074E+02 -0.54815633567E+02  0.35087817150E+01  0.58102728293E+02  0.51100000000E-03 0. -1.
         23    2    1    0    0    0 -0.65946202575E+01 -0.28339913414E+02  0.70585113238E+01  0.95059019876E+02  0.90220590605E+02 0.  0.
         11    1    3    3    0    0 -0.25538268331E+02  0.26475720153E+02  0.35497296088E+01  0.36956291583E+02  0.51100000000E-03 0.  1.
         22    1    1    0    0    0  0.65946202575E+01  0.28339913414E+02 -0.70585113238E+01  0.29940980124E+02  0.00000000000E+00 0. -1.
</event>
<event>
 5    1  0.1681111E-003  0.9118800E+02  0.7818608E-02  0.1130116E+00
         25   -1    0    0    0    0  0.00000000000E+00  0.00000000000E+00  0.99999998245E-14  0.12500000000E+03  0.12500000000E+03 0.  0.
        -11    1    3    3    0    0  0.35796407309E+02  0.98014142824E+01  0.14680780015E+01  0.37143044456E+02  0.51100000000E-03 0. -1.
         23    2    1    0    0    0 -0.13343005598E+02  0.27167632685E+02 -0.14202915531E+02  0.91565902530E+02  0.85243625172E+02 0.  0.
         11    1    3    3    0    0 -0.49139412906E+02  0.17366218402E+02 -0.15670993533E+02  0.54422858074E+02  0.51100000000E-03 0.  1.
         22    1    1    0    0    0  0.13343005598E+02 -0.27167632685E+02  0.14202915531E+02  0.33434097470E+02  0.00000000000E+00 0.  1.
</event>
<event>
 5    1  0.1681111E-003  0.9118800E+02  0.7818608E-02  0.1130116E+00
         25   -1    0    0    0    0  0.00000000000E+00  0.00000000000E+00  0.99999998245E-14  0.12500000000E+03  0.12500000000E+03 0.  0.
        -11    1    3    3    0    0  0.12588375240E+01 -0.12309643081E+02 -0.31873927161E+02  0.34191507975E+02  0.51100000000E-03 0.  1.
         23    2    1    0    0    0  0.82686410533E+01  0.15991368444E+02  0.22677369136E+02  0.96045598598E+02  0.91577287848E+02 0.  0.
         11    1    3    3    0    0  0.70098035293E+01  0.28301011525E+02  0.54551296297E+02  0.61854090623E+02  0.51100000000E-03 0. -1.
         22    1    1    0    0    0 -0.82686410533E+01 -0.15991368444E+02 -0.22677369136E+02  0.28954401402E+02  0.00000000000E+00 0. -1.
</event>
<event>
 5    1  0.1681111E-003  0.9118800E+02  0.7818608E-02  0.1130116E+00
         25   -1    0    0    0    0  0.00000000000E+00  0.00000000000E+00  0.99999998245E-14  0.12500000000E+03  0.12500000000E+03 0.  0.
        -11    1    3    3    0    0  0.35723639260E+02 -0.20631707363E+02  0.37485738539E+02  0.55740706353E+02  0.51100000000E-03 0.  1.
         23    2    1    0    0    0  0.31108505616E+02 -0.82379699323E-01  0.64791215346E+01  0.93223830880E+02  0.87641073248E+02 0.  0.
         11    1    3    3    0    0 -0.46151336437E+01  0.20549327664E+02 -0.31006617004E+02  0.37483124527E+02  0.51100000000E-03 0. -1.
         22    1    1    0    0    0 -0.31108505616E+02  0.82379699323E-01 -0.64791215346E+01  0.31776169120E+02  0.00000000000E+00 0.  1.
</event>
<event>
 5    1  0.1681111E-003  0.9118800E+02  0.7818608E-02  0.1130116E+00
         25   -1    0    0    0    0  0.00000000000E+00  0.00000000000E+00  0.99999998245E-14  0.12500000000E+03  0.12500000000E+03 0.  0.
        -11    1    3    3    0    0  0.34653317567E+02  0.75219225219E+01 -0.25414056774E+02  0.43626895590E+02  0.51100000000E-03 0. -1.
         23    2    1    0    0    0 -0.76032182532E+01  0.28021743173E+02 -0.25780500000E+01  0.95850842893E+02  0.91311065721E+02 0.  0.
         11    1    3    3    0    0 -0.42256535820E+02  0.20499820651E+02  0.22836006774E+02  0.52223947303E+02  0.51100000000E-03 0.  1.
         22    1    1    0    0    0  0.76032182532E+01 -0.28021743173E+02  0.25780500000E+01  0.29149157107E+02  0.00000000000E+00 0.  1.
</event>
<event>
 5    1  0.1681111E-003  0.9118800E+02  0.7818608E-02  0.1130116E+00
         25   -1    0    0    0    0  0.00000000000E+00  0.00000000000E+00  0.99999998245E-14  0.12500000000E+03  0.12500000000E+03 0.  0.
        -11    1    3    3    0    0 -0.23452893779E+02 -0.30596654247E+02 -0.45965213330E+02  0.59991618702E+02  0.51100000000E-03 0. -1.
         23    2    1    0    0    0 -0.16524448864E+02 -0.20878133665E+02 -0.12376384717E+02  0.95637970536E+02  0.91019188273E+02 0.  0.
         11    1    3    3    0    0  0.69284449145E+01  0.97185205822E+01  0.33588828613E+02  0.35646351834E+02  0.51100000000E-03 0.  1.
         22    1    1    0    0    0  0.16524448864E+02  0.20878133665E+02  0.12376384717E+02  0.29362029464E+02  0.00000000000E+00 0. -1.
</event>
<event>
 5    1  0.1681111E-003  0.9118800E+02  0.7818608E-02  0.1130116E+00
         25   -1    0    0    0    0  0.00000000000E+00  0.00000000000E+00  0.99999998245E-14  0.12500000000E+03  0.12500000000E+03 0.  0.
        -11    1    3    3    0    0 -0.56353661823E+02 -0.14516804976E+02  0.18838429380E+01  0.58223892794E+02  0.51100000000E-03 0.  1.
         23    2    1    0    0    0 -0.19336842134E+02 -0.17547044627E+02 -0.97246028999E+01  0.97136401158E+02  0.93054286788E+02 0.  0.
         11    1    3    3    0    0  0.37016819689E+02 -0.30302396502E+01 -0.11608445838E+02  0.38912508365E+02  0.51100000000E-03 0. -1.
         22    1    1    0    0    0  0.19336842134E+02  0.17547044627E+02  0.97246028999E+01  0.27863598842E+02  0.00000000000E+00 0.  1.
</event>
<event>
 5    1  0.1681111E-003  0.9118800E+02  0.7818608E-02  0.1130116E+00
         25   -1    0    0    0    0  0.00000000000E+00  0.00000000000E+00  0.99999998245E-14  0.12500000000E+03  0.12500000000E+03 0.  0.
        -11    1    3    3    0    0 -0.26940143365E+02 -0.47184793855E+02 -0.97732298261E+00  0.54342720360E+02  0.51100000000E-03 0.  1.
         23    2    1    0    0    0 -0.22979057787E+02 -0.90050948598E+01 -0.16027002605E+02  0.95572230075E+02  0.90928859659E+02 0.  0.
         11    1    3    3    0    0  0.39610855775E+01  0.38179698996E+02 -0.15049679622E+02  0.41229509715E+02  0.51100000000E-03 0. -1.
         22    1    1    0    0    0  0.22979057787E+02  0.90050948598E+01  0.16027002605E+02  0.29427769925E+02  0.00000000000E+00 0.  1.
</event>
<event>
 5    1  0.1681111E-003  0.9118800E+02  0.7818608E-02  0.1130116E+00
         25   -1    0    0    0    0  0.00000000000E+00  0.00000000000E+00  0.99999998245E-14  0.12500000000E+03  0.12500000000E+03 0.  0.
        -11    1    3    3    0    0  0.16782736344E+02 -0.43554413110E+02  0.55545554562E+01  0.47005321264E+02  0.51100000000E-03 0. -1.
         23    2    1    0    0    0  0.98647742773E+01 -0.83328510033E+01 -0.26750085755E+02  0.95296174232E+02  0.90548570160E+02 0.  0.
         11    1    3    3    0    0 -0.69179620668E+01  0.35221562106E+02 -0.32304641211E+02  0.48290852968E+02  0.51100000000E-03 0.  1.
         22    1    1    0    0    0 -0.98647742773E+01  0.83328510033E+01  0.26750085755E+02  0.29703825768E+02  0.00000000000E+00 0. -1.
</event>
<event>
 4    1  0.1681111E-003  0.9118800E+02  0.7818608E-02  0.1130116E+00
         25   -1    0    0    0    0  0.00000000000E+00  0.00000000000E+00  0.99999998245E-14  0.12500000000E+03  0.12500000000E+03 0.  0.
        -11    1    1    0    0    0  0.11724954650E+02  0.11737823846E+02  0.55075439062E+02  0.57520040493E+02  0.51100000000E-03 0. -1.
         11    1    1    0    0    0  0.44282663797E+01 -0.10653549247E+02 -0.16490241528E+01  0.11654481353E+02  0.51100000000E-03 0.  1.
         22    1    1    0    0    0 -0.16153221030E+02 -0.10842745992E+01 -0.53426414910E+02  0.55825478154E+02  0.00000000000E+00 0. -1.
</event>
<event>
 5    1  0.1681111E-003  0.9118800E+02  0.7818608E-02  0.1130116E+00
         25   -1    0    0    0    0  0.00000000000E+00  0.00000000000E+00  0.99999998245E-14  0.12500000000E+03  0.12500000000E+03 0.  0.
        -11    1    3    3    0    0 -0.17546943051E+01 -0.29651155353E+02  0.31000980504E+02  0.42934027977E+02  0.51100000000E-03 0.  1.
         23    2    1    0    0    0 -0.26879826662E+02  0.97922102171E+01  0.67816574428E+01  0.95599262935E+02  0.90966014169E+02 0.  0.
         11    1    3    3    0    0 -0.25125132356E+02  0.39443365570E+02 -0.24219323061E+02  0.52665234958E+02  0.51100000000E-03 0. -1.
         22    1    1    0    0    0  0.26879826662E+02 -0.97922102171E+01 -0.67816574428E+01  0.29400737065E+02  0.00000000000E+00 0. -1.
</event>
<event>
 5    1  0.1681111E-003  0.9118800E+02  0.7818608E-02  0.1130116E+00
         25   -1    0    0    0    0  0.00000000000E+00  0.00000000000E+00  0.99999998245E-14  0.12500000000E+03  0.12500000000E+03 0.  0.
        -11    1    3    3    0    0 -0.20976435651E+02  0.13068760956E+02  0.36078645715E+01  0.24976389902E+02  0.51100000000E-03 0.  1.
         23    2    1    0    0    0  0.30131857597E+02 -0.14061596984E+02 -0.18535256506E+02  0.86931468564E+02  0.78152844740E+02 0.  0.
         11    1    3    3    0    0  0.51108293248E+02 -0.27130357940E+02 -0.22143121077E+02  0.61955078661E+02  0.51100000000E-03 0. -1.
         22    1    1    0    0    0 -0.30131857597E+02  0.14061596984E+02  0.18535256506E+02  0.38068531436E+02  0.00000000000E+00 0. -1.
</event>
<event>
 5    1  0.1681111E-003  0.9118800E+02  0.7818608E-02  0.1130116E+00
         25   -1    0    0    0    0  0.00000000000E+00  0.00000000000E+00  0.99999998245E-14  0.12500000000E+03  0.12500000000E+03 0.  0.
        -11    1    3    3    0    0  0.11631608586E+02 -0.34145051151E+02 -0.50783507606E+02  0.62290797727E+02  0.51100000000E-03 0.  1.
         23    2    1    0    0    0  0.27397238097E+01 -0.14725317897E+02 -0.25873076210E+02  0.95104228622E+02  0.90283205279E+02 0.  0.
         11    1    3    3    0    0 -0.88918847760E+01  0.19419733254E+02  0.24910431396E+02  0.32813430896E+02  0.51100000000E-03 0. -1.
         22    1    1    0    0    0 -0.27397238097E+01  0.14725317897E+02  0.25873076210E+02  0.29895771378E+02  0.00000000000E+00 0.  1.
</event>
<event>
 5    1  0.1681111E-003  0.9118800E+02  0.7818608E-02  0.1130116E+00
         25   -1    0    0    0    0  0.00000000000E+00  0.00000000000E+00  0.99999998245E-14  0.12500000000E+03  0.12500000000E+03 0.  0.
        -11    1    3    3    0    0 -0.20787264753E+02 -0.10679766535E+02  0.27781453972E+02  0.36303952598E+02  0.51100000000E-03 0.  1.
         23    2    1    0    0    0  0.74721522650E+01 -0.21949049522E+02 -0.20948991341E+02  0.93751734887E+02  0.88390801115E+02 0.  0.
         11    1    3    3    0    0  0.28259417018E+02 -0.11269282987E+02 -0.48730445313E+02  0.57447782289E+02  0.51100000000E-03 0. -1.
         22    1    1    0    0    0 -0.74721522650E+01  0.21949049522E+02  0.20948991341E+02  0.31248265113E+02  0.00000000000E+00 0. -1.
</event>
<event>
 5    1  0.1681111E-003  0.9118800E+02  0.7818608E-02  0.1130116E+00
         25   -1    0    0    0    0  0.00000000000E+00  0.00000000000E+00  0.99999998245E-14  0.12500000000E+03  0.12500000000E+03 0.  0.
        -11    1    3    3    0    0 -0.13804966632E+02  0.28800305801E+02  0.46765459943E+02  0.56630759856E+02  0.51100000000E-03 0. -1.
         23    2    1    0    0    0 -0.15612165310E+02  0.22886111476E+02  0.76124829317E+01  0.96269115911E+02  0.91881875132E+02 0.  0.
         11    1    3    3    0    0 -0.18071986785E+01 -0.59141943257E+01 -0.39152977012E+02  0.39638356055E+02  0.51100000000E-03 0.  1.
         22    1    1    0    0    0  0.15612165310E+02 -0.22886111476E+02 -0.76124829317E+01  0.28730884089E+02  0.00000000000E+00 0. -1.
</event>
<event>
 5    1  0.1681111E-003  0.9118800E+02  0.7818608E-02  0.1130116E+00
         25   -1    0    0    0    0  0.00000000000E+00  0.00000000000E+00  0.99999998245E-14  0.12500000000E+03  0.12500000000E+03 0.  0.
        -11    1    3    3    0    0 -0.12649843287E+02  0.26845241695E+02  0.35963242226E+01  0.29893462245E+02  0.51100000000E-03 0.  1.
         23    2    1    0    0    0  0.14731826362E+02 -0.13495850601E+02 -0.29894328813E+02  0.89043977047E+02  0.81461612197E+02 0.  0.
         11    1    3    3    0    0  0.27381669648E+02 -0.40341092295E+02 -0.33490653036E+02  0.59150514802E+02  0.51100000000E-03 0. -1.
         22    1    1    0    0    0 -0.14731826362E+02  0.13495850601E+02  0.29894328813E+02  0.35956022953E+02  0.00000000000E+00 0. -1.
</event>
<event>
 5    1  0.1681111E-003  0.9118800E+02  0.7818608E-02  0.1130116E+00
         25   -1    0    0    0    0  0.00000000000E+00  0.00000000000E+00  0.99999998245E-14  0.12500000000E+03  0.12500000000E+03 0.  0.
        -11    1    3    3    0    0 -0.44893746077E+02 -0.41028064801E+02 -0.13598109346E+02  0.62319010873E+02  0.51100000000E-03 0.  1.
         23    2    1    0    0    0 -0.22958911753E+02 -0.16530210140E+02 -0.56029477290E+01  0.96159880385E+02  0.91733146116E+02 0.  0.
         11    1    3    3    0    0  0.21934834324E+02  0.24497854661E+02  0.79951616173E+01  0.33840869513E+02  0.51100000000E-03 0. -1.
         22    1    1    0    0    0  0.22958911753E+02  0.16530210140E+02  0.56029477290E+01  0.28840119615E+02  0.00000000000E+00 0.  1.
</event>
<event>
 5    1  0.1681111E-003  0.9118800E+02  0.7818608E-02  0.1130116E+00
         25   -1    0    0    0    0  0.00000000000E+00  0.00000000000E+00  0.99999998245E-14  0.12500000000E+03  0.12500000000E+03 0.  0.
        -11    1    3    3    0    0 -0.26670490273E+01 -0.34513600071E+02 -0.91299839920E+01  0.35800256261E+02  0.51100000000E-03 0. -1.
         23    2    1    0    0    0 -0.13925503816E+02  0.24736451789E+02 -0.17674173885E+01  0.96558209130E+02  0.92274331656E+02 0.  0.
         11    1    3    3    0    0 -0.11258454788E+02  0.59250051860E+02  0.73625666034E+01  0.60757952870E+02  0.51100000000E-03 0.  1.
         22    1    1    0    0    0  0.13925503816E+02 -0.24736451789E+02  0.17674173885E+01  0.28441790870E+02  0.00000000000E+00 0.  1.
</event>
<event>
 5    1  0.1681111E-003  0.9118800E+02  0.7818608E-02  0.1130116E+00
         25   -1    0    0    0    0  0.00000000000E+00  0.00000000000E+00  0.99999998245E-14  0.12500000000E+03  0.12500000000E+03 0.  0.
        -11    1    3    3    0    0  0.24112268834E+02 -0.87718231763E+01 -0.51864302789E+02  0.57864084666E+02  0.51100000000E-03 0. -1.
         23    2    1    0    0    0  0.15104206957E+02  0.12388080963E+02 -0.21563948932E+02  0.95903513764E+02  0.91383140901E+02 0.  0.
         11    1    3    3    0    0 -0.90080618765E+01  0.21159904139E+02  0.30300353857E+02  0.38039429098E+02  0.51100000000E-03 0.  1.
         22    1    1    0    0    0 -0.15104206957E+02 -0.12388080963E+02  0.21563948932E+02  0.29096486236E+02  0.00000000000E+00 0. -1.
</event>
<event>
 5    1  0.1681111E-003  0.9118800E+02  0.7818608E-02  0.1130116E+00
         25   -1    0    0    0    0  0.00000000000E+00  0.00000000000E+00  0.99999998245E-14  0.12500000000E+03  0.12500000000E+03 0.  0.
        -11    1    3    3    0    0 -0.65467238619E+01  0.21544622991E+02 -0.44638572009E+02  0.49996324709E+02  0.51100000000E-03 0.  1.
         23    2    1    0    0    0 -0.12323557648E+02  0.19900329211E+02  0.58759073725E+01  0.10086663175E+03  0.97937010046E+02 0.  0.
         11    1    3    3    0    0 -0.57768337858E+01 -0.16442937801E+01  0.50514479382E+02  0.50870307038E+02  0.51100000000E-03 0. -1.
         22    1    1    0    0    0  0.12323557648E+02 -0.19900329211E+02 -0.58759073725E+01  0.24133368253E+02  0.00000000000E+00 0.  1.
</event>
<event>
 5    1  0.1681111E-003  0.9118800E+02  0.7818608E-02  0.1130116E+00
         25   -1    0    0    0    0  0.00000000000E+00  0.00000000000E+00  0.99999998245E-14  0.12500000000E+03  0.12500000000E+03 0.  0.
        -11    1    3    3    0    0 -0.25753308875E+02  0.14054900127E+02 -0.10607445504E+02  0.31197612664E+02  0.51100000000E-03 0. -1.
         23    2    1    0    0    0  0.28736429841E+02 -0.49194180672E+01  0.12404811855E+02  0.93316211854E+02  0.87772734738E+02 0.  0.
         11    1    3    3    0    0  0.54489738716E+02 -0.18974318194E+02  0.23012257359E+02  0.62118599190E+02  0.51100000000E-03 0.  1.
         22    1    1    0    0    0 -0.28736429841E+02  0.49194180672E+01 -0.12404811855E+02  0.31683788146E+02  0.00000000000E+00 0.  1.
</event>
<event>
 5    1  0.1681111E-003  0.9118800E+02  0.7818608E-02  0.1130116E+00
         25   -1    0    0    0    0  0.00000000000E+00  0.00000000000E+00  0.99999998245E-14  0.12500000000E+03  0.12500000000E+03 0.  0.
        -11    1    3    3    0    0 -0.39616509794E+02 -0.38350003532E+00 -0.42846210115E+02  0.58355913514E+02  0.51100000000E-03 0.  1.
         23    2    1    0    0    0 -0.22832839754E+02 -0.12879670285E+02 -0.10758864794E+02  0.96663139737E+02  0.92416367243E+02 0.  0.
         11    1    3    3    0    0  0.16783670040E+02 -0.12496170250E+02  0.32087345321E+02  0.38307226223E+02  0.51100000000E-03 0. -1.
         22    1    1    0    0    0  0.22832839754E+02  0.12879670285E+02  0.10758864794E+02  0.28336860263E+02  0.00000000000E+00 0.  1.
</event>
<event>
 5    1  0.1681111E-003  0.9118800E+02  0.7818608E-02  0.1130116E+00
         25   -1    0    0    0    0  0.00000000000E+00  0.00000000000E+00  0.99999998245E-14  0.12500000000E+03  0.12500000000E+03 0.  0.
        -11    1    3    3    0    0  0.52914179064E+02 -0.28825424001E+02 -0.73351606469E+01  0.60701070805E+02  0.51100000000E-03 0.  1.
         23    2    1    0    0    0  0.19206653436E+02 -0.19457334178E+02 -0.10236642010E+02  0.95806298125E+02  0.91250065925E+02 0.  0.
         11    1    3    3    0    0 -0.33707525628E+02  0.93680898239E+01 -0.29014813630E+01  0.35105227321E+02  0.51100000000E-03 0. -1.
         22    1    1    0    0    0 -0.19206653436E+02  0.19457334178E+02  0.10236642010E+02  0.29193701875E+02  0.00000000000E+00 0.  1.
</event>
<event>
 5    1  0.1681111E-003  0.9118800E+02  0.7818608E-02  0.1130116E+00
         25   -1    0    0    0    0  0.00000000000E+00  0.00000000000E+00  0.99999998245E-14  0.12500000000E+03  0.12500000000E+03 0.  0.
        -11    1    3    3    0    0  0.72848222178E+00 -0.35317189899E+02 -0.13010118267E+02  0.37644359023E+02  0.51100000000E-03 0. -1.
         23    2    1    0    0    0  0.12563321784E+02  0.99815537752E+01  0.23171683090E+02  0.96814979737E+02  0.92621514424E+02 0.  0.
         11    1    3    3    0    0  0.11834839562E+02  0.45298743674E+02  0.36181801357E+02  0.59170620713E+02  0.51100000000E-03 0.  1.
         22    1    1    0    0    0 -0.12563321784E+02 -0.99815537752E+01 -0.23171683090E+02  0.28185020263E+02  0.00000000000E+00 0.  1.
</event>
<event>
 5    1  0.1681111E-003  0.9118800E+02  0.7818608E-02  0.1130116E+00
         25   -1    0    0    0    0  0.00000000000E+00  0.00000000000E+00  0.99999998245E-14  0.12500000000E+03  0.12500000000E+03 0.  0.
        -11    1    3    3    0    0  0.21547042211E+02 -0.46031821590E+02 -0.28023081269E+02  0.58038751804E+02  0.51100000000E-03 0. -1.
         23    2    1    0    0    0 -0.12922004615E+01 -0.15474280811E+02 -0.24020012297E+02  0.96397829813E+02  0.92056816441E+02 0.  0.
         11    1    3    3    0    0 -0.22839242672E+02  0.30557540778E+02  0.40030689726E+01  0.38359078009E+02  0.51100000000E-03 0.  1.
         22    1    1    0    0    0  0.12922004615E+01  0.15474280811E+02  0.24020012297E+02  0.28602170187E+02  0.00000000000E+00 0. -1.
</event>
<event>
 5    1  0.1681111E-003  0.9118800E+02  0.7818608E-02  0.1130116E+00
         25   -1    0    0    0    0  0.00000000000E+00  0.00000000000E+00  0.99999998245E-14  0.12500000000E+03  0.12500000000E+03 0.  0.
        -11    1    3    3    0    0  0.13839765493E+02  0.22877319969E+02 -0.21994557274E+02  0.34621834553E+02  0.51100000000E-03 0.  1.
         23    2    1    0    0    0 -0.20845954660E+02 -0.22413143968E+02 -0.81609903492E+01  0.93321859087E+02  0.87780776778E+02 0.  0.
         11    1    3    3    0    0 -0.34685720153E+02 -0.45290463938E+02  0.13833566925E+02  0.58700024534E+02  0.51100000000E-03 0. -1.
         22    1    1    0    0    0  0.20845954660E+02  0.22413143968E+02  0.81609903492E+01  0.31678140913E+02  0.00000000000E+00 0. -1.
</event>
<event>
 5    1  0.1681111E-003  0.9118800E+02  0.7818608E-02  0.1130116E+00
         25   -1    0    0    0    0  0.00000000000E+00  0.00000000000E+00  0.99999998245E-14  0.12500000000E+03  0.12500000000E+03 0.  0.
        -11    1    3    3    0    0 -0.96904539425E+01  0.51631442146E+02  0.11641726915E+02  0.53807439277E+02  0.51100000000E-03 0. -1.
         23    2    1    0    0    0 -0.22209555347E+02  0.17529091060E+02 -0.86441297845E+01  0.95415301897E+02  0.90712873807E+02 0.  0.
         11    1    3    3    0    0 -0.12519101404E+02 -0.34102351085E+02 -0.20285856700E+02  0.41607862620E+02  0.51100000000E-03 0.  1.
         22    1    1    0    0    0  0.22209555347E+02 -0.17529091060E+02  0.86441297845E+01  0.29584698103E+02  0.00000000000E+00 0. -1.
</event>
<event>
 5    1  0.1681111E-003  0.9118800E+02  0.7818608E-02  0.1130116E+00
         25   -1    0    0    0    0  0.00000000000E+00  0.00000000000E+00  0.99999998245E-14  0.12500000000E+03  0.12500000000E+03 0.  0.
        -11    1    3    3    0    0 -0.20328161973E+02 -0.36847765790E+00  0.42693008024E+02  0.47287026544E+02  0.51100000000E-03 0. -1.
         23    2    1    0    0    0 -0.10648626155E+02 -0.27862686106E+02  0.52903408652E+01  0.94706267604E+02  0.89730523797E+02 0.  0.
         11    1    3    3    0    0  0.96795358177E+01 -0.27494208448E+02 -0.37402667159E+02  0.47419241060E+02  0.51100000000E-03 0.  1.
         22    1    1    0    0    0  0.10648626155E+02  0.27862686106E+02 -0.52903408652E+01  0.30293732396E+02  0.00000000000E+00 0.  1.
</event>
<event>
 5    1  0.1681111E-003  0.9118800E+02  0.7818608E-02  0.1130116E+00
         25   -1    0    0    0    0  0.00000000000E+00  0.00000000000E+00  0.99999998245E-14  0.12500000000E+03  0.12500000000E+03 0.  0.
        -11    1    3    3    0    0  0.97697548828E+01  0.20201483470E+02  0.34417714097E+02  0.41086823786E+02  0.51100000000E-03 0.  1.
         23    2    1    0    0    0 -0.22451382690E+02  0.16057547357E+02 -0.95832310694E+01  0.95781038185E+02  0.91215456729E+02 0.  0.
         11    1    3    3    0    0 -0.32221137573E+02 -0.41439361125E+01 -0.44000945166E+02  0.54694214399E+02  0.51100000000E-03 0. -1.
         22    1    1    0    0    0  0.22451382690E+02 -0.16057547357E+02  0.95832310694E+01  0.29218961815E+02  0.00000000000E+00 0. -1.
</event>
<event>
 5    1  0.1681111E-003  0.9118800E+02  0.7818608E-02  0.1130116E+00
         25   -1    0    0    0    0  0.00000000000E+00  0.00000000000E+00  0.99999998245E-14  0.12500000000E+03  0.12500000000E+03 0.  0.
        -11    1    3    3    0    0  0.29974363999E+02  0.51962100643E+01 -0.17227490389E+02  0.34960685370E+02  0.51100000000E-03 0. -1.
         23    2    1    0    0    0 -0.21097791899E+02  0.24935232163E+02 -0.80579584900E-01  0.92336731347E+02  0.86366560871E+02 0.  0.
         11    1    3    3    0    0 -0.51072155898E+02  0.19739022099E+02  0.17146910804E+02  0.57376045976E+02  0.51100000000E-03 0.  1.
         22    1    1    0    0    0  0.21097791899E+02 -0.24935232163E+02  0.80579584900E-01  0.32663268653E+02  0.00000000000E+00 0.  1.
</event>
<event>
 5    1  0.1681111E-003  0.9118800E+02  0.7818608E-02  0.1130116E+00
         25   -1    0    0    0    0  0.00000000000E+00  0.00000000000E+00  0.99999998245E-14  0.12500000000E+03  0.12500000000E+03 0.  0.
        -11    1    3    3    0    0  0.30771259427E+02 -0.32189132198E+02  0.40296066634E+02  0.60056503602E+02  0.51100000000E-03 0.  1.
         23    2    1    0    0    0  0.87028900775E+01 -0.12115869396E+02  0.29788610643E+02  0.91684899655E+02  0.85417942576E+02 0.  0.
         11    1    3    3    0    0 -0.22068369350E+02  0.20073262802E+02 -0.10507455991E+02  0.31628396054E+02  0.51100000000E-03 0. -1.
         22    1    1    0    0    0 -0.87028900775E+01  0.12115869396E+02 -0.29788610643E+02  0.33315100345E+02  0.00000000000E+00 0.  1.
</event>
<event>
 5    1  0.1681111E-003  0.9118800E+02  0.7818608E-02  0.1130116E+00
         25   -1    0    0    0    0  0.00000000000E+00  0.00000000000E+00  0.99999998245E-14  0.12500000000E+03  0.12500000000E+03 0.  0.
        -11    1    3    3    0    0  0.65355662299E+01  0.36339909195E+01  0.47822282752E+02  0.48403411489E+02  0.51100000000E-03 0.  1.
         23    2    1    0    0    0 -0.13837274014E+02  0.23646404229E+02  0.99159631261E+01  0.95863272150E+02  0.91328079129E+02 0.  0.
         11    1    3    3    0    0 -0.20372840244E+02  0.20012413310E+02 -0.37906319626E+02  0.47459860660E+02  0.51100000000E-03 0. -1.
         22    1    1    0    0    0  0.13837274014E+02 -0.23646404229E+02 -0.99159631261E+01  0.29136727850E+02  0.00000000000E+00 0. -1.
</event>
<event>
 5    1  0.1681111E-003  0.9118800E+02  0.7818608E-02  0.1130116E+00
         25   -1    0    0    0    0  0.00000000000E+00  0.00000000000E+00  0.99999998245E-14  0.12500000000E+03  0.12500000000E+03 0.  0.
        -11    1    3    3    0    0 -0.31400420288E+02  0.15809061561E+02  0.31572758560E+02  0.47252004244E+02  0.51100000000E-03 0.  1.
         23    2    1    0    0    0 -0.35134458309E+01  0.28932894446E+02 -0.53708390783E+01  0.95363829616E+02  0.90641918581E+02 0.  0.
         11    1    3    3    0    0  0.27886974457E+02  0.13123832885E+02 -0.36943597638E+02  0.48111825372E+02  0.51100000000E-03 0. -1.
         22    1    1    0    0    0  0.35134458309E+01 -0.28932894446E+02  0.53708390783E+01  0.29636170384E+02  0.00000000000E+00 0. -1.
</event>
<event>
 5    1  0.1681111E-003  0.9118800E+02  0.7818608E-02  0.1130116E+00
         25   -1    0    0    0    0  0.00000000000E+00  0.00000000000E+00  0.99999998245E-14  0.12500000000E+03  0.12500000000E+03 0.  0.
        -11    1    3    3    0    0  0.50529957845E+02 -0.30148679588E+02 -0.11946412770E+02  0.60041121734E+02  0.51100000000E-03 0.  1.
         23    2    1    0    0    0  0.25517494665E+02 -0.62176825924E+01 -0.14934822920E+02  0.94786575062E+02  0.89842327250E+02 0.  0.
         11    1    3    3    0    0 -0.25012463180E+02  0.23930996996E+02 -0.29884101494E+01  0.34745453329E+02  0.51100000000E-03 0. -1.
         22    1    1    0    0    0 -0.25517494665E+02  0.62176825924E+01  0.14934822920E+02  0.30213424938E+02  0.00000000000E+00 0.  1.
</event>
<event>
 5    1  0.1681111E-003  0.9118800E+02  0.7818608E-02  0.1130116E+00
         25   -1    0    0    0    0  0.00000000000E+00  0.00000000000E+00  0.99999998245E-14  0.12500000000E+03  0.12500000000E+03 0.  0.
        -11    1    3    3    0    0 -0.13227064107E+02  0.26151693988E+02  0.11807321920E+02  0.31595556247E+02  0.51100000000E-03 0. -1.
         23    2    1    0    0    0 -0.32100001071E+02 -0.23202335155E+02  0.81590290903E+01  0.84560808848E+02  0.74264407436E+02 0.  0.
         11    1    3    3    0    0 -0.18872936963E+02 -0.49354029143E+02 -0.36482928302E+01  0.52965252601E+02  0.51100000000E-03 0.  1.
         22    1    1    0    0    0  0.32100001071E+02  0.23202335155E+02 -0.81590290903E+01  0.40439191152E+02  0.00000000000E+00 0.  1.
</event>
<event>
 5    1  0.1681111E-003  0.9118800E+02  0.7818608E-02  0.1130116E+00
         25   -1    0    0    0    0  0.00000000000E+00  0.00000000000E+00  0.99999998245E-14  0.12500000000E+03  0.12500000000E+03 0.  0.
        -11    1    3    3    0    0 -0.50290356193E+02 -0.75929878246E+00 -0.28494282254E+02  0.57806752045E+02  0.51100000000E-03 0. -1.
         23    2    1    0    0    0 -0.16503223953E+02  0.15259576937E+02 -0.16643191586E+02  0.97032037698E+02  0.92913989391E+02 0.  0.
         11    1    3    3    0    0  0.33787132240E+02  0.16018875719E+02  0.11851090667E+02  0.39225285653E+02  0.51100000000E-03 0.  1.
         22    1    1    0    0    0  0.16503223953E+02 -0.15259576937E+02  0.16643191586E+02  0.27967962302E+02  0.00000000000E+00 0. -1.
</event>
<event>
 5    1  0.1681111E-003  0.9118800E+02  0.7818608E-02  0.1130116E+00
         25   -1    0    0    0    0  0.00000000000E+00  0.00000000000E+00  0.99999998245E-14  0.12500000000E+03  0.12500000000E+03 0.  0.
        -11    1    3    3    0    0 -0.32563253807E+01 -0.30974127275E+02 -0.36275290962E+02  0.47811054685E+02  0.51100000000E-03 0. -1.
         23    2    1    0    0    0  0.98192715863E+01 -0.24157156541E+02  0.10525029097E+02  0.96879499575E+02  0.92708548116E+02 0.  0.
         11    1    3    3    0    0  0.13075596967E+02  0.68169707340E+01  0.46800320059E+02  0.49068444890E+02  0.51100000000E-03 0.  1.
         22    1    1    0    0    0 -0.98192715863E+01  0.24157156541E+02 -0.10525029097E+02  0.28120500425E+02  0.00000000000E+00 0.  1.
</event>
<event>
 5    1  0.1681111E-003  0.9118800E+02  0.7818608E-02  0.1130116E+00
         25   -1    0    0    0    0  0.00000000000E+00  0.00000000000E+00  0.99999998245E-14  0.12500000000E+03  0.12500000000E+03 0.  0.
        -11    1    3    3    0    0 -0.38460362725E+02 -0.17301454819E+02  0.41262233416E+02  0.59000946997E+02  0.51100000000E-03 0. -1.
         23    2    1    0    0    0 -0.25972415011E+02  0.19899920707E+01  0.11700510587E+02  0.96444293777E+02  0.92119886258E+02 0.  0.
         11    1    3    3    0    0  0.12487947714E+02  0.19291446890E+02 -0.29561722829E+02  0.37443346780E+02  0.51100000000E-03 0.  1.
         22    1    1    0    0    0  0.25972415011E+02 -0.19899920707E+01 -0.11700510587E+02  0.28555706223E+02  0.00000000000E+00 0. -1.
</event>
<event>
 5    1  0.1681111E-003  0.9118800E+02  0.7818608E-02  0.1130116E+00
         25   -1    0    0    0    0  0.00000000000E+00  0.00000000000E+00  0.99999998245E-14  0.12500000000E+03  0.12500000000E+03 0.  0.
        -11    1    3    3    0    0  0.12978164080E+02  0.50402822065E+02 -0.21998125864E+02  0.56504820651E+02  0.51100000000E-03 0. -1.
         23    2    1    0    0    0  0.22374096208E+01  0.13477526091E+02 -0.26462608114E+02  0.95218808964E+02  0.90441706314E+02 0.  0.
         11    1    3    3    0    0 -0.10740754460E+02 -0.36925295974E+02 -0.44644822497E+01  0.38713988313E+02  0.51100000000E-03 0.  1.
         22    1    1    0    0    0 -0.22374096208E+01 -0.13477526091E+02  0.26462608114E+02  0.29781191036E+02  0.00000000000E+00 0. -1.
</event>
<event>
 5    1  0.1681111E-003  0.9118800E+02  0.7818608E-02  0.1130116E+00
         25   -1    0    0    0    0  0.00000000000E+00  0.00000000000E+00  0.99999998245E-14  0.12500000000E+03  0.12500000000E+03 0.  0.
        -11    1    3    3    0    0 -0.39008601340E+01  0.24502107364E+02 -0.42604535550E+02  0.49302296344E+02  0.51100000000E-03 0.  1.
         23    2    1    0    0    0 -0.14884625825E+02 -0.14134723707E+02 -0.23548400031E+02  0.93761087659E+02  0.88404026575E+02 0.  0.
         11    1    3    3    0    0 -0.10983765691E+02 -0.38636831072E+02  0.19056135519E+02  0.44458791315E+02  0.51100000000E-03 0. -1.
         22    1    1    0    0    0  0.14884625825E+02  0.14134723707E+02  0.23548400031E+02  0.31238912341E+02  0.00000000000E+00 0. -1.
</event>
<event>
 5    1  0.1681111E-003  0.9118800E+02  0.7818608E-02  0.1130116E+00
         25   -1    0    0    0    0  0.00000000000E+00  0.00000000000E+00  0.99999998245E-14  0.12500000000E+03  0.12500000000E+03 0.  0.
        -11    1    3    3    0    0  0.37551685797E+02  0.32333710292E+02 -0.24831044306E+02  0.55427237790E+02  0.51100000000E-03 0.  1.
         23    2    1    0    0    0  0.16506037399E+02 -0.27376453884E+01 -0.23245336808E+02  0.96359300703E+02  0.92004484541E+02 0.  0.
         11    1    3    3    0    0 -0.21045648398E+02 -0.35071355681E+02  0.15857074976E+01  0.40932062913E+02  0.51100000000E-03 0. -1.
         22    1    1    0    0    0 -0.16506037399E+02  0.27376453884E+01  0.23245336808E+02  0.28640699297E+02  0.00000000000E+00 0.  1.
</event>
<event>
 5    1  0.1681111E-003  0.9118800E+02  0.7818608E-02  0.1130116E+00
         25   -1    0    0    0    0  0.00000000000E+00  0.00000000000E+00  0.99999998245E-14  0.12500000000E+03  0.12500000000E+03 0.  0.
        -11    1    3    3    0    0 -0.98934994516E+01 -0.67900323334E+01 -0.39995595081E+02  0.41756837723E+02  0.51100000000E-03 0. -1.
         23    2    1    0    0    0 -0.24404444749E+02  0.17741291418E+02  0.43950670472E+01  0.94509887520E+02  0.89456536262E+02 0.  0.
         11    1    3    3    0    0 -0.14510945298E+02  0.24531323751E+02  0.44390662128E+02  0.52753049797E+02  0.51100000000E-03 0.  1.
         22    1    1    0    0    0  0.24404444749E+02 -0.17741291418E+02 -0.43950670472E+01  0.30490112480E+02  0.00000000000E+00 0.  1.
</event>
<event>
 5    1  0.1681111E-003  0.9118800E+02  0.7818608E-02  0.1130116E+00
         25   -1    0    0    0    0  0.00000000000E+00  0.00000000000E+00  0.99999998245E-14  0.12500000000E+03  0.12500000000E+03 0.  0.
        -11    1    3    3    0    0  0.38440467685E+02 -0.28648076721E+02  0.39344925252E+02  0.62019392121E+02  0.51100000000E-03 0. -1.
         23    2    1    0    0    0  0.12611665116E+02 -0.14932079910E+02  0.19695833885E+02  0.97252081523E+02  0.93209550909E+02 0.  0.
         11    1    3    3    0    0 -0.25828802568E+02  0.13715996812E+02 -0.19649091368E+02  0.35232689402E+02  0.51100000000E-03 0.  1.
         22    1    1    0    0    0 -0.12611665116E+02  0.14932079910E+02 -0.19695833885E+02  0.27747918477E+02  0.00000000000E+00 0. -1.
</event>
<event>
 5    1  0.1681111E-003  0.9118800E+02  0.7818608E-02  0.1130116E+00
         25   -1    0    0    0    0  0.00000000000E+00  0.00000000000E+00  0.99999998245E-14  0.12500000000E+03  0.12500000000E+03 0.  0.
        -11    1    3    3    0    0  0.26411000616E+02  0.18961494422E+02 -0.28832798457E+02  0.43455833801E+02  0.51100000000E-03 0. -1.
         23    2    1    0    0    0  0.21656776827E+02 -0.87060158208E+01  0.16246195029E+02  0.96561477765E+02  0.92278759426E+02 0.  0.
         11    1    3    3    0    0 -0.47542237884E+01 -0.27667510242E+02  0.45078993486E+02  0.53105643964E+02  0.51100000000E-03 0.  1.
         22    1    1    0    0    0 -0.21656776827E+02  0.87060158208E+01 -0.16246195029E+02  0.28438522235E+02  0.00000000000E+00 0.  1.
</event>
<event>
 5    1  0.1681111E-003  0.9118800E+02  0.7818608E-02  0.1130116E+00
         25   -1    0    0    0    0  0.00000000000E+00  0.00000000000E+00  0.99999998245E-14  0.12500000000E+03  0.12500000000E+03 0.  0.
        -11    1    3    3    0    0 -0.28566144507E+02  0.18485121028E+02 -0.10503323931E+02  0.35609607205E+02  0.51100000000E-03 0.  1.
         23    2    1    0    0    0  0.26980396069E+02  0.32531242399E+01 -0.15992476070E+02  0.93467732714E+02  0.87988255913E+02 0.  0.
         11    1    3    3    0    0  0.55546540575E+02 -0.15231996788E+02 -0.54891521390E+01  0.57858125510E+02  0.51100000000E-03 0. -1.
         22    1    1    0    0    0 -0.26980396069E+02 -0.32531242399E+01  0.15992476070E+02  0.31532267286E+02  0.00000000000E+00 0. -1.
</event>
<event>
 5    1  0.1681111E-003  0.9118800E+02  0.7818608E-02  0.1130116E+00
         25   -1    0    0    0    0  0.00000000000E+00  0.00000000000E+00  0.99999998245E-14  0.12500000000E+03  0.12500000000E+03 0.  0.
        -11    1    3    3    0    0 -0.26043457142E+02 -0.39568707364E+02  0.90062293814E+01  0.48218838956E+02  0.51100000000E-03 0.  1.
         23    2    1    0    0    0  0.16860325813E+02 -0.22362792373E+02  0.11978022890E+02  0.94539564980E+02  0.89497995760E+02 0.  0.
         11    1    3    3    0    0  0.42903782955E+02  0.17205914990E+02  0.29717935083E+01  0.46320726024E+02  0.51100000000E-03 0. -1.
         22    1    1    0    0    0 -0.16860325813E+02  0.22362792373E+02 -0.11978022890E+02  0.30460435020E+02  0.00000000000E+00 0.  1.
</event>
<event>
 5    1  0.1681111E-003  0.9118800E+02  0.7818608E-02  0.1130116E+00
         25   -1    0    0    0    0  0.00000000000E+00  0.00000000000E+00  0.99999998245E-14  0.12500000000E+03  0.12500000000E+03 0.  0.
        -11    1    3    3    0    0  0.36334775637E+02 -0.27760891122E+01  0.55864955659E+01  0.36866401022E+02  0.51100000000E-03 0.  1.
         23    2    1    0    0    0 -0.10566101835E+01 -0.37058489261E+02 -0.21573578000E+00  0.87925823094E+02  0.79727384087E+02 0.  0.
         11    1    3    3    0    0 -0.37391385820E+02 -0.34282400148E+02 -0.58022313459E+01  0.51059422072E+02  0.51100000000E-03 0. -1.
         22    1    1    0    0    0  0.10566101835E+01  0.37058489261E+02  0.21573578000E+00  0.37074176906E+02  0.00000000000E+00 0. -1.
</event>
<event>
 5    1  0.1681111E-003  0.9118800E+02  0.7818608E-02  0.1130116E+00
         25   -1    0    0    0    0  0.00000000000E+00  0.00000000000E+00  0.99999998245E-14  0.12500000000E+03  0.12500000000E+03 0.  0.
        -11    1    3    3    0    0 -0.86751981904E+01 -0.33680905350E+02  0.14046409356E+02  0.37509519657E+02  0.51100000000E-03 0.  1.
         23    2    1    0    0    0 -0.70816405705E+01  0.65100345402E+01 -0.27818276348E+02  0.95565552802E+02  0.90919679940E+02 0.  0.
         11    1    3    3    0    0  0.15935576199E+01  0.40190939890E+02 -0.41864685704E+02  0.58056033145E+02  0.51100000000E-03 0. -1.
         22    1    1    0    0    0  0.70816405705E+01 -0.65100345402E+01  0.27818276348E+02  0.29434447198E+02  0.00000000000E+00 0. -1.
</event>
<event>
 5    1  0.1681111E-003  0.9118800E+02  0.7818608E-02  0.1130116E+00
         25   -1    0    0    0    0  0.00000000000E+00  0.00000000000E+00  0.99999998245E-14  0.12500000000E+03  0.12500000000E+03 0.  0.
        -11    1    3    3    0    0  0.27291070485E+02  0.91491295492E+01  0.41810014992E+02  0.50760087211E+02  0.51100000000E-03 0.  1.
         23    2    1    0    0    0  0.14942241867E+02  0.24644700724E+02  0.95841705256E+00  0.96163383883E+02  0.91737920027E+02 0.  0.
         11    1    3    3    0    0 -0.12348828617E+02  0.15495571175E+02 -0.40851597940E+02  0.45403296673E+02  0.51100000000E-03 0. -1.
         22    1    1    0    0    0 -0.14942241867E+02 -0.24644700724E+02 -0.95841705256E+00  0.28836616117E+02  0.00000000000E+00 0.  1.
</event>
<event>
 5    1  0.1681111E-003  0.9118800E+02  0.7818608E-02  0.1130116E+00
         25   -1    0    0    0    0  0.00000000000E+00  0.00000000000E+00  0.99999998245E-14  0.12500000000E+03  0.12500000000E+03 0.  0.
        -11    1    3    3    0    0 -0.40777538896E+02 -0.10497981028E+02 -0.91345178255E+01  0.43086595366E+02  0.51100000000E-03 0.  1.
         23    2    1    0    0    0 -0.10008922251E+02  0.17047910681E+01 -0.37172622593E+02  0.86465746307E+02  0.77404370528E+02 0.  0.
         11    1    3    3    0    0  0.30768616645E+02  0.12202772096E+02 -0.28038104768E+02  0.43379150941E+02  0.51100000000E-03 0. -1.
         22    1    1    0    0    0  0.10008922251E+02 -0.17047910681E+01  0.37172622593E+02  0.38534253693E+02  0.00000000000E+00 0.  1.
</event>
<event>
 5    1  0.1681111E-003  0.9118800E+02  0.7818608E-02  0.1130116E+00
         25   -1    0    0    0    0  0.00000000000E+00  0.00000000000E+00  0.99999998245E-14  0.12500000000E+03  0.12500000000E+03 0.  0.
        -11    1    3    3    0    0 -0.33389414708E+02 -0.15720826854E+02  0.16535460504E+01  0.36942274244E+02  0.51100000000E-03 0. -1.
         23    2    1    0    0    0  0.12968806314E+02  0.15968815249E+02 -0.19216210879E+02  0.96849409274E+02  0.92667968136E+02 0.  0.
         11    1    3    3    0    0  0.46358221022E+02  0.31689642103E+02 -0.20869756930E+02  0.59907135030E+02  0.51100000000E-03 0.  1.
         22    1    1    0    0    0 -0.12968806314E+02 -0.15968815249E+02  0.19216210879E+02  0.28150590726E+02  0.00000000000E+00 0.  1.
</event>
<event>
 5    1  0.1681111E-003  0.9118800E+02  0.7818608E-02  0.1130116E+00
         25   -1    0    0    0    0  0.00000000000E+00  0.00000000000E+00  0.99999998245E-14  0.12500000000E+03  0.12500000000E+03 0.  0.
        -11    1    3    3    0    0 -0.19459568567E+01  0.10834142962E+02  0.40129835325E+02  0.41612126662E+02  0.51100000000E-03 0. -1.
         23    2    1    0    0    0 -0.34641608324E+02  0.14272752865E+02  0.99629739441E+01  0.86231283856E+02  0.77024807459E+02 0.  0.
         11    1    3    3    0    0 -0.32695651467E+02  0.34386099030E+01 -0.30166861381E+02  0.44619157195E+02  0.51100000000E-03 0.  1.
         22    1    1    0    0    0  0.34641608324E+02 -0.14272752865E+02 -0.99629739441E+01  0.38768716144E+02  0.00000000000E+00 0.  1.
</event>
<event>
 5    1  0.1681111E-003  0.9118800E+02  0.7818608E-02  0.1130116E+00
         25   -1    0    0    0    0  0.00000000000E+00  0.00000000000E+00  0.99999998245E-14  0.12500000000E+03  0.12500000000E+03 0.  0.
        -11    1    3    3    0    0  0.73643875202E+00 -0.99084305724E+01  0.35828355722E+02  0.37180511191E+02  0.51100000000E-03 0. -1.
         23    2    1    0    0    0 -0.17876346636E+02  0.14101185034E+01 -0.20612368044E+02  0.97679276737E+02  0.93780697290E+02 0.  0.
         11    1    3    3    0    0 -0.18612785388E+02  0.11318549076E+02 -0.56440723766E+02  0.60498765546E+02  0.51100000000E-03 0.  1.
         22    1    1    0    0    0  0.17876346636E+02 -0.14101185034E+01  0.20612368044E+02  0.27320723263E+02  0.00000000000E+00 0.  1.
</event>
<event>
 5    1  0.1681111E-003  0.9118800E+02  0.7818608E-02  0.1130116E+00
         25   -1    0    0    0    0  0.00000000000E+00  0.00000000000E+00  0.99999998245E-14  0.12500000000E+03  0.12500000000E+03 0.  0.
        -11    1    3    3    0    0 -0.47459735846E+02 -0.40446167361E+01 -0.97638625998E+01  0.48622201352E+02  0.51100000000E-03 0.  1.
         23    2    1    0    0    0 -0.67122122065E+01  0.16625559223E+02 -0.22666582626E+02  0.96099533220E+02  0.91650877273E+02 0.  0.
         11    1    3    3    0    0  0.40747523640E+02  0.20670175959E+02 -0.12902720026E+02  0.47477331868E+02  0.51100000000E-03 0. -1.
         22    1    1    0    0    0  0.67122122065E+01 -0.16625559223E+02  0.22666582626E+02  0.28900466780E+02  0.00000000000E+00 0. -1.
</event>
<event>
 5    1  0.1681111E-003  0.9118800E+02  0.7818608E-02  0.1130116E+00
         25   -1    0    0    0    0  0.00000000000E+00  0.00000000000E+00  0.99999998245E-14  0.12500000000E+03  0.12500000000E+03 0.  0.
        -11    1    3    3    0    0 -0.30342680213E+02  0.41089376771E+01  0.14137162462E+02  0.33725672330E+02  0.51100000000E-03 0. -1.
         23    2    1    0    0    0  0.29102360388E+02  0.59523586217E+01 -0.16191642160E+01  0.95251056387E+02  0.90486264686E+02 0.  0.
         11    1    3    3    0    0  0.59445040601E+02  0.18434209446E+01 -0.15756326678E+02  0.61525384058E+02  0.51100000000E-03 0.  1.
         22    1    1    0    0    0 -0.29102360388E+02 -0.59523586217E+01  0.16191642160E+01  0.29748943613E+02  0.00000000000E+00 0.  1.
</event>
<event>
 5    1  0.1681111E-003  0.9118800E+02  0.7818608E-02  0.1130116E+00
         25   -1    0    0    0    0  0.00000000000E+00  0.00000000000E+00  0.99999998245E-14  0.12500000000E+03  0.12500000000E+03 0.  0.
        -11    1    3    3    0    0 -0.12597300525E+01 -0.36911290376E+02 -0.24971748278E+02  0.44582715141E+02  0.51100000000E-03 0.  1.
         23    2    1    0    0    0 -0.98624272555E+01  0.14389786106E+02 -0.22324962140E+02  0.96667380105E+02  0.92422102477E+02 0.  0.
         11    1    3    3    0    0 -0.86026972030E+01  0.51301076482E+02  0.26467861381E+01  0.52084664965E+02  0.51100000000E-03 0. -1.
         22    1    1    0    0    0  0.98624272555E+01 -0.14389786106E+02  0.22324962140E+02  0.28332619895E+02  0.00000000000E+00 0.  1.
</event>
<event>
 5    1  0.1681111E-003  0.9118800E+02  0.7818608E-02  0.1130116E+00
         25   -1    0    0    0    0  0.00000000000E+00  0.00000000000E+00  0.99999998245E-14  0.12500000000E+03  0.12500000000E+03 0.  0.
        -11    1    3    3    0    0 -0.92567545515E+01  0.42890339955E+02  0.12345905217E+02  0.45581686478E+02  0.51100000000E-03 0. -1.
         23    2    1    0    0    0  0.85280964250E+01  0.17570719741E+02 -0.24481639806E+02  0.93682124778E+02  0.88292305410E+02 0.  0.
         11    1    3    3    0    0  0.17784850976E+02 -0.25319620214E+02 -0.36827545023E+02  0.48100438301E+02  0.51100000000E-03 0.  1.
         22    1    1    0    0    0 -0.85280964250E+01 -0.17570719741E+02  0.24481639806E+02  0.31317875222E+02  0.00000000000E+00 0. -1.
</event>
<event>
 5    1  0.1681111E-003  0.9118800E+02  0.7818608E-02  0.1130116E+00
         25   -1    0    0    0    0  0.00000000000E+00  0.00000000000E+00  0.99999998245E-14  0.12500000000E+03  0.12500000000E+03 0.  0.
        -11    1    3    3    0    0  0.15848479472E+02  0.27750233395E+02  0.11265812970E+02  0.33884632169E+02  0.51100000000E-03 0.  1.
         23    2    1    0    0    0 -0.26495164451E+02 -0.84756883518E+01 -0.12545647724E+02  0.94484031899E+02  0.89420400216E+02 0.  0.
         11    1    3    3    0    0 -0.42343643922E+02 -0.36225921747E+02 -0.23811460695E+02  0.60599399731E+02  0.51100000000E-03 0. -1.
         22    1    1    0    0    0  0.26495164451E+02  0.84756883518E+01  0.12545647724E+02  0.30515968101E+02  0.00000000000E+00 0. -1.
</event>
<event>
 5    1  0.1681111E-003  0.9118800E+02  0.7818608E-02  0.1130116E+00
         25   -1    0    0    0    0  0.00000000000E+00  0.00000000000E+00  0.99999998245E-14  0.12500000000E+03  0.12500000000E+03 0.  0.
        -11    1    3    3    0    0  0.72841772020E+01 -0.31758670007E+02  0.17497303940E+02  0.36984158819E+02  0.51100000000E-03 0.  1.
         23    2    1    0    0    0 -0.26499494449E+02  0.10665426281E+02 -0.55328435829E+01  0.95903833897E+02  0.91383578799E+02 0.  0.
         11    1    3    3    0    0 -0.33783671651E+02  0.42424096288E+02 -0.23030147523E+02  0.58919675078E+02  0.51100000000E-03 0. -1.
         22    1    1    0    0    0  0.26499494449E+02 -0.10665426281E+02  0.55328435829E+01  0.29096166103E+02  0.00000000000E+00 0. -1.
</event>
<event>
 5    1  0.1681111E-003  0.9118800E+02  0.7818608E-02  0.1130116E+00
         25   -1    0    0    0    0  0.00000000000E+00  0.00000000000E+00  0.99999998245E-14  0.12500000000E+03  0.12500000000E+03 0.  0.
        -11    1    3    3    0    0  0.47703011967E+02 -0.30980208679E+02  0.12072889786E+02  0.58147272925E+02  0.51100000000E-03 0.  1.
         23    2    1    0    0    0  0.83912757137E+01 -0.24478091957E+02  0.37469396361E+01  0.98853679980E+02  0.95333205101E+02 0.  0.
         11    1    3    3    0    0 -0.39311736254E+02  0.65021167219E+01 -0.83259501495E+01  0.40706407055E+02  0.51100000000E-03 0. -1.
         22    1    1    0    0    0 -0.83912757137E+01  0.24478091957E+02 -0.37469396361E+01  0.26146320020E+02  0.00000000000E+00 0.  1.
</event>
<event>
 5    1  0.1681111E-003  0.9118800E+02  0.7818608E-02  0.1130116E+00
         25   -1    0    0    0    0  0.00000000000E+00  0.00000000000E+00  0.99999998245E-14  0.12500000000E+03  0.12500000000E+03 0.  0.
        -11    1    3    3    0    0 -0.22609990256E+02  0.38392615662E+02  0.28630675121E+02  0.52961496909E+02  0.51100000000E-03 0. -1.
         23    2    1    0    0    0 -0.16757906506E+02 -0.38315004511E+01  0.23480857584E+02  0.95899166695E+02  0.91377194494E+02 0.  0.
         11    1    3    3    0    0  0.58520837497E+01 -0.42224116113E+02 -0.51498175365E+01  0.42937669786E+02  0.51100000000E-03 0.  1.
         22    1    1    0    0    0  0.16757906506E+02  0.38315004511E+01 -0.23480857584E+02  0.29100833305E+02  0.00000000000E+00 0. -1.
</event>
<event>
 5    1  0.1681111E-003  0.9118800E+02  0.7818608E-02  0.1130116E+00
         25   -1    0    0    0    0  0.00000000000E+00  0.00000000000E+00  0.99999998245E-14  0.12500000000E+03  0.12500000000E+03 0.  0.
        -11    1    3    3    0    0 -0.49715381374E+02  0.22926769323E+02 -0.19908679551E+01  0.54783386645E+02  0.51100000000E-03 0. -1.
         23    2    1    0    0    0 -0.16665378942E+02  0.17818961037E+02 -0.20612354377E+02  0.93060692232E+02  0.87408083482E+02 0.  0.
         11    1    3    3    0    0  0.33050002432E+02 -0.51078082855E+01 -0.18621486421E+02  0.38277305588E+02  0.51100000000E-03 0.  1.
         22    1    1    0    0    0  0.16665378942E+02 -0.17818961037E+02  0.20612354377E+02  0.31939307768E+02  0.00000000000E+00 0. -1.
</event>
<event>
 5    1  0.1681111E-003  0.9118800E+02  0.7818608E-02  0.1130116E+00
         25   -1    0    0    0    0  0.00000000000E+00  0.00000000000E+00  0.99999998245E-14  0.12500000000E+03  0.12500000000E+03 0.  0.
        -11    1    3    3    0    0  0.21911327213E+02 -0.29689674826E+02  0.41354425212E+01  0.37130646865E+02  0.51100000000E-03 0.  1.
         23    2    1    0    0    0  0.16396143983E+02  0.26576984573E+02  0.20384613539E+01  0.93705831675E+02  0.88325862117E+02 0.  0.
         11    1    3    3    0    0 -0.55151832301E+01  0.56266659399E+02 -0.20969811672E+01  0.56575184810E+02  0.51100000000E-03 0. -1.
         22    1    1    0    0    0 -0.16396143983E+02 -0.26576984573E+02 -0.20384613539E+01  0.31294168325E+02  0.00000000000E+00 0. -1.
</event>
<event>
 5    1  0.1681111E-003  0.9118800E+02  0.7818608E-02  0.1130116E+00
         25   -1    0    0    0    0  0.00000000000E+00  0.00000000000E+00  0.99999998245E-14  0.12500000000E+03  0.12500000000E+03 0.  0.
        -11    1    3    3    0    0  0.33304540055E+02  0.20264679412E+02  0.13947900965E+02  0.41405235920E+02  0.51100000000E-03 0.  1.
         23    2    1    0    0    0  0.24273358073E+02 -0.15225620909E+02 -0.18961412066E+02  0.90640858687E+02  0.83876186560E+02 0.  0.
         11    1    3    3    0    0 -0.90311819821E+01 -0.35490300320E+02 -0.32909313032E+02  0.49235622767E+02  0.51100000000E-03 0. -1.
         22    1    1    0    0    0 -0.24273358073E+02  0.15225620909E+02  0.18961412066E+02  0.34359141313E+02  0.00000000000E+00 0. -1.
</event>
<event>
 5    1  0.1681111E-003  0.9118800E+02  0.7818608E-02  0.1130116E+00
         25   -1    0    0    0    0  0.00000000000E+00  0.00000000000E+00  0.99999998245E-14  0.12500000000E+03  0.12500000000E+03 0.  0.
        -11    1    3    3    0    0 -0.13094218409E+02 -0.19096122996E+02  0.52911810405E+02  0.57756213085E+02  0.51100000000E-03 0.  1.
         23    2    1    0    0    0  0.10495614496E+02 -0.52647542877E+01  0.27548496746E+02  0.95053460395E+02  0.90212887653E+02 0.  0.
         11    1    3    3    0    0  0.23589832906E+02  0.13831368709E+02 -0.25363313659E+02  0.37297247310E+02  0.51100000000E-03 0. -1.
         22    1    1    0    0    0 -0.10495614496E+02  0.52647542877E+01 -0.27548496746E+02  0.29946539605E+02  0.00000000000E+00 0. -1.
</event>
<event>
 5    1  0.1681111E-003  0.9118800E+02  0.7818608E-02  0.1130116E+00
         25   -1    0    0    0    0  0.00000000000E+00  0.00000000000E+00  0.99999998245E-14  0.12500000000E+03  0.12500000000E+03 0.  0.
        -11    1    3    3    0    0  0.16727601309E+02 -0.18660920998E+02  0.71517275707E+01  0.26061270605E+02  0.51100000000E-03 0.  1.
         23    2    1    0    0    0 -0.39789863241E+02 -0.59850255701E+01  0.79326041754E+01  0.83988051048E+02  0.73294015868E+02 0.  0.
         11    1    3    3    0    0 -0.56517464550E+02  0.12675895427E+02  0.78087660465E+00  0.57926780444E+02  0.51100000000E-03 0. -1.
         22    1    1    0    0    0  0.39789863241E+02  0.59850255701E+01 -0.79326041754E+01  0.41011948952E+02  0.00000000000E+00 0. -1.
</event>
<event>
 5    1  0.1681111E-003  0.9118800E+02  0.7818608E-02  0.1130116E+00
         25   -1    0    0    0    0  0.00000000000E+00  0.00000000000E+00  0.99999998245E-14  0.12500000000E+03  0.12500000000E+03 0.  0.
        -11    1    3    3    0    0 -0.41731929118E+02  0.38281391555E+02  0.28129635342E+01  0.56700366942E+02  0.51100000000E-03 0. -1.
         23    2    1    0    0    0 -0.27709327631E+02  0.23629259743E+01 -0.66560350545E+01  0.96404667171E+02  0.92066100128E+02 0.  0.
         11    1    3    3    0    0  0.14022601487E+02 -0.35918465580E+02 -0.94689985887E+01  0.39704300229E+02  0.51100000000E-03 0.  1.
         22    1    1    0    0    0  0.27709327631E+02 -0.23629259743E+01  0.66560350545E+01  0.28595332829E+02  0.00000000000E+00 0. -1.
</event>
<event>
 5    1  0.1681111E-003  0.9118800E+02  0.7818608E-02  0.1130116E+00
         25   -1    0    0    0    0  0.00000000000E+00  0.00000000000E+00  0.99999998245E-14  0.12500000000E+03  0.12500000000E+03 0.  0.
        -11    1    3    3    0    0  0.16656280628E+01 -0.62675232035E+01 -0.57679411259E+02  0.58042834592E+02  0.51100000000E-03 0. -1.
         23    2    1    0    0    0  0.16758199546E+02  0.66969790800E+00 -0.22594922524E+02  0.96860769890E+02  0.92683291227E+02 0.  0.
         11    1    3    3    0    0  0.15092571483E+02  0.69372211115E+01  0.35084488736E+02  0.38817935299E+02  0.51100000000E-03 0.  1.
         22    1    1    0    0    0 -0.16758199546E+02 -0.66969790800E+00  0.22594922524E+02  0.28139230110E+02  0.00000000000E+00 0. -1.
</event>
<event>
 5    1  0.1681111E-003  0.9118800E+02  0.7818608E-02  0.1130116E+00
         25   -1    0    0    0    0  0.00000000000E+00  0.00000000000E+00  0.99999998245E-14  0.12500000000E+03  0.12500000000E+03 0.  0.
        -11    1    3    3    0    0  0.20242867174E+02 -0.33352006936E+02  0.29908621217E+02  0.49159492079E+02  0.51100000000E-03 0.  1.
         23    2    1    0    0    0  0.24473211109E+02 -0.40607380529E+01 -0.94930028783E+01  0.98437907477E+02  0.94786480414E+02 0.  0.
         11    1    3    3    0    0  0.42303439355E+01  0.29291268883E+02 -0.39401624095E+02  0.49278415399E+02  0.51100000000E-03 0. -1.
         22    1    1    0    0    0 -0.24473211109E+02  0.40607380529E+01  0.94930028783E+01  0.26562092523E+02  0.00000000000E+00 0. -1.
</event>
<event>
 5    1  0.1681111E-003  0.9118800E+02  0.7818608E-02  0.1130116E+00
         25   -1    0    0    0    0  0.00000000000E+00  0.00000000000E+00  0.99999998245E-14  0.12500000000E+03  0.12500000000E+03 0.  0.
        -11    1    3    3    0    0  0.10898035707E+02 -0.53611208216E+02  0.11201877484E+02  0.55842733529E+02  0.51100000000E-03 0. -1.
         23    2    1    0    0    0 -0.40411047839E+01 -0.28421222188E+02 -0.12665363740E+02  0.93623132132E+02  0.88208746919E+02 0.  0.
         11    1    3    3    0    0 -0.14939140490E+02  0.25189986027E+02 -0.23867241224E+02  0.37780398603E+02  0.51100000000E-03 0.  1.
         22    1    1    0    0    0  0.40411047839E+01  0.28421222188E+02  0.12665363740E+02  0.31376867868E+02  0.00000000000E+00 0. -1.
</event>
<event>
 5    1  0.1681111E-003  0.9118800E+02  0.7818608E-02  0.1130116E+00
         25   -1    0    0    0    0  0.00000000000E+00  0.00000000000E+00  0.99999998245E-14  0.12500000000E+03  0.12500000000E+03 0.  0.
        -11    1    3    3    0    0 -0.20732295531E+02 -0.21979826164E+02  0.22805555087E+02  0.37855437909E+02  0.51100000000E-03 0. -1.
         23    2    1    0    0    0  0.49903870606E+01 -0.88253188967E+01 -0.27402255422E+02  0.95782302985E+02  0.91217189971E+02 0.  0.
         11    1    3    3    0    0  0.25722682592E+02  0.13154507268E+02 -0.50207810509E+02  0.57926865076E+02  0.51100000000E-03 0.  1.
         22    1    1    0    0    0 -0.49903870606E+01  0.88253188967E+01  0.27402255422E+02  0.29217697015E+02  0.00000000000E+00 0.  1.
</event>
<event>
 5    1  0.1681111E-003  0.9118800E+02  0.7818608E-02  0.1130116E+00
         25   -1    0    0    0    0  0.00000000000E+00  0.00000000000E+00  0.99999998245E-14  0.12500000000E+03  0.12500000000E+03 0.  0.
        -11    1    3    3    0    0  0.33109013499E+02  0.12748852947E+02  0.45582962316E+01  0.35770352125E+02  0.51100000000E-03 0.  1.
         23    2    1    0    0    0 -0.19304425458E+02 -0.19308258616E+02  0.51624451706E+01  0.97212943064E+02  0.93157048933E+02 0.  0.
         11    1    3    3    0    0 -0.52413438957E+02 -0.32057111563E+02  0.60414893895E+00  0.61442590939E+02  0.51100000000E-03 0. -1.
         22    1    1    0    0    0  0.19304425458E+02  0.19308258616E+02 -0.51624451706E+01  0.27787056936E+02  0.00000000000E+00 0. -1.
</event>
<event>
 5    1  0.1681111E-003  0.9118800E+02  0.7818608E-02  0.1130116E+00
         25   -1    0    0    0    0  0.00000000000E+00  0.00000000000E+00  0.99999998245E-14  0.12500000000E+03  0.12500000000E+03 0.  0.
        -11    1    3    3    0    0 -0.37142732722E+02  0.64235734384E+01 -0.14076640135E+02  0.40236757915E+02  0.51100000000E-03 0. -1.
         23    2    1    0    0    0  0.30347977265E+01  0.34326741025E+02 -0.28732250498E+01  0.90419795130E+02  0.83546087775E+02 0.  0.
         11    1    3    3    0    0  0.40177530448E+02  0.27903167587E+02  0.11203415086E+02  0.50183037215E+02  0.51100000000E-03 0.  1.
         22    1    1    0    0    0 -0.30347977265E+01 -0.34326741025E+02  0.28732250498E+01  0.34580204870E+02  0.00000000000E+00 0.  1.
</event>
<event>
 5    1  0.1681111E-003  0.9118800E+02  0.7818608E-02  0.1130116E+00
         25   -1    0    0    0    0  0.00000000000E+00  0.00000000000E+00  0.99999998245E-14  0.12500000000E+03  0.12500000000E+03 0.  0.
        -11    1    3    3    0    0  0.41237358397E+02 -0.28740224833E+02  0.34737573605E+02  0.61100075869E+02  0.51100000000E-03 0. -1.
         23    2    1    0    0    0  0.10534916916E+02 -0.16872622334E+02  0.18631974173E+02  0.97745269760E+02  0.93868617973E+02 0.  0.
         11    1    3    3    0    0 -0.30702441481E+02  0.11867602499E+02 -0.16105599432E+02  0.36645193891E+02  0.51100000000E-03 0.  1.
         22    1    1    0    0    0 -0.10534916916E+02  0.16872622334E+02 -0.18631974173E+02  0.27254730240E+02  0.00000000000E+00 0. -1.
</event>
<event>
 5    1  0.1681111E-003  0.9118800E+02  0.7818608E-02  0.1130116E+00
         25   -1    0    0    0    0  0.00000000000E+00  0.00000000000E+00  0.99999998245E-14  0.12500000000E+03  0.12500000000E+03 0.  0.
        -11    1    3    3    0    0 -0.23575441860E+02 -0.15533772369E+02 -0.41966950210E+02  0.50579881901E+02  0.51100000000E-03 0.  1.
         23    2    1    0    0    0  0.10478464668E+01  0.16409032332E+02 -0.26576567865E+02  0.93748307505E+02  0.88385954067E+02 0.  0.
         11    1    3    3    0    0  0.24623288327E+02  0.31942804701E+02  0.15390382345E+02  0.43168425604E+02  0.51100000000E-03 0. -1.
         22    1    1    0    0    0 -0.10478464668E+01 -0.16409032332E+02  0.26576567865E+02  0.31251692495E+02  0.00000000000E+00 0. -1.
</event>
<event>
 5    1  0.1681111E-003  0.9118800E+02  0.7818608E-02  0.1130116E+00
         25   -1    0    0    0    0  0.00000000000E+00  0.00000000000E+00  0.99999998245E-14  0.12500000000E+03  0.12500000000E+03 0.  0.
        -11    1    3    3    0    0 -0.13480511448E+02 -0.40112936812E+02  0.25626773874E+02  0.49472249070E+02  0.51100000000E-03 0.  1.
         23    2    1    0    0    0  0.22498569377E+02 -0.17262960276E+02  0.86356818210E+01  0.95355937829E+02  0.90631034736E+02 0.  0.
         11    1    3    3    0    0  0.35979080825E+02  0.22849976536E+02 -0.16991092053E+02  0.45883688759E+02  0.51100000000E-03 0. -1.
         22    1    1    0    0    0 -0.22498569377E+02  0.17262960276E+02 -0.86356818210E+01  0.29644062171E+02  0.00000000000E+00 0. -1.
</event>
<event>
 5    1  0.1681111E-003  0.9118800E+02  0.7818608E-02  0.1130116E+00
         25   -1    0    0    0    0  0.00000000000E+00  0.00000000000E+00  0.99999998245E-14  0.12500000000E+03  0.12500000000E+03 0.  0.
        -11    1    3    3    0    0 -0.97103899689E+01 -0.10623055888E+02 -0.58445338903E+02  0.60191350122E+02  0.51100000000E-03 0. -1.
         23    2    1    0    0    0 -0.31627846245E+01 -0.16143815058E+02 -0.22593396913E+02  0.97052056332E+02  0.92940917162E+02 0.  0.
         11    1    3    3    0    0  0.65476053445E+01 -0.55207591698E+01  0.35851941990E+02  0.36860706210E+02  0.51100000000E-03 0.  1.
         22    1    1    0    0    0  0.31627846245E+01  0.16143815058E+02  0.22593396913E+02  0.27947943668E+02  0.00000000000E+00 0. -1.
</event>
<event>
 5    1  0.1681111E-003  0.9118800E+02  0.7818608E-02  0.1130116E+00
         25   -1    0    0    0    0  0.00000000000E+00  0.00000000000E+00  0.99999998245E-14  0.12500000000E+03  0.12500000000E+03 0.  0.
        -11    1    3    3    0    0  0.23649318887E+02  0.34012811327E+02  0.24012218348E+01  0.41496114092E+02  0.51100000000E-03 0. -1.
         23    2    1    0    0    0 -0.12789022358E+02  0.52576156755E+01  0.27466558344E+02  0.94249171674E+02  0.89091486229E+02 0.  0.
         11    1    3    3    0    0 -0.36438341245E+02 -0.28755195652E+02  0.25065336509E+02  0.52753057582E+02  0.51100000000E-03 0.  1.
         22    1    1    0    0    0  0.12789022358E+02 -0.52576156755E+01 -0.27466558344E+02  0.30750828326E+02  0.00000000000E+00 0.  1.
</event>
<event>
 5    1  0.1681111E-003  0.9118800E+02  0.7818608E-02  0.1130116E+00
         25   -1    0    0    0    0  0.00000000000E+00  0.00000000000E+00  0.99999998245E-14  0.12500000000E+03  0.12500000000E+03 0.  0.
        -11    1    3    3    0    0  0.12345939321E+02 -0.29247864555E+01 -0.34836689540E+02  0.37075214522E+02  0.51100000000E-03 0.  1.
         23    2    1    0    0    0 -0.17535766019E+02 -0.27607032235E+02  0.41301878086E+01  0.92034718717E+02  0.85928340373E+02 0.  0.
         11    1    3    3    0    0 -0.29881705340E+02 -0.24682245780E+02  0.38966877348E+02  0.54959504195E+02  0.51100000000E-03 0. -1.
         22    1    1    0    0    0  0.17535766019E+02  0.27607032235E+02 -0.41301878086E+01  0.32965281283E+02  0.00000000000E+00 0. -1.
</event>
<event>
 5    1  0.1681111E-003  0.9118800E+02  0.7818608E-02  0.1130116E+00
         25   -1    0    0    0    0  0.00000000000E+00  0.00000000000E+00  0.99999998245E-14  0.12500000000E+03  0.12500000000E+03 0.  0.
        -11    1    3    3    0    0  0.79531214193E+01  0.54509364560E+02  0.18006178146E+02  0.57954684166E+02  0.51100000000E-03 0. -1.
         23    2    1    0    0    0  0.84892587846E+01  0.27084823065E+02 -0.77452184560E+01  0.95578178776E+02  0.90937036977E+02 0.  0.
         11    1    3    3    0    0  0.53613736532E+00 -0.27424541495E+02 -0.25751396602E+02  0.37623494611E+02  0.51100000000E-03 0.  1.
         22    1    1    0    0    0 -0.84892587846E+01 -0.27084823065E+02  0.77452184560E+01  0.29421821224E+02  0.00000000000E+00 0. -1.
</event>
<event>
 5    1  0.1681111E-003  0.9118800E+02  0.7818608E-02  0.1130116E+00
         25   -1    0    0    0    0  0.00000000000E+00  0.00000000000E+00  0.99999998245E-14  0.12500000000E+03  0.12500000000E+03 0.  0.
        -11    1    3    3    0    0 -0.16512399938E+02  0.38812023425E+02  0.13226467790E+02  0.44203755096E+02  0.51100000000E-03 0. -1.
         23    2    1    0    0    0  0.25588844441E+02  0.13694011336E+02 -0.29484650642E+01  0.95827952548E+02  0.91279724677E+02 0.  0.
         11    1    3    3    0    0  0.42101244379E+02 -0.25118012089E+02 -0.16174932854E+02  0.51624197453E+02  0.51100000000E-03 0.  1.
         22    1    1    0    0    0 -0.25588844441E+02 -0.13694011336E+02  0.29484650642E+01  0.29172047452E+02  0.00000000000E+00 0. -1.
</event>
<event>
 5    1  0.1681111E-003  0.9118800E+02  0.7818608E-02  0.1130116E+00
         25   -1    0    0    0    0  0.00000000000E+00  0.00000000000E+00  0.99999998245E-14  0.12500000000E+03  0.12500000000E+03 0.  0.
        -11    1    3    3    0    0  0.92249561258E+01  0.38354761456E+02 -0.93186927221E+01  0.40534251889E+02  0.51100000000E-03 0. -1.
         23    2    1    0    0    0  0.24279163280E+02 -0.14924186366E+02 -0.49795792273E+01  0.96068955816E+02  0.91609164138E+02 0.  0.
         11    1    3    3    0    0  0.15054207154E+02 -0.53278947823E+02  0.43391134948E+01  0.55534703927E+02  0.51100000000E-03 0.  1.
         22    1    1    0    0    0 -0.24279163280E+02  0.14924186366E+02  0.49795792273E+01  0.28931044184E+02  0.00000000000E+00 0.  1.
</event>
<event>
 5    1  0.1681111E-003  0.9118800E+02  0.7818608E-02  0.1130116E+00
         25   -1    0    0    0    0  0.00000000000E+00  0.00000000000E+00  0.99999998245E-14  0.12500000000E+03  0.12500000000E+03 0.  0.
        -11    1    3    3    0    0 -0.83577780114E+01 -0.27382680610E+02 -0.21221436178E+02  0.35637241818E+02  0.51100000000E-03 0. -1.
         23    2    1    0    0    0 -0.12842321248E+02  0.29302032661E+01  0.28249916304E+02  0.93829997155E+02  0.88501408399E+02 0.  0.
         11    1    3    3    0    0 -0.44845432362E+01  0.30312883876E+02  0.49471352482E+02  0.58192755336E+02  0.51100000000E-03 0.  1.
         22    1    1    0    0    0  0.12842321248E+02 -0.29302032661E+01 -0.28249916304E+02  0.31170002845E+02  0.00000000000E+00 0.  1.
</event>
<event>
 5    1  0.1681111E-003  0.9118800E+02  0.7818608E-02  0.1130116E+00
         25   -1    0    0    0    0  0.00000000000E+00  0.00000000000E+00  0.99999998245E-14  0.12500000000E+03  0.12500000000E+03 0.  0.
        -11    1    3    3    0    0  0.15571509491E+02  0.51908379897E+02  0.11767467634E+02  0.55456515453E+02  0.51100000000E-03 0.  1.
         23    2    1    0    0    0 -0.10158474895E+02  0.26824174538E+02 -0.62336131138E+01  0.95647165652E+02  0.91031815389E+02 0.  0.
         11    1    3    3    0    0 -0.25729984387E+02 -0.25084205360E+02 -0.18001080748E+02  0.40190650199E+02  0.51100000000E-03 0. -1.
         22    1    1    0    0    0  0.10158474895E+02 -0.26824174538E+02  0.62336131138E+01  0.29352834348E+02  0.00000000000E+00 0.  1.
</event>
<event>
 5    1  0.1681111E-003  0.9118800E+02  0.7818608E-02  0.1130116E+00
         25   -1    0    0    0    0  0.00000000000E+00  0.00000000000E+00  0.99999998245E-14  0.12500000000E+03  0.12500000000E+03 0.  0.
        -11    1    3    3    0    0  0.40220703584E+02  0.18774984937E+02 -0.36114453799E+02  0.57222887289E+02  0.51100000000E-03 0.  1.
         23    2    1    0    0    0  0.26994783917E+02  0.11366741847E+02 -0.74934709702E+00  0.95700124573E+02  0.91104506712E+02 0.  0.
         11    1    3    3    0    0 -0.13225919666E+02 -0.74082430901E+01  0.35365106702E+02  0.38477237284E+02  0.51100000000E-03 0. -1.
         22    1    1    0    0    0 -0.26994783917E+02 -0.11366741847E+02  0.74934709702E+00  0.29299875427E+02  0.00000000000E+00 0.  1.
</event>
<event>
 5    1  0.1681111E-003  0.9118800E+02  0.7818608E-02  0.1130116E+00
         25   -1    0    0    0    0  0.00000000000E+00  0.00000000000E+00  0.99999998245E-14  0.12500000000E+03  0.12500000000E+03 0.  0.
        -11    1    3    3    0    0  0.96054845247E+01  0.91475654083E+01 -0.44875213884E+02  0.46794530741E+02  0.51100000000E-03 0.  1.
         23    2    1    0    0    0 -0.25042683642E+02 -0.60963226059E+01 -0.13833271503E+02  0.95748323915E+02  0.91170614667E+02 0.  0.
         11    1    3    3    0    0 -0.34648168167E+02 -0.15243888014E+02  0.31041942381E+02  0.48953793174E+02  0.51100000000E-03 0. -1.
         22    1    1    0    0    0  0.25042683642E+02  0.60963226059E+01  0.13833271503E+02  0.29251676085E+02  0.00000000000E+00 0. -1.
</event>
<event>
 5    1  0.1681111E-003  0.9118800E+02  0.7818608E-02  0.1130116E+00
         25   -1    0    0    0    0  0.00000000000E+00  0.00000000000E+00  0.99999998245E-14  0.12500000000E+03  0.12500000000E+03 0.  0.
        -11    1    3    3    0    0 -0.30676043768E+02  0.79994505021E+01  0.11396582469E+02  0.33688172433E+02  0.51100000000E-03 0. -1.
         23    2    1    0    0    0  0.27284186301E+02  0.53039483623E+01 -0.98980483163E+01  0.95495253758E+02  0.90822978588E+02 0.  0.
         11    1    3    3    0    0  0.57960230069E+02 -0.26955021398E+01 -0.21294630786E+02  0.61807081326E+02  0.51100000000E-03 0.  1.
         22    1    1    0    0    0 -0.27284186301E+02 -0.53039483623E+01  0.98980483163E+01  0.29504746242E+02  0.00000000000E+00 0.  1.
</event>
<event>
 5    1  0.1681111E-003  0.9118800E+02  0.7818608E-02  0.1130116E+00
         25   -1    0    0    0    0  0.00000000000E+00  0.00000000000E+00  0.99999998245E-14  0.12500000000E+03  0.12500000000E+03 0.  0.
        -11    1    3    3    0    0 -0.39575272385E+02  0.12757644258E+01 -0.10004096932E+02  0.40840074864E+02  0.51100000000E-03 0. -1.
         23    2    1    0    0    0  0.12498586883E+02  0.19213333284E+02 -0.17142937867E+02  0.96377505897E+02  0.92029215330E+02 0.  0.
         11    1    3    3    0    0  0.52073859268E+02  0.17937568859E+02 -0.71388409349E+01  0.55537431033E+02  0.51100000000E-03 0.  1.
         22    1    1    0    0    0 -0.12498586883E+02 -0.19213333284E+02  0.17142937867E+02  0.28622494103E+02  0.00000000000E+00 0.  1.
</event>
<event>
 5    1  0.1681111E-003  0.9118800E+02  0.7818608E-02  0.1130116E+00
         25   -1    0    0    0    0  0.00000000000E+00  0.00000000000E+00  0.99999998245E-14  0.12500000000E+03  0.12500000000E+03 0.  0.
        -11    1    3    3    0    0  0.14388912762E+02  0.27355730819E+02  0.23558908763E+02  0.38863852119E+02  0.51100000000E-03 0.  1.
         23    2    1    0    0    0  0.74254279720E+01 -0.26643832840E+02  0.13461490664E+02  0.94238944429E+02  0.89077135715E+02 0.  0.
         11    1    3    3    0    0 -0.69634847905E+01 -0.53999563659E+02 -0.10097418099E+02  0.55375092310E+02  0.51100000000E-03 0. -1.
         22    1    1    0    0    0 -0.74254279720E+01  0.26643832840E+02 -0.13461490664E+02  0.30761055571E+02  0.00000000000E+00 0. -1.
</event>
<event>
 5    1  0.1681111E-003  0.9118800E+02  0.7818608E-02  0.1130116E+00
         25   -1    0    0    0    0  0.00000000000E+00  0.00000000000E+00  0.99999998245E-14  0.12500000000E+03  0.12500000000E+03 0.  0.
        -11    1    3    3    0    0 -0.45065783965E+02 -0.21210753330E+02 -0.28363105335E+02  0.57317420438E+02  0.51100000000E-03 0. -1.
         23    2    1    0    0    0 -0.40930292970E+02 -0.23839837733E+02 -0.96519108938E+01  0.76659684221E+02  0.59497235695E+02 0.  0.
         11    1    3    3    0    0  0.41354909955E+01 -0.26290844024E+01  0.18711194441E+02  0.19342263783E+02  0.51100000000E-03 0.  1.
         22    1    1    0    0    0  0.40930292970E+02  0.23839837733E+02  0.96519108938E+01  0.48340315779E+02  0.00000000000E+00 0. -1.
</event>
<event>
 5    1  0.1681111E-003  0.9118800E+02  0.7818608E-02  0.1130116E+00
         25   -1    0    0    0    0  0.00000000000E+00  0.00000000000E+00  0.99999998245E-14  0.12500000000E+03  0.12500000000E+03 0.  0.
        -11    1    3    3    0    0  0.30905060854E+02  0.89305965918E+01  0.93344985494E+01  0.33496435710E+02  0.51100000000E-03 0. -1.
         23    2    1    0    0    0 -0.24330981527E+02 -0.16230467507E+02 -0.35256036819E+01  0.95540627656E+02  0.90885405396E+02 0.  0.
         11    1    3    3    0    0 -0.55236042381E+02 -0.25161064099E+02 -0.12860102231E+02  0.62044191946E+02  0.51100000000E-03 0.  1.
         22    1    1    0    0    0  0.24330981527E+02  0.16230467507E+02  0.35256036819E+01  0.29459372344E+02  0.00000000000E+00 0.  1.
</event>
<event>
 5    1  0.1681111E-003  0.9118800E+02  0.7818608E-02  0.1130116E+00
         25   -1    0    0    0    0  0.00000000000E+00  0.00000000000E+00  0.99999998245E-14  0.12500000000E+03  0.12500000000E+03 0.  0.
        -11    1    3    3    0    0  0.38920118988E+02 -0.16302373336E+02  0.20544392711E+02  0.46932026491E+02  0.51100000000E-03 0.  1.
         23    2    1    0    0    0 -0.63695335069E+01 -0.44789213325E+01  0.29414234900E+02  0.94572563234E+02  0.89544071878E+02 0.  0.
         11    1    3    3    0    0 -0.45289652495E+02  0.11823452003E+02  0.88698421886E+01  0.47640536743E+02  0.51100000000E-03 0. -1.
         22    1    1    0    0    0  0.63695335069E+01  0.44789213325E+01 -0.29414234900E+02  0.30427436766E+02  0.00000000000E+00 0. -1.
</event>
<event>
 5    1  0.1681111E-003  0.9118800E+02  0.7818608E-02  0.1130116E+00
         25   -1    0    0    0    0  0.00000000000E+00  0.00000000000E+00  0.99999998245E-14  0.12500000000E+03  0.12500000000E+03 0.  0.
        -11    1    3    3    0    0 -0.41927189858E+02 -0.21587418679E+01 -0.48249255008E+01  0.42259073845E+02  0.51100000000E-03 0.  1.
         23    2    1    0    0    0  0.22738641149E+01  0.22013152985E+02 -0.20308634113E+02  0.94963522478E+02  0.90088182464E+02 0.  0.
         11    1    3    3    0    0  0.44201053973E+02  0.24171894853E+02 -0.15483708612E+02  0.52704448634E+02  0.51100000000E-03 0. -1.
         22    1    1    0    0    0 -0.22738641149E+01 -0.22013152985E+02  0.20308634113E+02  0.30036477522E+02  0.00000000000E+00 0. -1.
</event>
<event>
 5    1  0.1681111E-003  0.9118800E+02  0.7818608E-02  0.1130116E+00
         25   -1    0    0    0    0  0.00000000000E+00  0.00000000000E+00  0.99999998245E-14  0.12500000000E+03  0.12500000000E+03 0.  0.
        -11    1    3    3    0    0 -0.32962161590E+02  0.16947853676E+02  0.73834506465E+01  0.37792184174E+02  0.51100000000E-03 0. -1.
         23    2    1    0    0    0  0.24829569640E+02  0.14945634621E+02  0.43140267452E+01  0.95699994036E+02  0.91104327608E+02 0.  0.
         11    1    3    3    0    0  0.57791731230E+02 -0.20022190551E+01 -0.30694239014E+01  0.57907809862E+02  0.51100000000E-03 0.  1.
         22    1    1    0    0    0 -0.24829569640E+02 -0.14945634621E+02 -0.43140267452E+01  0.29300005964E+02  0.00000000000E+00 0.  1.
</event>
<event>
 5    1  0.1681111E-003  0.9118800E+02  0.7818608E-02  0.1130116E+00
         25   -1    0    0    0    0  0.00000000000E+00  0.00000000000E+00  0.99999998245E-14  0.12500000000E+03  0.12500000000E+03 0.  0.
        -11    1    3    3    0    0 -0.28149799883E+02 -0.89587032684E+01 -0.15963454489E+02  0.33578288777E+02  0.51100000000E-03 0.  1.
         23    2    1    0    0    0  0.26520223200E+02 -0.67703895539E+01  0.12105239802E+02  0.95071798518E+02  0.90238293587E+02 0.  0.
         11    1    3    3    0    0  0.54670023083E+02  0.21883137145E+01  0.28068694292E+02  0.61493509741E+02  0.51100000000E-03 0. -1.
         22    1    1    0    0    0 -0.26520223200E+02  0.67703895539E+01 -0.12105239802E+02  0.29928201482E+02  0.00000000000E+00 0. -1.
</event>
<event>
 5    1  0.1681111E-003  0.9118800E+02  0.7818608E-02  0.1130116E+00
         25   -1    0    0    0    0  0.00000000000E+00  0.00000000000E+00  0.99999998245E-14  0.12500000000E+03  0.12500000000E+03 0.  0.
        -11    1    3    3    0    0 -0.41801831779E+01  0.40388394339E+02  0.78398651905E+01  0.41354078579E+02  0.51100000000E-03 0. -1.
         23    2    1    0    0    0  0.23678292083E+02 -0.73633275960E+01  0.13220092400E+02  0.96899271320E+02  0.92735202755E+02 0.  0.
         11    1    3    3    0    0  0.27858475261E+02 -0.47751721935E+02  0.53802272094E+01  0.55545192741E+02  0.51100000000E-03 0.  1.
         22    1    1    0    0    0 -0.23678292083E+02  0.73633275960E+01 -0.13220092400E+02  0.28100728680E+02  0.00000000000E+00 0.  1.
</event>
<event>
 5    1  0.1681111E-003  0.9118800E+02  0.7818608E-02  0.1130116E+00
         25   -1    0    0    0    0  0.00000000000E+00  0.00000000000E+00  0.99999998245E-14  0.12500000000E+03  0.12500000000E+03 0.  0.
        -11    1    3    3    0    0 -0.55906723633E+01  0.41030669713E+02 -0.88164373529E+01  0.42337938571E+02  0.51100000000E-03 0.  1.
         23    2    1    0    0    0 -0.16966366842E+02 -0.92693706841E+01 -0.22145210345E+02  0.95602905281E+02  0.90971019123E+02 0.  0.
         11    1    3    3    0    0 -0.11375694479E+02 -0.50300040397E+02 -0.13328772992E+02  0.53264966710E+02  0.51100000000E-03 0. -1.
         22    1    1    0    0    0  0.16966366842E+02  0.92693706841E+01  0.22145210345E+02  0.29397094719E+02  0.00000000000E+00 0. -1.
</event>
<event>
 5    1  0.1681111E-003  0.9118800E+02  0.7818608E-02  0.1130116E+00
         25   -1    0    0    0    0  0.00000000000E+00  0.00000000000E+00  0.99999998245E-14  0.12500000000E+03  0.12500000000E+03 0.  0.
        -11    1    3    3    0    0 -0.37370551001E+02  0.52865062693E+01  0.72663060246E+01  0.38435718208E+02  0.51100000000E-03 0.  1.
         23    2    1    0    0    0  0.15431002309E+02  0.20783345852E+02 -0.11634653333E+02  0.96619928555E+02  0.92357902417E+02 0.  0.
         11    1    3    3    0    0  0.52801553309E+02  0.15496839582E+02 -0.18900959357E+02  0.58184210348E+02  0.51100000000E-03 0. -1.
         22    1    1    0    0    0 -0.15431002309E+02 -0.20783345852E+02  0.11634653333E+02  0.28380071445E+02  0.00000000000E+00 0. -1.
</event>
<event>
 5    1  0.1681111E-003  0.9118800E+02  0.7818608E-02  0.1130116E+00
         25   -1    0    0    0    0  0.00000000000E+00  0.00000000000E+00  0.99999998245E-14  0.12500000000E+03  0.12500000000E+03 0.  0.
        -11    1    3    3    0    0 -0.98356805281E+00 -0.58107117751E+02 -0.84352418090E+01  0.58724422892E+02  0.51100000000E-03 0.  1.
         23    2    1    0    0    0 -0.11806945218E+02 -0.27088700811E+02 -0.14422791848E+02  0.92118111495E+02  0.86049566377E+02 0.  0.
         11    1    3    3    0    0 -0.10823377166E+02  0.31018416940E+02 -0.59875500388E+01  0.33393688602E+02  0.51100000000E-03 0. -1.
         22    1    1    0    0    0  0.11806945218E+02  0.27088700811E+02  0.14422791848E+02  0.32881888505E+02  0.00000000000E+00 0.  1.
</event>
<event>
 5    1  0.1681111E-003  0.9118800E+02  0.7818608E-02  0.1130116E+00
         25   -1    0    0    0    0  0.00000000000E+00  0.00000000000E+00  0.99999998245E-14  0.12500000000E+03  0.12500000000E+03 0.  0.
        -11    1    3    3    0    0 -0.45631174724E+02 -0.29286632228E+02 -0.28937256505E+02  0.61459545623E+02  0.51100000000E-03 0.  1.
         23    2    1    0    0    0 -0.25685779434E+02 -0.70506732959E+01 -0.12155273663E+02  0.95721647299E+02  0.91134032199E+02 0.  0.
         11    1    3    3    0    0  0.19945395290E+02  0.22235958932E+02  0.16781982842E+02  0.34262101676E+02  0.51100000000E-03 0. -1.
         22    1    1    0    0    0  0.25685779434E+02  0.70506732959E+01  0.12155273663E+02  0.29278352701E+02  0.00000000000E+00 0.  1.
</event>
<event>
 5    1  0.1681111E-003  0.9118800E+02  0.7818608E-02  0.1130116E+00
         25   -1    0    0    0    0  0.00000000000E+00  0.00000000000E+00  0.99999998245E-14  0.12500000000E+03  0.12500000000E+03 0.  0.
        -11    1    3    3    0    0 -0.16424260656E+02 -0.29842006854E+02 -0.50225816079E+01  0.34431497752E+02  0.51100000000E-03 0. -1.
         23    2    1    0    0    0  0.58200776135E+01  0.27848892400E+02  0.81904652368E+00  0.96537657360E+02  0.92246486871E+02 0.  0.
         11    1    3    3    0    0  0.22244338269E+02  0.57690899254E+02  0.58416281316E+01  0.62106159608E+02  0.51100000000E-03 0.  1.
         22    1    1    0    0    0 -0.58200776135E+01 -0.27848892400E+02 -0.81904652368E+00  0.28462342640E+02  0.00000000000E+00 0.  1.
</event>
<event>
 5    1  0.1681111E-003  0.9118800E+02  0.7818608E-02  0.1130116E+00
         25   -1    0    0    0    0  0.00000000000E+00  0.00000000000E+00  0.99999998245E-14  0.12500000000E+03  0.12500000000E+03 0.  0.
        -11    1    3    3    0    0 -0.63596021850E+01  0.54757201661E+02 -0.16679625414E+02  0.57593450825E+02  0.51100000000E-03 0. -1.
         23    2    1    0    0    0 -0.11885797817E+02  0.20895738212E+02 -0.22120540719E+02  0.92331630178E+02  0.86359177535E+02 0.  0.
         11    1    3    3    0    0 -0.55261956316E+01 -0.33861463450E+02 -0.54409153045E+01  0.34738179353E+02  0.51100000000E-03 0.  1.
         22    1    1    0    0    0  0.11885797817E+02 -0.20895738212E+02  0.22120540719E+02  0.32668369822E+02  0.00000000000E+00 0. -1.
</event>
<event>
 5    1  0.1681111E-003  0.9118800E+02  0.7818608E-02  0.1130116E+00
         25   -1    0    0    0    0  0.00000000000E+00  0.00000000000E+00  0.99999998245E-14  0.12500000000E+03  0.12500000000E+03 0.  0.
        -11    1    3    3    0    0 -0.21194121914E+02  0.33341322595E+02  0.36151240254E+02  0.53551347025E+02  0.51100000000E-03 0.  1.
         23    2    1    0    0    0  0.93338968005E+01  0.39360257777E+01  0.25942258973E+02  0.97150139515E+02  0.93072739719E+02 0.  0.
         11    1    3    3    0    0  0.30528018714E+02 -0.29405296817E+02 -0.10208981281E+02  0.43598792490E+02  0.51100000000E-03 0. -1.
         22    1    1    0    0    0 -0.93338968005E+01 -0.39360257777E+01 -0.25942258973E+02  0.27849860485E+02  0.00000000000E+00 0.  1.
</event>
<event>
 5    1  0.1681111E-003  0.9118800E+02  0.7818608E-02  0.1130116E+00
         25   -1    0    0    0    0  0.00000000000E+00  0.00000000000E+00  0.99999998245E-14  0.12500000000E+03  0.12500000000E+03 0.  0.
        -11    1    3    3    0    0  0.11979397365E+01 -0.38433164439E+02  0.26555076813E+01  0.38543415906E+02  0.51100000000E-03 0.  1.
         23    2    1    0    0    0 -0.10337961221E+02  0.12668307700E+02 -0.22923890078E+02  0.96842155649E+02  0.92658183191E+02 0.  0.
         11    1    3    3    0    0 -0.11535900957E+02  0.51101472139E+02 -0.25579397759E+02  0.58298739743E+02  0.51100000000E-03 0. -1.
         22    1    1    0    0    0  0.10337961221E+02 -0.12668307700E+02  0.22923890078E+02  0.28157844351E+02  0.00000000000E+00 0. -1.
</event>
<event>
 5    1  0.1681111E-003  0.9118800E+02  0.7818608E-02  0.1130116E+00
         25   -1    0    0    0    0  0.00000000000E+00  0.00000000000E+00  0.99999998245E-14  0.12500000000E+03  0.12500000000E+03 0.  0.
        -11    1    3    3    0    0 -0.10270647315E+02  0.26210356403E+02  0.30501955960E+02  0.41507087307E+02  0.51100000000E-03 0.  1.
         23    2    1    0    0    0 -0.12273843187E+01  0.18274736258E+02 -0.22574286843E+02  0.95929897076E+02  0.91419222644E+02 0.  0.
         11    1    3    3    0    0  0.90432629963E+01 -0.79356201451E+01 -0.53076242804E+02  0.54422809769E+02  0.51100000000E-03 0. -1.
         22    1    1    0    0    0  0.12273843187E+01 -0.18274736258E+02  0.22574286843E+02  0.29070102924E+02  0.00000000000E+00 0. -1.
</event>
<event>
 5    1  0.1681111E-003  0.9118800E+02  0.7818608E-02  0.1130116E+00
         25   -1    0    0    0    0  0.00000000000E+00  0.00000000000E+00  0.99999998245E-14  0.12500000000E+03  0.12500000000E+03 0.  0.
        -11    1    3    3    0    0  0.50407003100E+02  0.34310466995E+02 -0.42491566631E+01  0.61123885999E+02  0.51100000000E-03 0. -1.
         23    2    1    0    0    0  0.26895819999E+02  0.25251327645E+02  0.45859484185E+01  0.87824126047E+02  0.79567779356E+02 0.  0.
         11    1    3    3    0    0 -0.23511183101E+02 -0.90591393494E+01  0.88351050816E+01  0.26700240048E+02  0.51100000000E-03 0.  1.
         22    1    1    0    0    0 -0.26895819999E+02 -0.25251327645E+02 -0.45859484185E+01  0.37175873953E+02  0.00000000000E+00 0. -1.
</event>
<event>
 5    1  0.1681111E-003  0.9118800E+02  0.7818608E-02  0.1130116E+00
         25   -1    0    0    0    0  0.00000000000E+00  0.00000000000E+00  0.99999998245E-14  0.12500000000E+03  0.12500000000E+03 0.  0.
        -11    1    3    3    0    0  0.44598351420E+01 -0.29704548718E+02  0.40881682738E+02  0.50730290042E+02  0.51100000000E-03 0. -1.
         23    2    1    0    0    0 -0.19931580741E+02 -0.56478256301E+01  0.33242918152E+02  0.85830401426E+02  0.76371462972E+02 0.  0.
         11    1    3    3    0    0 -0.24391415883E+02  0.24056723088E+02 -0.76387645860E+01  0.35100111384E+02  0.51100000000E-03 0.  1.
         22    1    1    0    0    0  0.19931580741E+02  0.56478256301E+01 -0.33242918152E+02  0.39169598574E+02  0.00000000000E+00 0.  1.
</event>
<event>
 5    1  0.1681111E-003  0.9118800E+02  0.7818608E-02  0.1130116E+00
         25   -1    0    0    0    0  0.00000000000E+00  0.00000000000E+00  0.99999998245E-14  0.12500000000E+03  0.12500000000E+03 0.  0.
        -11    1    3    3    0    0 -0.23624147005E+02  0.39654262136E+02  0.21950479771E+02  0.51111489801E+02  0.51100000000E-03 0.  1.
         23    2    1    0    0    0  0.13104238341E+02  0.28167595330E+02  0.36637291974E+01  0.93718097871E+02  0.88343219705E+02 0.  0.
         11    1    3    3    0    0  0.36728385346E+02 -0.11486666807E+02 -0.18286750574E+02  0.42606608070E+02  0.51100000000E-03 0. -1.
         22    1    1    0    0    0 -0.13104238341E+02 -0.28167595330E+02 -0.36637291974E+01  0.31281902129E+02  0.00000000000E+00 0.  1.
</event>
<event>
 5    1  0.1681111E-003  0.9118800E+02  0.7818608E-02  0.1130116E+00
         25   -1    0    0    0    0  0.00000000000E+00  0.00000000000E+00  0.99999998245E-14  0.12500000000E+03  0.12500000000E+03 0.  0.
        -11    1    3    3    0    0 -0.20919289494E+02 -0.20280217078E+01 -0.83906889047E+01  0.22630360261E+02  0.51100000000E-03 0. -1.
         23    2    1    0    0    0 -0.60142478212E+01 -0.14038571515E+02  0.44008646721E+02  0.78416594658E+02  0.63080493534E+02 0.  0.
         11    1    3    3    0    0  0.14905041673E+02 -0.12010549807E+02  0.52399335626E+02  0.55786234397E+02  0.51100000000E-03 0.  1.
         22    1    1    0    0    0  0.60142478212E+01  0.14038571515E+02 -0.44008646721E+02  0.46583405342E+02  0.00000000000E+00 0.  1.
</event>
<event>
 5    1  0.1681111E-003  0.9118800E+02  0.7818608E-02  0.1130116E+00
         25   -1    0    0    0    0  0.00000000000E+00  0.00000000000E+00  0.99999998245E-14  0.12500000000E+03  0.12500000000E+03 0.  0.
        -11    1    3    3    0    0 -0.15282852749E+01  0.32079738897E+02  0.24684958863E+02  0.40506696951E+02  0.51100000000E-03 0.  1.
         23    2    1    0    0    0  0.17192881202E+02 -0.18621619617E+02  0.15393032786E+02  0.95346916862E+02  0.90618591997E+02 0.  0.
         11    1    3    3    0    0  0.18721166477E+02 -0.50701358514E+02 -0.92919260768E+01  0.54840219911E+02  0.51100000000E-03 0. -1.
         22    1    1    0    0    0 -0.17192881202E+02  0.18621619617E+02 -0.15393032786E+02  0.29653083138E+02  0.00000000000E+00 0. -1.
</event>
<event>
 5    1  0.1681111E-003  0.9118800E+02  0.7818608E-02  0.1130116E+00
         25   -1    0    0    0    0  0.00000000000E+00  0.00000000000E+00  0.99999998245E-14  0.12500000000E+03  0.12500000000E+03 0.  0.
        -11    1    3    3    0    0 -0.15018404317E+02 -0.29777399263E+02 -0.13835118610E+02  0.36106183436E+02  0.51100000000E-03 0.  1.
         23    2    1    0    0    0  0.13678923142E+02  0.23554847514E+02 -0.48828129231E+01  0.97327167803E+02  0.93310192106E+02 0.  0.
         11    1    3    3    0    0  0.28697327459E+02  0.53332246777E+02  0.89523056873E+01  0.61220984368E+02  0.51100000000E-03 0. -1.
         22    1    1    0    0    0 -0.13678923142E+02 -0.23554847514E+02  0.48828129231E+01  0.27672832197E+02  0.00000000000E+00 0. -1.
</event>
<event>
 5    1  0.1681111E-003  0.9118800E+02  0.7818608E-02  0.1130116E+00
         25   -1    0    0    0    0  0.00000000000E+00  0.00000000000E+00  0.99999998245E-14  0.12500000000E+03  0.12500000000E+03 0.  0.
        -11    1    3    3    0    0 -0.22861014340E+02  0.35603631008E+02  0.65945550179E+01  0.42822104966E+02  0.51100000000E-03 0. -1.
         23    2    1    0    0    0  0.22168062129E+02 -0.38693226768E+00  0.10231467449E+02  0.10058165400E+03  0.97572606302E+02 0.  0.
         11    1    3    3    0    0  0.45029076469E+02 -0.35990563276E+02  0.36369124308E+01  0.57759549036E+02  0.51100000000E-03 0.  1.
         22    1    1    0    0    0 -0.22168062129E+02  0.38693226768E+00 -0.10231467449E+02  0.24418345998E+02  0.00000000000E+00 0.  1.
</event>
<event>
 5    1  0.1681111E-003  0.9118800E+02  0.7818608E-02  0.1130116E+00
         25   -1    0    0    0    0  0.00000000000E+00  0.00000000000E+00  0.99999998245E-14  0.12500000000E+03  0.12500000000E+03 0.  0.
        -11    1    3    3    0    0 -0.42123808424E+00  0.32188039825E+01  0.34129380863E+02  0.34283418426E+02  0.51100000000E-03 0.  1.
         23    2    1    0    0    0  0.15108553708E+02  0.73865181959E+01 -0.24614903014E+02  0.95188550914E+02  0.90399876817E+02 0.  0.
         11    1    3    3    0    0  0.15529791792E+02  0.41677142134E+01 -0.58744283877E+02  0.60905132488E+02  0.51100000000E-03 0. -1.
         22    1    1    0    0    0 -0.15108553708E+02 -0.73865181959E+01  0.24614903014E+02  0.29811449086E+02  0.00000000000E+00 0. -1.
</event>
<event>
 5    1  0.1681111E-003  0.9118800E+02  0.7818608E-02  0.1130116E+00
         25   -1    0    0    0    0  0.00000000000E+00  0.00000000000E+00  0.99999998245E-14  0.12500000000E+03  0.12500000000E+03 0.  0.
        -11    1    3    3    0    0  0.60040897140E+01 -0.93033725131E+01  0.57591998087E+02  0.58646739699E+02  0.51100000000E-03 0. -1.
         23    2    1    0    0    0 -0.12699095676E+02 -0.37233392882E+01  0.26936417060E+02  0.94988321432E+02  0.90122585172E+02 0.  0.
         11    1    3    3    0    0 -0.18703185390E+02  0.55800332249E+01 -0.30655581027E+02  0.36341581733E+02  0.51100000000E-03 0.  1.
         22    1    1    0    0    0  0.12699095676E+02  0.37233392882E+01 -0.26936417060E+02  0.30011678568E+02  0.00000000000E+00 0. -1.
</event>
<event>
 5    1  0.1681111E-003  0.9118800E+02  0.7818608E-02  0.1130116E+00
         25   -1    0    0    0    0  0.00000000000E+00  0.00000000000E+00  0.99999998245E-14  0.12500000000E+03  0.12500000000E+03 0.  0.
        -11    1    3    3    0    0  0.10096989268E+02 -0.42221754716E+02 -0.41049655924E+02  0.59746966578E+02  0.51100000000E-03 0.  1.
         23    2    1    0    0    0 -0.66984568691E+01 -0.14097237625E+02 -0.23160932001E+02  0.97070979175E+02  0.92966363776E+02 0.  0.
         11    1    3    3    0    0 -0.16795446137E+02  0.28124517090E+02  0.17888723922E+02  0.37324012597E+02  0.51100000000E-03 0. -1.
         22    1    1    0    0    0  0.66984568691E+01  0.14097237625E+02  0.23160932001E+02  0.27929020825E+02  0.00000000000E+00 0.  1.
</event>
<event>
 5    1  0.1681111E-003  0.9118800E+02  0.7818608E-02  0.1130116E+00
         25   -1    0    0    0    0  0.00000000000E+00  0.00000000000E+00  0.99999998245E-14  0.12500000000E+03  0.12500000000E+03 0.  0.
        -11    1    3    3    0    0  0.50461980896E+01 -0.13605867994E+02  0.37168004315E+02  0.39900429873E+02  0.51100000000E-03 0. -1.
         23    2    1    0    0    0  0.26679663861E+02  0.98337234902E+01 -0.82435849073E+01  0.95394877580E+02  0.90684725257E+02 0.  0.
         11    1    3    3    0    0  0.21633465771E+02  0.23439591484E+02 -0.45411589223E+02  0.55494447706E+02  0.51100000000E-03 0.  1.
         22    1    1    0    0    0 -0.26679663861E+02 -0.98337234902E+01  0.82435849073E+01  0.29605122420E+02  0.00000000000E+00 0.  1.
</event>
<event>
 5    1  0.1681111E-003  0.9118800E+02  0.7818608E-02  0.1130116E+00
         25   -1    0    0    0    0  0.00000000000E+00  0.00000000000E+00  0.99999998245E-14  0.12500000000E+03  0.12500000000E+03 0.  0.
        -11    1    3    3    0    0 -0.33359637859E+02 -0.19865439328E+02 -0.10473521897E+02  0.40214372791E+02  0.51100000000E-03 0.  1.
         23    2    1    0    0    0 -0.24182433105E+01  0.94239579027E+01  0.26590513820E+02  0.96685439991E+02  0.92446525072E+02 0.  0.
         11    1    3    3    0    0  0.30941394549E+02  0.29289397231E+02  0.37064035717E+02  0.56471067200E+02  0.51100000000E-03 0. -1.
         22    1    1    0    0    0  0.24182433105E+01 -0.94239579027E+01 -0.26590513820E+02  0.28314560009E+02  0.00000000000E+00 0. -1.
</event>
<event>
 5    1  0.1681111E-003  0.9118800E+02  0.7818608E-02  0.1130116E+00
         25   -1    0    0    0    0  0.00000000000E+00  0.00000000000E+00  0.99999998245E-14  0.12500000000E+03  0.12500000000E+03 0.  0.
        -11    1    3    3    0    0 -0.10600893406E+02  0.42243452427E+02 -0.24925396114E+02  0.50181307134E+02  0.51100000000E-03 0.  1.
         23    2    1    0    0    0  0.15992130540E+02  0.23851355678E+02  0.68102487072E+01  0.95487038537E+02  0.90811671244E+02 0.  0.
         11    1    3    3    0    0  0.26593023946E+02 -0.18392096750E+02  0.31735644822E+02  0.45305731403E+02  0.51100000000E-03 0. -1.
         22    1    1    0    0    0 -0.15992130540E+02 -0.23851355678E+02 -0.68102487072E+01  0.29512961463E+02  0.00000000000E+00 0. -1.
</event>
<event>
 5    1  0.1681111E-003  0.9118800E+02  0.7818608E-02  0.1130116E+00
         25   -1    0    0    0    0  0.00000000000E+00  0.00000000000E+00  0.99999998245E-14  0.12500000000E+03  0.12500000000E+03 0.  0.
        -11    1    3    3    0    0 -0.25404320880E+02  0.51583841299E+02 -0.24148447860E+02  0.62365212554E+02  0.51100000000E-03 0.  1.
         23    2    1    0    0    0 -0.12014708022E+02  0.23889830716E+02 -0.14367199613E+02  0.94643886197E+02  0.89643580637E+02 0.  0.
         11    1    3    3    0    0  0.13389612858E+02 -0.27694010583E+02  0.97812482468E+01  0.32278673644E+02  0.51100000000E-03 0. -1.
         22    1    1    0    0    0  0.12014708022E+02 -0.23889830716E+02  0.14367199613E+02  0.30356113803E+02  0.00000000000E+00 0.  1.
</event>
<event>
 5    1  0.1681111E-003  0.9118800E+02  0.7818608E-02  0.1130116E+00
         25   -1    0    0    0    0  0.00000000000E+00  0.00000000000E+00  0.99999998245E-14  0.12500000000E+03  0.12500000000E+03 0.  0.
        -11    1    3    3    0    0  0.27652756384E+02 -0.18107262910E+02  0.19077268696E+02  0.38163989400E+02  0.51100000000E-03 0.  1.
         23    2    1    0    0    0 -0.77106739857E+01  0.25071828984E+02 -0.38239136012E+01  0.98492012201E+02  0.94857804372E+02 0.  0.
         11    1    3    3    0    0 -0.35363430370E+02  0.43179091894E+02 -0.22901182297E+02  0.60328022802E+02  0.51100000000E-03 0. -1.
         22    1    1    0    0    0  0.77106739857E+01 -0.25071828984E+02  0.38239136012E+01  0.26507987799E+02  0.00000000000E+00 0. -1.
</event>
<event>
 5    1  0.1681111E-003  0.9118800E+02  0.7818608E-02  0.1130116E+00
         25   -1    0    0    0    0  0.00000000000E+00  0.00000000000E+00  0.99999998245E-14  0.12500000000E+03  0.12500000000E+03 0.  0.
        -11    1    3    3    0    0 -0.46361258852E+02  0.31414796224E+01  0.19405842420E+02  0.50356945269E+02  0.51100000000E-03 0. -1.
         23    2    1    0    0    0 -0.12754860359E+02 -0.21973456022E+02  0.20543555803E+02  0.92326510481E+02  0.86351766747E+02 0.  0.
         11    1    3    3    0    0  0.33606398493E+02 -0.25114935644E+02  0.11377133828E+01  0.41969565212E+02  0.51100000000E-03 0.  1.
         22    1    1    0    0    0  0.12754860359E+02  0.21973456022E+02 -0.20543555803E+02  0.32673489519E+02  0.00000000000E+00 0. -1.
</event>
<event>
 5    1  0.1681111E-003  0.9118800E+02  0.7818608E-02  0.1130116E+00
         25   -1    0    0    0    0  0.00000000000E+00  0.00000000000E+00  0.99999998245E-14  0.12500000000E+03  0.12500000000E+03 0.  0.
        -11    1    3    3    0    0 -0.21041461424E+02 -0.17253421093E+02  0.19869513921E+02  0.33693044119E+02  0.51100000000E-03 0. -1.
         23    2    1    0    0    0 -0.31611604527E-01  0.32616921643E+02 -0.25822990815E+01  0.92281001768E+02  0.86285864671E+02 0.  0.
         11    1    3    3    0    0  0.21009849820E+02  0.49870342736E+02 -0.22451813003E+02  0.58587957649E+02  0.51100000000E-03 0.  1.
         22    1    1    0    0    0  0.31611604527E-01 -0.32616921643E+02  0.25822990815E+01  0.32718998232E+02  0.00000000000E+00 0.  1.
</event>
<event>
 5    1  0.1681111E-003  0.9118800E+02  0.7818608E-02  0.1130116E+00
         25   -1    0    0    0    0  0.00000000000E+00  0.00000000000E+00  0.99999998245E-14  0.12500000000E+03  0.12500000000E+03 0.  0.
        -11    1    3    3    0    0 -0.71065147381E+01 -0.22982578253E+02  0.53425128157E+02  0.58591345553E+02  0.51100000000E-03 0.  1.
         23    2    1    0    0    0  0.10946474282E+02 -0.16135531488E+02  0.20889735974E+02  0.96424455479E+02  0.92092963193E+02 0.  0.
         11    1    3    3    0    0  0.18052989020E+02  0.68470467646E+01 -0.32535392183E+02  0.37833109926E+02  0.51100000000E-03 0. -1.
         22    1    1    0    0    0 -0.10946474282E+02  0.16135531488E+02 -0.20889735974E+02  0.28575544521E+02  0.00000000000E+00 0.  1.
</event>
<event>
 5    1  0.1681111E-003  0.9118800E+02  0.7818608E-02  0.1130116E+00
         25   -1    0    0    0    0  0.00000000000E+00  0.00000000000E+00  0.99999998245E-14  0.12500000000E+03  0.12500000000E+03 0.  0.
        -11    1    3    3    0    0 -0.27371231973E+02 -0.44189982316E+02 -0.26171880144E+00  0.51980836602E+02  0.51100000000E-03 0. -1.
         23    2    1    0    0    0 -0.20329437694E+02 -0.16666114515E+02  0.24047892110E+02  0.89372110294E+02  0.81963574675E+02 0.  0.
         11    1    3    3    0    0  0.70417942793E+01  0.27523867801E+02  0.24309610911E+02  0.37391273692E+02  0.51100000000E-03 0.  1.
         22    1    1    0    0    0  0.20329437694E+02  0.16666114515E+02 -0.24047892110E+02  0.35627889706E+02  0.00000000000E+00 0. -1.
</event>
<event>
 5    1  0.1681111E-003  0.9118800E+02  0.7818608E-02  0.1130116E+00
         25   -1    0    0    0    0  0.00000000000E+00  0.00000000000E+00  0.99999998245E-14  0.12500000000E+03  0.12500000000E+03 0.  0.
        -11    1    3    3    0    0 -0.79515114921E+01  0.30744726087E+02 -0.17218912461E+02  0.36124170077E+02  0.51100000000E-03 0.  1.
         23    2    1    0    0    0  0.17635613238E+02 -0.21316252718E+02 -0.13402914291E+02  0.94258568744E+02  0.89104669832E+02 0.  0.
         11    1    3    3    0    0  0.25587124730E+02 -0.52060978805E+02  0.38159981698E+01  0.58134398667E+02  0.51100000000E-03 0. -1.
         22    1    1    0    0    0 -0.17635613238E+02  0.21316252718E+02  0.13402914291E+02  0.30741431256E+02  0.00000000000E+00 0. -1.
</event>
<event>
 5    1  0.1681111E-003  0.9118800E+02  0.7818608E-02  0.1130116E+00
         25   -1    0    0    0    0  0.00000000000E+00  0.00000000000E+00  0.99999998245E-14  0.12500000000E+03  0.12500000000E+03 0.  0.
        -11    1    3    3    0    0  0.27442952171E+02  0.24956794327E+02 -0.27415947220E+01  0.37195074255E+02  0.51100000000E-03 0.  1.
         23    2    1    0    0    0  0.72185991153E+01 -0.28877362742E+02  0.34483652134E+01  0.95034995832E+02  0.90187299317E+02 0.  0.
         11    1    3    3    0    0 -0.20224353056E+02 -0.53834157069E+02  0.61899599354E+01  0.57839921578E+02  0.51100000000E-03 0. -1.
         22    1    1    0    0    0 -0.72185991153E+01  0.28877362742E+02 -0.34483652134E+01  0.29965004168E+02  0.00000000000E+00 0. -1.
</event>
<event>
 5    1  0.1681111E-003  0.9118800E+02  0.7818608E-02  0.1130116E+00
         25   -1    0    0    0    0  0.00000000000E+00  0.00000000000E+00  0.99999998245E-14  0.12500000000E+03  0.12500000000E+03 0.  0.
        -11    1    3    3    0    0  0.56495964490E+02  0.85813872280E+00  0.67444373571E+01  0.56903583730E+02  0.51100000000E-03 0. -1.
         23    2    1    0    0    0  0.23768913293E+02 -0.16152545502E+00 -0.15621938072E+02  0.96556507269E+02  0.92272026191E+02 0.  0.
         11    1    3    3    0    0 -0.32727051198E+02 -0.10196641778E+01 -0.22366375429E+02  0.39652923539E+02  0.51100000000E-03 0.  1.
         22    1    1    0    0    0 -0.23768913293E+02  0.16152545502E+00  0.15621938072E+02  0.28443492731E+02  0.00000000000E+00 0. -1.
</event>
<event>
 5    1  0.1681111E-003  0.9118800E+02  0.7818608E-02  0.1130116E+00
         25   -1    0    0    0    0  0.00000000000E+00  0.00000000000E+00  0.99999998245E-14  0.12500000000E+03  0.12500000000E+03 0.  0.
        -11    1    3    3    0    0  0.86030876732E+01 -0.24252769042E+01 -0.46294441323E+02  0.47149447327E+02  0.51100000000E-03 0.  1.
         23    2    1    0    0    0  0.17258171500E+02  0.26378786811E+02 -0.16775814635E+02  0.89291277903E+02  0.81840206963E+02 0.  0.
         11    1    3    3    0    0  0.86550838265E+01  0.28804063715E+02  0.29518626688E+02  0.42141830576E+02  0.51100000000E-03 0. -1.
         22    1    1    0    0    0 -0.17258171500E+02 -0.26378786811E+02  0.16775814635E+02  0.35708722097E+02  0.00000000000E+00 0.  1.
</event>
<event>
 5    1  0.1681111E-003  0.9118800E+02  0.7818608E-02  0.1130116E+00
         25   -1    0    0    0    0  0.00000000000E+00  0.00000000000E+00  0.99999998245E-14  0.12500000000E+03  0.12500000000E+03 0.  0.
        -11    1    3    3    0    0  0.36010654174E+02 -0.77773293048E+01 -0.62329767887E+01  0.37364475977E+02  0.51100000000E-03 0. -1.
         23    2    1    0    0    0 -0.71294846146E+01  0.26431718032E+02  0.11642091599E+02  0.95250990507E+02  0.90486173678E+02 0.  0.
         11    1    3    3    0    0 -0.43140138788E+02  0.34209047337E+02  0.17875068388E+02  0.57886514530E+02  0.51100000000E-03 0.  1.
         22    1    1    0    0    0  0.71294846146E+01 -0.26431718032E+02 -0.11642091599E+02  0.29749009493E+02  0.00000000000E+00 0.  1.
</event>
<event>
 5    1  0.1681111E-003  0.9118800E+02  0.7818608E-02  0.1130116E+00
         25   -1    0    0    0    0  0.00000000000E+00  0.00000000000E+00  0.99999998245E-14  0.12500000000E+03  0.12500000000E+03 0.  0.
        -11    1    3    3    0    0 -0.49902858846E+02 -0.79440977171E+01  0.90017719052E+01  0.51326756251E+02  0.51100000000E-03 0.  1.
         23    2    1    0    0    0 -0.10177143299E+02 -0.26640349043E+02 -0.14002700834E+01  0.96447536023E+02  0.92124285646E+02 0.  0.
         11    1    3    3    0    0  0.39725715548E+02 -0.18696251326E+02 -0.10402041989E+02  0.45120779772E+02  0.51100000000E-03 0. -1.
         22    1    1    0    0    0  0.10177143299E+02  0.26640349043E+02  0.14002700834E+01  0.28552463977E+02  0.00000000000E+00 0. -1.
</event>
<event>
 5    1  0.1681111E-003  0.9118800E+02  0.7818608E-02  0.1130116E+00
         25   -1    0    0    0    0  0.00000000000E+00  0.00000000000E+00  0.99999998245E-14  0.12500000000E+03  0.12500000000E+03 0.  0.
        -11    1    3    3    0    0 -0.13660103795E+02 -0.17420277247E+01  0.56014769177E+02  0.57682644378E+02  0.51100000000E-03 0.  1.
         23    2    1    0    0    0  0.26004196958E+01 -0.15694972480E+02  0.24061389839E+02  0.96154812798E+02  0.91726240517E+02 0.  0.
         11    1    3    3    0    0  0.16260523491E+02 -0.13952944755E+02 -0.31953379337E+02  0.38472168419E+02  0.51100000000E-03 0. -1.
         22    1    1    0    0    0 -0.26004196958E+01  0.15694972480E+02 -0.24061389839E+02  0.28845187202E+02  0.00000000000E+00 0.  1.
</event>
<event>
 5    1  0.1681111E-003  0.9118800E+02  0.7818608E-02  0.1130116E+00
         25   -1    0    0    0    0  0.00000000000E+00  0.00000000000E+00  0.99999998245E-14  0.12500000000E+03  0.12500000000E+03 0.  0.
        -11    1    3    3    0    0  0.40557542451E+02  0.10660208115E+01  0.23483793939E+01  0.40639457871E+02  0.51100000000E-03 0.  1.
         23    2    1    0    0    0 -0.53996173807E+01 -0.28820367430E+02  0.34874274346E+01  0.95471512115E+02  0.90790296997E+02 0.  0.
         11    1    3    3    0    0 -0.45957159832E+02 -0.29886388241E+02  0.11390480407E+01  0.54832054244E+02  0.51100000000E-03 0. -1.
         22    1    1    0    0    0  0.53996173807E+01  0.28820367430E+02 -0.34874274346E+01  0.29528487885E+02  0.00000000000E+00 0. -1.
</event>
<event>
 5    1  0.1681111E-003  0.9118800E+02  0.7818608E-02  0.1130116E+00
         25   -1    0    0    0    0  0.00000000000E+00  0.00000000000E+00  0.99999998245E-14  0.12500000000E+03  0.12500000000E+03 0.  0.
        -11    1    3    3    0    0  0.10873917011E+02  0.24861514638E+02  0.23179440219E+02  0.35687861107E+02  0.51100000000E-03 0. -1.
         23    2    1    0    0    0 -0.29571954440E+01 -0.96284744850E+01 -0.25878249399E+02  0.97230658673E+02  0.93180817061E+02 0.  0.
         11    1    3    3    0    0 -0.13831112455E+02 -0.34489989123E+02 -0.49057689618E+02  0.61542797566E+02  0.51100000000E-03 0.  1.
         22    1    1    0    0    0  0.29571954440E+01  0.96284744850E+01  0.25878249399E+02  0.27769341327E+02  0.00000000000E+00 0.  1.
</event>
<event>
 5    1  0.1681111E-003  0.9118800E+02  0.7818608E-02  0.1130116E+00
         25   -1    0    0    0    0  0.00000000000E+00  0.00000000000E+00  0.99999998245E-14  0.12500000000E+03  0.12500000000E+03 0.  0.
        -11    1    3    3    0    0  0.42628062852E+02 -0.87817552571E+01  0.10862689842E+02  0.44858321399E+02  0.51100000000E-03 0.  1.
         23    2    1    0    0    0 -0.13940161121E+02 -0.17161296221E+02  0.49000995840E+01  0.10235382690E+03  0.99817116395E+02 0.  0.
         11    1    3    3    0    0 -0.56568223973E+02 -0.83795409638E+01 -0.59625902578E+01  0.57495505503E+02  0.51100000000E-03 0. -1.
         22    1    1    0    0    0  0.13940161121E+02  0.17161296221E+02 -0.49000995840E+01  0.22646173098E+02  0.00000000000E+00 0. -1.
</event>
<event>
 5    1  0.1681111E-003  0.9118800E+02  0.7818608E-02  0.1130116E+00
         25   -1    0    0    0    0  0.00000000000E+00  0.00000000000E+00  0.99999998245E-14  0.12500000000E+03  0.12500000000E+03 0.  0.
        -11    1    3    3    0    0 -0.49149617628E+02  0.10265435953E+02  0.35604351392E+02  0.61552692277E+02  0.51100000000E-03 0.  1.
         23    2    1    0    0    0 -0.23709667842E+02 -0.28538980776E+01  0.15540561299E+02  0.96507858471E+02  0.92206098593E+02 0.  0.
         11    1    3    3    0    0  0.25439949785E+02 -0.13119334030E+02 -0.20063790093E+02  0.34955166194E+02  0.51100000000E-03 0. -1.
         22    1    1    0    0    0  0.23709667842E+02  0.28538980776E+01 -0.15540561299E+02  0.28492141529E+02  0.00000000000E+00 0.  1.
</event>
<event>
 5    1  0.1681111E-003  0.9118800E+02  0.7818608E-02  0.1130116E+00
         25   -1    0    0    0    0  0.00000000000E+00  0.00000000000E+00  0.99999998245E-14  0.12500000000E+03  0.12500000000E+03 0.  0.
        -11    1    3    3    0    0 -0.76372112358E+01 -0.51496373880E+02  0.20556198801E+02  0.55971071346E+02  0.51100000000E-03 0.  1.
         23    2    1    0    0    0 -0.15526829071E+02 -0.24053657941E+02 -0.68637840401E+01  0.95559001160E+02  0.90910672035E+02 0.  0.
         11    1    3    3    0    0 -0.78896178354E+01  0.27442715938E+02 -0.27419982841E+02  0.39587929813E+02  0.51100000000E-03 0. -1.
         22    1    1    0    0    0  0.15526829071E+02  0.24053657941E+02  0.68637840401E+01  0.29440998840E+02  0.00000000000E+00 0.  1.
</event>
<event>
 5    1  0.1681111E-003  0.9118800E+02  0.7818608E-02  0.1130116E+00
         25   -1    0    0    0    0  0.00000000000E+00  0.00000000000E+00  0.99999998245E-14  0.12500000000E+03  0.12500000000E+03 0.  0.
        -11    1    3    3    0    0 -0.21177269708E+01 -0.28677032367E+02  0.33258603232E+02  0.43965800824E+02  0.51100000000E-03 0. -1.
         23    2    1    0    0    0  0.25459210602E+02 -0.82787955993E+01 -0.74619661963E+01  0.97208080301E+02  0.93150523751E+02 0.  0.
         11    1    3    3    0    0  0.27576937573E+02  0.20398236767E+02 -0.40720569428E+02  0.53242279477E+02  0.51100000000E-03 0.  1.
         22    1    1    0    0    0 -0.25459210602E+02  0.82787955993E+01  0.74619661963E+01  0.27791919699E+02  0.00000000000E+00 0. -1.
</event>
<event>
 5    1  0.1681111E-003  0.9118800E+02  0.7818608E-02  0.1130116E+00
         25   -1    0    0    0    0  0.00000000000E+00  0.00000000000E+00  0.99999998245E-14  0.12500000000E+03  0.12500000000E+03 0.  0.
        -11    1    3    3    0    0 -0.41370386195E+02  0.19414545413E+02  0.28757878095E+02  0.53994897725E+02  0.51100000000E-03 0. -1.
         23    2    1    0    0    0 -0.15328640135E+02  0.17871293518E+02  0.36816519287E+02  0.81298667838E+02  0.68554117013E+02 0.  0.
         11    1    3    3    0    0  0.26041746060E+02 -0.15432518943E+01  0.80586411911E+01  0.27303770113E+02  0.51100000000E-03 0.  1.
         22    1    1    0    0    0  0.15328640135E+02 -0.17871293518E+02 -0.36816519287E+02  0.43701332162E+02  0.00000000000E+00 0. -1.
</event>
<event>
 5    1  0.1681111E-003  0.9118800E+02  0.7818608E-02  0.1130116E+00
         25   -1    0    0    0    0  0.00000000000E+00  0.00000000000E+00  0.99999998245E-14  0.12500000000E+03  0.12500000000E+03 0.  0.
        -11    1    3    3    0    0  0.49882557070E+01  0.38319236623E+02 -0.12413163986E+02  0.40587353088E+02  0.51100000000E-03 0. -1.
         23    2    1    0    0    0  0.32690165688E+02 -0.37342022298E+01 -0.18208188991E+01  0.92046903325E+02  0.85946063501E+02 0.  0.
         11    1    3    3    0    0  0.27701909981E+02 -0.42053438852E+02  0.10592345086E+02  0.51459550237E+02  0.51100000000E-03 0.  1.
         22    1    1    0    0    0 -0.32690165688E+02  0.37342022298E+01  0.18208188991E+01  0.32953096675E+02  0.00000000000E+00 0.  1.
</event>
<event>
 5    1  0.1681111E-003  0.9118800E+02  0.7818608E-02  0.1130116E+00
         25   -1    0    0    0    0  0.00000000000E+00  0.00000000000E+00  0.99999998245E-14  0.12500000000E+03  0.12500000000E+03 0.  0.
        -11    1    3    3    0    0  0.11974987165E+02  0.45646730330E+02 -0.11442153016E+02  0.48558698226E+02  0.51100000000E-03 0.  1.
         23    2    1    0    0    0 -0.31468371166E+01  0.18594308528E+02  0.23240240242E+02  0.95070755774E+02  0.90236849144E+02 0.  0.
         11    1    3    3    0    0 -0.15121824282E+02 -0.27052421802E+02  0.34682393258E+02  0.46512057548E+02  0.51100000000E-03 0. -1.
         22    1    1    0    0    0  0.31468371166E+01 -0.18594308528E+02 -0.23240240242E+02  0.29929244226E+02  0.00000000000E+00 0.  1.
</event>
<event>
 5    1  0.1681111E-003  0.9118800E+02  0.7818608E-02  0.1130116E+00
         25   -1    0    0    0    0  0.00000000000E+00  0.00000000000E+00  0.99999998245E-14  0.12500000000E+03  0.12500000000E+03 0.  0.
        -11    1    3    3    0    0  0.47008873773E+02  0.37955791456E+02 -0.54887356211E+01  0.60667969617E+02  0.51100000000E-03 0.  1.
         23    2    1    0    0    0  0.30788130500E+02  0.12858434491E+02 -0.81022143869E+01  0.90664971309E+02  0.83912113710E+02 0.  0.
         11    1    3    3    0    0 -0.16220743274E+02 -0.25097356965E+02 -0.26134787657E+01  0.29997001692E+02  0.51100000000E-03 0. -1.
         22    1    1    0    0    0 -0.30788130500E+02 -0.12858434491E+02  0.81022143869E+01  0.34335028691E+02  0.00000000000E+00 0.  1.
</event>
<event>
 5    1  0.1681111E-003  0.9118800E+02  0.7818608E-02  0.1130116E+00
         25   -1    0    0    0    0  0.00000000000E+00  0.00000000000E+00  0.99999998245E-14  0.12500000000E+03  0.12500000000E+03 0.  0.
        -11    1    3    3    0    0 -0.23677148506E+02  0.29434842119E+02  0.39260811150E+02  0.54483287203E+02  0.51100000000E-03 0. -1.
         23    2    1    0    0    0  0.11602124790E+02  0.15893846482E+02  0.20171890493E+02  0.96819708630E+02  0.92627896217E+02 0.  0.
         11    1    3    3    0    0  0.35279273296E+02 -0.13540995637E+02 -0.19088920658E+02  0.42336421427E+02  0.51100000000E-03 0.  1.
         22    1    1    0    0    0 -0.11602124790E+02 -0.15893846482E+02 -0.20171890493E+02  0.28180291370E+02  0.00000000000E+00 0. -1.
</event>
<event>
 5    1  0.1681111E-003  0.9118800E+02  0.7818608E-02  0.1130116E+00
         25   -1    0    0    0    0  0.00000000000E+00  0.00000000000E+00  0.99999998245E-14  0.12500000000E+03  0.12500000000E+03 0.  0.
        -11    1    3    3    0    0  0.48887206403E+02  0.47460871408E+01  0.32541337480E+02  0.58918782560E+02  0.51100000000E-03 0.  1.
         23    2    1    0    0    0  0.20871903036E+02 -0.90109640954E+01  0.25353579935E+02  0.90946544584E+02  0.84330517287E+02 0.  0.
         11    1    3    3    0    0 -0.28015303367E+02 -0.13757051236E+02 -0.71877575456E+01  0.32027762024E+02  0.51100000000E-03 0. -1.
         22    1    1    0    0    0 -0.20871903036E+02  0.90109640954E+01 -0.25353579935E+02  0.34053455416E+02  0.00000000000E+00 0.  1.
</event>
<event>
 5    1  0.1681111E-003  0.9118800E+02  0.7818608E-02  0.1130116E+00
         25   -1    0    0    0    0  0.00000000000E+00  0.00000000000E+00  0.99999998245E-14  0.12500000000E+03  0.12500000000E+03 0.  0.
        -11    1    3    3    0    0 -0.83020111976E+01  0.48900974109E+01 -0.35734393783E+02  0.37010584188E+02  0.51100000000E-03 0. -1.
         23    2    1    0    0    0  0.26756574050E+02  0.10052575880E+02  0.98670250393E+01  0.94762164101E+02  0.89808357213E+02 0.  0.
         11    1    3    3    0    0  0.35058585248E+02  0.51624784687E+01  0.45601418823E+02  0.57751579913E+02  0.51100000000E-03 0.  1.
         22    1    1    0    0    0 -0.26756574050E+02 -0.10052575880E+02 -0.98670250393E+01  0.30237835899E+02  0.00000000000E+00 0.  1.
</event>
<event>
 5    1  0.1681111E-003  0.9118800E+02  0.7818608E-02  0.1130116E+00
         25   -1    0    0    0    0  0.00000000000E+00  0.00000000000E+00  0.99999998245E-14  0.12500000000E+03  0.12500000000E+03 0.  0.
        -11    1    3    3    0    0  0.48901998775E+02  0.13125055852E+02  0.29567840788E+02  0.58633862097E+02  0.51100000000E-03 0.  1.
         23    2    1    0    0    0  0.31118727686E+02  0.15899506323E+02  0.41065439129E+01  0.89814303801E+02  0.82635198010E+02 0.  0.
         11    1    3    3    0    0 -0.17783271089E+02  0.27744504707E+01 -0.25461296875E+02  0.31180441704E+02  0.51100000000E-03 0. -1.
         22    1    1    0    0    0 -0.31118727686E+02 -0.15899506323E+02 -0.41065439129E+01  0.35185696199E+02  0.00000000000E+00 0.  1.
</event>
<event>
 5    1  0.1681111E-003  0.9118800E+02  0.7818608E-02  0.1130116E+00
         25   -1    0    0    0    0  0.00000000000E+00  0.00000000000E+00  0.99999998245E-14  0.12500000000E+03  0.12500000000E+03 0.  0.
        -11    1    3    3    0    0  0.34690098071E+02  0.37400604933E+01  0.11711010880E+02  0.36804058645E+02  0.51100000000E-03 0.  1.
         23    2    1    0    0    0  0.92082110544E+01  0.23695460850E+02 -0.27435139686E+02  0.87597421141E+02  0.79210828081E+02 0.  0.
         11    1    3    3    0    0 -0.25481887017E+02  0.19955400357E+02 -0.39146150565E+02  0.50793362496E+02  0.51100000000E-03 0. -1.
         22    1    1    0    0    0 -0.92082110544E+01 -0.23695460850E+02  0.27435139686E+02  0.37402578859E+02  0.00000000000E+00 0. -1.
</event>
<event>
 5    1  0.1681111E-003  0.9118800E+02  0.7818608E-02  0.1130116E+00
         25   -1    0    0    0    0  0.00000000000E+00  0.00000000000E+00  0.99999998245E-14  0.12500000000E+03  0.12500000000E+03 0.  0.
        -11    1    3    3    0    0  0.36147568427E+02 -0.15554688821E+02  0.15162335341E+02  0.42172164525E+02  0.51100000000E-03 0. -1.
         23    2    1    0    0    0  0.21096767741E+02  0.17337972630E+02 -0.18845834111E+02  0.91821025220E+02  0.85616915999E+02 0.  0.
         11    1    3    3    0    0 -0.15050800685E+02  0.32892661451E+02 -0.34008169452E+02  0.49648860695E+02  0.51100000000E-03 0.  1.
         22    1    1    0    0    0 -0.21096767741E+02 -0.17337972630E+02  0.18845834111E+02  0.33178974780E+02  0.00000000000E+00 0.  1.
</event>
<event>
 5    1  0.1681111E-003  0.9118800E+02  0.7818608E-02  0.1130116E+00
         25   -1    0    0    0    0  0.00000000000E+00  0.00000000000E+00  0.99999998245E-14  0.12500000000E+03  0.12500000000E+03 0.  0.
        -11    1    3    3    0    0  0.42501320976E+02  0.88008154249E+01 -0.33622130214E+00  0.43404258799E+02  0.51100000000E-03 0.  1.
         23    2    1    0    0    0 -0.49776250982E+01  0.27713339978E+02  0.91693068457E+01  0.95387803992E+02  0.90674974486E+02 0.  0.
         11    1    3    3    0    0 -0.47478946074E+02  0.18912524553E+02  0.95055281479E+01  0.51983545194E+02  0.51100000000E-03 0. -1.
         22    1    1    0    0    0  0.49776250982E+01 -0.27713339978E+02 -0.91693068457E+01  0.29612196008E+02  0.00000000000E+00 0. -1.
</event>
<event>
 5    1  0.1681111E-003  0.9118800E+02  0.7818608E-02  0.1130116E+00
         25   -1    0    0    0    0  0.00000000000E+00  0.00000000000E+00  0.99999998245E-14  0.12500000000E+03  0.12500000000E+03 0.  0.
        -11    1    3    3    0    0  0.23420874588E+02 -0.12672041154E+02 -0.24688395283E+02  0.36313012205E+02  0.51100000000E-03 0.  1.
         23    2    1    0    0    0 -0.20400393629E+02 -0.11473267680E+02  0.16419488289E+02  0.96409590294E+02  0.92072784109E+02 0.  0.
         11    1    3    3    0    0 -0.43821268217E+02  0.11987734735E+01  0.41107883572E+02  0.60096578089E+02  0.51100000000E-03 0. -1.
         22    1    1    0    0    0  0.20400393629E+02  0.11473267680E+02 -0.16419488289E+02  0.28590409706E+02  0.00000000000E+00 0. -1.
</event>
<event>
 5    1  0.1681111E-003  0.9118800E+02  0.7818608E-02  0.1130116E+00
         25   -1    0    0    0    0  0.00000000000E+00  0.00000000000E+00  0.99999998245E-14  0.12500000000E+03  0.12500000000E+03 0.  0.
        -11    1    3    3    0    0  0.16561529984E+02 -0.38956896859E+02 -0.91147271996E+01  0.43301297215E+02  0.51100000000E-03 0.  1.
         23    2    1    0    0    0  0.42725779913E+01  0.98710233525E+01 -0.26365335013E+02  0.96525047585E+02  0.92229398221E+02 0.  0.
         11    1    3    3    0    0 -0.12288951993E+02  0.48827920212E+02 -0.17250607813E+02  0.53223750370E+02  0.51100000000E-03 0. -1.
         22    1    1    0    0    0 -0.42725779913E+01 -0.98710233525E+01  0.26365335013E+02  0.28474952415E+02  0.00000000000E+00 0. -1.
</event>
<event>
 5    1  0.1681111E-003  0.9118800E+02  0.7818608E-02  0.1130116E+00
         25   -1    0    0    0    0  0.00000000000E+00  0.00000000000E+00  0.99999998245E-14  0.12500000000E+03  0.12500000000E+03 0.  0.
        -11    1    3    3    0    0 -0.18403152209E+02 -0.23209468939E+02 -0.36082026727E+02  0.46682631809E+02  0.51100000000E-03 0.  1.
         23    2    1    0    0    0 -0.21145049164E+02 -0.35680852763E+02 -0.15551372292E+01  0.83495123060E+02  0.72448469721E+02 0.  0.
         11    1    3    3    0    0 -0.27418969550E+01 -0.12471383824E+02  0.34526889498E+02  0.36812491251E+02  0.51100000000E-03 0. -1.
         22    1    1    0    0    0  0.21145049164E+02  0.35680852763E+02  0.15551372292E+01  0.41504876940E+02  0.00000000000E+00 0.  1.
</event>
<event>
 5    1  0.1681111E-003  0.9118800E+02  0.7818608E-02  0.1130116E+00
         25   -1    0    0    0    0  0.00000000000E+00  0.00000000000E+00  0.99999998245E-14  0.12500000000E+03  0.12500000000E+03 0.  0.
        -11    1    3    3    0    0 -0.47715889676E+02  0.33559905596E+02 -0.97676391773E+01  0.59147951499E+02  0.51100000000E-03 0. -1.
         23    2    1    0    0    0 -0.11782637217E+02  0.24114318079E+02 -0.10155416513E+02  0.96303948691E+02  0.91929250909E+02 0.  0.
         11    1    3    3    0    0  0.35933252459E+02 -0.94455875167E+01 -0.38777733545E+00  0.37155997192E+02  0.51100000000E-03 0.  1.
         22    1    1    0    0    0  0.11782637217E+02 -0.24114318079E+02  0.10155416513E+02  0.28696051309E+02  0.00000000000E+00 0. -1.
</event>
<event>
 5    1  0.1681111E-003  0.9118800E+02  0.7818608E-02  0.1130116E+00
         25   -1    0    0    0    0  0.00000000000E+00  0.00000000000E+00  0.99999998245E-14  0.12500000000E+03  0.12500000000E+03 0.  0.
        -11    1    3    3    0    0 -0.47542335829E+02  0.19580453782E+02  0.34614995266E+02  0.61982786029E+02  0.51100000000E-03 0.  1.
         23    2    1    0    0    0 -0.15727995391E+02  0.71093585159E+01  0.18284150288E+02  0.99855955590E+02  0.96638444200E+02 0.  0.
         11    1    3    3    0    0  0.31814340438E+02 -0.12471095266E+02 -0.16330844978E+02  0.37873169561E+02  0.51100000000E-03 0. -1.
         22    1    1    0    0    0  0.15727995391E+02 -0.71093585159E+01 -0.18284150288E+02  0.25144044410E+02  0.00000000000E+00 0.  1.
</event>
<event>
 5    1  0.1681111E-003  0.9118800E+02  0.7818608E-02  0.1130116E+00
         25   -1    0    0    0    0  0.00000000000E+00  0.00000000000E+00  0.99999998245E-14  0.12500000000E+03  0.12500000000E+03 0.  0.
        -11    1    3    3    0    0 -0.80356250062E+00  0.21217555425E+01  0.52032378150E+02  0.52081819625E+02  0.51100000000E-03 0.  1.
         23    2    1    0    0    0 -0.21101170549E+02  0.12910048939E+02  0.13849898898E+02  0.96649542126E+02  0.92397973633E+02 0.  0.
         11    1    3    3    0    0 -0.20297608049E+02  0.10788293397E+02 -0.38182479251E+02  0.44567722501E+02  0.51100000000E-03 0. -1.
         22    1    1    0    0    0  0.21101170549E+02 -0.12910048939E+02 -0.13849898898E+02  0.28350457874E+02  0.00000000000E+00 0.  1.
</event>
<event>
 5    1  0.1681111E-003  0.9118800E+02  0.7818608E-02  0.1130116E+00
         25   -1    0    0    0    0  0.00000000000E+00  0.00000000000E+00  0.99999998245E-14  0.12500000000E+03  0.12500000000E+03 0.  0.
        -11    1    3    3    0    0 -0.22679392832E+01  0.18476228362E+02 -0.28846076186E+02  0.34330899707E+02  0.51100000000E-03 0.  1.
         23    2    1    0    0    0  0.36100433532E+02  0.74704687842E+01  0.64030863024E+01  0.87582775099E+02  0.79187712271E+02 0.  0.
         11    1    3    3    0    0  0.38368372816E+02 -0.11005759578E+02  0.35249162488E+02  0.53251875392E+02  0.51100000000E-03 0. -1.
         22    1    1    0    0    0 -0.36100433532E+02 -0.74704687842E+01 -0.64030863024E+01  0.37417224901E+02  0.00000000000E+00 0. -1.
</event>
<event>
 5    1  0.1681111E-003  0.9118800E+02  0.7818608E-02  0.1130116E+00
         25   -1    0    0    0    0  0.00000000000E+00  0.00000000000E+00  0.99999998245E-14  0.12500000000E+03  0.12500000000E+03 0.  0.
        -11    1    3    3    0    0 -0.77179124125E+01  0.31379760479E+02  0.17600807833E+02  0.36797336539E+02  0.51100000000E-03 0.  1.
         23    2    1    0    0    0  0.20490386163E+02 -0.19417236166E+02  0.38136491827E+01  0.96514408809E+02  0.92214978188E+02 0.  0.
         11    1    3    3    0    0  0.28208298576E+02 -0.50796996644E+02 -0.13787158650E+02  0.59717072270E+02  0.51100000000E-03 0. -1.
         22    1    1    0    0    0 -0.20490386163E+02  0.19417236166E+02 -0.38136491827E+01  0.28485591191E+02  0.00000000000E+00 0. -1.
</event>
<event>
 5    1  0.1681111E-003  0.9118800E+02  0.7818608E-02  0.1130116E+00
         25   -1    0    0    0    0  0.00000000000E+00  0.00000000000E+00  0.99999998245E-14  0.12500000000E+03  0.12500000000E+03 0.  0.
        -11    1    3    3    0    0 -0.37305019292E+01  0.39035258465E+02  0.47637420530E+02  0.61700825628E+02  0.51100000000E-03 0.  1.
         23    2    1    0    0    0 -0.82583596878E+01  0.18624822061E+02  0.19129134659E+02  0.97053474378E+02  0.92942824330E+02 0.  0.
         11    1    3    3    0    0 -0.45278577586E+01 -0.20410436404E+02 -0.28508285871E+02  0.35352648750E+02  0.51100000000E-03 0. -1.
         22    1    1    0    0    0  0.82583596878E+01 -0.18624822061E+02 -0.19129134659E+02  0.27946525622E+02  0.00000000000E+00 0.  1.
</event>
<event>
 5    1  0.1681111E-003  0.9118800E+02  0.7818608E-02  0.1130116E+00
         25   -1    0    0    0    0  0.00000000000E+00  0.00000000000E+00  0.99999998245E-14  0.12500000000E+03  0.12500000000E+03 0.  0.
        -11    1    3    3    0    0  0.14866045628E+02  0.54001626672E+02 -0.90855109595E+01  0.56742589873E+02  0.51100000000E-03 0.  1.
         23    2    1    0    0    0  0.17987325382E+02  0.18898095159E+02  0.10283613799E+02  0.96956558917E+02  0.92812389955E+02 0.  0.
         11    1    3    3    0    0  0.31212797536E+01 -0.35103531514E+02  0.19369124759E+02  0.40213969043E+02  0.51100000000E-03 0. -1.
         22    1    1    0    0    0 -0.17987325382E+02 -0.18898095159E+02 -0.10283613799E+02  0.28043441083E+02  0.00000000000E+00 0.  1.
</event>
<event>
 5    1  0.1681111E-003  0.9118800E+02  0.7818608E-02  0.1130116E+00
         25   -1    0    0    0    0  0.00000000000E+00  0.00000000000E+00  0.99999998245E-14  0.12500000000E+03  0.12500000000E+03 0.  0.
        -11    1    3    3    0    0 -0.19250932146E+02 -0.43337421189E+02  0.54844172747E+00  0.47423952307E+02  0.51100000000E-03 0.  1.
         23    2    1    0    0    0 -0.19008314236E+02  0.20083078965E+00 -0.21561654082E+02  0.96255239262E+02  0.91862994811E+02 0.  0.
         11    1    3    3    0    0  0.24261791062E+00  0.43538251978E+02 -0.22110095810E+02  0.48831286956E+02  0.51100000000E-03 0. -1.
         22    1    1    0    0    0  0.19008314236E+02 -0.20083078965E+00  0.21561654082E+02  0.28744760738E+02  0.00000000000E+00 0. -1.
</event>
<event>
 5    1  0.1681111E-003  0.9118800E+02  0.7818608E-02  0.1130116E+00
         25   -1    0    0    0    0  0.00000000000E+00  0.00000000000E+00  0.99999998245E-14  0.12500000000E+03  0.12500000000E+03 0.  0.
        -11    1    3    3    0    0 -0.35827912459E+02  0.37917490838E+02 -0.15449472047E+02  0.54406448233E+02  0.51100000000E-03 0.  1.
         23    2    1    0    0    0 -0.12906016927E+02  0.30192987839E+01 -0.24514235231E+02  0.97131932844E+02  0.93048284299E+02 0.  0.
         11    1    3    3    0    0  0.22921895531E+02 -0.34898192054E+02 -0.90647631840E+01  0.42725484611E+02  0.51100000000E-03 0. -1.
         22    1    1    0    0    0  0.12906016927E+02 -0.30192987839E+01  0.24514235231E+02  0.27868067156E+02  0.00000000000E+00 0.  1.
</event>
<event>
 5    1  0.1681111E-003  0.9118800E+02  0.7818608E-02  0.1130116E+00
         25   -1    0    0    0    0  0.00000000000E+00  0.00000000000E+00  0.99999998245E-14  0.12500000000E+03  0.12500000000E+03 0.  0.
        -11    1    3    3    0    0 -0.19469256905E+02  0.31668635880E+02 -0.55798321712E+01  0.37591075939E+02  0.51100000000E-03 0.  1.
         23    2    1    0    0    0 -0.14447186330E+02 -0.25071648263E+02  0.52984732627E+01  0.95582614691E+02  0.90943134281E+02 0.  0.
         11    1    3    3    0    0  0.50220705746E+01 -0.56740284143E+02  0.10878305434E+02  0.57991538752E+02  0.51100000000E-03 0. -1.
         22    1    1    0    0    0  0.14447186330E+02  0.25071648263E+02 -0.52984732627E+01  0.29417385309E+02  0.00000000000E+00 0. -1.
</event>
<event>
 5    1  0.1681111E-003  0.9118800E+02  0.7818608E-02  0.1130116E+00
         25   -1    0    0    0    0  0.00000000000E+00  0.00000000000E+00  0.99999998245E-14  0.12500000000E+03  0.12500000000E+03 0.  0.
        -11    1    3    3    0    0 -0.18304325683E+01  0.18738664119E+02  0.25556126218E+02  0.31742772467E+02  0.51100000000E-03 0.  1.
         23    2    1    0    0    0 -0.34159976478E+01 -0.53223586622E+01 -0.31071927345E+02  0.93290991649E+02  0.87736810475E+02 0.  0.
         11    1    3    3    0    0 -0.15855650796E+01 -0.24061022781E+02 -0.56628053563E+02  0.61548219182E+02  0.51100000000E-03 0. -1.
         22    1    1    0    0    0  0.34159976478E+01  0.53223586622E+01  0.31071927345E+02  0.31709008351E+02  0.00000000000E+00 0. -1.
</event>
<event>
 5    1  0.1681111E-003  0.9118800E+02  0.7818608E-02  0.1130116E+00
         25   -1    0    0    0    0  0.00000000000E+00  0.00000000000E+00  0.99999998245E-14  0.12500000000E+03  0.12500000000E+03 0.  0.
        -11    1    3    3    0    0 -0.38713230884E+02  0.86497477081E+01  0.98366170814E+01  0.40869198876E+02  0.51100000000E-03 0.  1.
         23    2    1    0    0    0 -0.59990076114E+01 -0.19950616223E+02 -0.21972616424E+02  0.94721112099E+02  0.89751200687E+02 0.  0.
         11    1    3    3    0    0  0.32714223272E+02 -0.28600363931E+02 -0.31809233506E+02  0.53851913223E+02  0.51100000000E-03 0. -1.
         22    1    1    0    0    0  0.59990076114E+01  0.19950616223E+02  0.21972616424E+02  0.30278887901E+02  0.00000000000E+00 0. -1.
</event>
<event>
 5    1  0.1681111E-003  0.9118800E+02  0.7818608E-02  0.1130116E+00
         25   -1    0    0    0    0  0.00000000000E+00  0.00000000000E+00  0.99999998245E-14  0.12500000000E+03  0.12500000000E+03 0.  0.
        -11    1    3    3    0    0  0.15008877315E+02 -0.36327710709E+02  0.26673476426E+02  0.47502034783E+02  0.51100000000E-03 0.  1.
         23    2    1    0    0    0  0.20756007215E+02 -0.30325129045E+02 -0.11441080659E+02  0.86512032871E+02  0.77479082453E+02 0.  0.
         11    1    3    3    0    0  0.57471298993E+01  0.60025816641E+01 -0.38114557086E+02  0.39009998088E+02  0.51100000000E-03 0. -1.
         22    1    1    0    0    0 -0.20756007215E+02  0.30325129045E+02  0.11441080659E+02  0.38487967129E+02  0.00000000000E+00 0.  1.
</event>
<event>
 5    1  0.1681111E-003  0.9118800E+02  0.7818608E-02  0.1130116E+00
         25   -1    0    0    0    0  0.00000000000E+00  0.00000000000E+00  0.99999998245E-14  0.12500000000E+03  0.12500000000E+03 0.  0.
        -11    1    3    3    0    0  0.19407698212E+02  0.13408006929E+02 -0.25625314297E+02  0.34829443475E+02  0.51100000000E-03 0.  1.
         23    2    1    0    0    0 -0.96784287473E+01  0.61113971379E+01  0.27153565304E+02  0.95532437042E+02  0.90874139669E+02 0.  0.
         11    1    3    3    0    0 -0.29086126959E+02 -0.72966097909E+01  0.52778879600E+02  0.60702993567E+02  0.51100000000E-03 0. -1.
         22    1    1    0    0    0  0.96784287473E+01 -0.61113971379E+01 -0.27153565304E+02  0.29467562958E+02  0.00000000000E+00 0. -1.
</event>
<event>
 5    1  0.1681111E-003  0.9118800E+02  0.7818608E-02  0.1130116E+00
         25   -1    0    0    0    0  0.00000000000E+00  0.00000000000E+00  0.99999998245E-14  0.12500000000E+03  0.12500000000E+03 0.  0.
        -11    1    3    3    0    0 -0.92727887425E+01 -0.37660771773E+02  0.15550901134E+02  0.41786946143E+02  0.51100000000E-03 0.  1.
         23    2    1    0    0    0  0.82603108927E+01  0.11525161346E+02  0.26320078894E+02  0.95103367530E+02  0.90282013061E+02 0.  0.
         11    1    3    3    0    0  0.17533099635E+02  0.49185933119E+02  0.10769177760E+02  0.53316421387E+02  0.51100000000E-03 0. -1.
         22    1    1    0    0    0 -0.82603108927E+01 -0.11525161346E+02 -0.26320078894E+02  0.29896632470E+02  0.00000000000E+00 0. -1.
</event>
<event>
 5    1  0.1681111E-003  0.9118800E+02  0.7818608E-02  0.1130116E+00
         25   -1    0    0    0    0  0.00000000000E+00  0.00000000000E+00  0.99999998245E-14  0.12500000000E+03  0.12500000000E+03 0.  0.
        -11    1    3    3    0    0 -0.80906372175E+01 -0.29517634780E+02  0.14182042718E+02  0.33732469662E+02  0.51100000000E-03 0.  1.
         23    2    1    0    0    0  0.26693220699E+02  0.90591980832E+01 -0.14745717603E+02  0.93187529351E+02  0.87589282094E+02 0.  0.
         11    1    3    3    0    0  0.34783857916E+02  0.38576832863E+02 -0.28927760320E+02  0.59455059689E+02  0.51100000000E-03 0. -1.
         22    1    1    0    0    0 -0.26693220699E+02 -0.90591980832E+01  0.14745717603E+02  0.31812470649E+02  0.00000000000E+00 0. -1.
</event>
<event>
 5    1  0.1681111E-003  0.9118800E+02  0.7818608E-02  0.1130116E+00
         25   -1    0    0    0    0  0.00000000000E+00  0.00000000000E+00  0.99999998245E-14  0.12500000000E+03  0.12500000000E+03 0.  0.
        -11    1    3    3    0    0 -0.32899935833E+02 -0.13100302168E+02 -0.28439665410E+02  0.45418479319E+02  0.51100000000E-03 0.  1.
         23    2    1    0    0    0  0.17125930217E+02 -0.11607621941E+02 -0.20096500494E+02  0.96157259058E+02  0.91729574100E+02 0.  0.
         11    1    3    3    0    0  0.50025866050E+02  0.14926802267E+01  0.83431649162E+01  0.50738779739E+02  0.51100000000E-03 0. -1.
         22    1    1    0    0    0 -0.17125930217E+02  0.11607621941E+02  0.20096500494E+02  0.28842740942E+02  0.00000000000E+00 0. -1.
</event>
<event>
 5    1  0.1681111E-003  0.9118800E+02  0.7818608E-02  0.1130116E+00
         25   -1    0    0    0    0  0.00000000000E+00  0.00000000000E+00  0.99999998245E-14  0.12500000000E+03  0.12500000000E+03 0.  0.
        -11    1    3    3    0    0 -0.16270400283E+02  0.33385483125E+02 -0.24165676808E+02  0.44309100021E+02  0.51100000000E-03 0.  1.
         23    2    1    0    0    0  0.20415923886E+02  0.17841668776E+02  0.92935425436E+01  0.96338091030E+02  0.91975663941E+02 0.  0.
         11    1    3    3    0    0  0.36686324168E+02 -0.15543814349E+02  0.33459219352E+02  0.52028991009E+02  0.51100000000E-03 0. -1.
         22    1    1    0    0    0 -0.20415923886E+02 -0.17841668776E+02 -0.92935425436E+01  0.28661908970E+02  0.00000000000E+00 0. -1.
</event>
<event>
 5    1  0.1681111E-003  0.9118800E+02  0.7818608E-02  0.1130116E+00
         25   -1    0    0    0    0  0.00000000000E+00  0.00000000000E+00  0.99999998245E-14  0.12500000000E+03  0.12500000000E+03 0.  0.
        -11    1    3    3    0    0 -0.32417441172E+02 -0.20945366120E+02  0.19137842023E+02  0.43079645444E+02  0.51100000000E-03 0.  1.
         23    2    1    0    0    0 -0.43451165274E+01  0.22774745150E+02  0.18979840275E+02  0.95036632513E+02  0.90189567735E+02 0.  0.
         11    1    3    3    0    0  0.28072324645E+02  0.43720111270E+02 -0.15800174771E+00  0.51956987069E+02  0.51100000000E-03 0. -1.
         22    1    1    0    0    0  0.43451165274E+01 -0.22774745150E+02 -0.18979840275E+02  0.29963367487E+02  0.00000000000E+00 0. -1.
</event>
<event>
 5    1  0.1681111E-003  0.9118800E+02  0.7818608E-02  0.1130116E+00
         25   -1    0    0    0    0  0.00000000000E+00  0.00000000000E+00  0.99999998245E-14  0.12500000000E+03  0.12500000000E+03 0.  0.
        -11    1    3    3    0    0 -0.32884149174E+02 -0.85382995176E+01  0.45134439959E+02  0.56492366708E+02  0.51100000000E-03 0.  1.
         23    2    1    0    0    0  0.13402963504E+01 -0.92263771082E+01  0.29382047355E+02  0.94174245579E+02  0.88986298916E+02 0.  0.
         11    1    3    3    0    0  0.34224445525E+02 -0.68807759062E+00 -0.15752392604E+02  0.37681878871E+02  0.51100000000E-03 0. -1.
         22    1    1    0    0    0 -0.13402963504E+01  0.92263771082E+01 -0.29382047355E+02  0.30825754421E+02  0.00000000000E+00 0.  1.
</event>
<event>
 5    1  0.1681111E-003  0.9118800E+02  0.7818608E-02  0.1130116E+00
         25   -1    0    0    0    0  0.00000000000E+00  0.00000000000E+00  0.99999998245E-14  0.12500000000E+03  0.12500000000E+03 0.  0.
        -11    1    3    3    0    0 -0.10706067158E+02  0.46610689414E+02  0.25965801923E+02  0.54418738606E+02  0.51100000000E-03 0.  1.
         23    2    1    0    0    0 -0.10504740168E+02  0.47744983813E+01  0.26325217364E+02  0.96256957884E+02  0.91865333348E+02 0.  0.
         11    1    3    3    0    0  0.20132698983E+00 -0.41836191033E+02  0.35941544098E+00  0.41838219279E+02  0.51100000000E-03 0. -1.
         22    1    1    0    0    0  0.10504740168E+02 -0.47744983813E+01 -0.26325217364E+02  0.28743042116E+02  0.00000000000E+00 0.  1.
</event>
<event>
 5    1  0.1681111E-003  0.9118800E+02  0.7818608E-02  0.1130116E+00
         25   -1    0    0    0    0  0.00000000000E+00  0.00000000000E+00  0.99999998245E-14  0.12500000000E+03  0.12500000000E+03 0.  0.
        -11    1    3    3    0    0  0.23208440323E+01 -0.35109144816E+02 -0.40720898514E+02  0.53816632585E+02  0.51100000000E-03 0.  1.
         23    2    1    0    0    0 -0.21374592640E+02 -0.15463214748E+02 -0.11630625780E+02  0.96168495063E+02  0.91744884140E+02 0.  0.
         11    1    3    3    0    0 -0.23695436672E+02  0.19645930068E+02  0.29090272734E+02  0.42351862478E+02  0.51100000000E-03 0. -1.
         22    1    1    0    0    0  0.21374592640E+02  0.15463214748E+02  0.11630625780E+02  0.28831504937E+02  0.00000000000E+00 0.  1.
</event>
<event>
 5    1  0.1681111E-003  0.9118800E+02  0.7818608E-02  0.1130116E+00
         25   -1    0    0    0    0  0.00000000000E+00  0.00000000000E+00  0.99999998245E-14  0.12500000000E+03  0.12500000000E+03 0.  0.
        -11    1    3    3    0    0  0.30542248992E+02 -0.14946565672E+02 -0.16152617217E+02  0.37644864751E+02  0.51100000000E-03 0. -1.
         23    2    1    0    0    0 -0.97494090878E+00  0.21994978067E+02  0.17625838174E+02  0.96797167850E+02  0.92597472765E+02 0.  0.
         11    1    3    3    0    0 -0.31517189901E+02  0.36941543739E+02  0.33778455391E+02  0.59152303099E+02  0.51100000000E-03 0.  1.
         22    1    1    0    0    0  0.97494090878E+00 -0.21994978067E+02 -0.17625838174E+02  0.28202832150E+02  0.00000000000E+00 0.  1.
</event>
<event>
 5    1  0.1681111E-003  0.9118800E+02  0.7818608E-02  0.1130116E+00
         25   -1    0    0    0    0  0.00000000000E+00  0.00000000000E+00  0.99999998245E-14  0.12500000000E+03  0.12500000000E+03 0.  0.
        -11    1    3    3    0    0 -0.46309613745E+02 -0.20296278699E+02  0.19814118796E+02  0.54305787520E+02  0.51100000000E-03 0. -1.
         23    2    1    0    0    0 -0.10955389853E+02 -0.15310482262E+02  0.28305228012E+02  0.91005627425E+02  0.84418048167E+02 0.  0.
         11    1    3    3    0    0  0.35354223892E+02  0.49857964376E+01  0.84911092168E+01  0.36699839905E+02  0.51100000000E-03 0.  1.
         22    1    1    0    0    0  0.10955389853E+02  0.15310482262E+02 -0.28305228012E+02  0.33994372575E+02  0.00000000000E+00 0. -1.
</event>
<event>
 5    1  0.1681111E-003  0.9118800E+02  0.7818608E-02  0.1130116E+00
         25   -1    0    0    0    0  0.00000000000E+00  0.00000000000E+00  0.99999998245E-14  0.12500000000E+03  0.12500000000E+03 0.  0.
        -11    1    3    3    0    0  0.27433850767E+02  0.49647885002E+01  0.10836330096E+02  0.29911391525E+02  0.51100000000E-03 0.  1.
         23    2    1    0    0    0  0.15254967300E+02 -0.38826543472E+02 -0.13091434558E+02  0.81278150038E+02  0.68516695114E+02 0.  0.
         11    1    3    3    0    0 -0.12178883467E+02 -0.43791331973E+02 -0.23927764654E+02  0.51366758512E+02  0.51100000000E-03 0. -1.
         22    1    1    0    0    0 -0.15254967300E+02  0.38826543472E+02  0.13091434558E+02  0.43721849962E+02  0.00000000000E+00 0.  1.
</event>
<event>
 5    1  0.1681111E-003  0.9118800E+02  0.7818608E-02  0.1130116E+00
         25   -1    0    0    0    0  0.00000000000E+00  0.00000000000E+00  0.99999998245E-14  0.12500000000E+03  0.12500000000E+03 0.  0.
        -11    1    3    3    0    0 -0.95049913833E+01  0.38541705423E+02  0.30980569541E+02  0.50354777405E+02  0.51100000000E-03 0.  1.
         23    2    1    0    0    0 -0.81481274895E+01 -0.68285266181E+01  0.27074524752E+02  0.95913050213E+02  0.91396184567E+02 0.  0.
         11    1    3    3    0    0  0.13568638939E+01 -0.45370232042E+02 -0.39060447896E+01  0.45558272808E+02  0.51100000000E-03 0. -1.
         22    1    1    0    0    0  0.81481274895E+01  0.68285266181E+01 -0.27074524752E+02  0.29086949787E+02  0.00000000000E+00 0.  1.
</event>
<event>
 5    1  0.1681111E-003  0.9118800E+02  0.7818608E-02  0.1130116E+00
         25   -1    0    0    0    0  0.00000000000E+00  0.00000000000E+00  0.99999998245E-14  0.12500000000E+03  0.12500000000E+03 0.  0.
        -11    1    3    3    0    0 -0.36997800793E+02  0.35124475387E+02  0.19184994148E+02  0.54503486452E+02  0.51100000000E-03 0.  1.
         23    2    1    0    0    0 -0.21103548095E+02  0.17227515423E+02 -0.13162962860E+02  0.94744246479E+02  0.89783415060E+02 0.  0.
         11    1    3    3    0    0  0.15894252698E+02 -0.17896959963E+02 -0.32347957008E+02  0.40240760028E+02  0.51100000000E-03 0. -1.
         22    1    1    0    0    0  0.21103548095E+02 -0.17227515423E+02  0.13162962860E+02  0.30255753521E+02  0.00000000000E+00 0.  1.
</event>
<event>
 5    1  0.1681111E-003  0.9118800E+02  0.7818608E-02  0.1130116E+00
         25   -1    0    0    0    0  0.00000000000E+00  0.00000000000E+00  0.99999998245E-14  0.12500000000E+03  0.12500000000E+03 0.  0.
        -11    1    3    3    0    0  0.53133232950E+02 -0.29367766941E+02 -0.23291757731E+00  0.60709640336E+02  0.51100000000E-03 0. -1.
         23    2    1    0    0    0  0.24851454610E+02 -0.10624541300E+02  0.10053331726E+02  0.96163475368E+02  0.91738044682E+02 0.  0.
         11    1    3    3    0    0 -0.28281778340E+02  0.18743225641E+02  0.10286249303E+02  0.35453835032E+02  0.51100000000E-03 0.  1.
         22    1    1    0    0    0 -0.24851454610E+02  0.10624541300E+02 -0.10053331726E+02  0.28836524632E+02  0.00000000000E+00 0. -1.
</event>
<event>
 5    1  0.1681111E-003  0.9118800E+02  0.7818608E-02  0.1130116E+00
         25   -1    0    0    0    0  0.00000000000E+00  0.00000000000E+00  0.99999998245E-14  0.12500000000E+03  0.12500000000E+03 0.  0.
        -11    1    3    3    0    0 -0.62741357058E+01  0.10450828892E+02  0.30319816325E+02  0.32678369997E+02  0.51100000000E-03 0.  1.
         23    2    1    0    0    0 -0.14057177886E+01 -0.72024737831E+01 -0.29169073386E+02  0.94921992864E+02  0.90030540463E+02 0.  0.
         11    1    3    3    0    0  0.48684179172E+01 -0.17653302675E+02 -0.59488889711E+02  0.62243622867E+02  0.51100000000E-03 0. -1.
         22    1    1    0    0    0  0.14057177886E+01  0.72024737831E+01  0.29169073386E+02  0.30078007136E+02  0.00000000000E+00 0. -1.
</event>
<event>
 5    1  0.1681111E-003  0.9118800E+02  0.7818608E-02  0.1130116E+00
         25   -1    0    0    0    0  0.00000000000E+00  0.00000000000E+00  0.99999998245E-14  0.12500000000E+03  0.12500000000E+03 0.  0.
        -11    1    3    3    0    0  0.24573649634E+02 -0.44145599965E+02 -0.23872101443E+02  0.55880009665E+02  0.51100000000E-03 0.  1.
         23    2    1    0    0    0  0.25787927311E+02 -0.58072171409E+01 -0.11382379332E+02  0.96219806721E+02  0.91814768313E+02 0.  0.
         11    1    3    3    0    0  0.12142776770E+01  0.38338382825E+02  0.12489722111E+02  0.40339797056E+02  0.51100000000E-03 0. -1.
         22    1    1    0    0    0 -0.25787927311E+02  0.58072171409E+01  0.11382379332E+02  0.28780193279E+02  0.00000000000E+00 0.  1.
</event>
<event>
 5    1  0.1681111E-003  0.9118800E+02  0.7818608E-02  0.1130116E+00
         25   -1    0    0    0    0  0.00000000000E+00  0.00000000000E+00  0.99999998245E-14  0.12500000000E+03  0.12500000000E+03 0.  0.
        -11    1    3    3    0    0  0.15263945051E+02 -0.12044093270E+02  0.28652797159E+02  0.34627026822E+02  0.51100000000E-03 0. -1.
         23    2    1    0    0    0  0.58673594295E+01 -0.41718446420E+02 -0.73660523901E+01  0.82231864593E+02  0.70235077763E+02 0.  0.
         11    1    3    3    0    0 -0.93965856218E+01 -0.29674353149E+02 -0.36018849549E+02  0.47604837772E+02  0.51100000000E-03 0.  1.
         22    1    1    0    0    0 -0.58673594295E+01  0.41718446420E+02  0.73660523901E+01  0.42768135407E+02  0.00000000000E+00 0.  1.
</event>
<event>
 5    1  0.1681111E-003  0.9118800E+02  0.7818608E-02  0.1130116E+00
         25   -1    0    0    0    0  0.00000000000E+00  0.00000000000E+00  0.99999998245E-14  0.12500000000E+03  0.12500000000E+03 0.  0.
        -11    1    3    3    0    0 -0.92898388938E+01 -0.91686054022E+01 -0.20313861939E+02  0.24145753639E+02  0.51100000000E-03 0.  1.
         23    2    1    0    0    0  0.30349030827E+02 -0.14255483920E+02  0.23960001436E+02  0.83788785959E+02  0.72953385731E+02 0.  0.
         11    1    3    3    0    0  0.39638869721E+02 -0.50868785180E+01  0.44273863375E+02  0.59643032319E+02  0.51100000000E-03 0. -1.
         22    1    1    0    0    0 -0.30349030827E+02  0.14255483920E+02 -0.23960001436E+02  0.41211214041E+02  0.00000000000E+00 0. -1.
</event>
<event>
 5    1  0.1681111E-003  0.9118800E+02  0.7818608E-02  0.1130116E+00
         25   -1    0    0    0    0  0.00000000000E+00  0.00000000000E+00  0.99999998245E-14  0.12500000000E+03  0.12500000000E+03 0.  0.
        -11    1    3    3    0    0  0.22219023862E+02 -0.23592745613E+00 -0.21990601908E+02  0.31262233696E+02  0.51100000000E-03 0.  1.
         23    2    1    0    0    0 -0.18531821715E+02 -0.17465081278E+02  0.20275180102E+02  0.92449417696E+02  0.86529500311E+02 0.  0.
         11    1    3    3    0    0 -0.40750845577E+02 -0.17229153822E+02  0.42265782010E+02  0.61187184000E+02  0.51100000000E-03 0. -1.
         22    1    1    0    0    0  0.18531821715E+02  0.17465081278E+02 -0.20275180102E+02  0.32550582304E+02  0.00000000000E+00 0. -1.
</event>
<event>
 5    1  0.1681111E-003  0.9118800E+02  0.7818608E-02  0.1130116E+00
         25   -1    0    0    0    0  0.00000000000E+00  0.00000000000E+00  0.99999998245E-14  0.12500000000E+03  0.12500000000E+03 0.  0.
        -11    1    3    3    0    0  0.97404572865E+01 -0.59295221458E+02 -0.71380929968E+01  0.60512413337E+02  0.51100000000E-03 0. -1.
         23    2    1    0    0    0  0.70599286167E+01 -0.33882053576E+02 -0.15044583348E+02  0.87261748388E+02  0.78679330812E+02 0.  0.
         11    1    3    3    0    0 -0.26805286698E+01  0.25413167882E+02 -0.79064903515E+01  0.26749335052E+02  0.51100000000E-03 0.  1.
         22    1    1    0    0    0 -0.70599286167E+01  0.33882053576E+02  0.15044583348E+02  0.37738251612E+02  0.00000000000E+00 0. -1.
</event>
<event>
 5    1  0.1681111E-003  0.9118800E+02  0.7818608E-02  0.1130116E+00
         25   -1    0    0    0    0  0.00000000000E+00  0.00000000000E+00  0.99999998245E-14  0.12500000000E+03  0.12500000000E+03 0.  0.
        -11    1    3    3    0    0  0.15460454232E+02 -0.39410283548E+02  0.12674121252E+02  0.44190829865E+02  0.51100000000E-03 0. -1.
         23    2    1    0    0    0 -0.82370905174E+01 -0.88264858572E+01 -0.24399976913E+02  0.97776565497E+02  0.93910283645E+02 0.  0.
         11    1    3    3    0    0 -0.23697544749E+02  0.30583797691E+02 -0.37074098165E+02  0.53585735633E+02  0.51100000000E-03 0.  1.
         22    1    1    0    0    0  0.82370905174E+01  0.88264858572E+01  0.24399976913E+02  0.27223434503E+02  0.00000000000E+00 0.  1.
</event>
<event>
 5    1  0.1681111E-003  0.9118800E+02  0.7818608E-02  0.1130116E+00
         25   -1    0    0    0    0  0.00000000000E+00  0.00000000000E+00  0.99999998245E-14  0.12500000000E+03  0.12500000000E+03 0.  0.
        -11    1    3    3    0    0 -0.22570008945E+02  0.15250164756E+01  0.34660092878E+02  0.41389044657E+02  0.51100000000E-03 0.  1.
         23    2    1    0    0    0  0.22651903805E+02  0.96654157648E+01  0.27821739086E+02  0.87843867617E+02  0.79598787078E+02 0.  0.
         11    1    3    3    0    0  0.45221912750E+02  0.81403992892E+01 -0.68383537921E+01  0.46454822960E+02  0.51100000000E-03 0. -1.
         22    1    1    0    0    0 -0.22651903805E+02 -0.96654157648E+01 -0.27821739086E+02  0.37156132383E+02  0.00000000000E+00 0.  1.
</event>
<event>
 5    1  0.1681111E-003  0.9118800E+02  0.7818608E-02  0.1130116E+00
         25   -1    0    0    0    0  0.00000000000E+00  0.00000000000E+00  0.99999998245E-14  0.12500000000E+03  0.12500000000E+03 0.  0.
        -11    1    3    3    0    0 -0.35404271466E+02  0.24230601439E+02  0.91126700419E+01  0.43859152291E+02  0.51100000000E-03 0.  1.
         23    2    1    0    0    0 -0.12915908090E+01  0.88159015015E+01 -0.27422105153E+02  0.96166682863E+02  0.91742415032E+02 0.  0.
         11    1    3    3    0    0  0.34112680657E+02 -0.15414699938E+02 -0.36534775195E+02  0.52307530572E+02  0.51100000000E-03 0. -1.
         22    1    1    0    0    0  0.12915908090E+01 -0.88159015015E+01  0.27422105153E+02  0.28833317137E+02  0.00000000000E+00 0. -1.
</event>
<event>
 5    1  0.1681111E-003  0.9118800E+02  0.7818608E-02  0.1130116E+00
         25   -1    0    0    0    0  0.00000000000E+00  0.00000000000E+00  0.99999998245E-14  0.12500000000E+03  0.12500000000E+03 0.  0.
        -11    1    3    3    0    0  0.41582695135E+02 -0.35017437030E+02 -0.10346902352E+02  0.55338953906E+02  0.51100000000E-03 0.  1.
         23    2    1    0    0    0  0.23556799515E+02  0.21964330545E+01 -0.15056939473E+02  0.96956131724E+02  0.92811814609E+02 0.  0.
         11    1    3    3    0    0 -0.18025895620E+02  0.37213870085E+02 -0.47100371212E+01  0.41617177818E+02  0.51100000000E-03 0. -1.
         22    1    1    0    0    0 -0.23556799515E+02 -0.21964330545E+01  0.15056939473E+02  0.28043868276E+02  0.00000000000E+00 0.  1.
</event>
<event>
 5    1  0.1681111E-003  0.9118800E+02  0.7818608E-02  0.1130116E+00
         25   -1    0    0    0    0  0.00000000000E+00  0.00000000000E+00  0.99999998245E-14  0.12500000000E+03  0.12500000000E+03 0.  0.
        -11    1    3    3    0    0 -0.50715854713E+02  0.77388933488E+01 -0.34557524174E+01  0.51419165829E+02  0.51100000000E-03 0.  1.
         23    2    1    0    0    0 -0.13055592337E+02  0.21317062714E+02  0.15367355874E+02  0.95656835880E+02  0.91045093059E+02 0.  0.
         11    1    3    3    0    0  0.37660262376E+02  0.13578169365E+02  0.18823108291E+02  0.44237670051E+02  0.51100000000E-03 0. -1.
         22    1    1    0    0    0  0.13055592337E+02 -0.21317062714E+02 -0.15367355874E+02  0.29343164120E+02  0.00000000000E+00 0.  1.
</event>
<event>
 5    1  0.1681111E-003  0.9118800E+02  0.7818608E-02  0.1130116E+00
         25   -1    0    0    0    0  0.00000000000E+00  0.00000000000E+00  0.99999998245E-14  0.12500000000E+03  0.12500000000E+03 0.  0.
        -11    1    3    3    0    0  0.69364964860E+01  0.90994762894E+01  0.32125252053E+02  0.34102012726E+02  0.51100000000E-03 0.  1.
         23    2    1    0    0    0  0.12305357600E+02  0.17627236875E+01 -0.27712846578E+02  0.94626806459E+02  0.89619761295E+02 0.  0.
         11    1    3    3    0    0  0.53688611139E+01 -0.73367526019E+01 -0.59838098631E+02  0.60524793733E+02  0.51100000000E-03 0. -1.
         22    1    1    0    0    0 -0.12305357600E+02 -0.17627236875E+01  0.27712846578E+02  0.30373193541E+02  0.00000000000E+00 0. -1.
</event>
<event>
 5    1  0.1681111E-003  0.9118800E+02  0.7818608E-02  0.1130116E+00
         25   -1    0    0    0    0  0.00000000000E+00  0.00000000000E+00  0.99999998245E-14  0.12500000000E+03  0.12500000000E+03 0.  0.
        -11    1    3    3    0    0 -0.94990044968E+01  0.33093947797E+02 -0.26803203260E+02  0.43633154510E+02  0.51100000000E-03 0.  1.
         23    2    1    0    0    0 -0.16660080758E+02  0.19155769599E+02  0.19802743805E+02  0.92802943271E+02  0.87038702988E+02 0.  0.
         11    1    3    3    0    0 -0.71610762616E+01 -0.13938178198E+02  0.46605947065E+02  0.49169788761E+02  0.51100000000E-03 0. -1.
         22    1    1    0    0    0  0.16660080758E+02 -0.19155769599E+02 -0.19802743805E+02  0.32197056729E+02  0.00000000000E+00 0. -1.
</event>
<event>
 5    1  0.1681111E-003  0.9118800E+02  0.7818608E-02  0.1130116E+00
         25   -1    0    0    0    0  0.00000000000E+00  0.00000000000E+00  0.99999998245E-14  0.12500000000E+03  0.12500000000E+03 0.  0.
        -11    1    3    3    0    0 -0.42460835207E+02  0.26901641662E+01  0.95971017672E+01  0.43614950101E+02  0.51100000000E-03 0. -1.
         23    2    1    0    0    0 -0.70310193777E+01  0.14658670366E+02 -0.25406096090E+02  0.94837414419E+02  0.89913033565E+02 0.  0.
         11    1    3    3    0    0  0.35429815829E+02  0.11968506200E+02 -0.35003197857E+02  0.51222464318E+02  0.51100000000E-03 0.  1.
         22    1    1    0    0    0  0.70310193777E+01 -0.14658670366E+02  0.25406096090E+02  0.30162585581E+02  0.00000000000E+00 0. -1.
</event>
<event>
 5    1  0.1681111E-003  0.9118800E+02  0.7818608E-02  0.1130116E+00
         25   -1    0    0    0    0  0.00000000000E+00  0.00000000000E+00  0.99999998245E-14  0.12500000000E+03  0.12500000000E+03 0.  0.
        -11    1    3    3    0    0  0.23109947344E+02 -0.54257029869E+02  0.13668574624E+02  0.60536971257E+02  0.51100000000E-03 0.  1.
         23    2    1    0    0    0  0.19257047063E+02 -0.21209879012E+02  0.41878716394E+00  0.96349202245E+02  0.91990763456E+02 0.  0.
         11    1    3    3    0    0 -0.38529002809E+01  0.33047150857E+02 -0.13249787460E+02  0.35812230988E+02  0.51100000000E-03 0. -1.
         22    1    1    0    0    0 -0.19257047063E+02  0.21209879012E+02 -0.41878716394E+00  0.28650797755E+02  0.00000000000E+00 0.  1.
</event>
<event>
 5    1  0.1681111E-003  0.9118800E+02  0.7818608E-02  0.1130116E+00
         25   -1    0    0    0    0  0.00000000000E+00  0.00000000000E+00  0.99999998245E-14  0.12500000000E+03  0.12500000000E+03 0.  0.
        -11    1    3    3    0    0 -0.55678307327E+02  0.84558291749E+01  0.25992148952E+02  0.62025533140E+02  0.51100000000E-03 0.  1.
         23    2    1    0    0    0 -0.29694447435E+02 -0.30408482461E+00  0.10613764531E+02  0.93464231838E+02  0.87983282273E+02 0.  0.
         11    1    3    3    0    0  0.25983859892E+02 -0.87599139995E+01 -0.15378384422E+02  0.31438698698E+02  0.51100000000E-03 0. -1.
         22    1    1    0    0    0  0.29694447435E+02  0.30408482461E+00 -0.10613764531E+02  0.31535768162E+02  0.00000000000E+00 0.  1.
</event>
<event>
 5    1  0.1681111E-003  0.9118800E+02  0.7818608E-02  0.1130116E+00
         25   -1    0    0    0    0  0.00000000000E+00  0.00000000000E+00  0.99999998245E-14  0.12500000000E+03  0.12500000000E+03 0.  0.
        -11    1    3    3    0    0  0.67932773187E+01  0.47614891674E+01 -0.37348016462E+02  0.38258263548E+02  0.51100000000E-03 0. -1.
         23    2    1    0    0    0 -0.26691858175E+02 -0.14567642519E+02  0.33665514644E+01  0.94405798423E+02  0.89310971362E+02 0.  0.
         11    1    3    3    0    0 -0.33485135494E+02 -0.19329131686E+02  0.40714567927E+02  0.56147534874E+02  0.51100000000E-03 0.  1.
         22    1    1    0    0    0  0.26691858175E+02  0.14567642519E+02 -0.33665514644E+01  0.30594201577E+02  0.00000000000E+00 0.  1.
</event>
<event>
 5    1  0.1681111E-003  0.9118800E+02  0.7818608E-02  0.1130116E+00
         25   -1    0    0    0    0  0.00000000000E+00  0.00000000000E+00  0.99999998245E-14  0.12500000000E+03  0.12500000000E+03 0.  0.
        -11    1    3    3    0    0 -0.20230757544E+02 -0.30383843617E+02 -0.12337455347E+02  0.38531471662E+02  0.51100000000E-03 0. -1.
         23    2    1    0    0    0  0.29247310570E+02 -0.42461755813E+01 -0.25775078072E+01  0.95333879102E+02  0.90600605822E+02 0.  0.
         11    1    3    3    0    0  0.49478068114E+02  0.26137668036E+02  0.97599475394E+01  0.56802407439E+02  0.51100000000E-03 0.  1.
         22    1    1    0    0    0 -0.29247310570E+02  0.42461755813E+01  0.25775078072E+01  0.29666120898E+02  0.00000000000E+00 0.  1.
</event>
<event>
 5    1  0.1681111E-003  0.9118800E+02  0.7818608E-02  0.1130116E+00
         25   -1    0    0    0    0  0.00000000000E+00  0.00000000000E+00  0.99999998245E-14  0.12500000000E+03  0.12500000000E+03 0.  0.
        -11    1    3    3    0    0 -0.31574826394E+01 -0.30336072286E+02  0.15380508201E+02  0.34158556924E+02  0.51100000000E-03 0.  1.
         23    2    1    0    0    0  0.21884081758E+02  0.22044771176E+02  0.12499459933E+01  0.93912263904E+02  0.88617526348E+02 0.  0.
         11    1    3    3    0    0  0.25041564397E+02  0.52380843462E+02 -0.14130562208E+02  0.59753706980E+02  0.51100000000E-03 0. -1.
         22    1    1    0    0    0 -0.21884081758E+02 -0.22044771176E+02 -0.12499459933E+01  0.31087736096E+02  0.00000000000E+00 0. -1.
</event>
<event>
 5    1  0.1681111E-003  0.9118800E+02  0.7818608E-02  0.1130116E+00
         25   -1    0    0    0    0  0.00000000000E+00  0.00000000000E+00  0.99999998245E-14  0.12500000000E+03  0.12500000000E+03 0.  0.
        -11    1    3    3    0    0 -0.19495991048E+02  0.38386297108E+02 -0.22954123630E+02  0.48790298876E+02  0.51100000000E-03 0. -1.
         23    2    1    0    0    0 -0.32299392453E+02  0.70417645329E+01  0.34987517560E+01  0.91757279528E+02  0.85523797168E+02 0.  0.
         11    1    3    3    0    0 -0.12803401405E+02 -0.31344532575E+02  0.26452875386E+02  0.42966980651E+02  0.51100000000E-03 0.  1.
         22    1    1    0    0    0  0.32299392453E+02 -0.70417645329E+01 -0.34987517560E+01  0.33242720472E+02  0.00000000000E+00 0.  1.
</event>
<event>
 5    1  0.1681111E-003  0.9118800E+02  0.7818608E-02  0.1130116E+00
         25   -1    0    0    0    0  0.00000000000E+00  0.00000000000E+00  0.99999998245E-14  0.12500000000E+03  0.12500000000E+03 0.  0.
        -11    1    3    3    0    0 -0.15153493893E+02 -0.27174231193E+02 -0.42489668765E+02  0.52663451939E+02  0.51100000000E-03 0. -1.
         23    2    1    0    0    0  0.14228658102E+02 -0.25662015319E+01 -0.27718707662E+02  0.93737132951E+02  0.88370149019E+02 0.  0.
         11    1    3    3    0    0  0.29382151995E+02  0.24608029661E+02  0.14770961103E+02  0.41073681012E+02  0.51100000000E-03 0.  1.
         22    1    1    0    0    0 -0.14228658102E+02  0.25662015319E+01  0.27718707662E+02  0.31262867049E+02  0.00000000000E+00 0. -1.
</event>
<event>
 5    1  0.1681111E-003  0.9118800E+02  0.7818608E-02  0.1130116E+00
         25   -1    0    0    0    0  0.00000000000E+00  0.00000000000E+00  0.99999998245E-14  0.12500000000E+03  0.12500000000E+03 0.  0.
        -11    1    3    3    0    0  0.57815871278E+01  0.28378810634E+02 -0.47426076544E+02  0.55569923334E+02  0.51100000000E-03 0.  1.
         23    2    1    0    0    0  0.12214463177E+02 -0.46358166753E+01 -0.27217414383E+02  0.94809412847E+02  0.89874096445E+02 0.  0.
         11    1    3    3    0    0  0.64328760492E+01 -0.33014627309E+02  0.20208662161E+02  0.39239489513E+02  0.51100000000E-03 0. -1.
         22    1    1    0    0    0 -0.12214463177E+02  0.46358166753E+01  0.27217414383E+02  0.30190587153E+02  0.00000000000E+00 0.  1.
</event>
<event>
 5    1  0.1681111E-003  0.9118800E+02  0.7818608E-02  0.1130116E+00
         25   -1    0    0    0    0  0.00000000000E+00  0.00000000000E+00  0.99999998245E-14  0.12500000000E+03  0.12500000000E+03 0.  0.
        -11    1    3    3    0    0  0.96735800550E+01  0.28718663077E+02 -0.13827431130E+02  0.33309722484E+02  0.51100000000E-03 0.  1.
         23    2    1    0    0    0 -0.16538653939E+02 -0.16655688184E+02  0.18703173787E+02  0.94987540375E+02  0.90121501840E+02 0.  0.
         11    1    3    3    0    0 -0.26212233994E+02 -0.45374351261E+02  0.32530604918E+02  0.61677817892E+02  0.51100000000E-03 0. -1.
         22    1    1    0    0    0  0.16538653939E+02  0.16655688184E+02 -0.18703173787E+02  0.30012459625E+02  0.00000000000E+00 0. -1.
</event>
<event>
 5    1  0.1681111E-003  0.9118800E+02  0.7818608E-02  0.1130116E+00
         25   -1    0    0    0    0  0.00000000000E+00  0.00000000000E+00  0.99999998245E-14  0.12500000000E+03  0.12500000000E+03 0.  0.
        -11    1    3    3    0    0  0.91876145214E+01  0.48532587969E+02 -0.29189672814E+02  0.57374744921E+02  0.51100000000E-03 0. -1.
         23    2    1    0    0    0  0.69471578332E+01  0.28479879328E+02  0.31745923714E+01  0.95513654597E+02  0.90848300200E+02 0.  0.
         11    1    3    3    0    0 -0.22404566882E+01 -0.20052708641E+02  0.32364265185E+02  0.38138909676E+02  0.51100000000E-03 0.  1.
         22    1    1    0    0    0 -0.69471578332E+01 -0.28479879328E+02 -0.31745923714E+01  0.29486345403E+02  0.00000000000E+00 0. -1.
</event>
<event>
 5    1  0.1681111E-003  0.9118800E+02  0.7818608E-02  0.1130116E+00
         25   -1    0    0    0    0  0.00000000000E+00  0.00000000000E+00  0.99999998245E-14  0.12500000000E+03  0.12500000000E+03 0.  0.
        -11    1    3    3    0    0 -0.44808284438E+02 -0.39676284976E+02  0.16119744413E+00  0.59849945101E+02  0.51100000000E-03 0. -1.
         23    2    1    0    0    0 -0.17888656519E+02 -0.19925581860E+02 -0.12358732425E+02  0.95508117868E+02  0.90840681784E+02 0.  0.
         11    1    3    3    0    0  0.26919627919E+02  0.19750703115E+02 -0.12519929870E+02  0.35658172767E+02  0.51100000000E-03 0.  1.
         22    1    1    0    0    0  0.17888656519E+02  0.19925581860E+02  0.12358732425E+02  0.29491882132E+02  0.00000000000E+00 0. -1.
</event>
<event>
 5    1  0.1681111E-003  0.9118800E+02  0.7818608E-02  0.1130116E+00
         25   -1    0    0    0    0  0.00000000000E+00  0.00000000000E+00  0.99999998245E-14  0.12500000000E+03  0.12500000000E+03 0.  0.
        -11    1    3    3    0    0 -0.22329945279E+02 -0.17268737567E+02  0.41629778455E+02  0.50297854902E+02  0.51100000000E-03 0.  1.
         23    2    1    0    0    0 -0.25488383571E+02  0.13748503999E+02  0.29236609447E+02  0.83848348864E+02  0.73055370890E+02 0.  0.
         11    1    3    3    0    0 -0.31584382924E+01  0.31017241565E+02 -0.12393169007E+02  0.33550493962E+02  0.51100000000E-03 0. -1.
         22    1    1    0    0    0  0.25488383571E+02 -0.13748503999E+02 -0.29236609447E+02  0.41151651136E+02  0.00000000000E+00 0.  1.
</event>
<event>
 5    1  0.1681111E-003  0.9118800E+02  0.7818608E-02  0.1130116E+00
         25   -1    0    0    0    0  0.00000000000E+00  0.00000000000E+00  0.99999998245E-14  0.12500000000E+03  0.12500000000E+03 0.  0.
        -11    1    3    3    0    0  0.46658002626E+02  0.35763701818E+02 -0.15636994686E+02  0.60831958541E+02  0.51100000000E-03 0.  1.
         23    2    1    0    0    0  0.19400020046E+02  0.18709033616E+02 -0.17206954248E+02  0.93023946599E+02  0.87355518713E+02 0.  0.
         11    1    3    3    0    0 -0.27257982580E+02 -0.17054668202E+02 -0.15699595612E+01  0.32191988058E+02  0.51100000000E-03 0. -1.
         22    1    1    0    0    0 -0.19400020046E+02 -0.18709033616E+02  0.17206954248E+02  0.31976053401E+02  0.00000000000E+00 0.  1.
</event>
<event>
 5    1  0.1681111E-003  0.9118800E+02  0.7818608E-02  0.1130116E+00
         25   -1    0    0    0    0  0.00000000000E+00  0.00000000000E+00  0.99999998245E-14  0.12500000000E+03  0.12500000000E+03 0.  0.
        -11    1    3    3    0    0  0.44857568592E+02 -0.14428414184E+02  0.18814293947E+02  0.50738134109E+02  0.51100000000E-03 0. -1.
         23    2    1    0    0    0  0.12816924289E+02 -0.20639573878E+02 -0.13950415007E+02  0.96984296601E+02  0.92849739635E+02 0.  0.
         11    1    3    3    0    0 -0.32040644304E+02 -0.62111596931E+01 -0.32764708954E+02  0.46246162492E+02  0.51100000000E-03 0.  1.
         22    1    1    0    0    0 -0.12816924289E+02  0.20639573878E+02  0.13950415007E+02  0.28015703399E+02  0.00000000000E+00 0. -1.
</event>
<event>
 5    1  0.1681111E-003  0.9118800E+02  0.7818608E-02  0.1130116E+00
         25   -1    0    0    0    0  0.00000000000E+00  0.00000000000E+00  0.99999998245E-14  0.12500000000E+03  0.12500000000E+03 0.  0.
        -11    1    3    3    0    0  0.25171594538E+02  0.33848653261E+02 -0.43684172008E+02  0.60726002532E+02  0.51100000000E-03 0.  1.
         23    2    1    0    0    0  0.70290456900E+01  0.12433605077E+02 -0.29612440545E+02  0.92122976814E+02  0.86056633699E+02 0.  0.
         11    1    3    3    0    0 -0.18142548848E+02 -0.21415048184E+02  0.14071731464E+02  0.31396974282E+02  0.51100000000E-03 0. -1.
         22    1    1    0    0    0 -0.70290456900E+01 -0.12433605077E+02  0.29612440545E+02  0.32877023186E+02  0.00000000000E+00 0.  1.
</event>
<event>
 5    1  0.1681111E-003  0.9118800E+02  0.7818608E-02  0.1130116E+00
         25   -1    0    0    0    0  0.00000000000E+00  0.00000000000E+00  0.99999998245E-14  0.12500000000E+03  0.12500000000E+03 0.  0.
        -11    1    3    3    0    0 -0.11283559593E+01  0.40473917191E+02 -0.36824402747E+01  0.40656752533E+02  0.51100000000E-03 0.  1.
         23    2    1    0    0    0  0.26668070252E+02 -0.47150821437E+01  0.11100736109E+02  0.95731513316E+02  0.91147563483E+02 0.  0.
         11    1    3    3    0    0  0.27796426212E+02 -0.45188999334E+02  0.14783176384E+02  0.55074760782E+02  0.51100000000E-03 0. -1.
         22    1    1    0    0    0 -0.26668070252E+02  0.47150821437E+01 -0.11100736109E+02  0.29268486684E+02  0.00000000000E+00 0. -1.
</event>
<event>
 5    1  0.1681111E-003  0.9118800E+02  0.7818608E-02  0.1130116E+00
         25   -1    0    0    0    0  0.00000000000E+00  0.00000000000E+00  0.99999998245E-14  0.12500000000E+03  0.12500000000E+03 0.  0.
        -11    1    3    3    0    0 -0.26863188677E+02  0.14729813962E+02  0.12867131198E+02  0.33228924009E+02  0.51100000000E-03 0. -1.
         23    2    1    0    0    0  0.21389639568E+02 -0.20387437167E+02  0.12517405029E+02  0.92908728543E+02  0.87190493379E+02 0.  0.
         11    1    3    3    0    0  0.48252828245E+02 -0.35117251130E+02 -0.34972616921E+00  0.59679804534E+02  0.51100000000E-03 0.  1.
         22    1    1    0    0    0 -0.21389639568E+02  0.20387437167E+02 -0.12517405029E+02  0.32091271457E+02  0.00000000000E+00 0.  1.
</event>
<event>
 5    1  0.1681111E-003  0.9118800E+02  0.7818608E-02  0.1130116E+00
         25   -1    0    0    0    0  0.00000000000E+00  0.00000000000E+00  0.99999998245E-14  0.12500000000E+03  0.12500000000E+03 0.  0.
        -11    1    3    3    0    0  0.50528829152E+02 -0.29329548102E+02  0.58294618361E+01  0.58714287809E+02  0.51100000000E-03 0.  1.
         23    2    1    0    0    0  0.12013960380E+02 -0.21670593202E+02  0.10156961519E+02  0.98221020911E+02  0.94500027660E+02 0.  0.
         11    1    3    3    0    0 -0.38514868772E+02  0.76589548994E+01  0.43274996824E+01  0.39506733103E+02  0.51100000000E-03 0. -1.
         22    1    1    0    0    0 -0.12013960380E+02  0.21670593202E+02 -0.10156961519E+02  0.26778979089E+02  0.00000000000E+00 0.  1.
</event>
<event>
 5    1  0.1681111E-003  0.9118800E+02  0.7818608E-02  0.1130116E+00
         25   -1    0    0    0    0  0.00000000000E+00  0.00000000000E+00  0.99999998245E-14  0.12500000000E+03  0.12500000000E+03 0.  0.
        -11    1    3    3    0    0  0.31073284200E+02  0.30672026233E+02 -0.22839943567E+02  0.49274589867E+02  0.51100000000E-03 0. -1.
         23    2    1    0    0    0  0.15805404059E+02  0.11088211394E+02  0.18989359384E+02  0.97919471955E+02  0.94100308122E+02 0.  0.
         11    1    3    3    0    0 -0.15267880140E+02 -0.19583814840E+02  0.41829302951E+02  0.48644882087E+02  0.51100000000E-03 0.  1.
         22    1    1    0    0    0 -0.15805404059E+02 -0.11088211394E+02 -0.18989359384E+02  0.27080528045E+02  0.00000000000E+00 0. -1.
</event>
<event>
 5    1  0.1681111E-003  0.9118800E+02  0.7818608E-02  0.1130116E+00
         25   -1    0    0    0    0  0.00000000000E+00  0.00000000000E+00  0.99999998245E-14  0.12500000000E+03  0.12500000000E+03 0.  0.
        -11    1    3    3    0    0 -0.56458521259E+01 -0.51632429265E+02  0.12272532867E+02  0.53370389368E+02  0.51100000000E-03 0.  1.
         23    2    1    0    0    0  0.41374729019E+01 -0.93808846849E+01  0.24508928816E+02  0.98432966459E+02  0.94779964205E+02 0.  0.
         11    1    3    3    0    0  0.97833250278E+01  0.42251544580E+02  0.12236395949E+02  0.45062577091E+02  0.51100000000E-03 0. -1.
         22    1    1    0    0    0 -0.41374729019E+01  0.93808846849E+01 -0.24508928816E+02  0.26567033541E+02  0.00000000000E+00 0. -1.
</event>
<event>
 5    1  0.1681111E-003  0.9118800E+02  0.7818608E-02  0.1130116E+00
         25   -1    0    0    0    0  0.00000000000E+00  0.00000000000E+00  0.99999998245E-14  0.12500000000E+03  0.12500000000E+03 0.  0.
        -11    1    3    3    0    0  0.38920213175E+01  0.47965247751E+02  0.34141466430E+02  0.59003835062E+02  0.51100000000E-03 0. -1.
         23    2    1    0    0    0  0.15766895501E+02  0.22686012972E+02  0.11041555889E+02  0.95248258290E+02  0.90482399242E+02 0.  0.
         11    1    3    3    0    0  0.11874874184E+02 -0.25279234779E+02 -0.23099910541E+02  0.36244423228E+02  0.51100000000E-03 0.  1.
         22    1    1    0    0    0 -0.15766895501E+02 -0.22686012972E+02 -0.11041555889E+02  0.29751741710E+02  0.00000000000E+00 0. -1.
</event>
<event>
 5    1  0.1681111E-003  0.9118800E+02  0.7818608E-02  0.1130116E+00
         25   -1    0    0    0    0  0.00000000000E+00  0.00000000000E+00  0.99999998245E-14  0.12500000000E+03  0.12500000000E+03 0.  0.
        -11    1    3    3    0    0  0.20933005614E+02 -0.32468048376E+01 -0.62894372676E+00  0.21192641085E+02  0.51100000000E-03 0. -1.
         23    2    1    0    0    0 -0.32390089734E+02  0.62604980196E+01  0.27342043549E+02  0.82152606919E+02  0.70093877976E+02 0.  0.
         11    1    3    3    0    0 -0.53323095347E+02  0.95073028571E+01  0.27970987276E+02  0.60959965834E+02  0.51100000000E-03 0.  1.
         22    1    1    0    0    0  0.32390089734E+02 -0.62604980196E+01 -0.27342043549E+02  0.42847393081E+02  0.00000000000E+00 0.  1.
</event>
<event>
 5    1  0.1681111E-003  0.9118800E+02  0.7818608E-02  0.1130116E+00
         25   -1    0    0    0    0  0.00000000000E+00  0.00000000000E+00  0.99999998245E-14  0.12500000000E+03  0.12500000000E+03 0.  0.
        -11    1    3    3    0    0 -0.36231866047E+02  0.24416636569E+02  0.10430817837E+02  0.44919062987E+02  0.51100000000E-03 0.  1.
         23    2    1    0    0    0 -0.98057011332E+01  0.91245950201E+01  0.37161141913E+02  0.85498601578E+02  0.75826449175E+02 0.  0.
         11    1    3    3    0    0  0.26426164914E+02 -0.15292041549E+02  0.26730324076E+02  0.40579538591E+02  0.51100000000E-03 0. -1.
         22    1    1    0    0    0  0.98057011332E+01 -0.91245950201E+01 -0.37161141913E+02  0.39501398422E+02  0.00000000000E+00 0. -1.
</event>
<event>
 5    1  0.1681111E-003  0.9118800E+02  0.7818608E-02  0.1130116E+00
         25   -1    0    0    0    0  0.00000000000E+00  0.00000000000E+00  0.99999998245E-14  0.12500000000E+03  0.12500000000E+03 0.  0.
        -11    1    3    3    0    0 -0.35851862507E+02 -0.39401087982E+02 -0.26065503523E+02  0.59306089515E+02  0.51100000000E-03 0.  1.
         23    2    1    0    0    0 -0.22466095291E+02 -0.64811945728E+01 -0.17314375239E+02  0.95905001965E+02  0.91385176541E+02 0.  0.
         11    1    3    3    0    0  0.13385767216E+02  0.32919893409E+02  0.87511282841E+01  0.36598912450E+02  0.51100000000E-03 0. -1.
         22    1    1    0    0    0  0.22466095291E+02  0.64811945728E+01  0.17314375239E+02  0.29094998035E+02  0.00000000000E+00 0.  1.
</event>
<event>
 5    1  0.1681111E-003  0.9118800E+02  0.7818608E-02  0.1130116E+00
         25   -1    0    0    0    0  0.00000000000E+00  0.00000000000E+00  0.99999998245E-14  0.12500000000E+03  0.12500000000E+03 0.  0.
        -11    1    3    3    0    0 -0.24505722101E+02  0.37424101746E+02  0.10370739106E+02  0.45919996048E+02  0.51100000000E-03 0. -1.
         23    2    1    0    0    0 -0.26202734702E+02 -0.11589776988E+02 -0.12502936582E+01  0.96321271459E+02  0.91952802376E+02 0.  0.
         11    1    3    3    0    0 -0.16970126004E+01 -0.49013878734E+02 -0.11621032764E+02  0.50401275411E+02  0.51100000000E-03 0.  1.
         22    1    1    0    0    0  0.26202734702E+02  0.11589776988E+02  0.12502936582E+01  0.28678728541E+02  0.00000000000E+00 0. -1.
</event>
<event>
 5    1  0.1681111E-003  0.9118800E+02  0.7818608E-02  0.1130116E+00
         25   -1    0    0    0    0  0.00000000000E+00  0.00000000000E+00  0.99999998245E-14  0.12500000000E+03  0.12500000000E+03 0.  0.
        -11    1    3    3    0    0  0.12105401532E+02  0.12344610244E+02 -0.27968896509E+02  0.32881443407E+02  0.51100000000E-03 0.  1.
         23    2    1    0    0    0 -0.13784361950E+02 -0.12601213091E+02  0.23073888825E+02  0.95314927131E+02  0.90574454361E+02 0.  0.
         11    1    3    3    0    0 -0.25889763482E+02 -0.24945823335E+02  0.51042785334E+02  0.62433483724E+02  0.51100000000E-03 0. -1.
         22    1    1    0    0    0  0.13784361950E+02  0.12601213091E+02 -0.23073888825E+02  0.29685072869E+02  0.00000000000E+00 0. -1.
</event>
<event>
 5    1  0.1681111E-003  0.9118800E+02  0.7818608E-02  0.1130116E+00
         25   -1    0    0    0    0  0.00000000000E+00  0.00000000000E+00  0.99999998245E-14  0.12500000000E+03  0.12500000000E+03 0.  0.
        -11    1    3    3    0    0 -0.10302972421E+02 -0.23752815657E+02  0.23031935031E+02  0.34652814083E+02  0.51100000000E-03 0. -1.
         23    2    1    0    0    0  0.19267986295E+02  0.70472622639E+01 -0.20758368647E+02  0.95813889088E+02  0.91260463905E+02 0.  0.
         11    1    3    3    0    0  0.29570958716E+02  0.30800077921E+02 -0.43790303678E+02  0.61161075005E+02  0.51100000000E-03 0.  1.
         22    1    1    0    0    0 -0.19267986295E+02 -0.70472622639E+01  0.20758368647E+02  0.29186110912E+02  0.00000000000E+00 0.  1.
</event>
<event>
 5    1  0.1681111E-003  0.9118800E+02  0.7818608E-02  0.1130116E+00
         25   -1    0    0    0    0  0.00000000000E+00  0.00000000000E+00  0.99999998245E-14  0.12500000000E+03  0.12500000000E+03 0.  0.
        -11    1    3    3    0    0  0.41408759428E+02 -0.26088183038E+02 -0.20958391870E+02  0.53240330969E+02  0.51100000000E-03 0.  1.
         23    2    1    0    0    0  0.16633965838E+02 -0.12848540791E+01 -0.31076555531E+02  0.89728312017E+02  0.82505018056E+02 0.  0.
         11    1    3    3    0    0 -0.24774793591E+02  0.24803328958E+02 -0.10118163661E+02  0.36487981049E+02  0.51100000000E-03 0. -1.
         22    1    1    0    0    0 -0.16633965838E+02  0.12848540791E+01  0.31076555531E+02  0.35271687983E+02  0.00000000000E+00 0.  1.
</event>
<event>
 5    1  0.1681111E-003  0.9118800E+02  0.7818608E-02  0.1130116E+00
         25   -1    0    0    0    0  0.00000000000E+00  0.00000000000E+00  0.99999998245E-14  0.12500000000E+03  0.12500000000E+03 0.  0.
        -11    1    3    3    0    0  0.38386997768E+01 -0.98932774263E+01  0.45298089145E+02  0.46524503594E+02  0.51100000000E-03 0. -1.
         23    2    1    0    0    0 -0.18487388902E+02  0.18809308627E+02  0.11293857319E+02  0.96309847463E+02  0.91937271364E+02 0.  0.
         11    1    3    3    0    0 -0.22326088679E+02  0.28702586053E+02 -0.34004231826E+02  0.49785343869E+02  0.51100000000E-03 0.  1.
         22    1    1    0    0    0  0.18487388902E+02 -0.18809308627E+02 -0.11293857319E+02  0.28690152537E+02  0.00000000000E+00 0. -1.
</event>
<event>
 5    1  0.1681111E-003  0.9118800E+02  0.7818608E-02  0.1130116E+00
         25   -1    0    0    0    0  0.00000000000E+00  0.00000000000E+00  0.99999998245E-14  0.12500000000E+03  0.12500000000E+03 0.  0.
        -11    1    3    3    0    0  0.28095132048E+02 -0.16392184252E+02 -0.12164588136E+02  0.34727760569E+02  0.51100000000E-03 0. -1.
         23    2    1    0    0    0 -0.14428714843E+02  0.23580036702E+02  0.75743087807E+01  0.96336851247E+02  0.91973978993E+02 0.  0.
         11    1    3    3    0    0 -0.42523846892E+02  0.39972220954E+02  0.19738896917E+02  0.61609090678E+02  0.51100000000E-03 0.  1.
         22    1    1    0    0    0  0.14428714843E+02 -0.23580036702E+02 -0.75743087807E+01  0.28663148753E+02  0.00000000000E+00 0.  1.
</event>
<event>
 5    1  0.1681111E-003  0.9118800E+02  0.7818608E-02  0.1130116E+00
         25   -1    0    0    0    0  0.00000000000E+00  0.00000000000E+00  0.99999998245E-14  0.12500000000E+03  0.12500000000E+03 0.  0.
        -11    1    3    3    0    0 -0.32179415273E+02 -0.84318693004E+01 -0.15929775197E+02  0.36883179436E+02  0.51100000000E-03 0.  1.
         23    2    1    0    0    0 -0.25331550962E+01 -0.21236597551E+02  0.26970065169E+02  0.90579157979E+02  0.83784184036E+02 0.  0.
         11    1    3    3    0    0  0.29646260177E+02 -0.12804728250E+02  0.42899840365E+02  0.53695978543E+02  0.51100000000E-03 0. -1.
         22    1    1    0    0    0  0.25331550962E+01  0.21236597551E+02 -0.26970065169E+02  0.34420842021E+02  0.00000000000E+00 0. -1.
</event>
<event>
 5    1  0.1681111E-003  0.9118800E+02  0.7818608E-02  0.1130116E+00
         25   -1    0    0    0    0  0.00000000000E+00  0.00000000000E+00  0.99999998245E-14  0.12500000000E+03  0.12500000000E+03 0.  0.
        -11    1    3    3    0    0  0.42706234033E+00 -0.77682545910E+01 -0.56337744101E+02  0.56872397280E+02  0.51100000000E-03 0.  1.
         23    2    1    0    0    0 -0.17159024285E+02  0.33273737488E+01 -0.24292417653E+02  0.95073004062E+02  0.90239963516E+02 0.  0.
         11    1    3    3    0    0 -0.17586086625E+02  0.11095628340E+02  0.32045326449E+02  0.38200606782E+02  0.51100000000E-03 0. -1.
         22    1    1    0    0    0  0.17159024285E+02 -0.33273737488E+01  0.24292417653E+02  0.29926995938E+02  0.00000000000E+00 0.  1.
</event>
<event>
 5    1  0.1681111E-003  0.9118800E+02  0.7818608E-02  0.1130116E+00
         25   -1    0    0    0    0  0.00000000000E+00  0.00000000000E+00  0.99999998245E-14  0.12500000000E+03  0.12500000000E+03 0.  0.
        -11    1    3    3    0    0 -0.24685475816E+02 -0.41811425843E+02  0.32749640992E+02  0.58567115625E+02  0.51100000000E-03 0. -1.
         23    2    1    0    0    0 -0.18334117858E+02 -0.18429593818E+02  0.37878878949E+00  0.99001282976E+02  0.95526544709E+02 0.  0.
         11    1    3    3    0    0  0.63513579576E+01  0.23381832025E+02 -0.32370852203E+02  0.40434167351E+02  0.51100000000E-03 0.  1.
         22    1    1    0    0    0  0.18334117858E+02  0.18429593818E+02 -0.37878878949E+00  0.25998717024E+02  0.00000000000E+00 0. -1.
</event>
<event>
 5    1  0.1681111E-003  0.9118800E+02  0.7818608E-02  0.1130116E+00
         25   -1    0    0    0    0  0.00000000000E+00  0.00000000000E+00  0.99999998245E-14  0.12500000000E+03  0.12500000000E+03 0.  0.
        -11    1    3    3    0    0  0.11297621288E+02  0.26845222545E+02 -0.29194666713E+02  0.41238704938E+02  0.51100000000E-03 0. -1.
         23    2    1    0    0    0 -0.56470853499E+01  0.33299587291E+02  0.14270171802E+02  0.88334077265E+02  0.80364913466E+02 0.  0.
         11    1    3    3    0    0 -0.16944706638E+02  0.64543647466E+01  0.43464838514E+02  0.47095372328E+02  0.51100000000E-03 0.  1.
         22    1    1    0    0    0  0.56470853499E+01 -0.33299587291E+02 -0.14270171802E+02  0.36665922735E+02  0.00000000000E+00 0.  1.
</event>
<event>
 5    1  0.1681111E-003  0.9118800E+02  0.7818608E-02  0.1130116E+00
         25   -1    0    0    0    0  0.00000000000E+00  0.00000000000E+00  0.99999998245E-14  0.12500000000E+03  0.12500000000E+03 0.  0.
        -11    1    3    3    0    0 -0.31338338971E+02  0.17784466413E+02 -0.86677044575E+00  0.36043446371E+02  0.51100000000E-03 0. -1.
         23    2    1    0    0    0  0.11641932638E+02 -0.23370794707E+02 -0.11460014038E+02  0.96485783151E+02  0.92176167135E+02 0.  0.
         11    1    3    3    0    0  0.42980271609E+02 -0.41155261119E+02 -0.10593243592E+02  0.60442336780E+02  0.51100000000E-03 0.  1.
         22    1    1    0    0    0 -0.11641932638E+02  0.23370794707E+02  0.11460014038E+02  0.28514216849E+02  0.00000000000E+00 0.  1.
</event>
<event>
 5    1  0.1681111E-003  0.9118800E+02  0.7818608E-02  0.1130116E+00
         25   -1    0    0    0    0  0.00000000000E+00  0.00000000000E+00  0.99999998245E-14  0.12500000000E+03  0.12500000000E+03 0.  0.
        -11    1    3    3    0    0  0.33293663424E+01 -0.58096226919E+02 -0.10675821659E+02  0.59162736844E+02  0.51100000000E-03 0.  1.
         23    2    1    0    0    0  0.35979179692E+01 -0.28965022256E+02  0.91620414532E+01  0.94408162337E+02  0.89314279845E+02 0.  0.
         11    1    3    3    0    0  0.26855162679E+00  0.29131204663E+02  0.19837863112E+02  0.35245425494E+02  0.51100000000E-03 0. -1.
         22    1    1    0    0    0 -0.35979179692E+01  0.28965022256E+02 -0.91620414532E+01  0.30591837663E+02  0.00000000000E+00 0. -1.
</event>
<event>
 5    1  0.1681111E-003  0.9118800E+02  0.7818608E-02  0.1130116E+00
         25   -1    0    0    0    0  0.00000000000E+00  0.00000000000E+00  0.99999998245E-14  0.12500000000E+03  0.12500000000E+03 0.  0.
        -11    1    3    3    0    0  0.90678202190E+01  0.34307156077E+01  0.51285093834E+02  0.52193448084E+02  0.51100000000E-03 0. -1.
         23    2    1    0    0    0  0.26865636735E+02 -0.17191978785E+00  0.11794632145E+02  0.95658811527E+02  0.91047805475E+02 0.  0.
         11    1    3    3    0    0  0.17797816516E+02 -0.36026353955E+01 -0.39490461689E+02  0.43465363443E+02  0.51100000000E-03 0.  1.
         22    1    1    0    0    0 -0.26865636735E+02  0.17191978785E+00 -0.11794632145E+02  0.29341188473E+02  0.00000000000E+00 0.  1.
</event>
<event>
 5    1  0.1681111E-003  0.9118800E+02  0.7818608E-02  0.1130116E+00
         25   -1    0    0    0    0  0.00000000000E+00  0.00000000000E+00  0.99999998245E-14  0.12500000000E+03  0.12500000000E+03 0.  0.
        -11    1    3    3    0    0  0.30396170211E+02  0.65339837959E+01 -0.11877122691E+02  0.33281919287E+02  0.51100000000E-03 0. -1.
         23    2    1    0    0    0 -0.29330639018E+02 -0.44916939570E+01  0.75589082319E+00  0.95317798755E+02  0.90578417345E+02 0.  0.
         11    1    3    3    0    0 -0.59726809229E+02 -0.11025677753E+02  0.12633013514E+02  0.62035879468E+02  0.51100000000E-03 0.  1.
         22    1    1    0    0    0  0.29330639018E+02  0.44916939570E+01 -0.75589082319E+00  0.29682201245E+02  0.00000000000E+00 0.  1.
</event>
<event>
 5    1  0.1681111E-003  0.9118800E+02  0.7818608E-02  0.1130116E+00
         25   -1    0    0    0    0  0.00000000000E+00  0.00000000000E+00  0.99999998245E-14  0.12500000000E+03  0.12500000000E+03 0.  0.
        -11    1    3    3    0    0  0.22430050288E+02 -0.40037731164E+01  0.57281851464E+02  0.61646961503E+02  0.51100000000E-03 0. -1.
         23    2    1    0    0    0  0.56895142025E+01 -0.68874592393E+01  0.29170583464E+02  0.94492122226E+02  0.89431708898E+02 0.  0.
         11    1    3    3    0    0 -0.16740536086E+02 -0.28836861229E+01 -0.28111268000E+02  0.32845160723E+02  0.51100000000E-03 0.  1.
         22    1    1    0    0    0 -0.56895142025E+01  0.68874592393E+01 -0.29170583464E+02  0.30507877774E+02  0.00000000000E+00 0. -1.
</event>
<event>
 5    1  0.1681111E-003  0.9118800E+02  0.7818608E-02  0.1130116E+00
         25   -1    0    0    0    0  0.00000000000E+00  0.00000000000E+00  0.99999998245E-14  0.12500000000E+03  0.12500000000E+03 0.  0.
        -11    1    3    3    0    0 -0.24236591785E+02 -0.54108320683E+02  0.87396520376E+01  0.59929160402E+02  0.51100000000E-03 0.  1.
         23    2    1    0    0    0 -0.25052681674E+01 -0.28186796320E+02 -0.46764605327E+01  0.96318278669E+02  0.91948733908E+02 0.  0.
         11    1    3    3    0    0  0.21731323618E+02  0.25921524363E+02 -0.13416112570E+02  0.36389118267E+02  0.51100000000E-03 0. -1.
         22    1    1    0    0    0  0.25052681674E+01  0.28186796320E+02  0.46764605327E+01  0.28681721331E+02  0.00000000000E+00 0.  1.
</event>
<event>
 5    1  0.1681111E-003  0.9118800E+02  0.7818608E-02  0.1130116E+00
         25   -1    0    0    0    0  0.00000000000E+00  0.00000000000E+00  0.99999998245E-14  0.12500000000E+03  0.12500000000E+03 0.  0.
        -11    1    3    3    0    0  0.35656744097E+02  0.70716081528E+01 -0.10193391470E+02  0.37753361061E+02  0.51100000000E-03 0.  1.
         23    2    1    0    0    0 -0.15900111334E+02 -0.21146006926E+02  0.40671055116E+01  0.98232323661E+02  0.94514977201E+02 0.  0.
         11    1    3    3    0    0 -0.51556855432E+02 -0.28217615078E+02  0.14260496982E+02  0.60478962600E+02  0.51100000000E-03 0. -1.
         22    1    1    0    0    0  0.15900111334E+02  0.21146006926E+02 -0.40671055116E+01  0.26767676339E+02  0.00000000000E+00 0. -1.
</event>
<event>
 5    1  0.1681111E-003  0.9118800E+02  0.7818608E-02  0.1130116E+00
         25   -1    0    0    0    0  0.00000000000E+00  0.00000000000E+00  0.99999998245E-14  0.12500000000E+03  0.12500000000E+03 0.  0.
        -11    1    3    3    0    0 -0.16372087580E+02  0.10199489551E+02 -0.27868191855E+02  0.33892638675E+02  0.51100000000E-03 0. -1.
         23    2    1    0    0    0  0.34348094487E+01  0.15878921152E+02  0.27549495758E+02  0.93016992489E+02  0.87345567273E+02 0.  0.
         11    1    3    3    0    0  0.19806897028E+02  0.56794316017E+01  0.55417687614E+02  0.59124353814E+02  0.51100000000E-03 0.  1.
         22    1    1    0    0    0 -0.34348094487E+01 -0.15878921152E+02 -0.27549495758E+02  0.31983007511E+02  0.00000000000E+00 0.  1.
</event>
<event>
 5    1  0.1681111E-003  0.9118800E+02  0.7818608E-02  0.1130116E+00
         25   -1    0    0    0    0  0.00000000000E+00  0.00000000000E+00  0.99999998245E-14  0.12500000000E+03  0.12500000000E+03 0.  0.
        -11    1    3    3    0    0 -0.12043241900E+02  0.30224650350E+02 -0.12617207957E+02  0.34896462587E+02  0.51100000000E-03 0. -1.
         23    2    1    0    0    0 -0.10736519473E+02 -0.28486950512E+02 -0.29291552422E+01  0.94416358126E+02  0.89325749543E+02 0.  0.
         11    1    3    3    0    0  0.13067224268E+01 -0.58711600862E+02  0.96880527144E+01  0.59519895538E+02  0.51100000000E-03 0.  1.
         22    1    1    0    0    0  0.10736519473E+02  0.28486950512E+02  0.29291552422E+01  0.30583641874E+02  0.00000000000E+00 0.  1.
</event>
<event>
 5    1  0.1681111E-003  0.9118800E+02  0.7818608E-02  0.1130116E+00
         25   -1    0    0    0    0  0.00000000000E+00  0.00000000000E+00  0.99999998245E-14  0.12500000000E+03  0.12500000000E+03 0.  0.
        -11    1    3    3    0    0 -0.55603006147E+01 -0.35682153012E+02 -0.47348725863E+01  0.36421861637E+02  0.51100000000E-03 0. -1.
         23    2    1    0    0    0  0.11852021002E+02  0.16449738462E+02  0.19843950808E+02  0.96630180103E+02  0.92371776132E+02 0.  0.
         11    1    3    3    0    0  0.17412321617E+02  0.52131891474E+02  0.24578823395E+02  0.60208318466E+02  0.51100000000E-03 0.  1.
         22    1    1    0    0    0 -0.11852021002E+02 -0.16449738462E+02 -0.19843950808E+02  0.28369819897E+02  0.00000000000E+00 0.  1.
</event>
<event>
 5    1  0.1681111E-003  0.9118800E+02  0.7818608E-02  0.1130116E+00
         25   -1    0    0    0    0  0.00000000000E+00  0.00000000000E+00  0.99999998245E-14  0.12500000000E+03  0.12500000000E+03 0.  0.
        -11    1    3    3    0    0  0.34587248459E+02  0.38635295571E+01  0.10622396171E+01  0.34818572198E+02  0.51100000000E-03 0.  1.
         23    2    1    0    0    0 -0.25100006624E+02 -0.12761331789E+02 -0.11678330323E+01  0.96817988795E+02  0.92625575295E+02 0.  0.
         11    1    3    3    0    0 -0.59687255083E+02 -0.16624861346E+02 -0.22300726494E+01  0.61999416598E+02  0.51100000000E-03 0. -1.
         22    1    1    0    0    0  0.25100006624E+02  0.12761331789E+02  0.11678330323E+01  0.28182011205E+02  0.00000000000E+00 0. -1.
</event>
<event>
 5    1  0.1681111E-003  0.9118800E+02  0.7818608E-02  0.1130116E+00
         25   -1    0    0    0    0  0.00000000000E+00  0.00000000000E+00  0.99999998245E-14  0.12500000000E+03  0.12500000000E+03 0.  0.
        -11    1    3    3    0    0  0.17995287979E+02  0.27594666172E+02  0.25246291982E+02  0.41505074987E+02  0.51100000000E-03 0. -1.
         23    2    1    0    0    0 -0.10048488520E+02 -0.19108399031E+02  0.18820811674E+02  0.96358666457E+02  0.92003622832E+02 0.  0.
         11    1    3    3    0    0 -0.28043776499E+02 -0.46703065203E+02 -0.64254803088E+01  0.54853591470E+02  0.51100000000E-03 0.  1.
         22    1    1    0    0    0  0.10048488520E+02  0.19108399031E+02 -0.18820811674E+02  0.28641333543E+02  0.00000000000E+00 0.  1.
</event>
<event>
 5    1  0.1681111E-003  0.9118800E+02  0.7818608E-02  0.1130116E+00
         25   -1    0    0    0    0  0.00000000000E+00  0.00000000000E+00  0.99999998245E-14  0.12500000000E+03  0.12500000000E+03 0.  0.
        -11    1    3    3    0    0 -0.16633722706E+02  0.37669738086E+02  0.29701011076E+02  0.50772433049E+02  0.51100000000E-03 0. -1.
         23    2    1    0    0    0 -0.24264768693E+02  0.23364531737E+01 -0.41223308603E+01  0.10027690099E+03  0.97181403809E+02 0.  0.
         11    1    3    3    0    0 -0.76310459873E+01 -0.35333284913E+02 -0.33823341936E+02  0.49504467936E+02  0.51100000000E-03 0.  1.
         22    1    1    0    0    0  0.24264768693E+02 -0.23364531737E+01  0.41223308603E+01  0.24723099015E+02  0.00000000000E+00 0. -1.
</event>
<event>
 5    1  0.1681111E-003  0.9118800E+02  0.7818608E-02  0.1130116E+00
         25   -1    0    0    0    0  0.00000000000E+00  0.00000000000E+00  0.99999998245E-14  0.12500000000E+03  0.12500000000E+03 0.  0.
        -11    1    3    3    0    0 -0.47313109233E+02 -0.89261032623E+01 -0.27922318825E+01  0.48228644848E+02  0.51100000000E-03 0.  1.
         23    2    1    0    0    0 -0.57371744753E+01 -0.75153239182E+01  0.25009136667E+02  0.98263280280E+02  0.94555909757E+02 0.  0.
         11    1    3    3    0    0  0.41575934758E+02  0.14107793441E+01  0.27801368549E+02  0.50034635432E+02  0.51100000000E-03 0. -1.
         22    1    1    0    0    0  0.57371744753E+01  0.75153239182E+01 -0.25009136667E+02  0.26736719720E+02  0.00000000000E+00 0.  1.
</event>
<event>
 5    1  0.1681111E-003  0.9118800E+02  0.7818608E-02  0.1130116E+00
         25   -1    0    0    0    0  0.00000000000E+00  0.00000000000E+00  0.99999998245E-14  0.12500000000E+03  0.12500000000E+03 0.  0.
        -11    1    3    3    0    0 -0.46868489551E+02  0.55802323644E+01  0.15981151614E+02  0.49831631653E+02  0.51100000000E-03 0. -1.
         23    2    1    0    0    0 -0.17545003963E+02 -0.22451690497E+02 -0.58679911754E+01  0.95908095788E+02  0.91389408287E+02 0.  0.
         11    1    3    3    0    0  0.29323485588E+02 -0.28031922861E+02 -0.21849142789E+02  0.46076464135E+02  0.51100000000E-03 0.  1.
         22    1    1    0    0    0  0.17545003963E+02  0.22451690497E+02  0.58679911754E+01  0.29091904212E+02  0.00000000000E+00 0. -1.
</event>
<event>
 5    1  0.1681111E-003  0.9118800E+02  0.7818608E-02  0.1130116E+00
         25   -1    0    0    0    0  0.00000000000E+00  0.00000000000E+00  0.99999998245E-14  0.12500000000E+03  0.12500000000E+03 0.  0.
        -11    1    3    3    0    0  0.11298493227E+02 -0.30683538838E+02 -0.16652500874E+01  0.32740014706E+02  0.51100000000E-03 0. -1.
         23    2    1    0    0    0 -0.10046760198E+02  0.27857455492E+02  0.30520109372E+01  0.95229377102E+02  0.90456311419E+02 0.  0.
         11    1    3    3    0    0 -0.21345253425E+02  0.58540994330E+02  0.47172610246E+01  0.62489362397E+02  0.51100000000E-03 0.  1.
         22    1    1    0    0    0  0.10046760198E+02 -0.27857455492E+02 -0.30520109372E+01  0.29770622898E+02  0.00000000000E+00 0.  1.
</event>
<event>
 5    1  0.1681111E-003  0.9118800E+02  0.7818608E-02  0.1130116E+00
         25   -1    0    0    0    0  0.00000000000E+00  0.00000000000E+00  0.99999998245E-14  0.12500000000E+03  0.12500000000E+03 0.  0.
        -11    1    3    3    0    0  0.18973483308E+02  0.44977031196E+02 -0.18179028830E+02  0.52090339733E+02  0.51100000000E-03 0. -1.
         23    2    1    0    0    0 -0.13494515085E+02  0.24612811127E+02 -0.20118553420E+02  0.90465255167E+02  0.83614076517E+02 0.  0.
         11    1    3    3    0    0 -0.32467998393E+02 -0.20364220069E+02 -0.19395245897E+01  0.38374915434E+02  0.51100000000E-03 0.  1.
         22    1    1    0    0    0  0.13494515085E+02 -0.24612811127E+02  0.20118553420E+02  0.34534744833E+02  0.00000000000E+00 0. -1.
</event>
<event>
 5    1  0.1681111E-003  0.9118800E+02  0.7818608E-02  0.1130116E+00
         25   -1    0    0    0    0  0.00000000000E+00  0.00000000000E+00  0.99999998245E-14  0.12500000000E+03  0.12500000000E+03 0.  0.
        -11    1    3    3    0    0 -0.33550067743E+02 -0.31122522213E+02  0.42604559977E+01  0.45960525672E+02  0.51100000000E-03 0. -1.
         23    2    1    0    0    0  0.15359153239E+02 -0.24166362633E+02 -0.41303201135E+01  0.96069458779E+02  0.91609850424E+02 0.  0.
         11    1    3    3    0    0  0.48909220982E+02  0.69561595804E+01 -0.83907761112E+01  0.50108933107E+02  0.51100000000E-03 0.  1.
         22    1    1    0    0    0 -0.15359153239E+02  0.24166362633E+02  0.41303201135E+01  0.28930541221E+02  0.00000000000E+00 0.  1.
</event>
<event>
 5    1  0.1681111E-003  0.9118800E+02  0.7818608E-02  0.1130116E+00
         25   -1    0    0    0    0  0.00000000000E+00  0.00000000000E+00  0.99999998245E-14  0.12500000000E+03  0.12500000000E+03 0.  0.
        -11    1    3    3    0    0  0.41015821566E+02  0.41642582377E+02  0.11271233205E+02  0.59526825751E+02  0.51100000000E-03 0.  1.
         23    2    1    0    0    0  0.74165372465E+01  0.24214472501E+02  0.11028615235E+02  0.97377978763E+02  0.93378234566E+02 0.  0.
         11    1    3    3    0    0 -0.33599284319E+02 -0.17428109876E+02 -0.24261796922E+00  0.37851153012E+02  0.51100000000E-03 0. -1.
         22    1    1    0    0    0 -0.74165372465E+01 -0.24214472501E+02 -0.11028615235E+02  0.27622021237E+02  0.00000000000E+00 0. -1.
</event>
<event>
 5    1  0.1681111E-003  0.9118800E+02  0.7818608E-02  0.1130116E+00
         25   -1    0    0    0    0  0.00000000000E+00  0.00000000000E+00  0.99999998245E-14  0.12500000000E+03  0.12500000000E+03 0.  0.
        -11    1    3    3    0    0 -0.35688615464E+02  0.11808517331E+02  0.19070820696E+02  0.42152278202E+02  0.51100000000E-03 0.  1.
         23    2    1    0    0    0  0.29205263488E+01  0.33380149318E+02 -0.25781214648E+01  0.91393296012E+02  0.84990140623E+02 0.  0.
         11    1    3    3    0    0  0.38609141813E+02  0.21571631987E+02 -0.21648942160E+02  0.49241017811E+02  0.51100000000E-03 0. -1.
         22    1    1    0    0    0 -0.29205263488E+01 -0.33380149318E+02  0.25781214648E+01  0.33606703988E+02  0.00000000000E+00 0.  1.
</event>
<event>
 5    1  0.1681111E-003  0.9118800E+02  0.7818608E-02  0.1130116E+00
         25   -1    0    0    0    0  0.00000000000E+00  0.00000000000E+00  0.99999998245E-14  0.12500000000E+03  0.12500000000E+03 0.  0.
        -11    1    3    3    0    0  0.38590667956E+02  0.24881875218E+01 -0.24426716213E+02  0.45739427146E+02  0.51100000000E-03 0.  1.
         23    2    1    0    0    0  0.13158558569E+02  0.11141967414E+02  0.20578644028E+02  0.98152808499E+02  0.94409756513E+02 0.  0.
         11    1    3    3    0    0 -0.25432109387E+02  0.86537798926E+01  0.45005360240E+02  0.52413381354E+02  0.51100000000E-03 0. -1.
         22    1    1    0    0    0 -0.13158558569E+02 -0.11141967414E+02 -0.20578644028E+02  0.26847191501E+02  0.00000000000E+00 0. -1.
</event>
<event>
 5    1  0.1681111E-003  0.9118800E+02  0.7818608E-02  0.1130116E+00
         25   -1    0    0    0    0  0.00000000000E+00  0.00000000000E+00  0.99999998245E-14  0.12500000000E+03  0.12500000000E+03 0.  0.
        -11    1    3    3    0    0 -0.17520391828E+02  0.11390877973E+02 -0.52135209273E+02  0.56167573180E+02  0.51100000000E-03 0.  1.
         23    2    1    0    0    0 -0.22574699744E+02  0.11964282653E+02 -0.11738613786E+02  0.96883169070E+02  0.92713495606E+02 0.  0.
         11    1    3    3    0    0 -0.50543079163E+01  0.57340467942E+00  0.40396595487E+02  0.40715595890E+02  0.51100000000E-03 0. -1.
         22    1    1    0    0    0  0.22574699744E+02 -0.11964282653E+02  0.11738613786E+02  0.28116830930E+02  0.00000000000E+00 0.  1.
</event>
<event>
 5    1  0.1681111E-003  0.9118800E+02  0.7818608E-02  0.1130116E+00
         25   -1    0    0    0    0  0.00000000000E+00  0.00000000000E+00  0.99999998245E-14  0.12500000000E+03  0.12500000000E+03 0.  0.
        -11    1    3    3    0    0 -0.57719997266E+02 -0.81498812555E+01  0.15514993283E+02  0.60321916959E+02  0.51100000000E-03 0. -1.
         23    2    1    0    0    0 -0.28608884630E+02 -0.12572138041E+01 -0.40658755484E+01  0.96076303654E+02  0.91619189658E+02 0.  0.
         11    1    3    3    0    0  0.29111112635E+02  0.68926674513E+01 -0.19580868831E+02  0.35754386695E+02  0.51100000000E-03 0.  1.
         22    1    1    0    0    0  0.28608884630E+02  0.12572138041E+01  0.40658755484E+01  0.28923696346E+02  0.00000000000E+00 0. -1.
</event>
<event>
 5    1  0.1681111E-003  0.9118800E+02  0.7818608E-02  0.1130116E+00
         25   -1    0    0    0    0  0.00000000000E+00  0.00000000000E+00  0.99999998245E-14  0.12500000000E+03  0.12500000000E+03 0.  0.
        -11    1    3    3    0    0  0.38478001017E+02 -0.44347555901E+00 -0.76421792987E+01  0.39232080464E+02  0.51100000000E-03 0.  1.
         23    2    1    0    0    0 -0.14183994070E+02  0.20491847513E+02  0.93286938063E+01  0.98389362458E+02  0.94722439868E+02 0.  0.
         11    1    3    3    0    0 -0.52661995087E+02  0.20935323072E+02  0.16970873105E+02  0.59157281994E+02  0.51100000000E-03 0. -1.
         22    1    1    0    0    0  0.14183994070E+02 -0.20491847513E+02 -0.93286938063E+01  0.26610637542E+02  0.00000000000E+00 0. -1.
</event>
<event>
 5    1  0.1681111E-003  0.9118800E+02  0.7818608E-02  0.1130116E+00
         25   -1    0    0    0    0  0.00000000000E+00  0.00000000000E+00  0.99999998245E-14  0.12500000000E+03  0.12500000000E+03 0.  0.
        -11    1    3    3    0    0 -0.26235545550E+02 -0.93828225768E+01  0.24237129193E+02  0.36929387235E+02  0.51100000000E-03 0. -1.
         23    2    1    0    0    0  0.29165307276E+00  0.33462469359E+02  0.37519160861E+01  0.91326586282E+02  0.84891970000E+02 0.  0.
         11    1    3    3    0    0  0.26527198622E+02  0.42845291936E+02 -0.20485213107E+02  0.54397199047E+02  0.51100000000E-03 0.  1.
         22    1    1    0    0    0 -0.29165307276E+00 -0.33462469359E+02 -0.37519160861E+01  0.33673413718E+02  0.00000000000E+00 0.  1.
</event>
<event>
 5    1  0.1681111E-003  0.9118800E+02  0.7818608E-02  0.1130116E+00
         25   -1    0    0    0    0  0.00000000000E+00  0.00000000000E+00  0.99999998245E-14  0.12500000000E+03  0.12500000000E+03 0.  0.
        -11    1    3    3    0    0  0.26278004801E+02  0.33374902183E+02  0.43298589877E+02  0.60656290009E+02  0.51100000000E-03 0.  1.
         23    2    1    0    0    0  0.97727191459E+01  0.27448101539E+02  0.20709362084E+02  0.89253923355E+02  0.81783132972E+02 0.  0.
         11    1    3    3    0    0 -0.16505285656E+02 -0.59268006436E+01 -0.22589227793E+02  0.28597633346E+02  0.51100000000E-03 0. -1.
         22    1    1    0    0    0 -0.97727191459E+01 -0.27448101539E+02 -0.20709362084E+02  0.35746076645E+02  0.00000000000E+00 0.  1.
</event>
<event>
 5    1  0.1681111E-003  0.9118800E+02  0.7818608E-02  0.1130116E+00
         25   -1    0    0    0    0  0.00000000000E+00  0.00000000000E+00  0.99999998245E-14  0.12500000000E+03  0.12500000000E+03 0.  0.
        -11    1    3    3    0    0 -0.94377667561E+00  0.39836396582E+02  0.46716188313E+02  0.61402210529E+02  0.51100000000E-03 0. -1.
         23    2    1    0    0    0  0.30719712565E+01  0.25540661027E+02  0.18411600563E+02  0.93365376430E+02  0.87842723703E+02 0.  0.
         11    1    3    3    0    0  0.40157479321E+01 -0.14295735555E+02 -0.28304587750E+02  0.31963165902E+02  0.51100000000E-03 0.  1.
         22    1    1    0    0    0 -0.30719712565E+01 -0.25540661027E+02 -0.18411600563E+02  0.31634623570E+02  0.00000000000E+00 0. -1.
</event>
<event>
 5    1  0.1681111E-003  0.9118800E+02  0.7818608E-02  0.1130116E+00
         25   -1    0    0    0    0  0.00000000000E+00  0.00000000000E+00  0.99999998245E-14  0.12500000000E+03  0.12500000000E+03 0.  0.
        -11    1    3    3    0    0  0.14860901543E+02  0.15579816233E+02 -0.47224978018E+02  0.51901595520E+02  0.51100000000E-03 0.  1.
         23    2    1    0    0    0  0.23871168154E+02 -0.11948037248E+02 -0.20100347365E+02  0.91584251807E+02  0.85270528037E+02 0.  0.
         11    1    3    3    0    0  0.90102666108E+01 -0.27527853481E+02  0.27124630653E+02  0.39682656287E+02  0.51100000000E-03 0. -1.
         22    1    1    0    0    0 -0.23871168154E+02  0.11948037248E+02  0.20100347365E+02  0.33415748193E+02  0.00000000000E+00 0.  1.
</event>
<event>
 5    1  0.1681111E-003  0.9118800E+02  0.7818608E-02  0.1130116E+00
         25   -1    0    0    0    0  0.00000000000E+00  0.00000000000E+00  0.99999998245E-14  0.12500000000E+03  0.12500000000E+03 0.  0.
        -11    1    3    3    0    0 -0.10323127866E+02 -0.48274938459E+02  0.16099932407E+02  0.51925374105E+02  0.51100000000E-03 0.  1.
         23    2    1    0    0    0  0.77906904917E+01 -0.96200224693E+01  0.26402492225E+02  0.95839559566E+02  0.91295618139E+02 0.  0.
         11    1    3    3    0    0  0.18113818358E+02  0.38654915989E+02  0.10302559818E+02  0.43914185461E+02  0.51100000000E-03 0. -1.
         22    1    1    0    0    0 -0.77906904917E+01  0.96200224693E+01 -0.26402492225E+02  0.29160440434E+02  0.00000000000E+00 0.  1.
</event>
<event>
 5    1  0.1681111E-003  0.9118800E+02  0.7818608E-02  0.1130116E+00
         25   -1    0    0    0    0  0.00000000000E+00  0.00000000000E+00  0.99999998245E-14  0.12500000000E+03  0.12500000000E+03 0.  0.
        -11    1    3    3    0    0  0.37700603057E+02 -0.48952914917E+01 -0.16614818989E+02  0.41489174009E+02  0.51100000000E-03 0.  1.
         23    2    1    0    0    0 -0.13301977102E+02 -0.23755072701E+02 -0.85588164100E+01  0.96460563913E+02  0.92141961007E+02 0.  0.
         11    1    3    3    0    0 -0.51002580159E+02 -0.18859781209E+02  0.80560025795E+01  0.54971389904E+02  0.51100000000E-03 0. -1.
         22    1    1    0    0    0  0.13301977102E+02  0.23755072701E+02  0.85588164100E+01  0.28539436087E+02  0.00000000000E+00 0. -1.
</event>
<event>
 5    1  0.1681111E-003  0.9118800E+02  0.7818608E-02  0.1130116E+00
         25   -1    0    0    0    0  0.00000000000E+00  0.00000000000E+00  0.99999998245E-14  0.12500000000E+03  0.12500000000E+03 0.  0.
        -11    1    3    3    0    0 -0.40317422736E+02 -0.15443309288E+02  0.14790376541E+02  0.45637107887E+02  0.51100000000E-03 0. -1.
         23    2    1    0    0    0 -0.18798443393E+02  0.22746290063E+02 -0.71218946579E+01  0.94643838037E+02  0.89643513481E+02 0.  0.
         11    1    3    3    0    0  0.21518979343E+02  0.38189599351E+02 -0.21912271199E+02  0.49006730150E+02  0.51100000000E-03 0.  1.
         22    1    1    0    0    0  0.18798443393E+02 -0.22746290063E+02  0.71218946579E+01  0.30356161963E+02  0.00000000000E+00 0.  1.
</event>
<event>
 5    1  0.1681111E-003  0.9118800E+02  0.7818608E-02  0.1130116E+00
         25   -1    0    0    0    0  0.00000000000E+00  0.00000000000E+00  0.99999998245E-14  0.12500000000E+03  0.12500000000E+03 0.  0.
        -11    1    3    3    0    0 -0.22039322716E+02  0.42502347559E+02  0.23252847457E+02  0.53224770632E+02  0.51100000000E-03 0.  1.
         23    2    1    0    0    0 -0.20613060924E+02  0.32027307813E+00  0.21122326921E+02  0.95484689565E+02  0.90808437886E+02 0.  0.
         11    1    3    3    0    0  0.14262617919E+01 -0.42182074481E+02 -0.21305205353E+01  0.42259918933E+02  0.51100000000E-03 0. -1.
         22    1    1    0    0    0  0.20613060924E+02 -0.32027307813E+00 -0.21122326921E+02  0.29515310435E+02  0.00000000000E+00 0. -1.
</event>
<event>
 5    1  0.1681111E-003  0.9118800E+02  0.7818608E-02  0.1130116E+00
         25   -1    0    0    0    0  0.00000000000E+00  0.00000000000E+00  0.99999998245E-14  0.12500000000E+03  0.12500000000E+03 0.  0.
        -11    1    3    3    0    0 -0.98597843452E+01  0.34226435037E+02  0.50270143507E+01  0.35971309070E+02  0.51100000000E-03 0. -1.
         23    2    1    0    0    0  0.20827340838E+02 -0.13520962039E+02 -0.14799528439E+02  0.96092897363E+02  0.91641826372E+02 0.  0.
         11    1    3    3    0    0  0.30687125183E+02 -0.47747397076E+02 -0.19826542790E+02  0.60121588293E+02  0.51100000000E-03 0.  1.
         22    1    1    0    0    0 -0.20827340838E+02  0.13520962039E+02  0.14799528439E+02  0.28907102637E+02  0.00000000000E+00 0.  1.
</event>
<event>
 5    1  0.1681111E-003  0.9118800E+02  0.7818608E-02  0.1130116E+00
         25   -1    0    0    0    0  0.00000000000E+00  0.00000000000E+00  0.99999998245E-14  0.12500000000E+03  0.12500000000E+03 0.  0.
        -11    1    3    3    0    0 -0.27875326153E+02 -0.21886121036E+02  0.30474490710E+02  0.46741102751E+02  0.51100000000E-03 0.  1.
         23    2    1    0    0    0  0.11098956325E+02  0.92866882103E+01  0.23873069543E+02  0.97083108002E+02  0.92982670431E+02 0.  0.
         11    1    3    3    0    0  0.38974282478E+02  0.31172809246E+02 -0.66014211674E+01  0.50342005251E+02  0.51100000000E-03 0. -1.
         22    1    1    0    0    0 -0.11098956325E+02 -0.92866882103E+01 -0.23873069543E+02  0.27916891998E+02  0.00000000000E+00 0.  1.
</event>
<event>
 5    1  0.1681111E-003  0.9118800E+02  0.7818608E-02  0.1130116E+00
         25   -1    0    0    0    0  0.00000000000E+00  0.00000000000E+00  0.99999998245E-14  0.12500000000E+03  0.12500000000E+03 0.  0.
        -11    1    3    3    0    0 -0.25123396690E+01  0.37889827489E+02  0.39109112113E+02  0.54511223874E+02  0.51100000000E-03 0.  1.
         23    2    1    0    0    0  0.16742770163E+02  0.53292078402E+01  0.24024677573E+02  0.95235827890E+02  0.90465225211E+02 0.  0.
         11    1    3    3    0    0  0.19255109832E+02 -0.32560619649E+02 -0.15084434540E+02  0.40724604015E+02  0.51100000000E-03 0. -1.
         22    1    1    0    0    0 -0.16742770163E+02 -0.53292078402E+01 -0.24024677573E+02  0.29764172110E+02  0.00000000000E+00 0.  1.
</event>
<event>
 5    1  0.1681111E-003  0.9118800E+02  0.7818608E-02  0.1130116E+00
         25   -1    0    0    0    0  0.00000000000E+00  0.00000000000E+00  0.99999998245E-14  0.12500000000E+03  0.12500000000E+03 0.  0.
        -11    1    3    3    0    0  0.32957542396E+02 -0.24604100131E+02 -0.35859013933E+01  0.41284622235E+02  0.51100000000E-03 0. -1.
         23    2    1    0    0    0  0.13504568114E+02  0.24733013789E+02 -0.10830227723E+02  0.94810777361E+02  0.89875994238E+02 0.  0.
         11    1    3    3    0    0 -0.19452974282E+02  0.49337113920E+02 -0.72443263299E+01  0.53526155126E+02  0.51100000000E-03 0.  1.
         22    1    1    0    0    0 -0.13504568114E+02 -0.24733013789E+02  0.10830227723E+02  0.30189222639E+02  0.00000000000E+00 0.  1.
</event>
<event>
 5    1  0.1681111E-003  0.9118800E+02  0.7818608E-02  0.1130116E+00
         25   -1    0    0    0    0  0.00000000000E+00  0.00000000000E+00  0.99999998245E-14  0.12500000000E+03  0.12500000000E+03 0.  0.
        -11    1    3    3    0    0 -0.31910121874E+02 -0.95742844004E+01 -0.16462801308E+02  0.37161090229E+02  0.51100000000E-03 0.  1.
         23    2    1    0    0    0  0.44643083628E+01  0.60773468532E+00  0.28649188646E+02  0.95998700017E+02  0.91513250430E+02 0.  0.
         11    1    3    3    0    0  0.36374430237E+02  0.10182019086E+02  0.45111989954E+02  0.58837609788E+02  0.51100000000E-03 0. -1.
         22    1    1    0    0    0 -0.44643083628E+01 -0.60773468532E+00 -0.28649188646E+02  0.29001299983E+02  0.00000000000E+00 0. -1.
</event>
<event>
 5    1  0.1681111E-003  0.9118800E+02  0.7818608E-02  0.1130116E+00
         25   -1    0    0    0    0  0.00000000000E+00  0.00000000000E+00  0.99999998245E-14  0.12500000000E+03  0.12500000000E+03 0.  0.
        -11    1    3    3    0    0 -0.25239362911E+02 -0.21151332704E+02 -0.62173605104E+01  0.33512085689E+02  0.51100000000E-03 0. -1.
         23    2    1    0    0    0  0.29959684579E+02 -0.19522207276E+02 -0.60346323696E+01  0.88735470983E+02  0.80986836867E+02 0.  0.
         11    1    3    3    0    0  0.55199047490E+02  0.16291254278E+01  0.18272814087E+00  0.55223385293E+02  0.51100000000E-03 0.  1.
         22    1    1    0    0    0 -0.29959684579E+02  0.19522207276E+02  0.60346323696E+01  0.36264529017E+02  0.00000000000E+00 0.  1.
</event>
<event>
 5    1  0.1681111E-003  0.9118800E+02  0.7818608E-02  0.1130116E+00
         25   -1    0    0    0    0  0.00000000000E+00  0.00000000000E+00  0.99999998245E-14  0.12500000000E+03  0.12500000000E+03 0.  0.
        -11    1    3    3    0    0  0.79221376295E+01 -0.13813131808E+02 -0.40509582552E+02  0.43526878521E+02  0.51100000000E-03 0.  1.
         23    2    1    0    0    0 -0.24006607090E+02 -0.14663397193E+02  0.21142974598E+01  0.96790025612E+02  0.92587830750E+02 0.  0.
         11    1    3    3    0    0 -0.31928744719E+02 -0.85026538518E+00  0.42623880012E+02  0.53263147092E+02  0.51100000000E-03 0. -1.
         22    1    1    0    0    0  0.24006607090E+02  0.14663397193E+02 -0.21142974598E+01  0.28209974388E+02  0.00000000000E+00 0. -1.
</event>
<event>
 5    1  0.1681111E-003  0.9118800E+02  0.7818608E-02  0.1130116E+00
         25   -1    0    0    0    0  0.00000000000E+00  0.00000000000E+00  0.99999998245E-14  0.12500000000E+03  0.12500000000E+03 0.  0.
        -11    1    3    3    0    0 -0.26374280337E+01 -0.20056145636E+02 -0.33996375109E+02  0.39559556686E+02  0.51100000000E-03 0.  1.
         23    2    1    0    0    0 -0.27274565197E+02  0.13697992363E+02  0.15753039784E+01  0.94438284013E+02  0.89356426760E+02 0.  0.
         11    1    3    3    0    0 -0.24637137163E+02  0.33754137999E+02  0.35571679088E+02  0.54878727327E+02  0.51100000000E-03 0. -1.
         22    1    1    0    0    0  0.27274565197E+02 -0.13697992363E+02 -0.15753039784E+01  0.30561715987E+02  0.00000000000E+00 0. -1.
</event>
<event>
 5    1  0.1681111E-003  0.9118800E+02  0.7818608E-02  0.1130116E+00
         25   -1    0    0    0    0  0.00000000000E+00  0.00000000000E+00  0.99999998245E-14  0.12500000000E+03  0.12500000000E+03 0.  0.
        -11    1    3    3    0    0  0.81760571092E+00 -0.55223790745E+02 -0.10692828367E+02  0.56255418602E+02  0.51100000000E-03 0.  1.
         23    2    1    0    0    0  0.59496002211E+01 -0.25703069091E+02  0.14045510610E+02  0.95111509376E+02  0.90293285155E+02 0.  0.
         11    1    3    3    0    0  0.51319945101E+01  0.29520721654E+02  0.24738338977E+02  0.38856090774E+02  0.51100000000E-03 0. -1.
         22    1    1    0    0    0 -0.59496002211E+01  0.25703069091E+02 -0.14045510610E+02  0.29888490624E+02  0.00000000000E+00 0.  1.
</event>
<event>
 5    1  0.1681111E-003  0.9118800E+02  0.7818608E-02  0.1130116E+00
         25   -1    0    0    0    0  0.00000000000E+00  0.00000000000E+00  0.99999998245E-14  0.12500000000E+03  0.12500000000E+03 0.  0.
        -11    1    3    3    0    0 -0.17149975388E+02  0.39578816577E+02 -0.37329269851E+02  0.57044533176E+02  0.51100000000E-03 0. -1.
         23    2    1    0    0    0  0.67155956346E+01  0.26866880257E+02 -0.98228664228E+01  0.95616038656E+02  0.90989063431E+02 0.  0.
         11    1    3    3    0    0  0.23865571022E+02 -0.12711936320E+02  0.27506403428E+02  0.38571505480E+02  0.51100000000E-03 0.  1.
         22    1    1    0    0    0 -0.67155956346E+01 -0.26866880257E+02  0.98228664228E+01  0.29383961344E+02  0.00000000000E+00 0. -1.
</event>
<event>
 5    1  0.1681111E-003  0.9118800E+02  0.7818608E-02  0.1130116E+00
         25   -1    0    0    0    0  0.00000000000E+00  0.00000000000E+00  0.99999998245E-14  0.12500000000E+03  0.12500000000E+03 0.  0.
        -11    1    3    3    0    0  0.27995104548E+02 -0.24230245167E+02  0.15067742724E+02  0.39973335244E+02  0.51100000000E-03 0.  1.
         23    2    1    0    0    0 -0.19850596179E+02 -0.16785615895E+02 -0.12992659645E+02  0.95937786143E+02  0.91430008945E+02 0.  0.
         11    1    3    3    0    0 -0.47845700727E+02  0.74446292715E+01 -0.28060402368E+02  0.55964450899E+02  0.51100000000E-03 0. -1.
         22    1    1    0    0    0  0.19850596179E+02  0.16785615895E+02  0.12992659645E+02  0.29062213857E+02  0.00000000000E+00 0. -1.
</event>
<event>
 5    1  0.1681111E-003  0.9118800E+02  0.7818608E-02  0.1130116E+00
         25   -1    0    0    0    0  0.00000000000E+00  0.00000000000E+00  0.99999998245E-14  0.12500000000E+03  0.12500000000E+03 0.  0.
        -11    1    3    3    0    0  0.44692637653E+02 -0.16928768978E+02  0.38542229964E+02  0.61396405191E+02  0.51100000000E-03 0.  1.
         23    2    1    0    0    0  0.23146465166E+02 -0.14112039031E+02  0.12988436939E+02  0.94939926989E+02  0.90055437078E+02 0.  0.
         11    1    3    3    0    0 -0.21546172487E+02  0.28167299465E+01 -0.25553793025E+02  0.33543521798E+02  0.51100000000E-03 0. -1.
         22    1    1    0    0    0 -0.23146465166E+02  0.14112039031E+02 -0.12988436939E+02  0.30060073011E+02  0.00000000000E+00 0.  1.
</event>
<event>
 5    1  0.1681111E-003  0.9118800E+02  0.7818608E-02  0.1130116E+00
         25   -1    0    0    0    0  0.00000000000E+00  0.00000000000E+00  0.99999998245E-14  0.12500000000E+03  0.12500000000E+03 0.  0.
        -11    1    3    3    0    0 -0.15290839482E+01  0.26462690809E+01  0.59700360485E+02  0.59778540298E+02  0.51100000000E-03 0. -1.
         23    2    1    0    0    0  0.10939782552E+02 -0.45603181645E+01  0.26134011311E+02  0.96303974295E+02  0.91929285724E+02 0.  0.
         11    1    3    3    0    0  0.12468866501E+02 -0.72065872454E+01 -0.33566349175E+02  0.36525433998E+02  0.51100000000E-03 0.  1.
         22    1    1    0    0    0 -0.10939782552E+02  0.45603181645E+01 -0.26134011311E+02  0.28696025705E+02  0.00000000000E+00 0. -1.
</event>
<event>
 5    1  0.1681111E-003  0.9118800E+02  0.7818608E-02  0.1130116E+00
         25   -1    0    0    0    0  0.00000000000E+00  0.00000000000E+00  0.99999998245E-14  0.12500000000E+03  0.12500000000E+03 0.  0.
        -11    1    3    3    0    0  0.24572737054E+02  0.27893016484E+02  0.43889467226E+01  0.37431305461E+02  0.51100000000E-03 0.  1.
         23    2    1    0    0    0 -0.25119698455E+02  0.20330872581E+01 -0.13721830732E+02  0.96304680993E+02  0.91930246646E+02 0.  0.
         11    1    3    3    0    0 -0.49692435509E+02 -0.25859929226E+02 -0.18110777454E+02  0.58873375533E+02  0.51100000000E-03 0. -1.
         22    1    1    0    0    0  0.25119698455E+02 -0.20330872581E+01  0.13721830732E+02  0.28695319007E+02  0.00000000000E+00 0. -1.
</event>
<event>
 5    1  0.1681111E-003  0.9118800E+02  0.7818608E-02  0.1130116E+00
         25   -1    0    0    0    0  0.00000000000E+00  0.00000000000E+00  0.99999998245E-14  0.12500000000E+03  0.12500000000E+03 0.  0.
        -11    1    3    3    0    0 -0.22949905946E+02 -0.31009776721E+02 -0.66592135302E+01  0.39149068448E+02  0.51100000000E-03 0.  1.
         23    2    1    0    0    0 -0.16377344100E+02  0.22327613017E+02  0.10228966336E+02  0.95480998406E+02  0.90803356774E+02 0.  0.
         11    1    3    3    0    0  0.65725618463E+01  0.53337389739E+02  0.16888179866E+02  0.56331929958E+02  0.51100000000E-03 0. -1.
         22    1    1    0    0    0  0.16377344100E+02 -0.22327613017E+02 -0.10228966336E+02  0.29519001594E+02  0.00000000000E+00 0. -1.
</event>
<event>
 5    1  0.1681111E-003  0.9118800E+02  0.7818608E-02  0.1130116E+00
         25   -1    0    0    0    0  0.00000000000E+00  0.00000000000E+00  0.99999998245E-14  0.12500000000E+03  0.12500000000E+03 0.  0.
        -11    1    3    3    0    0 -0.23014703283E+02  0.89065938523E+01  0.22321495187E+02  0.33275413279E+02  0.51100000000E-03 0.  1.
         23    2    1    0    0    0  0.28797765584E+02 -0.12459372257E+02 -0.55479408958E-01  0.93622454882E+02  0.88207787187E+02 0.  0.
         11    1    3    3    0    0  0.51812468867E+02 -0.21365966110E+02 -0.22376974596E+02  0.60347041603E+02  0.51100000000E-03 0. -1.
         22    1    1    0    0    0 -0.28797765584E+02  0.12459372257E+02  0.55479408958E-01  0.31377545118E+02  0.00000000000E+00 0. -1.
</event>
<event>
 5    1  0.1681111E-003  0.9118800E+02  0.7818608E-02  0.1130116E+00
         25   -1    0    0    0    0  0.00000000000E+00  0.00000000000E+00  0.99999998245E-14  0.12500000000E+03  0.12500000000E+03 0.  0.
        -11    1    3    3    0    0  0.24170268638E+02  0.22494304111E+02 -0.25372017110E+02  0.41640543416E+02  0.51100000000E-03 0. -1.
         23    2    1    0    0    0 -0.24453302154E+02  0.13076158618E+02 -0.40494333282E-01  0.97270024338E+02  0.93233610273E+02 0.  0.
         11    1    3    3    0    0 -0.48623570792E+02 -0.94181454938E+01  0.25331522777E+02  0.55629480922E+02  0.51100000000E-03 0.  1.
         22    1    1    0    0    0  0.24453302154E+02 -0.13076158618E+02  0.40494333282E-01  0.27729975662E+02  0.00000000000E+00 0.  1.
</event>
<event>
 5    1  0.1681111E-003  0.9118800E+02  0.7818608E-02  0.1130116E+00
         25   -1    0    0    0    0  0.00000000000E+00  0.00000000000E+00  0.99999998245E-14  0.12500000000E+03  0.12500000000E+03 0.  0.
        -11    1    3    3    0    0 -0.32858034474E+02 -0.50314792134E+02  0.83076421031E+01  0.60665028266E+02  0.51100000000E-03 0. -1.
         23    2    1    0    0    0 -0.24777071906E+02 -0.18413596250E+02  0.47726358005E+01  0.93763132815E+02  0.88406918302E+02 0.  0.
         11    1    3    3    0    0  0.80809625680E+01  0.31901195884E+02 -0.35350063026E+01  0.33098104548E+02  0.51100000000E-03 0.  1.
         22    1    1    0    0    0  0.24777071906E+02  0.18413596250E+02 -0.47726358005E+01  0.31236867185E+02  0.00000000000E+00 0. -1.
</event>
<event>
 5    1  0.1681111E-003  0.9118800E+02  0.7818608E-02  0.1130116E+00
         25   -1    0    0    0    0  0.00000000000E+00  0.00000000000E+00  0.99999998245E-14  0.12500000000E+03  0.12500000000E+03 0.  0.
        -11    1    3    3    0    0 -0.16168724952E+02 -0.13997188084E+02 -0.90539954919E+01  0.23223345484E+02  0.51100000000E-03 0.  1.
         23    2    1    0    0    0  0.28318401373E+02  0.19650999407E+02 -0.26339726034E+02  0.81619419073E+02  0.69136493752E+02 0.  0.
         11    1    3    3    0    0  0.44487126325E+02  0.33648187490E+02 -0.17285730542E+02  0.58396073590E+02  0.51100000000E-03 0. -1.
         22    1    1    0    0    0 -0.28318401373E+02 -0.19650999407E+02  0.26339726034E+02  0.43380580927E+02  0.00000000000E+00 0. -1.
</event>
<event>
 5    1  0.1681111E-003  0.9118800E+02  0.7818608E-02  0.1130116E+00
         25   -1    0    0    0    0  0.00000000000E+00  0.00000000000E+00  0.99999998245E-14  0.12500000000E+03  0.12500000000E+03 0.  0.
        -11    1    3    3    0    0  0.23090388850E+02  0.75853577271E+01  0.40555136331E+02  0.47280257954E+02  0.51100000000E-03 0.  1.
         23    2    1    0    0    0 -0.75568867433E+01 -0.21888808977E+02  0.19492534015E+02  0.94731445723E+02  0.89765591575E+02 0.  0.
         11    1    3    3    0    0 -0.30647275593E+02 -0.29474166704E+02 -0.21062602316E+02  0.47451187770E+02  0.51100000000E-03 0. -1.
         22    1    1    0    0    0  0.75568867433E+01  0.21888808977E+02 -0.19492534015E+02  0.30268554277E+02  0.00000000000E+00 0. -1.
</event>
<event>
 5    1  0.1681111E-003  0.9118800E+02  0.7818608E-02  0.1130116E+00
         25   -1    0    0    0    0  0.00000000000E+00  0.00000000000E+00  0.99999998245E-14  0.12500000000E+03  0.12500000000E+03 0.  0.
        -11    1    3    3    0    0 -0.27991916990E+02 -0.14898850730E+02  0.25378340343E+02  0.40615062830E+02  0.51100000000E-03 0. -1.
         23    2    1    0    0    0  0.19190443743E+01 -0.16449752826E+02 -0.22483177443E+02  0.97075631301E+02  0.92972618685E+02 0.  0.
         11    1    3    3    0    0  0.29910961364E+02 -0.15509020960E+01 -0.47861517786E+02  0.56460568471E+02  0.51100000000E-03 0.  1.
         22    1    1    0    0    0 -0.19190443743E+01  0.16449752826E+02  0.22483177443E+02  0.27924368699E+02  0.00000000000E+00 0.  1.
</event>
<event>
 5    1  0.1681111E-003  0.9118800E+02  0.7818608E-02  0.1130116E+00
         25   -1    0    0    0    0  0.00000000000E+00  0.00000000000E+00  0.99999998245E-14  0.12500000000E+03  0.12500000000E+03 0.  0.
        -11    1    3    3    0    0  0.38522492376E+02  0.26127239777E+02 -0.29519233003E+02  0.55118056883E+02  0.51100000000E-03 0.  1.
         23    2    1    0    0    0  0.41197591958E+01  0.28152147301E+02 -0.93370783899E+01  0.95055103166E+02  0.90215163867E+02 0.  0.
         11    1    3    3    0    0 -0.34402733180E+02  0.20249075243E+01  0.20182154614E+02  0.39937046283E+02  0.51100000000E-03 0. -1.
         22    1    1    0    0    0 -0.41197591958E+01 -0.28152147301E+02  0.93370783899E+01  0.29944896834E+02  0.00000000000E+00 0.  1.
</event>
<event>
 5    1  0.1681111E-003  0.9118800E+02  0.7818608E-02  0.1130116E+00
         25   -1    0    0    0    0  0.00000000000E+00  0.00000000000E+00  0.99999998245E-14  0.12500000000E+03  0.12500000000E+03 0.  0.
        -11    1    3    3    0    0  0.43693403057E+02  0.20595641236E+02 -0.27509750199E+01  0.48382453146E+02  0.51100000000E-03 0.  1.
         23    2    1    0    0    0  0.27966458446E+02 -0.67720854916E+01 -0.24903725513E+02  0.86945046520E+02  0.78174558714E+02 0.  0.
         11    1    3    3    0    0 -0.15726944611E+02 -0.27367726728E+02 -0.22152750493E+02  0.38562593374E+02  0.51100000000E-03 0. -1.
         22    1    1    0    0    0 -0.27966458446E+02  0.67720854916E+01  0.24903725513E+02  0.38054953480E+02  0.00000000000E+00 0.  1.
</event>
<event>
 5    1  0.1681111E-003  0.9118800E+02  0.7818608E-02  0.1130116E+00
         25   -1    0    0    0    0  0.00000000000E+00  0.00000000000E+00  0.99999998245E-14  0.12500000000E+03  0.12500000000E+03 0.  0.
        -11    1    3    3    0    0  0.79102615044E+01 -0.39455651154E+02  0.33122975526E+02  0.52119594712E+02  0.51100000000E-03 0. -1.
         23    2    1    0    0    0  0.15839922765E+02  0.35643536692E+01  0.22704050777E+02  0.97087965106E+02  0.92989199784E+02 0.  0.
         11    1    3    3    0    0  0.79296612604E+01  0.43020004823E+02 -0.10418924749E+02  0.44968370393E+02  0.51100000000E-03 0.  1.
         22    1    1    0    0    0 -0.15839922765E+02 -0.35643536692E+01 -0.22704050777E+02  0.27912034894E+02  0.00000000000E+00 0. -1.
</event>
<event>
 5    1  0.1681111E-003  0.9118800E+02  0.7818608E-02  0.1130116E+00
         25   -1    0    0    0    0  0.00000000000E+00  0.00000000000E+00  0.99999998245E-14  0.12500000000E+03  0.12500000000E+03 0.  0.
        -11    1    3    3    0    0  0.19384715512E+02  0.66370946782E+01  0.20938099953E+02  0.29295430551E+02  0.51100000000E-03 0.  1.
         23    2    1    0    0    0 -0.24059152313E+02 -0.19110662878E+02 -0.14535153757E+02  0.91009840536E+02  0.84424286399E+02 0.  0.
         11    1    3    3    0    0 -0.43443867825E+02 -0.25747757556E+02 -0.35473253710E+02  0.61714409985E+02  0.51100000000E-03 0. -1.
         22    1    1    0    0    0  0.24059152313E+02  0.19110662878E+02  0.14535153757E+02  0.33990159464E+02  0.00000000000E+00 0. -1.
</event>
<event>
 5    1  0.1681111E-003  0.9118800E+02  0.7818608E-02  0.1130116E+00
         25   -1    0    0    0    0  0.00000000000E+00  0.00000000000E+00  0.99999998245E-14  0.12500000000E+03  0.12500000000E+03 0.  0.
        -11    1    3    3    0    0 -0.19973870178E+02  0.50769955754E+02 -0.25594776625E+02  0.60263060725E+02  0.51100000000E-03 0. -1.
         23    2    1    0    0    0 -0.12259195609E+02  0.27203847333E+02 -0.10652924279E+01  0.95142471056E+02  0.90336137641E+02 0.  0.
         11    1    3    3    0    0  0.77146745690E+01 -0.23566108421E+02  0.24529484197E+02  0.34879410331E+02  0.51100000000E-03 0.  1.
         22    1    1    0    0    0  0.12259195609E+02 -0.27203847333E+02  0.10652924279E+01  0.29857528944E+02  0.00000000000E+00 0. -1.
</event>
<event>
 5    1  0.1681111E-003  0.9118800E+02  0.7818608E-02  0.1130116E+00
         25   -1    0    0    0    0  0.00000000000E+00  0.00000000000E+00  0.99999998245E-14  0.12500000000E+03  0.12500000000E+03 0.  0.
        -11    1    3    3    0    0 -0.19390562973E+02 -0.12608986960E+02  0.29923889177E+02  0.37820888783E+02  0.51100000000E-03 0. -1.
         23    2    1    0    0    0 -0.27334247101E+02  0.28149084034E+02  0.21734074379E+02  0.80145769590E+02  0.66418690123E+02 0.  0.
         11    1    3    3    0    0 -0.79436841271E+01  0.40758070994E+02 -0.81898147980E+01  0.42324880807E+02  0.51100000000E-03 0.  1.
         22    1    1    0    0    0  0.27334247101E+02 -0.28149084034E+02 -0.21734074379E+02  0.44854230410E+02  0.00000000000E+00 0. -1.
</event>
<event>
 5    1  0.1681111E-003  0.9118800E+02  0.7818608E-02  0.1130116E+00
         25   -1    0    0    0    0  0.00000000000E+00  0.00000000000E+00  0.99999998245E-14  0.12500000000E+03  0.12500000000E+03 0.  0.
        -11    1    3    3    0    0  0.11384413118E+01  0.26024111686E+02  0.24486300870E+02  0.35750935208E+02  0.51100000000E-03 0. -1.
         23    2    1    0    0    0 -0.23249735859E+02 -0.17717777837E+02 -0.70450596850E+01  0.94931698835E+02  0.90044015397E+02 0.  0.
         11    1    3    3    0    0 -0.24388177171E+02 -0.43741889523E+02 -0.31531360555E+02  0.59180763627E+02  0.51100000000E-03 0.  1.
         22    1    1    0    0    0  0.23249735859E+02  0.17717777837E+02  0.70450596850E+01  0.30068301165E+02  0.00000000000E+00 0.  1.
</event>
<event>
 5    1  0.1681111E-003  0.9118800E+02  0.7818608E-02  0.1130116E+00
         25   -1    0    0    0    0  0.00000000000E+00  0.00000000000E+00  0.99999998245E-14  0.12500000000E+03  0.12500000000E+03 0.  0.
        -11    1    3    3    0    0  0.18409372333E+02  0.12946930051E+02  0.48529965496E+02  0.53494724401E+02  0.51100000000E-03 0.  1.
         23    2    1    0    0    0  0.12076455862E+01 -0.16683499303E+02  0.24464695209E+02  0.95363555063E+02  0.90641539957E+02 0.  0.
         11    1    3    3    0    0 -0.17201726747E+02 -0.29630429354E+02 -0.24065270287E+02  0.41868830662E+02  0.51100000000E-03 0. -1.
         22    1    1    0    0    0 -0.12076455862E+01  0.16683499303E+02 -0.24464695209E+02  0.29636444937E+02  0.00000000000E+00 0.  1.
</event>
<event>
 5    1  0.1681111E-003  0.9118800E+02  0.7818608E-02  0.1130116E+00
         25   -1    0    0    0    0  0.00000000000E+00  0.00000000000E+00  0.99999998245E-14  0.12500000000E+03  0.12500000000E+03 0.  0.
        -11    1    3    3    0    0  0.45802157076E+02 -0.78540746240E+01  0.82978085234E+01  0.47205695711E+02  0.51100000000E-03 0.  1.
         23    2    1    0    0    0  0.64536128387E+01 -0.22626441660E+02  0.23351533770E+02  0.91850352788E+02  0.85659723307E+02 0.  0.
         11    1    3    3    0    0 -0.39348544238E+02 -0.14772367036E+02  0.15053725247E+02  0.44644657077E+02  0.51100000000E-03 0. -1.
         22    1    1    0    0    0 -0.64536128387E+01  0.22626441660E+02 -0.23351533770E+02  0.33149647212E+02  0.00000000000E+00 0. -1.
</event>
<event>
 5    1  0.1681111E-003  0.9118800E+02  0.7818608E-02  0.1130116E+00
         25   -1    0    0    0    0  0.00000000000E+00  0.00000000000E+00  0.99999998245E-14  0.12500000000E+03  0.12500000000E+03 0.  0.
        -11    1    3    3    0    0  0.28979216532E+01  0.36788588684E+02  0.43072597033E+02  0.56719016412E+02  0.51100000000E-03 0. -1.
         23    2    1    0    0    0  0.10851268944E+02  0.35127237853E+01  0.29224827270E+02  0.93628360020E+02  0.88216155011E+02 0.  0.
         11    1    3    3    0    0  0.79533472909E+01 -0.33275864899E+02 -0.13847769763E+02  0.36909343608E+02  0.51100000000E-03 0.  1.
         22    1    1    0    0    0 -0.10851268944E+02 -0.35127237853E+01 -0.29224827270E+02  0.31371639980E+02  0.00000000000E+00 0. -1.
</event>
<event>
 5    1  0.1681111E-003  0.9118800E+02  0.7818608E-02  0.1130116E+00
         25   -1    0    0    0    0  0.00000000000E+00  0.00000000000E+00  0.99999998245E-14  0.12500000000E+03  0.12500000000E+03 0.  0.
        -11    1    3    3    0    0 -0.30188865757E+02 -0.42218354822E+02  0.26684108781E+02  0.58359221732E+02  0.51100000000E-03 0.  1.
         23    2    1    0    0    0 -0.86603999515E+01 -0.11763708364E+02  0.25426555958E+02  0.95675997721E+02  0.91071397432E+02 0.  0.
         11    1    3    3    0    0  0.21528465805E+02  0.30454646458E+02 -0.12575528228E+01  0.37316775988E+02  0.51100000000E-03 0. -1.
         22    1    1    0    0    0  0.86603999515E+01  0.11763708364E+02 -0.25426555958E+02  0.29324002279E+02  0.00000000000E+00 0.  1.
</event>
<event>
 5    1  0.1681111E-003  0.9118800E+02  0.7818608E-02  0.1130116E+00
         25   -1    0    0    0    0  0.00000000000E+00  0.00000000000E+00  0.99999998245E-14  0.12500000000E+03  0.12500000000E+03 0.  0.
        -11    1    3    3    0    0 -0.23759075960E+02 -0.87822666663E+01 -0.56603908261E+02  0.62013098044E+02  0.51100000000E-03 0. -1.
         23    2    1    0    0    0 -0.64278287185E+01 -0.69408663496E+01 -0.27289548912E+02  0.96117270082E+02  0.91675064878E+02 0.  0.
         11    1    3    3    0    0  0.17331247242E+02  0.18414003167E+01  0.29314359349E+02  0.34104172038E+02  0.51100000000E-03 0.  1.
         22    1    1    0    0    0  0.64278287185E+01  0.69408663496E+01  0.27289548912E+02  0.28882729918E+02  0.00000000000E+00 0. -1.
</event>
<event>
 5    1  0.1681111E-003  0.9118800E+02  0.7818608E-02  0.1130116E+00
         25   -1    0    0    0    0  0.00000000000E+00  0.00000000000E+00  0.99999998245E-14  0.12500000000E+03  0.12500000000E+03 0.  0.
        -11    1    3    3    0    0 -0.21049647848E+02  0.46376955763E+02 -0.15563590755E+02  0.53255375858E+02  0.51100000000E-03 0. -1.
         23    2    1    0    0    0 -0.20764096388E+02  0.16210545919E+02  0.13720181066E+02  0.95298604977E+02  0.90551925680E+02 0.  0.
         11    1    3    3    0    0  0.28555146046E+00 -0.30166409843E+02  0.29283771821E+02  0.42043229119E+02  0.51100000000E-03 0.  1.
         22    1    1    0    0    0  0.20764096388E+02 -0.16210545919E+02 -0.13720181066E+02  0.29701395023E+02  0.00000000000E+00 0.  1.
</event>
<event>
 5    1  0.1681111E-003  0.9118800E+02  0.7818608E-02  0.1130116E+00
         25   -1    0    0    0    0  0.00000000000E+00  0.00000000000E+00  0.99999998245E-14  0.12500000000E+03  0.12500000000E+03 0.  0.
        -11    1    3    3    0    0 -0.24388761030E+01 -0.33250527471E+02  0.12353628017E+02  0.35554997105E+02  0.51100000000E-03 0. -1.
         23    2    1    0    0    0  0.34155316625E+02 -0.21068400586E+01 -0.11098173841E+02  0.89025093587E+02  0.81432631032E+02 0.  0.
         11    1    3    3    0    0  0.36594192728E+02  0.31143687412E+02 -0.23451801858E+02  0.53470096481E+02  0.51100000000E-03 0.  1.
         22    1    1    0    0    0 -0.34155316625E+02  0.21068400586E+01  0.11098173841E+02  0.35974906413E+02  0.00000000000E+00 0.  1.
</event>
<event>
 5    1  0.1681111E-003  0.9118800E+02  0.7818608E-02  0.1130116E+00
         25   -1    0    0    0    0  0.00000000000E+00  0.00000000000E+00  0.99999998245E-14  0.12500000000E+03  0.12500000000E+03 0.  0.
        -11    1    3    3    0    0 -0.33059227261E+02 -0.23847691689E+02  0.11915030683E+02  0.42468728053E+02  0.51100000000E-03 0. -1.
         23    2    1    0    0    0  0.17824401872E+02 -0.11225826044E+02  0.20516041111E+02  0.95595299435E+02  0.90960567603E+02 0.  0.
         11    1    3    3    0    0  0.50883629134E+02  0.12621865645E+02  0.86010104272E+01  0.53126571382E+02  0.51100000000E-03 0.  1.
         22    1    1    0    0    0 -0.17824401872E+02  0.11225826044E+02 -0.20516041111E+02  0.29404700565E+02  0.00000000000E+00 0.  1.
</event>
<event>
 5    1  0.1681111E-003  0.9118800E+02  0.7818608E-02  0.1130116E+00
         25   -1    0    0    0    0  0.00000000000E+00  0.00000000000E+00  0.99999998245E-14  0.12500000000E+03  0.12500000000E+03 0.  0.
        -11    1    3    3    0    0 -0.27275323506E+02  0.13092399895E+02 -0.32699624801E+02  0.44549070358E+02  0.51100000000E-03 0.  1.
         23    2    1    0    0    0 -0.13017626535E+02 -0.27388019003E+02 -0.10205986930E+02  0.93004307247E+02  0.87327411571E+02 0.  0.
         11    1    3    3    0    0  0.14257696971E+02 -0.40480418898E+02  0.22493637870E+02  0.48455236889E+02  0.51100000000E-03 0. -1.
         22    1    1    0    0    0  0.13017626535E+02  0.27388019003E+02  0.10205986930E+02  0.31995692753E+02  0.00000000000E+00 0. -1.
</event>
<event>
 5    1  0.1681111E-003  0.9118800E+02  0.7818608E-02  0.1130116E+00
         25   -1    0    0    0    0  0.00000000000E+00  0.00000000000E+00  0.99999998245E-14  0.12500000000E+03  0.12500000000E+03 0.  0.
        -11    1    3    3    0    0 -0.47005125411E+02 -0.67709863174E+00 -0.46476048946E+01  0.47239184043E+02  0.51100000000E-03 0.  1.
         23    2    1    0    0    0 -0.74755074918E+00  0.10917924881E+02 -0.23936045857E+02  0.98680915535E+02  0.95106408216E+02 0.  0.
         11    1    3    3    0    0  0.46257574662E+02  0.11595023513E+02 -0.19288440962E+02  0.51441731492E+02  0.51100000000E-03 0. -1.
         22    1    1    0    0    0  0.74755074918E+00 -0.10917924881E+02  0.23936045857E+02  0.26319084465E+02  0.00000000000E+00 0.  1.
</event>
<event>
 5    1  0.1681111E-003  0.9118800E+02  0.7818608E-02  0.1130116E+00
         25   -1    0    0    0    0  0.00000000000E+00  0.00000000000E+00  0.99999998245E-14  0.12500000000E+03  0.12500000000E+03 0.  0.
        -11    1    3    3    0    0 -0.35831932378E+02  0.17956414851E+01 -0.22090077225E+01  0.35944838595E+02  0.51100000000E-03 0. -1.
         23    2    1    0    0    0  0.21393983428E+02 -0.17389609916E+02  0.57893814384E+01  0.96828773591E+02  0.92640128442E+02 0.  0.
         11    1    3    3    0    0  0.57225915806E+02 -0.19185251401E+02  0.79983891608E+01  0.60883934996E+02  0.51100000000E-03 0.  1.
         22    1    1    0    0    0 -0.21393983428E+02  0.17389609916E+02 -0.57893814384E+01  0.28171226409E+02  0.00000000000E+00 0.  1.
</event>
<event>
 5    1  0.1681111E-003  0.9118800E+02  0.7818608E-02  0.1130116E+00
         25   -1    0    0    0    0  0.00000000000E+00  0.00000000000E+00  0.99999998245E-14  0.12500000000E+03  0.12500000000E+03 0.  0.
        -11    1    3    3    0    0  0.19588273376E+02  0.46378783505E+02 -0.48622471766E+01  0.50579970949E+02  0.51100000000E-03 0. -1.
         23    2    1    0    0    0 -0.14447134877E+02  0.20055160924E+02  0.12888035418E+02  0.97124730624E+02  0.93038608416E+02 0.  0.
         11    1    3    3    0    0 -0.34035408253E+02 -0.26323622581E+02  0.17750282594E+02  0.46544759675E+02  0.51100000000E-03 0.  1.
         22    1    1    0    0    0  0.14447134877E+02 -0.20055160924E+02 -0.12888035418E+02  0.27875269376E+02  0.00000000000E+00 0. -1.
</event>
<event>
 5    1  0.1681111E-003  0.9118800E+02  0.7818608E-02  0.1130116E+00
         25   -1    0    0    0    0  0.00000000000E+00  0.00000000000E+00  0.99999998245E-14  0.12500000000E+03  0.12500000000E+03 0.  0.
        -11    1    3    3    0    0  0.37028899740E+02  0.19550757824E+02  0.76534957262E+00  0.41880273491E+02  0.51100000000E-03 0.  1.
         23    2    1    0    0    0 -0.57979002432E+01 -0.50544799867E+00  0.27965623602E+02  0.96435209989E+02  0.92107559393E+02 0.  0.
         11    1    3    3    0    0 -0.42826799983E+02 -0.20056205823E+02  0.27200274030E+02  0.54554936498E+02  0.51100000000E-03 0. -1.
         22    1    1    0    0    0  0.57979002432E+01  0.50544799867E+00 -0.27965623602E+02  0.28564790011E+02  0.00000000000E+00 0. -1.
</event>
<event>
 5    1  0.1681111E-003  0.9118800E+02  0.7818608E-02  0.1130116E+00
         25   -1    0    0    0    0  0.00000000000E+00  0.00000000000E+00  0.99999998245E-14  0.12500000000E+03  0.12500000000E+03 0.  0.
        -11    1    3    3    0    0 -0.14223152577E+02  0.28975348756E+02  0.42715432601E+02  0.53539490914E+02  0.51100000000E-03 0.  1.
         23    2    1    0    0    0  0.13453415653E+02  0.26848912166E+01  0.26790791683E+02  0.94901004127E+02  0.90001394610E+02 0.  0.
         11    1    3    3    0    0  0.27676568230E+02 -0.26290457539E+02 -0.15924640918E+02  0.41361513213E+02  0.51100000000E-03 0. -1.
         22    1    1    0    0    0 -0.13453415653E+02 -0.26848912166E+01 -0.26790791683E+02  0.30098995873E+02  0.00000000000E+00 0. -1.
</event>
<event>
 5    1  0.1681111E-003  0.9118800E+02  0.7818608E-02  0.1130116E+00
         25   -1    0    0    0    0  0.00000000000E+00  0.00000000000E+00  0.99999998245E-14  0.12500000000E+03  0.12500000000E+03 0.  0.
        -11    1    3    3    0    0 -0.27548283285E+02  0.10367206607E+02  0.22853654420E+02  0.37264948751E+02  0.51100000000E-03 0.  1.
         23    2    1    0    0    0  0.16660030141E+02  0.13530438759E+02 -0.17578466662E+02  0.97257760229E+02  0.93217166109E+02 0.  0.
         11    1    3    3    0    0  0.44208313427E+02  0.31632321522E+01 -0.40432121082E+02  0.59992811479E+02  0.51100000000E-03 0. -1.
         22    1    1    0    0    0 -0.16660030141E+02 -0.13530438759E+02  0.17578466662E+02  0.27742239771E+02  0.00000000000E+00 0. -1.
</event>
<event>
 5    1  0.1681111E-003  0.9118800E+02  0.7818608E-02  0.1130116E+00
         25   -1    0    0    0    0  0.00000000000E+00  0.00000000000E+00  0.99999998245E-14  0.12500000000E+03  0.12500000000E+03 0.  0.
        -11    1    3    3    0    0  0.52377122986E+02  0.62178679334E+01  0.23239638156E+02  0.57637710536E+02  0.51100000000E-03 0. -1.
         23    2    1    0    0    0  0.83910690008E+01  0.72267087696E+01  0.20474983232E+02  0.10172210712E+03  0.99022859885E+02 0.  0.
         11    1    3    3    0    0 -0.43986053985E+02  0.10088408361E+01 -0.27646549232E+01  0.44084396583E+02  0.51100000000E-03 0.  1.
         22    1    1    0    0    0 -0.83910690008E+01 -0.72267087696E+01 -0.20474983232E+02  0.23277892881E+02  0.00000000000E+00 0. -1.
</event>
<event>
 5    1  0.1681111E-003  0.9118800E+02  0.7818608E-02  0.1130116E+00
         25   -1    0    0    0    0  0.00000000000E+00  0.00000000000E+00  0.99999998245E-14  0.12500000000E+03  0.12500000000E+03 0.  0.
        -11    1    3    3    0    0  0.11453206132E+02  0.49085591499E+02  0.33678969089E+02  0.60620493092E+02  0.51100000000E-03 0. -1.
         23    2    1    0    0    0  0.17236586989E+02  0.30290728394E+02  0.24966303969E+02  0.82128745160E+02  0.70051311836E+02 0.  0.
         11    1    3    3    0    0  0.57833808567E+01 -0.18794863105E+02 -0.87126651192E+01  0.21508252068E+02  0.51100000000E-03 0.  1.
         22    1    1    0    0    0 -0.17236586989E+02 -0.30290728394E+02 -0.24966303969E+02  0.42871254840E+02  0.00000000000E+00 0. -1.
</event>
<event>
 5    1  0.1681111E-003  0.9118800E+02  0.7818608E-02  0.1130116E+00
         25   -1    0    0    0    0  0.00000000000E+00  0.00000000000E+00  0.99999998245E-14  0.12500000000E+03  0.12500000000E+03 0.  0.
        -11    1    3    3    0    0  0.59305757438E+02  0.79697722269E+01 -0.13553220641E+02  0.61354542820E+02  0.51100000000E-03 0.  1.
         23    2    1    0    0    0  0.27123922754E+02 -0.34261274500E+01 -0.10797652056E+02  0.95605530711E+02  0.90974626560E+02 0.  0.
         11    1    3    3    0    0 -0.32181834683E+02 -0.11395899677E+02  0.27555685852E+01  0.34250987891E+02  0.51100000000E-03 0. -1.
         22    1    1    0    0    0 -0.27123922754E+02  0.34261274500E+01  0.10797652056E+02  0.29394469289E+02  0.00000000000E+00 0.  1.
</event>
<event>
 5    1  0.1681111E-003  0.9118800E+02  0.7818608E-02  0.1130116E+00
         25   -1    0    0    0    0  0.00000000000E+00  0.00000000000E+00  0.99999998245E-14  0.12500000000E+03  0.12500000000E+03 0.  0.
        -11    1    3    3    0    0 -0.16768983896E+02  0.16021249704E+02  0.51562981814E+02  0.56538662496E+02  0.51100000000E-03 0.  1.
         23    2    1    0    0    0  0.11759167234E+02  0.78693189136E+01  0.24554100226E+02  0.96660839249E+02  0.92413255609E+02 0.  0.
         11    1    3    3    0    0  0.28528151129E+02 -0.81519307901E+01 -0.27008881589E+02  0.40122176753E+02  0.51100000000E-03 0. -1.
         22    1    1    0    0    0 -0.11759167234E+02 -0.78693189136E+01 -0.24554100226E+02  0.28339160751E+02  0.00000000000E+00 0.  1.
</event>
<event>
 5    1  0.1681111E-003  0.9118800E+02  0.7818608E-02  0.1130116E+00
         25   -1    0    0    0    0  0.00000000000E+00  0.00000000000E+00  0.99999998245E-14  0.12500000000E+03  0.12500000000E+03 0.  0.
        -11    1    3    3    0    0  0.19556041198E+02  0.42045231684E+02 -0.40951112365E+01  0.46551156710E+02  0.51100000000E-03 0.  1.
         23    2    1    0    0    0  0.15186060374E+02  0.33839492712E+01  0.25289246406E+02  0.95308022529E+02  0.90564924956E+02 0.  0.
         11    1    3    3    0    0 -0.43699808237E+01 -0.38661282413E+02  0.29384357642E+02  0.48756865820E+02  0.51100000000E-03 0. -1.
         22    1    1    0    0    0 -0.15186060374E+02 -0.33839492712E+01 -0.25289246406E+02  0.29691977471E+02  0.00000000000E+00 0. -1.
</event>
<event>
 5    1  0.1681111E-003  0.9118800E+02  0.7818608E-02  0.1130116E+00
         25   -1    0    0    0    0  0.00000000000E+00  0.00000000000E+00  0.99999998245E-14  0.12500000000E+03  0.12500000000E+03 0.  0.
        -11    1    3    3    0    0 -0.63160850562E+01  0.31156269991E+02 -0.32445744299E+01  0.31955177259E+02  0.51100000000E-03 0.  1.
         23    2    1    0    0    0  0.18012745600E+02 -0.39057005527E+01 -0.35198173885E+02  0.85268086558E+02  0.75445487868E+02 0.  0.
         11    1    3    3    0    0  0.24328830656E+02 -0.35061970544E+02 -0.31953599456E+02  0.53312909299E+02  0.51100000000E-03 0. -1.
         22    1    1    0    0    0 -0.18012745600E+02  0.39057005527E+01  0.35198173885E+02  0.39731913442E+02  0.00000000000E+00 0. -1.
</event>
<event>
 5    1  0.1681111E-003  0.9118800E+02  0.7818608E-02  0.1130116E+00
         25   -1    0    0    0    0  0.00000000000E+00  0.00000000000E+00  0.99999998245E-14  0.12500000000E+03  0.12500000000E+03 0.  0.
        -11    1    3    3    0    0  0.12528719944E+02 -0.20944356811E+02  0.15961992927E+02  0.29161963654E+02  0.51100000000E-03 0.  1.
         23    2    1    0    0    0 -0.10887609893E+02  0.28307178745E+02 -0.14232545181E+02  0.91497735002E+02  0.85143606633E+02 0.  0.
         11    1    3    3    0    0 -0.23416329837E+02  0.49251535556E+02 -0.30194538109E+02  0.62335771348E+02  0.51100000000E-03 0. -1.
         22    1    1    0    0    0  0.10887609893E+02 -0.28307178745E+02  0.14232545181E+02  0.33502264998E+02  0.00000000000E+00 0. -1.
</event>
<event>
 5    1  0.1681111E-003  0.9118800E+02  0.7818608E-02  0.1130116E+00
         25   -1    0    0    0    0  0.00000000000E+00  0.00000000000E+00  0.99999998245E-14  0.12500000000E+03  0.12500000000E+03 0.  0.
        -11    1    3    3    0    0 -0.27575850409E+01  0.37628320111E+02 -0.12180733500E+02  0.39646752938E+02  0.51100000000E-03 0.  1.
         23    2    1    0    0    0  0.13997652241E+02 -0.17760354336E+02 -0.15459920147E+02  0.97607052270E+02  0.93684380061E+02 0.  0.
         11    1    3    3    0    0  0.16755237281E+02 -0.55388674447E+02 -0.32791866477E+01  0.57960299332E+02  0.51100000000E-03 0. -1.
         22    1    1    0    0    0 -0.13997652241E+02  0.17760354336E+02  0.15459920147E+02  0.27392947730E+02  0.00000000000E+00 0. -1.
</event>
<event>
 5    1  0.1681111E-003  0.9118800E+02  0.7818608E-02  0.1130116E+00
         25   -1    0    0    0    0  0.00000000000E+00  0.00000000000E+00  0.99999998245E-14  0.12500000000E+03  0.12500000000E+03 0.  0.
        -11    1    3    3    0    0 -0.12401256822E+02 -0.21127756352E+02 -0.23404356017E+02  0.33881221054E+02  0.51100000000E-03 0. -1.
         23    2    1    0    0    0  0.94831067064E+01  0.21834515150E+02  0.16140657803E+02  0.96238981260E+02  0.91840869525E+02 0.  0.
         11    1    3    3    0    0  0.21884363528E+02  0.42962271502E+02  0.39545013821E+02  0.62357760207E+02  0.51100000000E-03 0.  1.
         22    1    1    0    0    0 -0.94831067064E+01 -0.21834515150E+02 -0.16140657803E+02  0.28761018740E+02  0.00000000000E+00 0.  1.
</event>
<event>
 5    1  0.1681111E-003  0.9118800E+02  0.7818608E-02  0.1130116E+00
         25   -1    0    0    0    0  0.00000000000E+00  0.00000000000E+00  0.99999998245E-14  0.12500000000E+03  0.12500000000E+03 0.  0.
        -11    1    3    3    0    0  0.99845753408E+01  0.49911836259E+02 -0.35999828491E+00  0.50901991538E+02  0.51100000000E-03 0.  1.
         23    2    1    0    0    0  0.26021996248E+02  0.10060623856E+02  0.10466094991E+02  0.95202356042E+02  0.90418963777E+02 0.  0.
         11    1    3    3    0    0  0.16037420907E+02 -0.39851212403E+02  0.10826093276E+02  0.44300364504E+02  0.51100000000E-03 0. -1.
         22    1    1    0    0    0 -0.26021996248E+02 -0.10060623856E+02 -0.10466094991E+02  0.29797643958E+02  0.00000000000E+00 0. -1.
</event>
<event>
 5    1  0.1681111E-003  0.9118800E+02  0.7818608E-02  0.1130116E+00
         25   -1    0    0    0    0  0.00000000000E+00  0.00000000000E+00  0.99999998245E-14  0.12500000000E+03  0.12500000000E+03 0.  0.
        -11    1    3    3    0    0 -0.91380834939E+01  0.18530136956E+02 -0.36100388952E+02  0.41594574505E+02  0.51100000000E-03 0.  1.
         23    2    1    0    0    0  0.78775940038E+01  0.22647579141E+02  0.15743827004E+02  0.96314857208E+02  0.91944082475E+02 0.  0.
         11    1    3    3    0    0  0.17015677498E+02  0.41174421858E+01  0.51844215955E+02  0.54720282703E+02  0.51100000000E-03 0. -1.
         22    1    1    0    0    0 -0.78775940038E+01 -0.22647579141E+02 -0.15743827004E+02  0.28685142792E+02  0.00000000000E+00 0. -1.
</event>
<event>
 5    1  0.1681111E-003  0.9118800E+02  0.7818608E-02  0.1130116E+00
         25   -1    0    0    0    0  0.00000000000E+00  0.00000000000E+00  0.99999998245E-14  0.12500000000E+03  0.12500000000E+03 0.  0.
        -11    1    3    3    0    0 -0.24290906659E+02  0.44052302486E+02  0.35471675074E+02  0.61553986332E+02  0.51100000000E-03 0. -1.
         23    2    1    0    0    0 -0.18766435106E+01  0.17746786036E+02  0.14730711404E+02  0.10185990355E+03  0.99196652596E+02 0.  0.
         11    1    3    3    0    0  0.22414263148E+02 -0.26305516450E+02 -0.20740963670E+02  0.40305917213E+02  0.51100000000E-03 0.  1.
         22    1    1    0    0    0  0.18766435106E+01 -0.17746786036E+02 -0.14730711404E+02  0.23140096455E+02  0.00000000000E+00 0. -1.
</event>
<event>
 5    1  0.1681111E-003  0.9118800E+02  0.7818608E-02  0.1130116E+00
         25   -1    0    0    0    0  0.00000000000E+00  0.00000000000E+00  0.99999998245E-14  0.12500000000E+03  0.12500000000E+03 0.  0.
        -11    1    3    3    0    0  0.14858537770E+02 -0.25639888975E+02 -0.38871715555E+02  0.48879344531E+02  0.51100000000E-03 0.  1.
         23    2    1    0    0    0 -0.36257404997E+01  0.15146854079E+02 -0.24610653175E+02  0.95875140647E+02  0.91344322000E+02 0.  0.
         11    1    3    3    0    0 -0.18484278270E+02  0.40786743054E+02  0.14261062380E+02  0.46995796116E+02  0.51100000000E-03 0. -1.
         22    1    1    0    0    0  0.36257404997E+01 -0.15146854079E+02  0.24610653175E+02  0.29124859353E+02  0.00000000000E+00 0. -1.
</event>
<event>
 5    1  0.1681111E-003  0.9118800E+02  0.7818608E-02  0.1130116E+00
         25   -1    0    0    0    0  0.00000000000E+00  0.00000000000E+00  0.99999998245E-14  0.12500000000E+03  0.12500000000E+03 0.  0.
        -11    1    3    3    0    0  0.19670068378E+02  0.22309186507E+02  0.20754746682E+02  0.36268042444E+02  0.51100000000E-03 0. -1.
         23    2    1    0    0    0 -0.31251297494E+01 -0.91570721361E+01 -0.26115562100E+02  0.97149668048E+02  0.93072106520E+02 0.  0.
         11    1    3    3    0    0 -0.22795198128E+02 -0.31466258643E+02 -0.46870308781E+02  0.60881625604E+02  0.51100000000E-03 0.  1.
         22    1    1    0    0    0  0.31251297494E+01  0.91570721361E+01  0.26115562100E+02  0.27850331952E+02  0.00000000000E+00 0.  1.
</event>
<event>
 5    1  0.1681111E-003  0.9118800E+02  0.7818608E-02  0.1130116E+00
         25   -1    0    0    0    0  0.00000000000E+00  0.00000000000E+00  0.99999998245E-14  0.12500000000E+03  0.12500000000E+03 0.  0.
        -11    1    3    3    0    0 -0.28638762400E+02  0.54828300018E+02 -0.56357927912E+01  0.62113471609E+02  0.51100000000E-03 0. -1.
         23    2    1    0    0    0 -0.85310957953E+01  0.23760234363E+02 -0.56922759769E+01  0.99120851284E+02  0.95682876321E+02 0.  0.
         11    1    3    3    0    0  0.20107666605E+02 -0.31068065655E+02 -0.56483185681E-01  0.37007379675E+02  0.51100000000E-03 0.  1.
         22    1    1    0    0    0  0.85310957953E+01 -0.23760234363E+02  0.56922759769E+01  0.25879148716E+02  0.00000000000E+00 0. -1.
</event>
<event>
 5    1  0.1681111E-003  0.9118800E+02  0.7818608E-02  0.1130116E+00
         25   -1    0    0    0    0  0.00000000000E+00  0.00000000000E+00  0.99999998245E-14  0.12500000000E+03  0.12500000000E+03 0.  0.
        -11    1    3    3    0    0 -0.41377983927E+02  0.26297850023E+02 -0.37136097313E+02  0.61504505475E+02  0.51100000000E-03 0. -1.
         23    2    1    0    0    0 -0.20150694501E+02  0.21444663909E+02 -0.17917318627E+02  0.90547795342E+02  0.83737380156E+02 0.  0.
         11    1    3    3    0    0  0.21227289427E+02 -0.48531861146E+01  0.19218778686E+02  0.29043289867E+02  0.51100000000E-03 0.  1.
         22    1    1    0    0    0  0.20150694501E+02 -0.21444663909E+02  0.17917318627E+02  0.34452204658E+02  0.00000000000E+00 0. -1.
</event>
<event>
 5    1  0.1681111E-003  0.9118800E+02  0.7818608E-02  0.1130116E+00
         25   -1    0    0    0    0  0.00000000000E+00  0.00000000000E+00  0.99999998245E-14  0.12500000000E+03  0.12500000000E+03 0.  0.
        -11    1    3    3    0    0  0.15135374960E+02  0.29382553457E+02  0.20367597550E+02  0.38823357056E+02  0.51100000000E-03 0. -1.
         23    2    1    0    0    0  0.18201331666E+02 -0.11728665080E+02 -0.19270698268E+02  0.96013626121E+02  0.91533636059E+02 0.  0.
         11    1    3    3    0    0  0.30659567054E+01 -0.41111218537E+02 -0.39638295818E+02  0.57190269065E+02  0.51100000000E-03 0.  1.
         22    1    1    0    0    0 -0.18201331666E+02  0.11728665080E+02  0.19270698268E+02  0.28986373879E+02  0.00000000000E+00 0.  1.
</event>
<event>
 5    1  0.1681111E-003  0.9118800E+02  0.7818608E-02  0.1130116E+00
         25   -1    0    0    0    0  0.00000000000E+00  0.00000000000E+00  0.99999998245E-14  0.12500000000E+03  0.12500000000E+03 0.  0.
        -11    1    3    3    0    0 -0.17476346273E+02  0.16354318312E+02  0.28280081076E+01  0.24101535981E+02  0.51100000000E-03 0. -1.
         23    2    1    0    0    0  0.26779938424E+02 -0.12636452654E+02  0.29370834232E+02  0.83292795093E+02  0.72098535168E+02 0.  0.
         11    1    3    3    0    0  0.44256284697E+02 -0.28990770967E+02  0.26542826124E+02  0.59191259112E+02  0.51100000000E-03 0.  1.
         22    1    1    0    0    0 -0.26779938424E+02  0.12636452654E+02 -0.29370834232E+02  0.41707204907E+02  0.00000000000E+00 0.  1.
</event>
<event>
 5    1  0.1681111E-003  0.9118800E+02  0.7818608E-02  0.1130116E+00
         25   -1    0    0    0    0  0.00000000000E+00  0.00000000000E+00  0.99999998245E-14  0.12500000000E+03  0.12500000000E+03 0.  0.
        -11    1    3    3    0    0 -0.43117075167E+02 -0.21767693927E+02 -0.12292473388E+02  0.49839939527E+02  0.51100000000E-03 0.  1.
         23    2    1    0    0    0 -0.27175299367E+02  0.16665570389E+02 -0.38284167895E+00  0.93119211117E+02  0.87491729776E+02 0.  0.
         11    1    3    3    0    0  0.15941775800E+02  0.38433264316E+02  0.11909631709E+02  0.43279271590E+02  0.51100000000E-03 0. -1.
         22    1    1    0    0    0  0.27175299367E+02 -0.16665570389E+02  0.38284167895E+00  0.31880788883E+02  0.00000000000E+00 0.  1.
</event>
<event>
 5    1  0.1681111E-003  0.9118800E+02  0.7818608E-02  0.1130116E+00
         25   -1    0    0    0    0  0.00000000000E+00  0.00000000000E+00  0.99999998245E-14  0.12500000000E+03  0.12500000000E+03 0.  0.
        -11    1    3    3    0    0 -0.94377731731E+01 -0.58387817431E+02  0.26947064248E+01  0.59207011661E+02  0.51100000000E-03 0. -1.
         23    2    1    0    0    0  0.82715843417E+01 -0.27633053089E+02 -0.55142485847E+01  0.95633153592E+02  0.91012572746E+02 0.  0.
         11    1    3    3    0    0  0.17709357515E+02  0.30754764343E+02 -0.82089550094E+01  0.36426141931E+02  0.51100000000E-03 0.  1.
         22    1    1    0    0    0 -0.82715843417E+01  0.27633053089E+02  0.55142485847E+01  0.29366846408E+02  0.00000000000E+00 0. -1.
</event>
<event>
 5    1  0.1681111E-003  0.9118800E+02  0.7818608E-02  0.1130116E+00
         25   -1    0    0    0    0  0.00000000000E+00  0.00000000000E+00  0.99999998245E-14  0.12500000000E+03  0.12500000000E+03 0.  0.
        -11    1    3    3    0    0  0.12723389351E+01  0.14444430911E+02 -0.38249920847E+02  0.40906196056E+02  0.51100000000E-03 0. -1.
         23    2    1    0    0    0  0.33175065854E+02  0.35232824956E+01 -0.34856178115E+00  0.91636546802E+02  0.85347154027E+02 0.  0.
         11    1    3    3    0    0  0.31902726919E+02 -0.10921148415E+02  0.37901359066E+02  0.50730350746E+02  0.51100000000E-03 0.  1.
         22    1    1    0    0    0 -0.33175065854E+02 -0.35232824956E+01  0.34856178115E+00  0.33363453198E+02  0.00000000000E+00 0.  1.
</event>
<event>
 5    1  0.1681111E-003  0.9118800E+02  0.7818608E-02  0.1130116E+00
         25   -1    0    0    0    0  0.00000000000E+00  0.00000000000E+00  0.99999998245E-14  0.12500000000E+03  0.12500000000E+03 0.  0.
        -11    1    3    3    0    0  0.23145410919E+00 -0.30340310382E+02 -0.13060699505E+02  0.33032860562E+02  0.51100000000E-03 0. -1.
         23    2    1    0    0    0  0.77546980968E+01  0.12294143867E+02  0.28475514083E+02  0.93029134852E+02  0.87362942447E+02 0.  0.
         11    1    3    3    0    0  0.75232439877E+01  0.42634454249E+02  0.41536213589E+02  0.59996274290E+02  0.51100000000E-03 0.  1.
         22    1    1    0    0    0 -0.77546980968E+01 -0.12294143867E+02 -0.28475514083E+02  0.31970865148E+02  0.00000000000E+00 0.  1.
</event>
<event>
 5    1  0.1681111E-003  0.9118800E+02  0.7818608E-02  0.1130116E+00
         25   -1    0    0    0    0  0.00000000000E+00  0.00000000000E+00  0.99999998245E-14  0.12500000000E+03  0.12500000000E+03 0.  0.
        -11    1    3    3    0    0  0.21092122277E+02  0.18263925733E+02 -0.26627060563E+02  0.38567459857E+02  0.51100000000E-03 0. -1.
         23    2    1    0    0    0  0.43280595262E+01 -0.10935753332E+02  0.23365709569E+02  0.98841269453E+02  0.95316931147E+02 0.  0.
         11    1    3    3    0    0 -0.16764062751E+02 -0.29199679064E+02  0.49992770132E+02  0.60273809595E+02  0.51100000000E-03 0.  1.
         22    1    1    0    0    0 -0.43280595262E+01  0.10935753332E+02 -0.23365709569E+02  0.26158730547E+02  0.00000000000E+00 0.  1.
</event>
<event>
 5    1  0.1681111E-003  0.9118800E+02  0.7818608E-02  0.1130116E+00
         25   -1    0    0    0    0  0.00000000000E+00  0.00000000000E+00  0.99999998245E-14  0.12500000000E+03  0.12500000000E+03 0.  0.
        -11    1    3    3    0    0  0.16296963115E+02 -0.43423448519E+02 -0.20083167607E+02  0.50542264585E+02  0.51100000000E-03 0.  1.
         23    2    1    0    0    0  0.25460171434E+02 -0.14066596479E+02  0.10653780424E+02  0.94022709879E+02  0.88773179900E+02 0.  0.
         11    1    3    3    0    0  0.91632083183E+01  0.29356852040E+02  0.30736948031E+02  0.43480445293E+02  0.51100000000E-03 0. -1.
         22    1    1    0    0    0 -0.25460171434E+02  0.14066596479E+02 -0.10653780424E+02  0.30977290121E+02  0.00000000000E+00 0.  1.
</event>
<event>
 5    1  0.1681111E-003  0.9118800E+02  0.7818608E-02  0.1130116E+00
         25   -1    0    0    0    0  0.00000000000E+00  0.00000000000E+00  0.99999998245E-14  0.12500000000E+03  0.12500000000E+03 0.  0.
        -11    1    3    3    0    0 -0.24901979441E+02 -0.11188578605E+02  0.13672306276E+02  0.30532357106E+02  0.51100000000E-03 0. -1.
         23    2    1    0    0    0  0.11540213430E+02  0.96003415027E+01 -0.30223726694E+02  0.91253641111E+02  0.84784493145E+02 0.  0.
         11    1    3    3    0    0  0.36442192871E+02  0.20788920108E+02 -0.43896032970E+02  0.60721284005E+02  0.51100000000E-03 0.  1.
         22    1    1    0    0    0 -0.11540213430E+02 -0.96003415027E+01  0.30223726694E+02  0.33746358889E+02  0.00000000000E+00 0.  1.
</event>
<event>
 5    1  0.1681111E-003  0.9118800E+02  0.7818608E-02  0.1130116E+00
         25   -1    0    0    0    0  0.00000000000E+00  0.00000000000E+00  0.99999998245E-14  0.12500000000E+03  0.12500000000E+03 0.  0.
        -11    1    3    3    0    0  0.11924890951E+02  0.44189943923E+02  0.37834437680E+02  0.59383489649E+02  0.51100000000E-03 0.  1.
         23    2    1    0    0    0  0.14313992738E+02  0.27324596520E+02  0.90108278369E+01  0.92864054683E+02  0.87126423494E+02 0.  0.
         11    1    3    3    0    0  0.23891017872E+01 -0.16865347403E+02 -0.28823609843E+02  0.33480565034E+02  0.51100000000E-03 0. -1.
         22    1    1    0    0    0 -0.14313992738E+02 -0.27324596520E+02 -0.90108278369E+01  0.32135945317E+02  0.00000000000E+00 0.  1.
</event>
<event>
 5    1  0.1681111E-003  0.9118800E+02  0.7818608E-02  0.1130116E+00
         25   -1    0    0    0    0  0.00000000000E+00  0.00000000000E+00  0.99999998245E-14  0.12500000000E+03  0.12500000000E+03 0.  0.
        -11    1    3    3    0    0 -0.10130111507E+02  0.95768958953E+01  0.37427474334E+02  0.39939353143E+02  0.51100000000E-03 0.  1.
         23    2    1    0    0    0  0.24864690512E+02  0.93505284240E+01 -0.79753454025E+01  0.97263898068E+02  0.93225396310E+02 0.  0.
         11    1    3    3    0    0  0.34994802019E+02 -0.22636747129E+00 -0.45402819737E+02  0.57324544926E+02  0.51100000000E-03 0. -1.
         22    1    1    0    0    0 -0.24864690512E+02 -0.93505284240E+01  0.79753454025E+01  0.27736101932E+02  0.00000000000E+00 0. -1.
</event>
<event>
 5    1  0.1681111E-003  0.9118800E+02  0.7818608E-02  0.1130116E+00
         25   -1    0    0    0    0  0.00000000000E+00  0.00000000000E+00  0.99999998245E-14  0.12500000000E+03  0.12500000000E+03 0.  0.
        -11    1    3    3    0    0 -0.11681211034E+02  0.20613509805E+02 -0.25245423637E+02  0.34622231190E+02  0.51100000000E-03 0. -1.
         23    2    1    0    0    0  0.87688691119E+01 -0.20271483499E+02  0.17202027484E+02  0.97004717213E+02  0.92877227043E+02 0.  0.
         11    1    3    3    0    0  0.20450080146E+02 -0.40884993304E+02  0.42447451122E+02  0.62382486023E+02  0.51100000000E-03 0.  1.
         22    1    1    0    0    0 -0.87688691119E+01  0.20271483499E+02 -0.17202027484E+02  0.27995282787E+02  0.00000000000E+00 0.  1.
</event>
<event>
 5    1  0.1681111E-003  0.9118800E+02  0.7818608E-02  0.1130116E+00
         25   -1    0    0    0    0  0.00000000000E+00  0.00000000000E+00  0.99999998245E-14  0.12500000000E+03  0.12500000000E+03 0.  0.
        -11    1    3    3    0    0 -0.21383020088E+02  0.81291042585E+01 -0.22988543154E+02  0.32431296624E+02  0.51100000000E-03 0. -1.
         23    2    1    0    0    0  0.16552652624E+02  0.28027641757E+01  0.25650170788E+02  0.94344216575E+02  0.89224739528E+02 0.  0.
         11    1    3    3    0    0  0.37935672711E+02 -0.53263400828E+01  0.48638713942E+02  0.61912919952E+02  0.51100000000E-03 0.  1.
         22    1    1    0    0    0 -0.16552652624E+02 -0.28027641757E+01 -0.25650170788E+02  0.30655783425E+02  0.00000000000E+00 0.  1.
</event>
<event>
 5    1  0.1681111E-003  0.9118800E+02  0.7818608E-02  0.1130116E+00
         25   -1    0    0    0    0  0.00000000000E+00  0.00000000000E+00  0.99999998245E-14  0.12500000000E+03  0.12500000000E+03 0.  0.
        -11    1    3    3    0    0  0.31683825874E+02  0.19214518822E+02 -0.25428785460E+02  0.44940913274E+02  0.51100000000E-03 0.  1.
         23    2    1    0    0    0  0.22098174926E+02 -0.16167322753E+02  0.99317921970E+01  0.95873514522E+02  0.91342096705E+02 0.  0.
         11    1    3    3    0    0 -0.95856509487E+01 -0.35381841576E+02  0.35360577657E+02  0.50932601248E+02  0.51100000000E-03 0. -1.
         22    1    1    0    0    0 -0.22098174926E+02  0.16167322753E+02 -0.99317921970E+01  0.29126485478E+02  0.00000000000E+00 0. -1.
</event>
<event>
 5    1  0.1681111E-003  0.9118800E+02  0.7818608E-02  0.1130116E+00
         25   -1    0    0    0    0  0.00000000000E+00  0.00000000000E+00  0.99999998245E-14  0.12500000000E+03  0.12500000000E+03 0.  0.
        -11    1    3    3    0    0  0.25199975181E+02 -0.50262922334E+02 -0.17870784954E+02  0.58998008998E+02  0.51100000000E-03 0. -1.
         23    2    1    0    0    0  0.19056168468E+02 -0.13822746736E+02 -0.16998676967E+02  0.95962766960E+02  0.91464155492E+02 0.  0.
         11    1    3    3    0    0 -0.61438067128E+01  0.36440175598E+02  0.87210798673E+00  0.36964757961E+02  0.51100000000E-03 0.  1.
         22    1    1    0    0    0 -0.19056168468E+02  0.13822746736E+02  0.16998676967E+02  0.29037233040E+02  0.00000000000E+00 0. -1.
</event>
<event>
 5    1  0.1681111E-003  0.9118800E+02  0.7818608E-02  0.1130116E+00
         25   -1    0    0    0    0  0.00000000000E+00  0.00000000000E+00  0.99999998245E-14  0.12500000000E+03  0.12500000000E+03 0.  0.
        -11    1    3    3    0    0 -0.26177577721E+02 -0.46045565213E+02 -0.69458452108E+01  0.53420075038E+02  0.51100000000E-03 0.  1.
         23    2    1    0    0    0  0.69739795884E+01 -0.27113096464E+02  0.10111652764E+02  0.95234215737E+02  0.90462997597E+02 0.  0.
         11    1    3    3    0    0  0.33151557309E+02  0.18932468749E+02  0.17057497975E+02  0.41814140699E+02  0.51100000000E-03 0. -1.
         22    1    1    0    0    0 -0.69739795884E+01  0.27113096464E+02 -0.10111652764E+02  0.29765784263E+02  0.00000000000E+00 0.  1.
</event>
<event>
 5    1  0.1681111E-003  0.9118800E+02  0.7818608E-02  0.1130116E+00
         25   -1    0    0    0    0  0.00000000000E+00  0.00000000000E+00  0.99999998245E-14  0.12500000000E+03  0.12500000000E+03 0.  0.
        -11    1    3    3    0    0  0.40305355628E+02  0.19990048878E+02 -0.32784363826E+01  0.45109554330E+02  0.51100000000E-03 0. -1.
         23    2    1    0    0    0 -0.12085776955E+01  0.10016171794E+02 -0.28547540845E+02  0.94722178980E+02  0.89752686561E+02 0.  0.
         11    1    3    3    0    0 -0.41513933323E+02 -0.99738770845E+01 -0.25269104462E+02  0.49612624650E+02  0.51100000000E-03 0.  1.
         22    1    1    0    0    0  0.12085776955E+01 -0.10016171794E+02  0.28547540845E+02  0.30277821020E+02  0.00000000000E+00 0. -1.
</event>
<event>
 5    1  0.1681111E-003  0.9118800E+02  0.7818608E-02  0.1130116E+00
         25   -1    0    0    0    0  0.00000000000E+00  0.00000000000E+00  0.99999998245E-14  0.12500000000E+03  0.12500000000E+03 0.  0.
        -11    1    3    3    0    0  0.42065674860E+02 -0.19017331332E+02 -0.41389707562E+02  0.62002320801E+02  0.51100000000E-03 0.  1.
         23    2    1    0    0    0  0.15998511333E+02 -0.19600672853E+01 -0.11282514720E+02  0.10532541317E+03  0.10347150957E+03 0.  0.
         11    1    3    3    0    0 -0.26067163527E+02  0.17057264046E+02  0.30107192841E+02  0.43323092366E+02  0.51100000000E-03 0. -1.
         22    1    1    0    0    0 -0.15998511333E+02  0.19600672853E+01  0.11282514720E+02  0.19674586833E+02  0.00000000000E+00 0.  1.
</event>
<event>
 5    1  0.1681111E-003  0.9118800E+02  0.7818608E-02  0.1130116E+00
         25   -1    0    0    0    0  0.00000000000E+00  0.00000000000E+00  0.99999998245E-14  0.12500000000E+03  0.12500000000E+03 0.  0.
        -11    1    3    3    0    0 -0.34193798337E+02 -0.16994902608E+02  0.27938791701E+02  0.47314042750E+02  0.51100000000E-03 0.  1.
         23    2    1    0    0    0 -0.20852739626E+01  0.19243661317E+02  0.21357654622E+02  0.96176116165E+02  0.91755267104E+02 0.  0.
         11    1    3    3    0    0  0.32108524375E+02  0.36238563925E+02 -0.65811370796E+01  0.48862073415E+02  0.51100000000E-03 0. -1.
         22    1    1    0    0    0  0.20852739626E+01 -0.19243661317E+02 -0.21357654622E+02  0.28823883835E+02  0.00000000000E+00 0. -1.
</event>
<event>
 5    1  0.1681111E-003  0.9118800E+02  0.7818608E-02  0.1130116E+00
         25   -1    0    0    0    0  0.00000000000E+00  0.00000000000E+00  0.99999998245E-14  0.12500000000E+03  0.12500000000E+03 0.  0.
        -11    1    3    3    0    0  0.15135167553E+02 -0.21832731938E+02  0.22082025957E+02  0.34545004724E+02  0.51100000000E-03 0. -1.
         23    2    1    0    0    0 -0.24451324699E+02  0.12086340308E+02 -0.10220748376E+02  0.95872511283E+02  0.91340723781E+02 0.  0.
         11    1    3    3    0    0 -0.39586492252E+02  0.33919072246E+02 -0.32302774334E+02  0.61327506559E+02  0.51100000000E-03 0.  1.
         22    1    1    0    0    0  0.24451324699E+02 -0.12086340308E+02  0.10220748376E+02  0.29127488717E+02  0.00000000000E+00 0.  1.
</event>
<event>
 5    1  0.1681111E-003  0.9118800E+02  0.7818608E-02  0.1130116E+00
         25   -1    0    0    0    0  0.00000000000E+00  0.00000000000E+00  0.99999998245E-14  0.12500000000E+03  0.12500000000E+03 0.  0.
        -11    1    3    3    0    0  0.27887844667E+02  0.70677015828E+01  0.21619751762E+02  0.35987469380E+02  0.51100000000E-03 0. -1.
         23    2    1    0    0    0 -0.19586150456E+00 -0.16976681257E+02 -0.24559904989E+02  0.95143091230E+02  0.90336995785E+02 0.  0.
         11    1    3    3    0    0 -0.28083706171E+02 -0.24044382840E+02 -0.46179656752E+02  0.59155621850E+02  0.51100000000E-03 0.  1.
         22    1    1    0    0    0  0.19586150456E+00  0.16976681257E+02  0.24559904989E+02  0.29856908770E+02  0.00000000000E+00 0.  1.
</event>
<event>
 5    1  0.1681111E-003  0.9118800E+02  0.7818608E-02  0.1130116E+00
         25   -1    0    0    0    0  0.00000000000E+00  0.00000000000E+00  0.99999998245E-14  0.12500000000E+03  0.12500000000E+03 0.  0.
        -11    1    3    3    0    0  0.20697133024E+02  0.37715140427E+02 -0.20699282243E+02  0.47741631921E+02  0.51100000000E-03 0.  1.
         23    2    1    0    0    0  0.27033325110E+02 -0.80511850535E+01 -0.88038968635E+01  0.95451212423E+02  0.90762344096E+02 0.  0.
         11    1    3    3    0    0  0.63361920858E+01 -0.45766325481E+02  0.11895385379E+02  0.47709580502E+02  0.51100000000E-03 0. -1.
         22    1    1    0    0    0 -0.27033325110E+02  0.80511850535E+01  0.88038968635E+01  0.29548787577E+02  0.00000000000E+00 0.  1.
</event>
<event>
 5    1  0.1681111E-003  0.9118800E+02  0.7818608E-02  0.1130116E+00
         25   -1    0    0    0    0  0.00000000000E+00  0.00000000000E+00  0.99999998245E-14  0.12500000000E+03  0.12500000000E+03 0.  0.
        -11    1    3    3    0    0  0.33851603480E+02  0.80622364936E+00  0.33244415944E+02  0.47452842343E+02  0.51100000000E-03 0.  1.
         23    2    1    0    0    0  0.92281536796E+01  0.28192871731E+02  0.28596712405E+01  0.95197742428E+02  0.90412585446E+02 0.  0.
         11    1    3    3    0    0 -0.24623449800E+02  0.27386648082E+02 -0.30384744703E+02  0.47744900085E+02  0.51100000000E-03 0. -1.
         22    1    1    0    0    0 -0.92281536796E+01 -0.28192871731E+02 -0.28596712405E+01  0.29802257572E+02  0.00000000000E+00 0. -1.
</event>
<event>
 5    1  0.1681111E-003  0.9118800E+02  0.7818608E-02  0.1130116E+00
         25   -1    0    0    0    0  0.00000000000E+00  0.00000000000E+00  0.99999998245E-14  0.12500000000E+03  0.12500000000E+03 0.  0.
        -11    1    3    3    0    0  0.33697537969E+02  0.24675770381E+02  0.43404860276E+02  0.60236198460E+02  0.51100000000E-03 0. -1.
         23    2    1    0    0    0  0.53084427013E+01  0.17906189125E+02  0.19891289187E+02  0.97714938915E+02  0.93828219256E+02 0.  0.
         11    1    3    3    0    0 -0.28389095268E+02 -0.67695812566E+01 -0.23513571089E+02  0.37478740455E+02  0.51100000000E-03 0.  1.
         22    1    1    0    0    0 -0.53084427013E+01 -0.17906189125E+02 -0.19891289187E+02  0.27285061085E+02  0.00000000000E+00 0. -1.
</event>
<event>
 5    1  0.1681111E-003  0.9118800E+02  0.7818608E-02  0.1130116E+00
         25   -1    0    0    0    0  0.00000000000E+00  0.00000000000E+00  0.99999998245E-14  0.12500000000E+03  0.12500000000E+03 0.  0.
        -11    1    3    3    0    0 -0.30850681379E+02 -0.74221895545E+01 -0.51344024609E+00  0.31735107696E+02  0.51100000000E-03 0. -1.
         23    2    1    0    0    0  0.30362424563E+02  0.39788737906E+01  0.37632955900E+01  0.94147598866E+02  0.88948860120E+02 0.  0.
         11    1    3    3    0    0  0.61213105942E+02  0.11401063345E+02  0.42767358361E+01  0.62412491171E+02  0.51100000000E-03 0.  1.
         22    1    1    0    0    0 -0.30362424563E+02 -0.39788737906E+01 -0.37632955900E+01  0.30852401134E+02  0.00000000000E+00 0.  1.
</event>
<event>
 5    1  0.1681111E-003  0.9118800E+02  0.7818608E-02  0.1130116E+00
         25   -1    0    0    0    0  0.00000000000E+00  0.00000000000E+00  0.99999998245E-14  0.12500000000E+03  0.12500000000E+03 0.  0.
        -11    1    3    3    0    0  0.30338752234E+02  0.72613498640E+01 -0.41032788777E+02  0.51544707236E+02  0.51100000000E-03 0.  1.
         23    2    1    0    0    0  0.61174234469E+01  0.27031873818E+02 -0.10168786810E+02  0.95477986232E+02  0.90799210117E+02 0.  0.
         11    1    3    3    0    0 -0.24221328787E+02  0.19770523954E+02  0.30864001967E+02  0.43933278996E+02  0.51100000000E-03 0. -1.
         22    1    1    0    0    0 -0.61174234469E+01 -0.27031873818E+02  0.10168786810E+02  0.29522013768E+02  0.00000000000E+00 0.  1.
</event>
<event>
 5    1  0.1681111E-003  0.9118800E+02  0.7818608E-02  0.1130116E+00
         25   -1    0    0    0    0  0.00000000000E+00  0.00000000000E+00  0.99999998245E-14  0.12500000000E+03  0.12500000000E+03 0.  0.
        -11    1    3    3    0    0 -0.35559138669E+02  0.14727184495E+02 -0.48902070825E+02  0.62231461796E+02  0.51100000000E-03 0. -1.
         23    2    1    0    0    0 -0.17944994088E+02  0.30177748253E+01 -0.22977734414E+02  0.95689488975E+02  0.91089912964E+02 0.  0.
         11    1    3    3    0    0  0.17614144581E+02 -0.11709409670E+02  0.25924336411E+02  0.33458027179E+02  0.51100000000E-03 0.  1.
         22    1    1    0    0    0  0.17944994088E+02 -0.30177748253E+01  0.22977734414E+02  0.29310511025E+02  0.00000000000E+00 0. -1.
</event>
<event>
 5    1  0.1681111E-003  0.9118800E+02  0.7818608E-02  0.1130116E+00
         25   -1    0    0    0    0  0.00000000000E+00  0.00000000000E+00  0.99999998245E-14  0.12500000000E+03  0.12500000000E+03 0.  0.
        -11    1    3    3    0    0 -0.18016760957E+02 -0.26110848001E+02 -0.42594986994E+01  0.32008176895E+02  0.51100000000E-03 0. -1.
         23    2    1    0    0    0 -0.17717211953E+02  0.31025034071E+02 -0.27903287058E+01  0.89163729648E+02  0.81645161595E+02 0.  0.
         11    1    3    3    0    0  0.29954900376E+00  0.57135882072E+02  0.14691699936E+01  0.57155552753E+02  0.51100000000E-03 0.  1.
         22    1    1    0    0    0  0.17717211953E+02 -0.31025034071E+02  0.27903287058E+01  0.35836270352E+02  0.00000000000E+00 0.  1.
</event>
<event>
 5    1  0.1681111E-003  0.9118800E+02  0.7818608E-02  0.1130116E+00
         25   -1    0    0    0    0  0.00000000000E+00  0.00000000000E+00  0.99999998245E-14  0.12500000000E+03  0.12500000000E+03 0.  0.
        -11    1    3    3    0    0  0.12926927137E+02  0.27250270156E+02  0.28249969059E+02  0.41324852340E+02  0.51100000000E-03 0. -1.
         23    2    1    0    0    0 -0.13150385700E+01  0.19472103310E+02 -0.22855956187E+02  0.94945268808E+02  0.90062851399E+02 0.  0.
         11    1    3    3    0    0 -0.14241965707E+02 -0.77781668459E+01 -0.51105925246E+02  0.53620416468E+02  0.51100000000E-03 0.  1.
         22    1    1    0    0    0  0.13150385700E+01 -0.19472103310E+02  0.22855956187E+02  0.30054731192E+02  0.00000000000E+00 0.  1.
</event>
<event>
 5    1  0.1681111E-003  0.9118800E+02  0.7818608E-02  0.1130116E+00
         25   -1    0    0    0    0  0.00000000000E+00  0.00000000000E+00  0.99999998245E-14  0.12500000000E+03  0.12500000000E+03 0.  0.
        -11    1    3    3    0    0  0.29642120723E+02  0.29247922272E+01  0.22262225831E+02  0.37186239790E+02  0.51100000000E-03 0.  1.
         23    2    1    0    0    0 -0.46236850251E+01 -0.25202292692E+02 -0.15183645782E+02  0.95216160097E+02  0.90438045225E+02 0.  0.
         11    1    3    3    0    0 -0.34265805748E+02 -0.28127084920E+02 -0.37445871613E+02  0.58029920306E+02  0.51100000000E-03 0. -1.
         22    1    1    0    0    0  0.46236850251E+01  0.25202292692E+02  0.15183645782E+02  0.29783839903E+02  0.00000000000E+00 0. -1.
</event>
<event>
 5    1  0.1681111E-003  0.9118800E+02  0.7818608E-02  0.1130116E+00
         25   -1    0    0    0    0  0.00000000000E+00  0.00000000000E+00  0.99999998245E-14  0.12500000000E+03  0.12500000000E+03 0.  0.
        -11    1    3    3    0    0 -0.20930094945E+02  0.24155850467E+02 -0.46372304063E+02  0.56320196827E+02  0.51100000000E-03 0.  1.
         23    2    1    0    0    0  0.10199311550E+02  0.12090659559E+02 -0.23046418313E+02  0.97047407960E+02  0.92934665169E+02 0.  0.
         11    1    3    3    0    0  0.31129406496E+02 -0.12065190908E+02  0.23325885750E+02  0.40727211133E+02  0.51100000000E-03 0. -1.
         22    1    1    0    0    0 -0.10199311550E+02 -0.12090659559E+02  0.23046418313E+02  0.27952592040E+02  0.00000000000E+00 0.  1.
</event>
<event>
 5    1  0.1681111E-003  0.9118800E+02  0.7818608E-02  0.1130116E+00
         25   -1    0    0    0    0  0.00000000000E+00  0.00000000000E+00  0.99999998245E-14  0.12500000000E+03  0.12500000000E+03 0.  0.
        -11    1    3    3    0    0  0.16796293493E+02  0.52176007684E+02  0.75526690807E+01  0.55330769590E+02  0.51100000000E-03 0.  1.
         23    2    1    0    0    0 -0.11494356319E+02  0.26139095137E+02 -0.54725843118E+01  0.95925583397E+02  0.91413324243E+02 0.  0.
         11    1    3    3    0    0 -0.28290649812E+02 -0.26036912547E+02 -0.13025253392E+02  0.40594813806E+02  0.51100000000E-03 0. -1.
         22    1    1    0    0    0  0.11494356319E+02 -0.26139095137E+02  0.54725843118E+01  0.29074416603E+02  0.00000000000E+00 0.  1.
</event>
<event>
 5    1  0.1681111E-003  0.9118800E+02  0.7818608E-02  0.1130116E+00
         25   -1    0    0    0    0  0.00000000000E+00  0.00000000000E+00  0.99999998245E-14  0.12500000000E+03  0.12500000000E+03 0.  0.
        -11    1    3    3    0    0  0.24426982394E+02 -0.98250911436E+01  0.35090382569E+02  0.43869634532E+02  0.51100000000E-03 0.  1.
         23    2    1    0    0    0 -0.22217966560E+02 -0.52917923781E+01  0.43427353168E+00  0.10215640794E+03  0.99569583636E+02 0.  0.
         11    1    3    3    0    0 -0.46644948954E+02  0.45332987655E+01 -0.34656109037E+02  0.58286773410E+02  0.51100000000E-03 0. -1.
         22    1    1    0    0    0  0.22217966560E+02  0.52917923781E+01 -0.43427353168E+00  0.22843592059E+02  0.00000000000E+00 0. -1.
</event>
<event>
 5    1  0.1681111E-003  0.9118800E+02  0.7818608E-02  0.1130116E+00
         25   -1    0    0    0    0  0.00000000000E+00  0.00000000000E+00  0.99999998245E-14  0.12500000000E+03  0.12500000000E+03 0.  0.
        -11    1    3    3    0    0  0.14231324989E+02  0.33801682959E+02  0.18983653518E+02  0.41297257572E+02  0.51100000000E-03 0.  1.
         23    2    1    0    0    0  0.10911759081E+02  0.53625425864E+01 -0.26955894787E+02  0.95429007236E+02  0.90731757445E+02 0.  0.
         11    1    3    3    0    0 -0.33195659077E+01 -0.28439140373E+02 -0.45939548305E+02  0.54131749664E+02  0.51100000000E-03 0. -1.
         22    1    1    0    0    0 -0.10911759081E+02 -0.53625425864E+01  0.26955894787E+02  0.29570992764E+02  0.00000000000E+00 0. -1.
</event>
<event>
 5    1  0.1681111E-003  0.9118800E+02  0.7818608E-02  0.1130116E+00
         25   -1    0    0    0    0  0.00000000000E+00  0.00000000000E+00  0.99999998245E-14  0.12500000000E+03  0.12500000000E+03 0.  0.
        -11    1    3    3    0    0  0.39425620766E+02  0.33814800346E+02  0.17951836105E+02  0.54955333818E+02  0.51100000000E-03 0. -1.
         23    2    1    0    0    0  0.22702151070E+01  0.91183038842E+01  0.23288006066E+02  0.99887680933E+02  0.96679471623E+02 0.  0.
         11    1    3    3    0    0 -0.37155405659E+02 -0.24696496462E+02  0.53361699615E+01  0.44932347115E+02  0.51100000000E-03 0.  1.
         22    1    1    0    0    0 -0.22702151070E+01 -0.91183038842E+01 -0.23288006066E+02  0.25112319067E+02  0.00000000000E+00 0. -1.
</event>
<event>
 5    1  0.1681111E-003  0.9118800E+02  0.7818608E-02  0.1130116E+00
         25   -1    0    0    0    0  0.00000000000E+00  0.00000000000E+00  0.99999998245E-14  0.12500000000E+03  0.12500000000E+03 0.  0.
        -11    1    3    3    0    0 -0.27737218118E+02  0.18867901716E+02  0.60267121035E+01  0.34083313265E+02  0.51100000000E-03 0. -1.
         23    2    1    0    0    0  0.15922451470E+02 -0.22483102595E+02 -0.89107441921E+01  0.96044590744E+02  0.91575912150E+02 0.  0.
         11    1    3    3    0    0  0.43659669588E+02 -0.41351004311E+02 -0.14937456296E+02  0.61961277479E+02  0.51100000000E-03 0.  1.
         22    1    1    0    0    0 -0.15922451470E+02  0.22483102595E+02  0.89107441921E+01  0.28955409256E+02  0.00000000000E+00 0.  1.
</event>
<event>
 5    1  0.1681111E-003  0.9118800E+02  0.7818608E-02  0.1130116E+00
         25   -1    0    0    0    0  0.00000000000E+00  0.00000000000E+00  0.99999998245E-14  0.12500000000E+03  0.12500000000E+03 0.  0.
        -11    1    3    3    0    0 -0.14726701308E+02  0.87585296516E+01 -0.29973123803E+02  0.34525001431E+02  0.51100000000E-03 0. -1.
         23    2    1    0    0    0  0.16613424593E+02  0.60779895989E+01  0.22909611009E+02  0.96055257630E+02  0.91590471161E+02 0.  0.
         11    1    3    3    0    0  0.31340125901E+02 -0.26805400527E+01  0.52882734812E+02  0.61530256199E+02  0.51100000000E-03 0.  1.
         22    1    1    0    0    0 -0.16613424593E+02 -0.60779895989E+01 -0.22909611009E+02  0.28944742370E+02  0.00000000000E+00 0.  1.
</event>
<event>
 5    1  0.1681111E-003  0.9118800E+02  0.7818608E-02  0.1130116E+00
         25   -1    0    0    0    0  0.00000000000E+00  0.00000000000E+00  0.99999998245E-14  0.12500000000E+03  0.12500000000E+03 0.  0.
        -11    1    3    3    0    0  0.22231808218E+01 -0.42136193969E+02 -0.10578385459E+02  0.43500616253E+02  0.51100000000E-03 0. -1.
         23    2    1    0    0    0  0.17562638823E+02 -0.46789163070E+01  0.22713654172E+02  0.95909647199E+02  0.91391530241E+02 0.  0.
         11    1    3    3    0    0  0.15339458001E+02  0.37457277662E+02  0.33292039632E+02  0.52409030946E+02  0.51100000000E-03 0.  1.
         22    1    1    0    0    0 -0.17562638823E+02  0.46789163070E+01 -0.22713654172E+02  0.29090352801E+02  0.00000000000E+00 0.  1.
</event>
<event>
 5    1  0.1681111E-003  0.9118800E+02  0.7818608E-02  0.1130116E+00
         25   -1    0    0    0    0  0.00000000000E+00  0.00000000000E+00  0.99999998245E-14  0.12500000000E+03  0.12500000000E+03 0.  0.
        -11    1    3    3    0    0 -0.27955308740E+02  0.22008940784E+02 -0.18921696324E+02  0.40297932369E+02  0.51100000000E-03 0.  1.
         23    2    1    0    0    0  0.11440525347E+02  0.23079496901E+01 -0.35706224599E+02  0.87434767043E+02  0.78953731773E+02 0.  0.
         11    1    3    3    0    0  0.39395834087E+02 -0.19700991094E+02 -0.16784528275E+02  0.47136834674E+02  0.51100000000E-03 0. -1.
         22    1    1    0    0    0 -0.11440525347E+02 -0.23079496901E+01  0.35706224599E+02  0.37565232957E+02  0.00000000000E+00 0. -1.
</event>
<event>
 5    1  0.1681111E-003  0.9118800E+02  0.7818608E-02  0.1130116E+00
         25   -1    0    0    0    0  0.00000000000E+00  0.00000000000E+00  0.99999998245E-14  0.12500000000E+03  0.12500000000E+03 0.  0.
        -11    1    3    3    0    0  0.46423272555E+02  0.67312186796E+01  0.14701418099E+02  0.49158531650E+02  0.51100000000E-03 0.  1.
         23    2    1    0    0    0  0.49568592203E+01  0.11826388359E+02  0.28980225874E+02  0.93309506052E+02  0.87763184269E+02 0.  0.
         11    1    3    3    0    0 -0.41466413335E+02  0.50951696798E+01  0.14278807774E+02  0.44150974402E+02  0.51100000000E-03 0. -1.
         22    1    1    0    0    0 -0.49568592203E+01 -0.11826388359E+02 -0.28980225874E+02  0.31690493948E+02  0.00000000000E+00 0.  1.
</event>
<event>
 5    1  0.1681111E-003  0.9118800E+02  0.7818608E-02  0.1130116E+00
         25   -1    0    0    0    0  0.00000000000E+00  0.00000000000E+00  0.99999998245E-14  0.12500000000E+03  0.12500000000E+03 0.  0.
        -11    1    3    3    0    0  0.11302459080E+02 -0.60937370528E+02  0.64093468701E+01  0.62307210142E+02  0.51100000000E-03 0. -1.
         23    2    1    0    0    0  0.54633915133E+01 -0.27872374216E+02  0.64057839985E+01  0.95883819621E+02  0.91356197957E+02 0.  0.
         11    1    3    3    0    0 -0.58390675667E+01  0.33064996312E+02 -0.35628715492E-02  0.33576609479E+02  0.51100000000E-03 0.  1.
         22    1    1    0    0    0 -0.54633915133E+01  0.27872374216E+02 -0.64057839985E+01  0.29116180379E+02  0.00000000000E+00 0. -1.
</event>
<event>
 5    1  0.1681111E-003  0.9118800E+02  0.7818608E-02  0.1130116E+00
         25   -1    0    0    0    0  0.00000000000E+00  0.00000000000E+00  0.99999998245E-14  0.12500000000E+03  0.12500000000E+03 0.  0.
        -11    1    3    3    0    0  0.10846258692E+02 -0.28623570268E+02 -0.38400491284E+02  0.49107513005E+02  0.51100000000E-03 0.  1.
         23    2    1    0    0    0 -0.22358627338E+02 -0.17039363977E+02 -0.75415266268E+01  0.95894626527E+02  0.91370983532E+02 0.  0.
         11    1    3    3    0    0 -0.33204886030E+02  0.11584206291E+02  0.30858964657E+02  0.46787113521E+02  0.51100000000E-03 0. -1.
         22    1    1    0    0    0  0.22358627338E+02  0.17039363977E+02  0.75415266268E+01  0.29105373473E+02  0.00000000000E+00 0.  1.
</event>
<event>
 5    1  0.1681111E-003  0.9118800E+02  0.7818608E-02  0.1130116E+00
         25   -1    0    0    0    0  0.00000000000E+00  0.00000000000E+00  0.99999998245E-14  0.12500000000E+03  0.12500000000E+03 0.  0.
        -11    1    3    3    0    0 -0.11057535554E+02 -0.29324179035E+02  0.32857216648E+02  0.45406753404E+02  0.51100000000E-03 0. -1.
         23    2    1    0    0    0 -0.23581218451E+02 -0.87383944354E+01 -0.12612253969E+02  0.96866348421E+02  0.92690814568E+02 0.  0.
         11    1    3    3    0    0 -0.12523682897E+02  0.20585784600E+02 -0.45469470617E+02  0.51459595017E+02  0.51100000000E-03 0.  1.
         22    1    1    0    0    0  0.23581218451E+02  0.87383944354E+01  0.12612253969E+02  0.28133651579E+02  0.00000000000E+00 0.  1.
</event>
<event>
 4    1  0.1681111E-003  0.9118800E+02  0.7818608E-02  0.1130116E+00
         25   -1    0    0    0    0  0.00000000000E+00  0.00000000000E+00  0.99999998245E-14  0.12500000000E+03  0.12500000000E+03 0.  0.
        -11    1    1    0    0    0  0.12454940789E+02  0.57337589269E+00  0.34185429769E+01  0.12928292475E+02  0.51100000000E-03 0.  1.
         11    1    1    0    0    0  0.34834707214E+02 -0.37937941288E+02 -0.52699359513E+01  0.51773704146E+02  0.51100000000E-03 0. -1.
         22    1    1    0    0    0 -0.47289648004E+02  0.37364565395E+02  0.18513929744E+01  0.60298003378E+02  0.00000000000E+00 0. -1.
</event>
<event>
 5    1  0.1681111E-003  0.9118800E+02  0.7818608E-02  0.1130116E+00
         25   -1    0    0    0    0  0.00000000000E+00  0.00000000000E+00  0.99999998245E-14  0.12500000000E+03  0.12500000000E+03 0.  0.
        -11    1    3    3    0    0  0.60682745936E+02 -0.27007775000E+01  0.10002159818E+02  0.61560807782E+02  0.51100000000E-03 0.  1.
         23    2    1    0    0    0  0.26838559954E+02  0.47278191050E+01 -0.42267649586E+00  0.97744922871E+02  0.93868156037E+02 0.  0.
         11    1    3    3    0    0 -0.33844185982E+02  0.74285966050E+01 -0.10424836314E+02  0.36184115089E+02  0.51100000000E-03 0. -1.
         22    1    1    0    0    0 -0.26838559954E+02 -0.47278191050E+01  0.42267649586E+00  0.27255077129E+02  0.00000000000E+00 0.  1.
</event>
<event>
 5    1  0.1681111E-003  0.9118800E+02  0.7818608E-02  0.1130116E+00
         25   -1    0    0    0    0  0.00000000000E+00  0.00000000000E+00  0.99999998245E-14  0.12500000000E+03  0.12500000000E+03 0.  0.
        -11    1    3    3    0    0 -0.17722522816E+02  0.52149762794E+01 -0.40566845327E+02  0.44575247981E+02  0.51100000000E-03 0.  1.
         23    2    1    0    0    0  0.21648307092E+02  0.17117313882E+02 -0.10724831977E+02  0.95391324660E+02  0.90679827773E+02 0.  0.
         11    1    3    3    0    0  0.39370829907E+02  0.11902337602E+02  0.29842013350E+02  0.50816076679E+02  0.51100000000E-03 0. -1.
         22    1    1    0    0    0 -0.21648307092E+02 -0.17117313882E+02  0.10724831977E+02  0.29608675340E+02  0.00000000000E+00 0. -1.
</event>
<event>
 5    1  0.1681111E-003  0.9118800E+02  0.7818608E-02  0.1130116E+00
         25   -1    0    0    0    0  0.00000000000E+00  0.00000000000E+00  0.99999998245E-14  0.12500000000E+03  0.12500000000E+03 0.  0.
        -11    1    3    3    0    0  0.19572270484E+02 -0.48829005274E+02  0.12619712618E+01  0.52620700297E+02  0.51100000000E-03 0.  1.
         23    2    1    0    0    0  0.23366714830E+02 -0.87407453208E+01  0.15842775837E+02  0.95446700067E+02  0.90756129362E+02 0.  0.
         11    1    3    3    0    0  0.37944443461E+01  0.40088259953E+02  0.14580804575E+02  0.42825999770E+02  0.51100000000E-03 0. -1.
         22    1    1    0    0    0 -0.23366714830E+02  0.87407453208E+01 -0.15842775837E+02  0.29553299933E+02  0.00000000000E+00 0.  1.
</event>
<event>
 5    1  0.1681111E-003  0.9118800E+02  0.7818608E-02  0.1130116E+00
         25   -1    0    0    0    0  0.00000000000E+00  0.00000000000E+00  0.99999998245E-14  0.12500000000E+03  0.12500000000E+03 0.  0.
        -11    1    3    3    0    0 -0.32142293714E+02  0.33844591122E+01  0.49845443799E+02  0.59406648420E+02  0.51100000000E-03 0. -1.
         23    2    1    0    0    0 -0.20576844154E+01 -0.18023800928E+01  0.27807091923E+02  0.97058686496E+02  0.92949833910E+02 0.  0.
         11    1    3    3    0    0  0.30084609299E+02 -0.51868392050E+01 -0.22038351876E+02  0.37652038076E+02  0.51100000000E-03 0.  1.
         22    1    1    0    0    0  0.20576844154E+01  0.18023800928E+01 -0.27807091923E+02  0.27941313504E+02  0.00000000000E+00 0. -1.
</event>
<event>
 5    1  0.1681111E-003  0.9118800E+02  0.7818608E-02  0.1130116E+00
         25   -1    0    0    0    0  0.00000000000E+00  0.00000000000E+00  0.99999998245E-14  0.12500000000E+03  0.12500000000E+03 0.  0.
        -11    1    3    3    0    0  0.36096020339E+02 -0.34983537926E+02  0.93539592968E+01  0.51129904801E+02  0.51100000000E-03 0.  1.
         23    2    1    0    0    0  0.11415922790E+02 -0.28785016272E+01  0.27183740595E+02  0.95376279479E+02  0.90659085975E+02 0.  0.
         11    1    3    3    0    0 -0.24680097549E+02  0.32105036299E+02  0.17829781298E+02  0.44246374678E+02  0.51100000000E-03 0. -1.
         22    1    1    0    0    0 -0.11415922790E+02  0.28785016272E+01 -0.27183740595E+02  0.29623720521E+02  0.00000000000E+00 0.  1.
</event>
<event>
 5    1  0.1681111E-003  0.9118800E+02  0.7818608E-02  0.1130116E+00
         25   -1    0    0    0    0  0.00000000000E+00  0.00000000000E+00  0.99999998245E-14  0.12500000000E+03  0.12500000000E+03 0.  0.
        -11    1    3    3    0    0  0.34637260862E+02 -0.12038599109E+02 -0.35488983419E+02  0.51030732435E+02  0.51100000000E-03 0.  1.
         23    2    1    0    0    0  0.25705750915E+02 -0.10220663839E+02  0.85834722303E+01  0.96035822211E+02  0.91563942427E+02 0.  0.
         11    1    3    3    0    0 -0.89315099464E+01  0.18179352701E+01  0.44072455649E+02  0.45005089776E+02  0.51100000000E-03 0. -1.
         22    1    1    0    0    0 -0.25705750915E+02  0.10220663839E+02 -0.85834722303E+01  0.28964177789E+02  0.00000000000E+00 0. -1.
</event>
<event>
 5    1  0.1681111E-003  0.9118800E+02  0.7818608E-02  0.1130116E+00
         25   -1    0    0    0    0  0.00000000000E+00  0.00000000000E+00  0.99999998245E-14  0.12500000000E+03  0.12500000000E+03 0.  0.
        -11    1    3    3    0    0 -0.33501683787E+01  0.18512915941E+02  0.26748222226E+02  0.32701973600E+02  0.51100000000E-03 0. -1.
         23    2    1    0    0    0 -0.97522864104E+01 -0.18914090524E+02 -0.21932833986E+02  0.94440236957E+02  0.89359158676E+02 0.  0.
         11    1    3    3    0    0 -0.64021180317E+01 -0.37427006465E+02 -0.48681056212E+02  0.61738263357E+02  0.51100000000E-03 0.  1.
         22    1    1    0    0    0  0.97522864104E+01  0.18914090524E+02  0.21932833986E+02  0.30559763043E+02  0.00000000000E+00 0.  1.
</event>
<event>
 5    1  0.1681111E-003  0.9118800E+02  0.7818608E-02  0.1130116E+00
         25   -1    0    0    0    0  0.00000000000E+00  0.00000000000E+00  0.99999998245E-14  0.12500000000E+03  0.12500000000E+03 0.  0.
        -11    1    3    3    0    0  0.91356086072E-01  0.38576508951E+02  0.26540210029E+02  0.46824546313E+02  0.51100000000E-03 0.  1.
         23    2    1    0    0    0  0.28988786362E+02  0.53201380360E+01  0.10343123784E+02  0.93764862525E+02  0.88409363934E+02 0.  0.
         11    1    3    3    0    0  0.28897430276E+02 -0.33256370915E+02 -0.16197086245E+02  0.46940316212E+02  0.51100000000E-03 0. -1.
         22    1    1    0    0    0 -0.28988786362E+02 -0.53201380360E+01 -0.10343123784E+02  0.31235137475E+02  0.00000000000E+00 0.  1.
</event>
<event>
 5    1  0.1681111E-003  0.9118800E+02  0.7818608E-02  0.1130116E+00
         25   -1    0    0    0    0  0.00000000000E+00  0.00000000000E+00  0.99999998245E-14  0.12500000000E+03  0.12500000000E+03 0.  0.
        -11    1    3    3    0    0  0.14985145957E+02  0.28156206005E+02 -0.45373868322E+02  0.55462730394E+02  0.51100000000E-03 0. -1.
         23    2    1    0    0    0 -0.12906917227E+02  0.19692509713E+02 -0.20109917898E+02  0.94035629363E+02  0.88791369742E+02 0.  0.
         11    1    3    3    0    0 -0.27892063184E+02 -0.84636962925E+01  0.25263950424E+02  0.38572898969E+02  0.51100000000E-03 0.  1.
         22    1    1    0    0    0  0.12906917227E+02 -0.19692509713E+02  0.20109917898E+02  0.30964370637E+02  0.00000000000E+00 0. -1.
</event>
<event>
 5    1  0.1681111E-003  0.9118800E+02  0.7818608E-02  0.1130116E+00
         25   -1    0    0    0    0  0.00000000000E+00  0.00000000000E+00  0.99999998245E-14  0.12500000000E+03  0.12500000000E+03 0.  0.
        -11    1    3    3    0    0 -0.17200290951E+02  0.19974057308E+02 -0.54489644107E+02  0.60530441014E+02  0.51100000000E-03 0.  1.
         23    2    1    0    0    0 -0.18806279348E+02  0.11144482993E+02 -0.23022255539E+02  0.93252560825E+02  0.87682040385E+02 0.  0.
         11    1    3    3    0    0 -0.16059883977E+01 -0.88295743147E+01  0.31467388569E+02  0.32722119811E+02  0.51100000000E-03 0. -1.
         22    1    1    0    0    0  0.18806279348E+02 -0.11144482993E+02  0.23022255539E+02  0.31747439175E+02  0.00000000000E+00 0.  1.
</event>
<event>
 5    1  0.1681111E-003  0.9118800E+02  0.7818608E-02  0.1130116E+00
         25   -1    0    0    0    0  0.00000000000E+00  0.00000000000E+00  0.99999998245E-14  0.12500000000E+03  0.12500000000E+03 0.  0.
        -11    1    3    3    0    0  0.20489729300E+02  0.18055127681E+02 -0.14425985317E+02  0.30885687543E+02  0.51100000000E-03 0. -1.
         23    2    1    0    0    0 -0.33625656101E+02  0.97118222230E+01  0.63105734805E+01  0.89435585528E+02  0.82060321605E+02 0.  0.
         11    1    3    3    0    0 -0.54115385400E+02 -0.83433054584E+01  0.20736558798E+02  0.58549897985E+02  0.51100000000E-03 0.  1.
         22    1    1    0    0    0  0.33625656101E+02 -0.97118222230E+01 -0.63105734805E+01  0.35564414472E+02  0.00000000000E+00 0.  1.
</event>
<event>
 5    1  0.1681111E-003  0.9118800E+02  0.7818608E-02  0.1130116E+00
         25   -1    0    0    0    0  0.00000000000E+00  0.00000000000E+00  0.99999998245E-14  0.12500000000E+03  0.12500000000E+03 0.  0.
        -11    1    3    3    0    0 -0.89346159928E+01  0.29802232891E+01 -0.47757750975E+02  0.48677632155E+02  0.51100000000E-03 0.  1.
         23    2    1    0    0    0  0.14857458078E+02 -0.20909774626E+02 -0.17824046433E+02  0.93764453475E+02  0.88408785586E+02 0.  0.
         11    1    3    3    0    0  0.23792074071E+02 -0.23889997915E+02  0.29933704541E+02  0.45086821320E+02  0.51100000000E-03 0. -1.
         22    1    1    0    0    0 -0.14857458078E+02  0.20909774626E+02  0.17824046433E+02  0.31235546525E+02  0.00000000000E+00 0. -1.
</event>
<event>
 5    1  0.1681111E-003  0.9118800E+02  0.7818608E-02  0.1130116E+00
         25   -1    0    0    0    0  0.00000000000E+00  0.00000000000E+00  0.99999998245E-14  0.12500000000E+03  0.12500000000E+03 0.  0.
        -11    1    3    3    0    0  0.22573575048E+02 -0.38861037413E+02  0.65139393506E+01  0.45411209248E+02  0.51100000000E-03 0. -1.
         23    2    1    0    0    0  0.24169163625E+02 -0.81541269672E+01 -0.24889207741E+02  0.89361384442E+02  0.81947215391E+02 0.  0.
         11    1    3    3    0    0  0.15955885769E+01  0.30706910445E+02 -0.31403147092E+02  0.43950175194E+02  0.51100000000E-03 0.  1.
         22    1    1    0    0    0 -0.24169163625E+02  0.81541269672E+01  0.24889207741E+02  0.35638615558E+02  0.00000000000E+00 0. -1.
</event>
<event>
 5    1  0.1681111E-003  0.9118800E+02  0.7818608E-02  0.1130116E+00
         25   -1    0    0    0    0  0.00000000000E+00  0.00000000000E+00  0.99999998245E-14  0.12500000000E+03  0.12500000000E+03 0.  0.
        -11    1    3    3    0    0 -0.52441714500E+01  0.48501410010E+02  0.35193806991E+02  0.60153903930E+02  0.51100000000E-03 0. -1.
         23    2    1    0    0    0 -0.57353622378E+01  0.14939886989E+02  0.25151414203E+02  0.95189125479E+02  0.90400671291E+02 0.  0.
         11    1    3    3    0    0 -0.49119078789E+00 -0.33561523021E+02 -0.10042392788E+02  0.35035221550E+02  0.51100000000E-03 0.  1.
         22    1    1    0    0    0  0.57353622378E+01 -0.14939886989E+02 -0.25151414203E+02  0.29810874521E+02  0.00000000000E+00 0. -1.
</event>
<event>
 5    1  0.1681111E-003  0.9118800E+02  0.7818608E-02  0.1130116E+00
         25   -1    0    0    0    0  0.00000000000E+00  0.00000000000E+00  0.99999998245E-14  0.12500000000E+03  0.12500000000E+03 0.  0.
        -11    1    3    3    0    0  0.55794442445E+02  0.35246672534E+01  0.18917241834E+02  0.59019531732E+02  0.51100000000E-03 0.  1.
         23    2    1    0    0    0  0.27539101106E+02 -0.12699364549E+02  0.59019718218E+01  0.94104867357E+02  0.88888789165E+02 0.  0.
         11    1    3    3    0    0 -0.28255341339E+02 -0.16224031802E+02 -0.13015270013E+02  0.35085335625E+02  0.51100000000E-03 0. -1.
         22    1    1    0    0    0 -0.27539101106E+02  0.12699364549E+02 -0.59019718218E+01  0.30895132643E+02  0.00000000000E+00 0.  1.
</event>
<event>
 5    1  0.1681111E-003  0.9118800E+02  0.7818608E-02  0.1130116E+00
         25   -1    0    0    0    0  0.00000000000E+00  0.00000000000E+00  0.99999998245E-14  0.12500000000E+03  0.12500000000E+03 0.  0.
        -11    1    3    3    0    0 -0.56798376370E+02  0.23618338081E+02  0.79256511618E+01  0.62021749400E+02  0.51100000000E-03 0.  1.
         23    2    1    0    0    0 -0.23738549047E+02  0.15217989710E+02  0.58966660467E+01  0.96192421272E+02  0.91777477183E+02 0.  0.
         11    1    3    3    0    0  0.33059827323E+02 -0.84003483711E+01 -0.20289851151E+01  0.34170671873E+02  0.51100000000E-03 0. -1.
         22    1    1    0    0    0  0.23738549047E+02 -0.15217989710E+02 -0.58966660467E+01  0.28807578728E+02  0.00000000000E+00 0.  1.
</event>
<event>
 5    1  0.1681111E-003  0.9118800E+02  0.7818608E-02  0.1130116E+00
         25   -1    0    0    0    0  0.00000000000E+00  0.00000000000E+00  0.99999998245E-14  0.12500000000E+03  0.12500000000E+03 0.  0.
        -11    1    3    3    0    0 -0.29003986323E+01  0.18933917048E+01  0.40115435165E+02  0.40264691519E+02  0.51100000000E-03 0. -1.
         23    2    1    0    0    0  0.64004035806E+01  0.26396129685E+02 -0.93751128697E+01  0.96266507876E+02  0.91878326982E+02 0.  0.
         11    1    3    3    0    0  0.93008022129E+01  0.24502737980E+02 -0.49490548034E+02  0.56001816357E+02  0.51100000000E-03 0.  1.
         22    1    1    0    0    0 -0.64004035806E+01 -0.26396129685E+02  0.93751128697E+01  0.28733492124E+02  0.00000000000E+00 0.  1.
</event>
<event>
 5    1  0.1681111E-003  0.9118800E+02  0.7818608E-02  0.1130116E+00
         25   -1    0    0    0    0  0.00000000000E+00  0.00000000000E+00  0.99999998245E-14  0.12500000000E+03  0.12500000000E+03 0.  0.
        -11    1    3    3    0    0  0.92560259137E+01 -0.36798675219E+02  0.17278176297E+01  0.37984231828E+02  0.51100000000E-03 0. -1.
         23    2    1    0    0    0  0.20699409908E+02  0.19104408311E+02  0.88145692198E+01  0.95484908640E+02  0.90808739447E+02 0.  0.
         11    1    3    3    0    0  0.11443383995E+02  0.55903083530E+02  0.70867515901E+01  0.57500676811E+02  0.51100000000E-03 0.  1.
         22    1    1    0    0    0 -0.20699409908E+02 -0.19104408311E+02 -0.88145692198E+01  0.29515091360E+02  0.00000000000E+00 0.  1.
</event>
<event>
 5    1  0.1681111E-003  0.9118800E+02  0.7818608E-02  0.1130116E+00
         25   -1    0    0    0    0  0.00000000000E+00  0.00000000000E+00  0.99999998245E-14  0.12500000000E+03  0.12500000000E+03 0.  0.
        -11    1    3    3    0    0  0.30011127204E+02  0.26619543795E+02 -0.15617041688E+02  0.43048343281E+02  0.51100000000E-03 0. -1.
         23    2    1    0    0    0 -0.19832497172E+02  0.23089492450E+02 -0.72241380351E+01  0.93716765256E+02  0.88341334120E+02 0.  0.
         11    1    3    3    0    0 -0.49843624376E+02 -0.35300513450E+01  0.83929036524E+01  0.50668421975E+02  0.51100000000E-03 0.  1.
         22    1    1    0    0    0  0.19832497172E+02 -0.23089492450E+02  0.72241380351E+01  0.31283234744E+02  0.00000000000E+00 0.  1.
</event>
<event>
 5    1  0.1681111E-003  0.9118800E+02  0.7818608E-02  0.1130116E+00
         25   -1    0    0    0    0  0.00000000000E+00  0.00000000000E+00  0.99999998245E-14  0.12500000000E+03  0.12500000000E+03 0.  0.
        -11    1    3    3    0    0  0.72671586591E+01  0.83002304325E+01  0.52275360553E+02  0.53426760536E+02  0.51100000000E-03 0.  1.
         23    2    1    0    0    0 -0.20427864758E+01 -0.19466815167E+02  0.19764412266E+02  0.97183424698E+02  0.93117432173E+02 0.  0.
         11    1    3    3    0    0 -0.93099451349E+01 -0.27767045599E+02 -0.32510948288E+02  0.43756664162E+02  0.51100000000E-03 0. -1.
         22    1    1    0    0    0  0.20427864758E+01  0.19466815167E+02 -0.19764412266E+02  0.27816575302E+02  0.00000000000E+00 0.  1.
</event>
<event>
 5    1  0.1681111E-003  0.9118800E+02  0.7818608E-02  0.1130116E+00
         25   -1    0    0    0    0  0.00000000000E+00  0.00000000000E+00  0.99999998245E-14  0.12500000000E+03  0.12500000000E+03 0.  0.
        -11    1    3    3    0    0  0.29321912106E+02  0.24015544492E+02 -0.40466842162E+02  0.55444442658E+02  0.51100000000E-03 0. -1.
         23    2    1    0    0    0 -0.52475067645E+01  0.20931467875E+02 -0.18960679202E+02  0.96274227070E+02  0.91888828306E+02 0.  0.
         11    1    3    3    0    0 -0.34569418871E+02 -0.30840766174E+01  0.21506162959E+02  0.40829784412E+02  0.51100000000E-03 0.  1.
         22    1    1    0    0    0  0.52475067645E+01 -0.20931467875E+02  0.18960679202E+02  0.28725772930E+02  0.00000000000E+00 0. -1.
</event>
<event>
 5    1  0.1681111E-003  0.9118800E+02  0.7818608E-02  0.1130116E+00
         25   -1    0    0    0    0  0.00000000000E+00  0.00000000000E+00  0.99999998245E-14  0.12500000000E+03  0.12500000000E+03 0.  0.
        -11    1    3    3    0    0  0.41248965584E+02  0.29593826656E+02 -0.44270872596E+01  0.50959501957E+02  0.51100000000E-03 0. -1.
         23    2    1    0    0    0  0.17681117687E+02  0.98924625997E+00  0.22204652646E+02  0.96598466064E+02  0.92328849857E+02 0.  0.
         11    1    3    3    0    0 -0.23567847896E+02 -0.28604580396E+02  0.26631739905E+02  0.45638964106E+02  0.51100000000E-03 0.  1.
         22    1    1    0    0    0 -0.17681117687E+02 -0.98924625997E+00 -0.22204652646E+02  0.28401533936E+02  0.00000000000E+00 0. -1.
</event>
<event>
 5    1  0.1681111E-003  0.9118800E+02  0.7818608E-02  0.1130116E+00
         25   -1    0    0    0    0  0.00000000000E+00  0.00000000000E+00  0.99999998245E-14  0.12500000000E+03  0.12500000000E+03 0.  0.
        -11    1    3    3    0    0  0.50764770994E+01 -0.22999602863E+02 -0.33375682541E+02  0.40849584294E+02  0.51100000000E-03 0. -1.
         23    2    1    0    0    0 -0.13216197555E+02 -0.21377847049E+02  0.17125911429E+02  0.94586564407E+02  0.89563614832E+02 0.  0.
         11    1    3    3    0    0 -0.18292674655E+02  0.16217558143E+01  0.50501593970E+02  0.53736980114E+02  0.51100000000E-03 0.  1.
         22    1    1    0    0    0  0.13216197555E+02  0.21377847049E+02 -0.17125911429E+02  0.30413435593E+02  0.00000000000E+00 0.  1.
</event>
<event>
 5    1  0.1681111E-003  0.9118800E+02  0.7818608E-02  0.1130116E+00
         25   -1    0    0    0    0  0.00000000000E+00  0.00000000000E+00  0.99999998245E-14  0.12500000000E+03  0.12500000000E+03 0.  0.
        -11    1    3    3    0    0  0.45534128938E+02  0.63203467078E+01  0.36976716702E+02  0.58996451240E+02  0.51100000000E-03 0.  1.
         23    2    1    0    0    0  0.17765005604E+02 -0.11111333744E+02  0.20481320542E+02  0.95699118566E+02  0.91103126409E+02 0.  0.
         11    1    3    3    0    0 -0.27769123334E+02 -0.17431680452E+02 -0.16495396160E+02  0.36702667326E+02  0.51100000000E-03 0. -1.
         22    1    1    0    0    0 -0.17765005604E+02  0.11111333744E+02 -0.20481320542E+02  0.29300881434E+02  0.00000000000E+00 0.  1.
</event>
<event>
 5    1  0.1681111E-003  0.9118800E+02  0.7818608E-02  0.1130116E+00
         25   -1    0    0    0    0  0.00000000000E+00  0.00000000000E+00  0.99999998245E-14  0.12500000000E+03  0.12500000000E+03 0.  0.
        -11    1    3    3    0    0 -0.48997292818E+02 -0.19517298151E+02 -0.23892745254E+02  0.57900975006E+02  0.51100000000E-03 0. -1.
         23    2    1    0    0    0 -0.27461604129E+02 -0.14252742664E+02  0.42959143020E+01  0.93763238732E+02  0.88407068061E+02 0.  0.
         11    1    3    3    0    0  0.21535688689E+02  0.52645554872E+01  0.28188659556E+02  0.35862263726E+02  0.51100000000E-03 0.  1.
         22    1    1    0    0    0  0.27461604129E+02  0.14252742664E+02 -0.42959143020E+01  0.31236761268E+02  0.00000000000E+00 0. -1.
</event>
<event>
 5    1  0.1681111E-003  0.9118800E+02  0.7818608E-02  0.1130116E+00
         25   -1    0    0    0    0  0.00000000000E+00  0.00000000000E+00  0.99999998245E-14  0.12500000000E+03  0.12500000000E+03 0.  0.
        -11    1    3    3    0    0  0.12879184101E+02 -0.31021670499E+02  0.32185952399E+02  0.46520457390E+02  0.51100000000E-03 0.  1.
         23    2    1    0    0    0 -0.15238710612E+01 -0.29615597438E+02 -0.11995031884E+02  0.93011149059E+02  0.87337204356E+02 0.  0.
         11    1    3    3    0    0 -0.14403055163E+02  0.14060730612E+01 -0.44180984282E+02  0.46490691669E+02  0.51100000000E-03 0. -1.
         22    1    1    0    0    0  0.15238710612E+01  0.29615597438E+02  0.11995031884E+02  0.31988850941E+02  0.00000000000E+00 0. -1.
</event>
<event>
 5    1  0.1681111E-003  0.9118800E+02  0.7818608E-02  0.1130116E+00
         25   -1    0    0    0    0  0.00000000000E+00  0.00000000000E+00  0.99999998245E-14  0.12500000000E+03  0.12500000000E+03 0.  0.
        -11    1    3    3    0    0  0.30012522853E+02  0.20428337838E+02 -0.47051176946E+02  0.59429637110E+02  0.51100000000E-03 0. -1.
         23    2    1    0    0    0  0.24085736217E+02  0.12683916149E+02 -0.13030276163E+02  0.94820660795E+02  0.89889739118E+02 0.  0.
         11    1    3    3    0    0 -0.59267866360E+01 -0.77444216886E+01  0.34020900783E+02  0.35391023685E+02  0.51100000000E-03 0.  1.
         22    1    1    0    0    0 -0.24085736217E+02 -0.12683916149E+02  0.13030276163E+02  0.30179339205E+02  0.00000000000E+00 0. -1.
</event>
<event>
 5    1  0.1681111E-003  0.9118800E+02  0.7818608E-02  0.1130116E+00
         25   -1    0    0    0    0  0.00000000000E+00  0.00000000000E+00  0.99999998245E-14  0.12500000000E+03  0.12500000000E+03 0.  0.
        -11    1    3    3    0    0  0.35151845146E+02 -0.41828590523E+00 -0.17433858887E+02  0.39239860043E+02  0.51100000000E-03 0. -1.
         23    2    1    0    0    0 -0.84864148624E+00  0.20696506007E+02  0.20658270325E+02  0.95745433073E+02  0.91166651075E+02 0.  0.
         11    1    3    3    0    0 -0.36000486632E+02  0.21114791913E+02  0.38092129212E+02  0.56505573030E+02  0.51100000000E-03 0.  1.
         22    1    1    0    0    0  0.84864148624E+00 -0.20696506007E+02 -0.20658270325E+02  0.29254566927E+02  0.00000000000E+00 0.  1.
</event>
<event>
 5    1  0.1681111E-003  0.9118800E+02  0.7818608E-02  0.1130116E+00
         25   -1    0    0    0    0  0.00000000000E+00  0.00000000000E+00  0.99999998245E-14  0.12500000000E+03  0.12500000000E+03 0.  0.
        -11    1    3    3    0    0  0.23397772810E+02  0.37147803419E+02  0.19927049345E+01  0.43947536274E+02  0.51100000000E-03 0. -1.
         23    2    1    0    0    0 -0.24078127323E+02  0.16115644728E+02 -0.14719161915E+01  0.95989023497E+02  0.91500032100E+02 0.  0.
         11    1    3    3    0    0 -0.47475900133E+02 -0.21032158690E+02 -0.34646211261E+01  0.52041487223E+02  0.51100000000E-03 0.  1.
         22    1    1    0    0    0  0.24078127323E+02 -0.16115644728E+02  0.14719161915E+01  0.29010976503E+02  0.00000000000E+00 0. -1.
</event>
<event>
 5    1  0.1681111E-003  0.9118800E+02  0.7818608E-02  0.1130116E+00
         25   -1    0    0    0    0  0.00000000000E+00  0.00000000000E+00  0.99999998245E-14  0.12500000000E+03  0.12500000000E+03 0.  0.
        -11    1    3    3    0    0 -0.27423694867E+02 -0.16531286493E+02  0.49129893195E+02  0.58643745437E+02  0.51100000000E-03 0.  1.
         23    2    1    0    0    0 -0.23885689259E+02  0.16005378277E+01  0.17236698467E+02  0.95500989055E+02  0.90830871755E+02 0.  0.
         11    1    3    3    0    0  0.35380056083E+01  0.18131824321E+02 -0.31893194728E+02  0.36857243618E+02  0.51100000000E-03 0. -1.
         22    1    1    0    0    0  0.23885689259E+02 -0.16005378277E+01 -0.17236698467E+02  0.29499010945E+02  0.00000000000E+00 0.  1.
</event>
<event>
 5    1  0.1681111E-003  0.9118800E+02  0.7818608E-02  0.1130116E+00
         25   -1    0    0    0    0  0.00000000000E+00  0.00000000000E+00  0.99999998245E-14  0.12500000000E+03  0.12500000000E+03 0.  0.
        -11    1    3    3    0    0 -0.41921975578E+02  0.40272251587E+02  0.22771596964E+02  0.62432779154E+02  0.51100000000E-03 0. -1.
         23    2    1    0    0    0 -0.19434339526E+02  0.19180553227E+02  0.85379503910E+01  0.96390844616E+02  0.92047331053E+02 0.  0.
         11    1    3    3    0    0  0.22487636052E+02 -0.21091698361E+02 -0.14233646573E+02  0.33958065462E+02  0.51100000000E-03 0.  1.
         22    1    1    0    0    0  0.19434339526E+02 -0.19180553227E+02 -0.85379503910E+01  0.28609155384E+02  0.00000000000E+00 0. -1.
</event>
<event>
 5    1  0.1681111E-003  0.9118800E+02  0.7818608E-02  0.1130116E+00
         25   -1    0    0    0    0  0.00000000000E+00  0.00000000000E+00  0.99999998245E-14  0.12500000000E+03  0.12500000000E+03 0.  0.
        -11    1    3    3    0    0 -0.31305778621E+02  0.13328532028E+02 -0.11790008395E+02  0.36009801989E+02  0.51100000000E-03 0. -1.
         23    2    1    0    0    0  0.58856191581E+01 -0.27704726902E+02  0.91792440953E+01  0.95226674224E+02  0.90452576282E+02 0.  0.
         11    1    3    3    0    0  0.37191397779E+02 -0.41033258929E+02  0.20969252490E+02  0.59216872236E+02  0.51100000000E-03 0.  1.
         22    1    1    0    0    0 -0.58856191581E+01  0.27704726902E+02 -0.91792440953E+01  0.29773325776E+02  0.00000000000E+00 0.  1.
</event>
<event>
 5    1  0.1681111E-003  0.9118800E+02  0.7818608E-02  0.1130116E+00
         25   -1    0    0    0    0  0.00000000000E+00  0.00000000000E+00  0.99999998245E-14  0.12500000000E+03  0.12500000000E+03 0.  0.
        -11    1    3    3    0    0 -0.84453166757E+01 -0.35811486048E+02  0.75787690968E+01  0.37566256774E+02  0.51100000000E-03 0.  1.
         23    2    1    0    0    0 -0.77601805797E+01  0.14858974522E+02 -0.22838757951E+02  0.96669479511E+02  0.92424941859E+02 0.  0.
         11    1    3    3    0    0  0.68513609598E+00  0.50670460570E+02 -0.30417527048E+02  0.59103222736E+02  0.51100000000E-03 0. -1.
         22    1    1    0    0    0  0.77601805797E+01 -0.14858974522E+02  0.22838757951E+02  0.28330520489E+02  0.00000000000E+00 0. -1.
</event>
<event>
 5    1  0.1681111E-003  0.9118800E+02  0.7818608E-02  0.1130116E+00
         25   -1    0    0    0    0  0.00000000000E+00  0.00000000000E+00  0.99999998245E-14  0.12500000000E+03  0.12500000000E+03 0.  0.
        -11    1    3    3    0    0 -0.41342117375E+02  0.14174273280E+01  0.31393632108E+01  0.41485363334E+02  0.51100000000E-03 0.  1.
         23    2    1    0    0    0  0.47422897567E+01  0.14709734877E+02  0.26104833895E+02  0.94663092363E+02  0.89670357927E+02 0.  0.
         11    1    3    3    0    0  0.46084407132E+02  0.13292307549E+02  0.22965470684E+02  0.53177729029E+02  0.51100000000E-03 0. -1.
         22    1    1    0    0    0 -0.47422897567E+01 -0.14709734877E+02 -0.26104833895E+02  0.30336907637E+02  0.00000000000E+00 0. -1.
</event>
<event>
 5    1  0.1681111E-003  0.9118800E+02  0.7818608E-02  0.1130116E+00
         25   -1    0    0    0    0  0.00000000000E+00  0.00000000000E+00  0.99999998245E-14  0.12500000000E+03  0.12500000000E+03 0.  0.
        -11    1    3    3    0    0 -0.23910684219E+00 -0.58183025453E+02  0.21203207635E+02  0.61926550341E+02  0.51100000000E-03 0.  1.
         23    2    1    0    0    0  0.57347684864E+01 -0.26095037262E+02  0.10775376491E+02  0.96191194439E+02  0.91775806234E+02 0.  0.
         11    1    3    3    0    0  0.59738753286E+01  0.32087988191E+02 -0.10427831143E+02  0.34264644098E+02  0.51100000000E-03 0. -1.
         22    1    1    0    0    0 -0.57347684864E+01  0.26095037262E+02 -0.10775376491E+02  0.28808805561E+02  0.00000000000E+00 0.  1.
</event>
<event>
 5    1  0.1681111E-003  0.9118800E+02  0.7818608E-02  0.1130116E+00
         25   -1    0    0    0    0  0.00000000000E+00  0.00000000000E+00  0.99999998245E-14  0.12500000000E+03  0.12500000000E+03 0.  0.
        -11    1    3    3    0    0 -0.26014208311E+02  0.33572501467E+02 -0.17157127595E+02  0.45806319612E+02  0.51100000000E-03 0. -1.
         23    2    1    0    0    0  0.89705566081E+01  0.14637403799E+02  0.18879407284E+02  0.99482231774E+02  0.96153824383E+02 0.  0.
         11    1    3    3    0    0  0.34984764919E+02 -0.18935097668E+02  0.36036534879E+02  0.53675912162E+02  0.51100000000E-03 0.  1.
         22    1    1    0    0    0 -0.89705566081E+01 -0.14637403799E+02 -0.18879407284E+02  0.25517768226E+02  0.00000000000E+00 0. -1.
</event>
<event>
 5    1  0.1681111E-003  0.9118800E+02  0.7818608E-02  0.1130116E+00
         25   -1    0    0    0    0  0.00000000000E+00  0.00000000000E+00  0.99999998245E-14  0.12500000000E+03  0.12500000000E+03 0.  0.
        -11    1    3    3    0    0 -0.26283769121E+02  0.31167802565E+02  0.46742699064E+02  0.62025384739E+02  0.51100000000E-03 0.  1.
         23    2    1    0    0    0 -0.92910192760E+01  0.11048779119E+02  0.24802530075E+02  0.96302194207E+02  0.91926865233E+02 0.  0.
         11    1    3    3    0    0  0.16992749845E+02 -0.20119023446E+02 -0.21940168989E+02  0.34276809467E+02  0.51100000000E-03 0. -1.
         22    1    1    0    0    0  0.92910192760E+01 -0.11048779119E+02 -0.24802530075E+02  0.28697805793E+02  0.00000000000E+00 0.  1.
</event>
<event>
 5    1  0.1681111E-003  0.9118800E+02  0.7818608E-02  0.1130116E+00
         25   -1    0    0    0    0  0.00000000000E+00  0.00000000000E+00  0.99999998245E-14  0.12500000000E+03  0.12500000000E+03 0.  0.
        -11    1    3    3    0    0 -0.25735127950E+02 -0.31072802194E+02  0.47643242910E+02  0.62431518018E+02  0.51100000000E-03 0.  1.
         23    2    1    0    0    0 -0.14148760043E+02 -0.14682103384E+02  0.21862377911E+02  0.95104931201E+02  0.90284178018E+02 0.  0.
         11    1    3    3    0    0  0.11586367908E+02  0.16390698809E+02 -0.25780864998E+02  0.32673413184E+02  0.51100000000E-03 0. -1.
         22    1    1    0    0    0  0.14148760043E+02  0.14682103384E+02 -0.21862377911E+02  0.29895068799E+02  0.00000000000E+00 0.  1.
</event>
<event>
 5    1  0.1681111E-003  0.9118800E+02  0.7818608E-02  0.1130116E+00
         25   -1    0    0    0    0  0.00000000000E+00  0.00000000000E+00  0.99999998245E-14  0.12500000000E+03  0.12500000000E+03 0.  0.
        -11    1    3    3    0    0 -0.38909784058E+02 -0.10586967996E+02  0.18395542758E+02  0.44322129692E+02  0.51100000000E-03 0. -1.
         23    2    1    0    0    0 -0.52623352461E+01 -0.33745136777E+02 -0.35016251896E+01  0.90667976941E+02  0.83916590941E+02 0.  0.
         11    1    3    3    0    0  0.33647448812E+02 -0.23158168781E+02 -0.21897167947E+02  0.46345847249E+02  0.51100000000E-03 0.  1.
         22    1    1    0    0    0  0.52623352461E+01  0.33745136777E+02  0.35016251896E+01  0.34332023059E+02  0.00000000000E+00 0.  1.
</event>
<event>
 5    1  0.1681111E-003  0.9118800E+02  0.7818608E-02  0.1130116E+00
         25   -1    0    0    0    0  0.00000000000E+00  0.00000000000E+00  0.99999998245E-14  0.12500000000E+03  0.12500000000E+03 0.  0.
        -11    1    3    3    0    0 -0.56558456403E+02 -0.22586207319E+02 -0.41197041973E+01  0.61040705392E+02  0.51100000000E-03 0.  1.
         23    2    1    0    0    0 -0.23830998882E+02 -0.12202109052E+02 -0.10993867898E+02  0.96057417109E+02  0.91593418308E+02 0.  0.
         11    1    3    3    0    0  0.32727457522E+02  0.10384098267E+02 -0.68741637011E+01  0.35016711718E+02  0.51100000000E-03 0. -1.
         22    1    1    0    0    0  0.23830998882E+02  0.12202109052E+02  0.10993867898E+02  0.28942582891E+02  0.00000000000E+00 0.  1.
</event>
<event>
 5    1  0.1681111E-003  0.9118800E+02  0.7818608E-02  0.1130116E+00
         25   -1    0    0    0    0  0.00000000000E+00  0.00000000000E+00  0.99999998245E-14  0.12500000000E+03  0.12500000000E+03 0.  0.
        -11    1    3    3    0    0 -0.98953992371E+01  0.54967185840E+02 -0.54781124617E+01  0.56118803994E+02  0.51100000000E-03 0. -1.
         23    2    1    0    0    0 -0.14646210621E+02  0.18801195202E+02  0.13886370330E+02  0.97416894528E+02  0.93430314309E+02 0.  0.
         11    1    3    3    0    0 -0.47508113840E+01 -0.36165990639E+02  0.19364482791E+02  0.41298090534E+02  0.51100000000E-03 0.  1.
         22    1    1    0    0    0  0.14646210621E+02 -0.18801195202E+02 -0.13886370330E+02  0.27583105472E+02  0.00000000000E+00 0. -1.
</event>
<event>
 5    1  0.1681111E-003  0.9118800E+02  0.7818608E-02  0.1130116E+00
         25   -1    0    0    0    0  0.00000000000E+00  0.00000000000E+00  0.99999998245E-14  0.12500000000E+03  0.12500000000E+03 0.  0.
        -11    1    3    3    0    0  0.29211251321E+02  0.17775948092E+02  0.55206358520E+01  0.34637536789E+02  0.51100000000E-03 0.  1.
         23    2    1    0    0    0 -0.13605786324E+02 -0.22512441325E+02 -0.12146748209E+02  0.96026375305E+02  0.91551044921E+02 0.  0.
         11    1    3    3    0    0 -0.42817037645E+02 -0.40288389417E+02 -0.17667384061E+02  0.61388838516E+02  0.51100000000E-03 0. -1.
         22    1    1    0    0    0  0.13605786324E+02  0.22512441325E+02  0.12146748209E+02  0.28973624695E+02  0.00000000000E+00 0. -1.
</event>
<event>
 5    1  0.1681111E-003  0.9118800E+02  0.7818608E-02  0.1130116E+00
         25   -1    0    0    0    0  0.00000000000E+00  0.00000000000E+00  0.99999998245E-14  0.12500000000E+03  0.12500000000E+03 0.  0.
        -11    1    3    3    0    0 -0.37860024235E+02  0.31305258080E+02 -0.13198296268E+02  0.50868414986E+02  0.51100000000E-03 0.  1.
         23    2    1    0    0    0  0.68093775486E+01  0.23491179163E+02 -0.15100156968E+02  0.96255994338E+02  0.91864022253E+02 0.  0.
         11    1    3    3    0    0  0.44669401784E+02 -0.78140789179E+01 -0.19018606997E+01  0.45387579352E+02  0.51100000000E-03 0. -1.
         22    1    1    0    0    0 -0.68093775486E+01 -0.23491179163E+02  0.15100156968E+02  0.28744005662E+02  0.00000000000E+00 0.  1.
</event>
<event>
 5    1  0.1681111E-003  0.9118800E+02  0.7818608E-02  0.1130116E+00
         25   -1    0    0    0    0  0.00000000000E+00  0.00000000000E+00  0.99999998245E-14  0.12500000000E+03  0.12500000000E+03 0.  0.
        -11    1    3    3    0    0  0.33387107450E+02  0.57561290379E+01  0.82126922252E+01  0.34860870317E+02  0.51100000000E-03 0. -1.
         23    2    1    0    0    0 -0.21814957944E+02 -0.11039165763E+02 -0.14159455513E+02  0.96746756801E+02  0.92529396411E+02 0.  0.
         11    1    3    3    0    0 -0.55202065394E+02 -0.16795294801E+02 -0.22372147738E+02  0.61885886484E+02  0.51100000000E-03 0.  1.
         22    1    1    0    0    0  0.21814957944E+02  0.11039165763E+02  0.14159455513E+02  0.28253243199E+02  0.00000000000E+00 0.  1.
</event>
<event>
 5    1  0.1681111E-003  0.9118800E+02  0.7818608E-02  0.1130116E+00
         25   -1    0    0    0    0  0.00000000000E+00  0.00000000000E+00  0.99999998245E-14  0.12500000000E+03  0.12500000000E+03 0.  0.
        -11    1    3    3    0    0  0.42620777536E+01  0.31435140904E+02  0.39949760205E+02  0.51012907495E+02  0.51100000000E-03 0.  1.
         23    2    1    0    0    0  0.15223310072E+02 -0.88398144608E+01  0.22936018653E+02  0.96087157855E+02  0.91633997313E+02 0.  0.
         11    1    3    3    0    0  0.10961232319E+02 -0.40274955365E+02 -0.17013741551E+02  0.45074250359E+02  0.51100000000E-03 0. -1.
         22    1    1    0    0    0 -0.15223310072E+02  0.88398144608E+01 -0.22936018653E+02  0.28912842145E+02  0.00000000000E+00 0. -1.
</event>
<event>
 5    1  0.1681111E-003  0.9118800E+02  0.7818608E-02  0.1130116E+00
         25   -1    0    0    0    0  0.00000000000E+00  0.00000000000E+00  0.99999998245E-14  0.12500000000E+03  0.12500000000E+03 0.  0.
        -11    1    3    3    0    0  0.19986633859E+02  0.31630549732E+02 -0.35496935033E+02  0.51575087071E+02  0.51100000000E-03 0.  1.
         23    2    1    0    0    0 -0.10776996812E+02 -0.15781460482E+01 -0.24541307679E+02  0.98150233003E+02  0.94406346453E+02 0.  0.
         11    1    3    3    0    0 -0.30763630671E+02 -0.33208695781E+02  0.10955627355E+02  0.46575145931E+02  0.51100000000E-03 0. -1.
         22    1    1    0    0    0  0.10776996812E+02  0.15781460482E+01  0.24541307679E+02  0.26849766997E+02  0.00000000000E+00 0.  1.
</event>
<event>
 5    1  0.1681111E-003  0.9118800E+02  0.7818608E-02  0.1130116E+00
         25   -1    0    0    0    0  0.00000000000E+00  0.00000000000E+00  0.99999998245E-14  0.12500000000E+03  0.12500000000E+03 0.  0.
        -11    1    3    3    0    0  0.21453055975E+01  0.23377894268E+02  0.31634052753E+02  0.39393420394E+02  0.51100000000E-03 0.  1.
         23    2    1    0    0    0  0.25364311318E+02 -0.13751629713E+02 -0.40263763812E+01  0.95868104847E+02  0.91334693364E+02 0.  0.
         11    1    3    3    0    0  0.23219005721E+02 -0.37129523981E+02 -0.35660429135E+02  0.56474684453E+02  0.51100000000E-03 0. -1.
         22    1    1    0    0    0 -0.25364311318E+02  0.13751629713E+02  0.40263763812E+01  0.29131895153E+02  0.00000000000E+00 0. -1.
</event>
<event>
 5    1  0.1681111E-003  0.9118800E+02  0.7818608E-02  0.1130116E+00
         25   -1    0    0    0    0  0.00000000000E+00  0.00000000000E+00  0.99999998245E-14  0.12500000000E+03  0.12500000000E+03 0.  0.
        -11    1    3    3    0    0 -0.29987588114E+02  0.13645036698E+02 -0.51858178924E+02  0.61438694558E+02  0.51100000000E-03 0.  1.
         23    2    1    0    0    0 -0.10734939082E+02 -0.53921736277E+00 -0.27034631566E+02  0.95907028747E+02  0.91387948804E+02 0.  0.
         11    1    3    3    0    0  0.19252649032E+02 -0.14184254061E+02  0.24823547359E+02  0.34468334189E+02  0.51100000000E-03 0. -1.
         22    1    1    0    0    0  0.10734939082E+02  0.53921736277E+00  0.27034631566E+02  0.29092971253E+02  0.00000000000E+00 0.  1.
</event>
<event>
 5    1  0.1681111E-003  0.9118800E+02  0.7818608E-02  0.1130116E+00
         25   -1    0    0    0    0  0.00000000000E+00  0.00000000000E+00  0.99999998245E-14  0.12500000000E+03  0.12500000000E+03 0.  0.
        -11    1    3    3    0    0  0.24786694412E+02  0.45909401960E+02  0.29376327993E+02  0.59875053694E+02  0.51100000000E-03 0.  1.
         23    2    1    0    0    0  0.25505453513E+01  0.30625620467E+02  0.11779972242E+02  0.92087970944E+02  0.86005771527E+02 0.  0.
         11    1    3    3    0    0 -0.22236149061E+02 -0.15283781494E+02 -0.17596355751E+02  0.32212917250E+02  0.51100000000E-03 0. -1.
         22    1    1    0    0    0 -0.25505453513E+01 -0.30625620467E+02 -0.11779972242E+02  0.32912029056E+02  0.00000000000E+00 0.  1.
</event>
<event>
 5    1  0.1681111E-003  0.9118800E+02  0.7818608E-02  0.1130116E+00
         25   -1    0    0    0    0  0.00000000000E+00  0.00000000000E+00  0.99999998245E-14  0.12500000000E+03  0.12500000000E+03 0.  0.
        -11    1    3    3    0    0 -0.20067608829E+01  0.28101151278E+02 -0.34499899668E+02  0.44541496043E+02  0.51100000000E-03 0. -1.
         23    2    1    0    0    0 -0.26507051830E+02 -0.91963487160E+01 -0.13765452717E+02  0.93748051021E+02  0.88385591333E+02 0.  0.
         11    1    3    3    0    0 -0.24500290948E+02 -0.37297499994E+02  0.20734446950E+02  0.49206554979E+02  0.51100000000E-03 0.  1.
         22    1    1    0    0    0  0.26507051830E+02  0.91963487160E+01  0.13765452717E+02  0.31251948979E+02  0.00000000000E+00 0.  1.
</event>
<event>
 5    1  0.1681111E-003  0.9118800E+02  0.7818608E-02  0.1130116E+00
         25   -1    0    0    0    0  0.00000000000E+00  0.00000000000E+00  0.99999998245E-14  0.12500000000E+03  0.12500000000E+03 0.  0.
        -11    1    3    3    0    0 -0.24725041260E+02 -0.36657426123E+02 -0.24322275012E+02  0.50464518399E+02  0.51100000000E-03 0.  1.
         23    2    1    0    0    0 -0.44486184149E+01  0.46877327856E+01 -0.27621983135E+02  0.96632078032E+02  0.92374344426E+02 0.  0.
         11    1    3    3    0    0  0.20276422845E+02  0.41345158908E+02 -0.32997081231E+01  0.46167559633E+02  0.51100000000E-03 0. -1.
         22    1    1    0    0    0  0.44486184149E+01 -0.46877327856E+01  0.27621983135E+02  0.28367921968E+02  0.00000000000E+00 0. -1.
</event>
<event>
 5    1  0.1681111E-003  0.9118800E+02  0.7818608E-02  0.1130116E+00
         25   -1    0    0    0    0  0.00000000000E+00  0.00000000000E+00  0.99999998245E-14  0.12500000000E+03  0.12500000000E+03 0.  0.
        -11    1    3    3    0    0  0.13365021114E+02 -0.42382943192E+02 -0.32134926015E+02  0.54841509218E+02  0.51100000000E-03 0.  1.
         23    2    1    0    0    0  0.13204349370E+02 -0.26072101255E+02  0.49531308418E+01  0.95358090290E+02  0.90634003401E+02 0.  0.
         11    1    3    3    0    0 -0.16067174392E+00  0.16310841937E+02  0.37088056857E+02  0.40516581073E+02  0.51100000000E-03 0. -1.
         22    1    1    0    0    0 -0.13204349370E+02  0.26072101255E+02 -0.49531308418E+01  0.29641909710E+02  0.00000000000E+00 0.  1.
</event>
<event>
 5    1  0.1681111E-003  0.9118800E+02  0.7818608E-02  0.1130116E+00
         25   -1    0    0    0    0  0.00000000000E+00  0.00000000000E+00  0.99999998245E-14  0.12500000000E+03  0.12500000000E+03 0.  0.
        -11    1    3    3    0    0  0.36122572365E+02 -0.27318099335E+02 -0.41130811125E+02  0.61178937630E+02  0.51100000000E-03 0.  1.
         23    2    1    0    0    0  0.21079964206E+02 -0.15086135739E+02 -0.11379421047E+02  0.96690150021E+02  0.92452893439E+02 0.  0.
         11    1    3    3    0    0 -0.15042608158E+02  0.12231963596E+02  0.29751390078E+02  0.35511212391E+02  0.51100000000E-03 0. -1.
         22    1    1    0    0    0 -0.21079964206E+02  0.15086135739E+02  0.11379421047E+02  0.28309849979E+02  0.00000000000E+00 0.  1.
</event>
<event>
 5    1  0.1681111E-003  0.9118800E+02  0.7818608E-02  0.1130116E+00
         25   -1    0    0    0    0  0.00000000000E+00  0.00000000000E+00  0.99999998245E-14  0.12500000000E+03  0.12500000000E+03 0.  0.
        -11    1    3    3    0    0  0.20495350905E+02 -0.17829879635E+02 -0.33958258398E+02  0.43487093835E+02  0.51100000000E-03 0. -1.
         23    2    1    0    0    0  0.14059667397E+02  0.25647369130E+02 -0.74331886357E+01  0.94821960238E+02  0.89891546095E+02 0.  0.
         11    1    3    3    0    0 -0.64356835075E+01  0.43477248765E+02  0.26525069763E+02  0.51334866403E+02  0.51100000000E-03 0.  1.
         22    1    1    0    0    0 -0.14059667397E+02 -0.25647369130E+02  0.74331886357E+01  0.30178039762E+02  0.00000000000E+00 0.  1.
</event>
<event>
 5    1  0.1681111E-003  0.9118800E+02  0.7818608E-02  0.1130116E+00
         25   -1    0    0    0    0  0.00000000000E+00  0.00000000000E+00  0.99999998245E-14  0.12500000000E+03  0.12500000000E+03 0.  0.
        -11    1    3    3    0    0 -0.20260536914E+02 -0.43835820036E+02  0.11567251568E+02  0.49657524942E+02  0.51100000000E-03 0.  1.
         23    2    1    0    0    0  0.13432231846E+02 -0.12399352629E+02  0.21481775777E+02  0.96792988664E+02  0.92591830989E+02 0.  0.
         11    1    3    3    0    0  0.33692768760E+02  0.31436467407E+02  0.99145242092E+01  0.47135463722E+02  0.51100000000E-03 0. -1.
         22    1    1    0    0    0 -0.13432231846E+02  0.12399352629E+02 -0.21481775777E+02  0.28207011336E+02  0.00000000000E+00 0.  1.
</event>
<event>
 5    1  0.1681111E-003  0.9118800E+02  0.7818608E-02  0.1130116E+00
         25   -1    0    0    0    0  0.00000000000E+00  0.00000000000E+00  0.99999998245E-14  0.12500000000E+03  0.12500000000E+03 0.  0.
        -11    1    3    3    0    0  0.36278893666E+02 -0.78756951678E+01 -0.10433129289E+02  0.38562091321E+02  0.51100000000E-03 0.  1.
         23    2    1    0    0    0 -0.10972638807E+02  0.25609125102E+02 -0.44940433026E+01  0.96779041191E+02  0.92572999831E+02 0.  0.
         11    1    3    3    0    0 -0.47251532473E+02  0.33484820270E+02  0.59390859869E+01  0.58216949870E+02  0.51100000000E-03 0. -1.
         22    1    1    0    0    0  0.10972638807E+02 -0.25609125102E+02  0.44940433026E+01  0.28220958809E+02  0.00000000000E+00 0. -1.
</event>
<event>
 5    1  0.1681111E-003  0.9118800E+02  0.7818608E-02  0.1130116E+00
         25   -1    0    0    0    0  0.00000000000E+00  0.00000000000E+00  0.99999998245E-14  0.12500000000E+03  0.12500000000E+03 0.  0.
        -11    1    3    3    0    0 -0.21231205740E+01 -0.26358826942E+02 -0.23012352311E+02  0.35055153085E+02  0.51100000000E-03 0. -1.
         23    2    1    0    0    0 -0.18578046064E+02  0.17008738741E+02  0.15569670470E+02  0.95388251864E+02  0.90675591898E+02 0.  0.
         11    1    3    3    0    0 -0.16454925490E+02  0.43367565683E+02  0.38582022780E+02  0.60333098779E+02  0.51100000000E-03 0.  1.
         22    1    1    0    0    0  0.18578046064E+02 -0.17008738741E+02 -0.15569670470E+02  0.29611748136E+02  0.00000000000E+00 0.  1.
</event>
<event>
 5    1  0.1681111E-003  0.9118800E+02  0.7818608E-02  0.1130116E+00
         25   -1    0    0    0    0  0.00000000000E+00  0.00000000000E+00  0.99999998245E-14  0.12500000000E+03  0.12500000000E+03 0.  0.
        -11    1    3    3    0    0 -0.31503921211E+02  0.24962561495E+02  0.46740874954E+02  0.61646864638E+02  0.51100000000E-03 0. -1.
         23    2    1    0    0    0 -0.20747454818E+02  0.13161968417E+02  0.17941565991E+02  0.94576422231E+02  0.89549458725E+02 0.  0.
         11    1    3    3    0    0  0.10756466392E+02 -0.11800593079E+02 -0.28799308963E+02  0.32929557593E+02  0.51100000000E-03 0.  1.
         22    1    1    0    0    0  0.20747454818E+02 -0.13161968417E+02 -0.17941565991E+02  0.30423577769E+02  0.00000000000E+00 0. -1.
</event>
<event>
 5    1  0.1681111E-003  0.9118800E+02  0.7818608E-02  0.1130116E+00
         25   -1    0    0    0    0  0.00000000000E+00  0.00000000000E+00  0.99999998245E-14  0.12500000000E+03  0.12500000000E+03 0.  0.
        -11    1    3    3    0    0 -0.37603975783E+02  0.30312275499E+02 -0.24203959144E+02  0.54025222620E+02  0.51100000000E-03 0. -1.
         23    2    1    0    0    0 -0.13341827935E+02  0.63611553382E+01 -0.32660173437E+02  0.89150933083E+02  0.81625567506E+02 0.  0.
         11    1    3    3    0    0  0.24262147847E+02 -0.23951120161E+02 -0.84562142928E+01  0.35125710463E+02  0.51100000000E-03 0.  1.
         22    1    1    0    0    0  0.13341827935E+02 -0.63611553382E+01  0.32660173437E+02  0.35849066917E+02  0.00000000000E+00 0. -1.
</event>
<event>
 5    1  0.1681111E-003  0.9118800E+02  0.7818608E-02  0.1130116E+00
         25   -1    0    0    0    0  0.00000000000E+00  0.00000000000E+00  0.99999998245E-14  0.12500000000E+03  0.12500000000E+03 0.  0.
        -11    1    3    3    0    0 -0.38706386070E+02 -0.33374717840E+02 -0.20434451443E+02  0.55042010496E+02  0.51100000000E-03 0. -1.
         23    2    1    0    0    0  0.33696486166E-02 -0.22009941398E+02 -0.19806233311E+02  0.95390467587E+02  0.90678646311E+02 0.  0.
         11    1    3    3    0    0  0.38709755718E+02  0.11364776442E+02  0.62821813147E+00  0.40348457091E+02  0.51100000000E-03 0.  1.
         22    1    1    0    0    0 -0.33696486166E-02  0.22009941398E+02  0.19806233311E+02  0.29609532413E+02  0.00000000000E+00 0.  1.
</event>
<event>
 5    1  0.1681111E-003  0.9118800E+02  0.7818608E-02  0.1130116E+00
         25   -1    0    0    0    0  0.00000000000E+00  0.00000000000E+00  0.99999998245E-14  0.12500000000E+03  0.12500000000E+03 0.  0.
        -11    1    3    3    0    0  0.35707899572E+02 -0.16104372175E+01  0.20056541396E+02  0.40986735084E+02  0.51100000000E-03 0. -1.
         23    2    1    0    0    0 -0.63732863120E+01  0.28217439870E+02  0.74947268777E+00  0.96062059498E+02  0.91599753681E+02 0.  0.
         11    1    3    3    0    0 -0.42081185884E+02  0.29827877087E+02 -0.19307068708E+02  0.55075324413E+02  0.51100000000E-03 0.  1.
         22    1    1    0    0    0  0.63732863120E+01 -0.28217439870E+02 -0.74947268777E+00  0.28937940502E+02  0.00000000000E+00 0.  1.
</event>
<event>
 5    1  0.1681111E-003  0.9118800E+02  0.7818608E-02  0.1130116E+00
         25   -1    0    0    0    0  0.00000000000E+00  0.00000000000E+00  0.99999998245E-14  0.12500000000E+03  0.12500000000E+03 0.  0.
        -11    1    3    3    0    0 -0.29281928878E+01  0.26536998582E+02  0.30656666944E+02  0.40652402582E+02  0.51100000000E-03 0.  1.
         23    2    1    0    0    0 -0.30212308018E+02 -0.88955446673E+01  0.27048923993E+01  0.93389389224E+02  0.87876887212E+02 0.  0.
         11    1    3    3    0    0 -0.27284115131E+02 -0.35432543249E+02 -0.27951774545E+02  0.52736986642E+02  0.51100000000E-03 0. -1.
         22    1    1    0    0    0  0.30212308018E+02  0.88955446673E+01 -0.27048923993E+01  0.31610610776E+02  0.00000000000E+00 0. -1.
</event>
<event>
 5    1  0.1681111E-003  0.9118800E+02  0.7818608E-02  0.1130116E+00
         25   -1    0    0    0    0  0.00000000000E+00  0.00000000000E+00  0.99999998245E-14  0.12500000000E+03  0.12500000000E+03 0.  0.
        -11    1    3    3    0    0 -0.18118423005E+01  0.31201961589E+02  0.19981094602E+02  0.37095677932E+02  0.51100000000E-03 0.  1.
         23    2    1    0    0    0  0.26584969819E+02 -0.80442460620E+01 -0.11574835311E+02  0.94909348171E+02  0.90012982635E+02 0.  0.
         11    1    3    3    0    0  0.28396812120E+02 -0.39246207651E+02 -0.31555929913E+02  0.57813670239E+02  0.51100000000E-03 0. -1.
         22    1    1    0    0    0 -0.26584969819E+02  0.80442460620E+01  0.11574835311E+02  0.30090651829E+02  0.00000000000E+00 0. -1.
</event>
<event>
 5    1  0.1681111E-003  0.9118800E+02  0.7818608E-02  0.1130116E+00
         25   -1    0    0    0    0  0.00000000000E+00  0.00000000000E+00  0.99999998245E-14  0.12500000000E+03  0.12500000000E+03 0.  0.
        -11    1    3    3    0    0 -0.10324909355E+02 -0.22504420988E+02  0.34719715919E+02  0.42644007679E+02  0.51100000000E-03 0.  1.
         23    2    1    0    0    0 -0.48851842519E+01  0.23931756132E+02  0.52307537472E+00  0.10056912641E+03  0.97556555912E+02 0.  0.
         11    1    3    3    0    0  0.54397251033E+01  0.46436177120E+02 -0.34196640544E+02  0.57925118726E+02  0.51100000000E-03 0. -1.
         22    1    1    0    0    0  0.48851842519E+01 -0.23931756132E+02 -0.52307537472E+00  0.24430873595E+02  0.00000000000E+00 0. -1.
</event>
<event>
 5    1  0.1681111E-003  0.9118800E+02  0.7818608E-02  0.1130116E+00
         25   -1    0    0    0    0  0.00000000000E+00  0.00000000000E+00  0.99999998245E-14  0.12500000000E+03  0.12500000000E+03 0.  0.
        -11    1    3    3    0    0  0.25188387753E+02 -0.12523295593E+02  0.45563666886E+02  0.53547507416E+02  0.51100000000E-03 0. -1.
         23    2    1    0    0    0  0.27785187166E+02 -0.34812437522E+01  0.33486364198E+01  0.96798066560E+02  0.92598685952E+02 0.  0.
         11    1    3    3    0    0  0.25967994121E+01  0.90420518405E+01 -0.42215030467E+02  0.43250559144E+02  0.51100000000E-03 0.  1.
         22    1    1    0    0    0 -0.27785187166E+02  0.34812437522E+01 -0.33486364198E+01  0.28201933440E+02  0.00000000000E+00 0. -1.
</event>
<event>
 5    1  0.1681111E-003  0.9118800E+02  0.7818608E-02  0.1130116E+00
         25   -1    0    0    0    0  0.00000000000E+00  0.00000000000E+00  0.99999998245E-14  0.12500000000E+03  0.12500000000E+03 0.  0.
        -11    1    3    3    0    0 -0.13013227831E+02 -0.42889152265E+02 -0.43461633552E+02  0.62431859430E+02  0.51100000000E-03 0.  1.
         23    2    1    0    0    0 -0.76708592244E+01 -0.20722479613E+02 -0.19191095155E+02  0.95732930181E+02  0.91149506555E+02 0.  0.
         11    1    3    3    0    0  0.53423686070E+01  0.22166672653E+02  0.24270538396E+02  0.33301070751E+02  0.51100000000E-03 0. -1.
         22    1    1    0    0    0  0.76708592244E+01  0.20722479613E+02  0.19191095155E+02  0.29267069819E+02  0.00000000000E+00 0.  1.
</event>
<event>
 5    1  0.1681111E-003  0.9118800E+02  0.7818608E-02  0.1130116E+00
         25   -1    0    0    0    0  0.00000000000E+00  0.00000000000E+00  0.99999998245E-14  0.12500000000E+03  0.12500000000E+03 0.  0.
        -11    1    3    3    0    0 -0.46796877671E+02 -0.52388993935E+01 -0.14368691878E+02  0.49232642963E+02  0.51100000000E-03 0. -1.
         23    2    1    0    0    0 -0.15024622029E+02 -0.45598352451E+01  0.22281416659E+02  0.97742104027E+02  0.93864402234E+02 0.  0.
         11    1    3    3    0    0  0.31772255642E+02  0.67906414846E+00  0.36650108536E+02  0.48509461064E+02  0.51100000000E-03 0.  1.
         22    1    1    0    0    0  0.15024622029E+02  0.45598352451E+01 -0.22281416659E+02  0.27257895973E+02  0.00000000000E+00 0.  1.
</event>
<event>
 5    1  0.1681111E-003  0.9118800E+02  0.7818608E-02  0.1130116E+00
         25   -1    0    0    0    0  0.00000000000E+00  0.00000000000E+00  0.99999998245E-14  0.12500000000E+03  0.12500000000E+03 0.  0.
        -11    1    3    3    0    0 -0.29568870594E+01  0.31209296086E+02 -0.22565493418E+02  0.38625960657E+02  0.51100000000E-03 0.  1.
         23    2    1    0    0    0  0.24202127621E+02 -0.38880637957E+01  0.14563299403E+02  0.96487727012E+02  0.92178803165E+02 0.  0.
         11    1    3    3    0    0  0.27159014680E+02 -0.35097359881E+02  0.37128792821E+02  0.57861766354E+02  0.51100000000E-03 0. -1.
         22    1    1    0    0    0 -0.24202127621E+02  0.38880637957E+01 -0.14563299403E+02  0.28512272988E+02  0.00000000000E+00 0. -1.
</event>
<event>
 5    1  0.1681111E-003  0.9118800E+02  0.7818608E-02  0.1130116E+00
         25   -1    0    0    0    0  0.00000000000E+00  0.00000000000E+00  0.99999998245E-14  0.12500000000E+03  0.12500000000E+03 0.  0.
        -11    1    3    3    0    0 -0.16189624612E+02  0.30977103421E+02  0.24395322596E+02  0.42624132206E+02  0.51100000000E-03 0.  1.
         23    2    1    0    0    0  0.15784075613E+02  0.17225903328E+02 -0.16553531706E+02  0.96366310046E+02  0.92014007149E+02 0.  0.
         11    1    3    3    0    0  0.31973700226E+02 -0.13751200093E+02 -0.40948854302E+02  0.53742177840E+02  0.51100000000E-03 0. -1.
         22    1    1    0    0    0 -0.15784075613E+02 -0.17225903328E+02  0.16553531706E+02  0.28633689954E+02  0.00000000000E+00 0. -1.
</event>
<event>
 5    1  0.1681111E-003  0.9118800E+02  0.7818608E-02  0.1130116E+00
         25   -1    0    0    0    0  0.00000000000E+00  0.00000000000E+00  0.99999998245E-14  0.12500000000E+03  0.12500000000E+03 0.  0.
        -11    1    3    3    0    0 -0.48167667521E+02  0.18789804452E+02  0.33067937502E+02  0.61373198031E+02  0.51100000000E-03 0. -1.
         23    2    1    0    0    0 -0.27248041304E+02  0.64069311063E+01  0.89606104081E+01  0.95609575369E+02  0.90980183789E+02 0.  0.
         11    1    3    3    0    0  0.20919626217E+02 -0.12382873346E+02 -0.24107327094E+02  0.34236377338E+02  0.51100000000E-03 0.  1.
         22    1    1    0    0    0  0.27248041304E+02 -0.64069311063E+01 -0.89606104081E+01  0.29390424631E+02  0.00000000000E+00 0. -1.
</event>
<event>
 5    1  0.1681111E-003  0.9118800E+02  0.7818608E-02  0.1130116E+00
         25   -1    0    0    0    0  0.00000000000E+00  0.00000000000E+00  0.99999998245E-14  0.12500000000E+03  0.12500000000E+03 0.  0.
        -11    1    3    3    0    0 -0.41415008210E+01 -0.14625659553E+02  0.26913696489E+02  0.30909691124E+02  0.51100000000E-03 0.  1.
         23    2    1    0    0    0 -0.33127479973E+01 -0.22757469315E+02 -0.29321432137E+02  0.87735766592E+02  0.79428846448E+02 0.  0.
         11    1    3    3    0    0  0.82875282369E+00 -0.81318097626E+01 -0.56235128626E+02  0.56826075468E+02  0.51100000000E-03 0. -1.
         22    1    1    0    0    0  0.33127479973E+01  0.22757469315E+02  0.29321432137E+02  0.37264233408E+02  0.00000000000E+00 0. -1.
</event>
<event>
 5    1  0.1681111E-003  0.9118800E+02  0.7818608E-02  0.1130116E+00
         25   -1    0    0    0    0  0.00000000000E+00  0.00000000000E+00  0.99999998245E-14  0.12500000000E+03  0.12500000000E+03 0.  0.
        -11    1    3    3    0    0 -0.30611956029E+02 -0.45154199197E+02 -0.10440266214E+02  0.55542710736E+02  0.51100000000E-03 0.  1.
         23    2    1    0    0    0 -0.29529738392E+02 -0.94057133776E+01  0.32506555165E+01  0.93838490811E+02  0.88513404085E+02 0.  0.
         11    1    3    3    0    0  0.10822176367E+01  0.35748485820E+02  0.13690921730E+02  0.38295780074E+02  0.51100000000E-03 0. -1.
         22    1    1    0    0    0  0.29529738392E+02  0.94057133776E+01 -0.32506555165E+01  0.31161509189E+02  0.00000000000E+00 0.  1.
</event>
<event>
 5    1  0.1681111E-003  0.9118800E+02  0.7818608E-02  0.1130116E+00
         25   -1    0    0    0    0  0.00000000000E+00  0.00000000000E+00  0.99999998245E-14  0.12500000000E+03  0.12500000000E+03 0.  0.
        -11    1    3    3    0    0 -0.28633339584E+02  0.68124350502E+01  0.17476669613E+02  0.34230270056E+02  0.51100000000E-03 0. -1.
         23    2    1    0    0    0  0.67799291180E+01 -0.53213194118E+01 -0.29482034016E+02  0.94283974723E+02  0.89140303347E+02 0.  0.
         11    1    3    3    0    0  0.35413268702E+02 -0.12133754462E+02 -0.46958703628E+02  0.60053704667E+02  0.51100000000E-03 0.  1.
         22    1    1    0    0    0 -0.67799291180E+01  0.53213194118E+01  0.29482034016E+02  0.30716025277E+02  0.00000000000E+00 0.  1.
</event>
<event>
 5    1  0.1681111E-003  0.9118800E+02  0.7818608E-02  0.1130116E+00
         25   -1    0    0    0    0  0.00000000000E+00  0.00000000000E+00  0.99999998245E-14  0.12500000000E+03  0.12500000000E+03 0.  0.
        -11    1    3    3    0    0  0.33708592493E+02  0.18915082110E+02 -0.48466912315E+02  0.61992669959E+02  0.51100000000E-03 0. -1.
         23    2    1    0    0    0  0.19654755879E+02  0.86829463118E+01 -0.18457608418E+02  0.96673576050E+02  0.92430482052E+02 0.  0.
         11    1    3    3    0    0 -0.14053836614E+02 -0.10232135798E+02  0.30009303897E+02  0.34680906090E+02  0.51100000000E-03 0.  1.
         22    1    1    0    0    0 -0.19654755879E+02 -0.86829463118E+01  0.18457608418E+02  0.28326423950E+02  0.00000000000E+00 0. -1.
</event>
<event>
 5    1  0.1681111E-003  0.9118800E+02  0.7818608E-02  0.1130116E+00
         25   -1    0    0    0    0  0.00000000000E+00  0.00000000000E+00  0.99999998245E-14  0.12500000000E+03  0.12500000000E+03 0.  0.
        -11    1    3    3    0    0 -0.14019395823E+02  0.14811586539E+02  0.28284329450E+02  0.34870185656E+02  0.51100000000E-03 0.  1.
         23    2    1    0    0    0  0.72761349634E+01 -0.22129603290E+02 -0.16304787456E+02  0.96565732368E+02  0.92284522495E+02 0.  0.
         11    1    3    3    0    0  0.21295530786E+02 -0.36941189829E+02 -0.44589116906E+02  0.61695546712E+02  0.51100000000E-03 0. -1.
         22    1    1    0    0    0 -0.72761349634E+01  0.22129603290E+02  0.16304787456E+02  0.28434267632E+02  0.00000000000E+00 0. -1.
</event>
<event>
 5    1  0.1681111E-003  0.9118800E+02  0.7818608E-02  0.1130116E+00
         25   -1    0    0    0    0  0.00000000000E+00  0.00000000000E+00  0.99999998245E-14  0.12500000000E+03  0.12500000000E+03 0.  0.
        -11    1    3    3    0    0 -0.18515655078E+02 -0.45951362269E+02  0.35881485419E+02  0.61170566234E+02  0.51100000000E-03 0.  1.
         23    2    1    0    0    0 -0.16479845327E+02 -0.16963672036E+02  0.17848698187E+02  0.95370158659E+02  0.90650646245E+02 0.  0.
         11    1    3    3    0    0  0.20358097510E+01  0.28987690233E+02 -0.18032787232E+02  0.34199592424E+02  0.51100000000E-03 0. -1.
         22    1    1    0    0    0  0.16479845327E+02  0.16963672036E+02 -0.17848698187E+02  0.29629841341E+02  0.00000000000E+00 0.  1.
</event>
<event>
 5    1  0.1681111E-003  0.9118800E+02  0.7818608E-02  0.1130116E+00
         25   -1    0    0    0    0  0.00000000000E+00  0.00000000000E+00  0.99999998245E-14  0.12500000000E+03  0.12500000000E+03 0.  0.
        -11    1    3    3    0    0 -0.21775663266E+02  0.10639686302E+02 -0.45028927849E+02  0.51136941430E+02  0.51100000000E-03 0. -1.
         23    2    1    0    0    0 -0.16778137770E+02 -0.20566153013E+02 -0.16261476467E+02  0.93872710146E+02  0.88561715975E+02 0.  0.
         11    1    3    3    0    0  0.49975254964E+01 -0.31205839315E+02  0.28767451383E+02  0.42735768716E+02  0.51100000000E-03 0.  1.
         22    1    1    0    0    0  0.16778137770E+02  0.20566153013E+02  0.16261476467E+02  0.31127289854E+02  0.00000000000E+00 0.  1.
</event>
<event>
 5    1  0.1681111E-003  0.9118800E+02  0.7818608E-02  0.1130116E+00
         25   -1    0    0    0    0  0.00000000000E+00  0.00000000000E+00  0.99999998245E-14  0.12500000000E+03  0.12500000000E+03 0.  0.
        -11    1    3    3    0    0  0.37344911548E+02 -0.46639006448E+02  0.14493487075E+02  0.61480895478E+02  0.51100000000E-03 0. -1.
         23    2    1    0    0    0  0.17903862072E+02 -0.22283725051E+02 -0.12349142521E+01  0.96388154683E+02  0.92043678060E+02 0.  0.
         11    1    3    3    0    0 -0.19441049476E+02  0.24355281397E+02 -0.15728401327E+02  0.34907259205E+02  0.51100000000E-03 0.  1.
         22    1    1    0    0    0 -0.17903862072E+02  0.22283725051E+02  0.12349142521E+01  0.28611845317E+02  0.00000000000E+00 0. -1.
</event>
<event>
 5    1  0.1681111E-003  0.9118800E+02  0.7818608E-02  0.1130116E+00
         25   -1    0    0    0    0  0.00000000000E+00  0.00000000000E+00  0.99999998245E-14  0.12500000000E+03  0.12500000000E+03 0.  0.
        -11    1    3    3    0    0 -0.10915642470E+02  0.38170727820E+02 -0.33903079900E+02  0.52207035348E+02  0.51100000000E-03 0.  1.
         23    2    1    0    0    0  0.10626042491E+02  0.37135942312E+00 -0.26640898064E+02  0.96315716210E+02  0.91945250299E+02 0.  0.
         11    1    3    3    0    0  0.21541684961E+02 -0.37799368397E+02  0.72621818362E+01  0.44108680863E+02  0.51100000000E-03 0. -1.
         22    1    1    0    0    0 -0.10626042491E+02 -0.37135942312E+00  0.26640898064E+02  0.28684283790E+02  0.00000000000E+00 0.  1.
</event>
<event>
 5    1  0.1681111E-003  0.9118800E+02  0.7818608E-02  0.1130116E+00
         25   -1    0    0    0    0  0.00000000000E+00  0.00000000000E+00  0.99999998245E-14  0.12500000000E+03  0.12500000000E+03 0.  0.
        -11    1    3    3    0    0  0.19387096411E+02 -0.38306954543E+02  0.88013864462E+01  0.43826324021E+02  0.51100000000E-03 0.  1.
         23    2    1    0    0    0  0.23693737400E+02  0.14450132707E+02  0.24185104227E+01  0.97142348988E+02  0.93062276176E+02 0.  0.
         11    1    3    3    0    0  0.43066409892E+01  0.52757087249E+02 -0.63828760234E+01  0.53316024967E+02  0.51100000000E-03 0. -1.
         22    1    1    0    0    0 -0.23693737400E+02 -0.14450132707E+02 -0.24185104227E+01  0.27857651012E+02  0.00000000000E+00 0.  1.
</event>
<event>
 5    1  0.1681111E-003  0.9118800E+02  0.7818608E-02  0.1130116E+00
         25   -1    0    0    0    0  0.00000000000E+00  0.00000000000E+00  0.99999998245E-14  0.12500000000E+03  0.12500000000E+03 0.  0.
        -11    1    3    3    0    0 -0.81785059460E+01  0.35905974108E+02 -0.86190775088E+01  0.37820833326E+02  0.51100000000E-03 0.  1.
         23    2    1    0    0    0  0.29690808371E+02 -0.24568780854E+01  0.78590207123E+01  0.94188564489E+02  0.89006410569E+02 0.  0.
         11    1    3    3    0    0  0.37869314317E+02 -0.38362852193E+02  0.16478098221E+02  0.56367731163E+02  0.51100000000E-03 0. -1.
         22    1    1    0    0    0 -0.29690808371E+02  0.24568780854E+01 -0.78590207123E+01  0.30811435511E+02  0.00000000000E+00 0. -1.
</event>
<event>
 5    1  0.1681111E-003  0.9118800E+02  0.7818608E-02  0.1130116E+00
         25   -1    0    0    0    0  0.00000000000E+00  0.00000000000E+00  0.99999998245E-14  0.12500000000E+03  0.12500000000E+03 0.  0.
        -11    1    3    3    0    0 -0.35797859636E+02  0.14508412363E+01 -0.71151508002E+01  0.36526936171E+02  0.51100000000E-03 0. -1.
         23    2    1    0    0    0  0.25135893511E+02 -0.53973976305E+01 -0.86832006418E+01  0.97864358914E+02  0.94027069126E+02 0.  0.
         11    1    3    3    0    0  0.60933753147E+02 -0.68482388669E+01 -0.15680498416E+01  0.61337422743E+02  0.51100000000E-03 0.  1.
         22    1    1    0    0    0 -0.25135893511E+02  0.53973976305E+01  0.86832006418E+01  0.27135641086E+02  0.00000000000E+00 0.  1.
</event>
<event>
 5    1  0.1681111E-003  0.9118800E+02  0.7818608E-02  0.1130116E+00
         25   -1    0    0    0    0  0.00000000000E+00  0.00000000000E+00  0.99999998245E-14  0.12500000000E+03  0.12500000000E+03 0.  0.
        -11    1    3    3    0    0  0.15553704781E+02  0.28296414292E+02 -0.46194563182E+02  0.56360823823E+02  0.51100000000E-03 0.  1.
         23    2    1    0    0    0 -0.10805238787E+02  0.77994668166E+01 -0.27038473255E+02  0.94855947455E+02  0.89938795098E+02 0.  0.
         11    1    3    3    0    0 -0.26358943568E+02 -0.20496947476E+02  0.19156089927E+02  0.38495123632E+02  0.51100000000E-03 0. -1.
         22    1    1    0    0    0  0.10805238787E+02 -0.77994668166E+01  0.27038473255E+02  0.30144052545E+02  0.00000000000E+00 0.  1.
</event>
<event>
 5    1  0.1681111E-003  0.9118800E+02  0.7818608E-02  0.1130116E+00
         25   -1    0    0    0    0  0.00000000000E+00  0.00000000000E+00  0.99999998245E-14  0.12500000000E+03  0.12500000000E+03 0.  0.
        -11    1    3    3    0    0  0.34763114387E+02  0.34148435530E+02  0.23689905575E+01  0.48787312773E+02  0.51100000000E-03 0.  1.
         23    2    1    0    0    0 -0.73292204633E+00  0.14171114118E+02  0.25638091481E+02  0.95696938985E+02  0.91100135818E+02 0.  0.
         11    1    3    3    0    0 -0.35496036433E+02 -0.19977321412E+02  0.23269100924E+02  0.46909626212E+02  0.51100000000E-03 0. -1.
         22    1    1    0    0    0  0.73292204633E+00 -0.14171114118E+02 -0.25638091481E+02  0.29303061015E+02  0.00000000000E+00 0. -1.
</event>
<event>
 5    1  0.1681111E-003  0.9118800E+02  0.7818608E-02  0.1130116E+00
         25   -1    0    0    0    0  0.00000000000E+00  0.00000000000E+00  0.99999998245E-14  0.12500000000E+03  0.12500000000E+03 0.  0.
        -11    1    3    3    0    0  0.16393653205E+02 -0.14016353698E+02 -0.26779408593E+02  0.34385269539E+02  0.51100000000E-03 0.  1.
         23    2    1    0    0    0 -0.76293022797E+01  0.88825215573E+01  0.25859410961E+02  0.96613126665E+02  0.92348696072E+02 0.  0.
         11    1    3    3    0    0 -0.24022955485E+02  0.22898875256E+02  0.52638819554E+02  0.62227857126E+02  0.51100000000E-03 0. -1.
         22    1    1    0    0    0  0.76293022797E+01 -0.88825215573E+01 -0.25859410961E+02  0.28386873335E+02  0.00000000000E+00 0. -1.
</event>
<event>
 5    1  0.1681111E-003  0.9118800E+02  0.7818608E-02  0.1130116E+00
         25   -1    0    0    0    0  0.00000000000E+00  0.00000000000E+00  0.99999998245E-14  0.12500000000E+03  0.12500000000E+03 0.  0.
        -11    1    3    3    0    0  0.77423447141E+01 -0.59791579114E+02 -0.14349109568E+02  0.61974783422E+02  0.51100000000E-03 0.  1.
         23    2    1    0    0    0 -0.18943586106E+01 -0.29941557502E+02 -0.67880896358E+01  0.94240227226E+02  0.89078935819E+02 0.  0.
         11    1    3    3    0    0 -0.96367033247E+01  0.29850021612E+02  0.75610199325E+01  0.32265443804E+02  0.51100000000E-03 0. -1.
         22    1    1    0    0    0  0.18943586106E+01  0.29941557502E+02  0.67880896358E+01  0.30759772774E+02  0.00000000000E+00 0.  1.
</event>
<event>
 5    1  0.1681111E-003  0.9118800E+02  0.7818608E-02  0.1130116E+00
         25   -1    0    0    0    0  0.00000000000E+00  0.00000000000E+00  0.99999998245E-14  0.12500000000E+03  0.12500000000E+03 0.  0.
        -11    1    3    3    0    0 -0.18081030156E+02 -0.98376045597E+01 -0.49609505401E+02  0.53710382063E+02  0.51100000000E-03 0.  1.
         23    2    1    0    0    0  0.15097013826E+02 -0.29029020544E+01 -0.25202942635E+02  0.95478228640E+02  0.90799543831E+02 0.  0.
         11    1    3    3    0    0  0.33178043982E+02  0.69347025054E+01  0.24406562767E+02  0.41767846577E+02  0.51100000000E-03 0. -1.
         22    1    1    0    0    0 -0.15097013826E+02  0.29029020544E+01  0.25202942635E+02  0.29521771360E+02  0.00000000000E+00 0. -1.
</event>
<event>
 5    1  0.1681111E-003  0.9118800E+02  0.7818608E-02  0.1130116E+00
         25   -1    0    0    0    0  0.00000000000E+00  0.00000000000E+00  0.99999998245E-14  0.12500000000E+03  0.12500000000E+03 0.  0.
        -11    1    3    3    0    0 -0.24242381233E+02  0.33941464865E+02  0.17546288247E+02  0.45250285264E+02  0.51100000000E-03 0. -1.
         23    2    1    0    0    0  0.16090022302E+02  0.23055723760E+02 -0.98517985894E+01  0.95208841056E+02  0.90427928563E+02 0.  0.
         11    1    3    3    0    0  0.40332403534E+02 -0.10885741105E+02 -0.27398086837E+02  0.49958555792E+02  0.51100000000E-03 0.  1.
         22    1    1    0    0    0 -0.16090022302E+02 -0.23055723760E+02  0.98517985894E+01  0.29791158944E+02  0.00000000000E+00 0. -1.
</event>
<event>
 5    1  0.1681111E-003  0.9118800E+02  0.7818608E-02  0.1130116E+00
         25   -1    0    0    0    0  0.00000000000E+00  0.00000000000E+00  0.99999998245E-14  0.12500000000E+03  0.12500000000E+03 0.  0.
        -11    1    3    3    0    0  0.47900490946E+02  0.76381471565E+01  0.16718670747E+02  0.51306064716E+02  0.51100000000E-03 0.  1.
         23    2    1    0    0    0  0.13445905574E+02  0.27349421747E+02 -0.36787227230E+00  0.94521834428E+02  0.89473228437E+02 0.  0.
         11    1    3    3    0    0 -0.34454585372E+02  0.19711274591E+02 -0.17086543019E+02  0.43215769712E+02  0.51100000000E-03 0. -1.
         22    1    1    0    0    0 -0.13445905574E+02 -0.27349421747E+02  0.36787227230E+00  0.30478165572E+02  0.00000000000E+00 0.  1.
</event>
<event>
 5    1  0.1681111E-003  0.9118800E+02  0.7818608E-02  0.1130116E+00
         25   -1    0    0    0    0  0.00000000000E+00  0.00000000000E+00  0.99999998245E-14  0.12500000000E+03  0.12500000000E+03 0.  0.
        -11    1    3    3    0    0 -0.21289457308E+02 -0.43032745363E+01 -0.38081024617E+02  0.43839749091E+02  0.51100000000E-03 0.  1.
         23    2    1    0    0    0  0.25093198272E+02 -0.83503626905E-01 -0.13747063654E+02  0.96387811488E+02  0.92043211982E+02 0.  0.
         11    1    3    3    0    0  0.46382655580E+02  0.42197709094E+01  0.24333960963E+02  0.52548062396E+02  0.51100000000E-03 0. -1.
         22    1    1    0    0    0 -0.25093198272E+02  0.83503626905E-01  0.13747063654E+02  0.28612188512E+02  0.00000000000E+00 0. -1.
</event>
<event>
 5    1  0.1681111E-003  0.9118800E+02  0.7818608E-02  0.1130116E+00
         25   -1    0    0    0    0  0.00000000000E+00  0.00000000000E+00  0.99999998245E-14  0.12500000000E+03  0.12500000000E+03 0.  0.
        -11    1    3    3    0    0 -0.17828303363E+02  0.25835034774E+02 -0.20057875928E+02  0.37250715558E+02  0.51100000000E-03 0. -1.
         23    2    1    0    0    0  0.28794058598E+02  0.39712706979E+01  0.65372141544E+01  0.95207316831E+02  0.90425821577E+02 0.  0.
         11    1    3    3    0    0  0.46622361960E+02 -0.21863764076E+02  0.26595090083E+02  0.57956601273E+02  0.51100000000E-03 0.  1.
         22    1    1    0    0    0 -0.28794058598E+02 -0.39712706979E+01 -0.65372141544E+01  0.29792683169E+02  0.00000000000E+00 0.  1.
</event>
<event>
 5    1  0.1681111E-003  0.9118800E+02  0.7818608E-02  0.1130116E+00
         25   -1    0    0    0    0  0.00000000000E+00  0.00000000000E+00  0.99999998245E-14  0.12500000000E+03  0.12500000000E+03 0.  0.
        -11    1    3    3    0    0  0.57349903531E+02 -0.22940635640E+02  0.15788825581E+01  0.61788162855E+02  0.51100000000E-03 0. -1.
         23    2    1    0    0    0  0.26882523710E+02 -0.11294670745E+02 -0.58959450639E+01  0.95251019573E+02  0.90486213829E+02 0.  0.
         11    1    3    3    0    0 -0.30467379821E+02  0.11645964895E+02 -0.74748276221E+01  0.33462856718E+02  0.51100000000E-03 0.  1.
         22    1    1    0    0    0 -0.26882523710E+02  0.11294670745E+02  0.58959450639E+01  0.29748980427E+02  0.00000000000E+00 0. -1.
</event>
<event>
 5    1  0.1681111E-003  0.9118800E+02  0.7818608E-02  0.1130116E+00
         25   -1    0    0    0    0  0.00000000000E+00  0.00000000000E+00  0.99999998245E-14  0.12500000000E+03  0.12500000000E+03 0.  0.
        -11    1    3    3    0    0  0.18632195305E+02 -0.45093475483E+02  0.93348650547E+01  0.49676150604E+02  0.51100000000E-03 0. -1.
         23    2    1    0    0    0  0.28963260408E+02 -0.99178032373E+00 -0.44870013829E+00  0.96016290550E+02  0.91537274579E+02 0.  0.
         11    1    3    3    0    0  0.10331065103E+02  0.44101695159E+02 -0.97835651930E+01  0.46340139946E+02  0.51100000000E-03 0.  1.
         22    1    1    0    0    0 -0.28963260408E+02  0.99178032373E+00  0.44870013829E+00  0.28983709450E+02  0.00000000000E+00 0. -1.
</event>
<event>
 5    1  0.1681111E-003  0.9118800E+02  0.7818608E-02  0.1130116E+00
         25   -1    0    0    0    0  0.00000000000E+00  0.00000000000E+00  0.99999998245E-14  0.12500000000E+03  0.12500000000E+03 0.  0.
        -11    1    3    3    0    0  0.19921622119E+02  0.33840327856E+02  0.56224221762E+01  0.39669263273E+02  0.51100000000E-03 0. -1.
         23    2    1    0    0    0  0.23157669025E+02 -0.20346369070E+02  0.84614573552E+00  0.94162225573E+02  0.88969412684E+02 0.  0.
         11    1    3    3    0    0  0.32360469052E+01 -0.54186696926E+02 -0.47762764406E+01  0.54492962300E+02  0.51100000000E-03 0.  1.
         22    1    1    0    0    0 -0.23157669025E+02  0.20346369070E+02 -0.84614573552E+00  0.30837774427E+02  0.00000000000E+00 0.  1.
</event>
<event>
 5    1  0.1681111E-003  0.9118800E+02  0.7818608E-02  0.1130116E+00
         25   -1    0    0    0    0  0.00000000000E+00  0.00000000000E+00  0.99999998245E-14  0.12500000000E+03  0.12500000000E+03 0.  0.
        -11    1    3    3    0    0 -0.35165168628E+02  0.14467406021E+01 -0.97697587388E+01  0.36525748851E+02  0.51100000000E-03 0.  1.
         23    2    1    0    0    0  0.11767545902E+02  0.19856058304E+02  0.19468267581E+02  0.94804774707E+02  0.89867645327E+02 0.  0.
         11    1    3    3    0    0  0.46932714530E+02  0.18409317702E+02  0.29238026319E+02  0.58279025856E+02  0.51100000000E-03 0. -1.
         22    1    1    0    0    0 -0.11767545902E+02 -0.19856058304E+02 -0.19468267581E+02  0.30195225293E+02  0.00000000000E+00 0. -1.
</event>
<event>
 5    1  0.1681111E-003  0.9118800E+02  0.7818608E-02  0.1130116E+00
         25   -1    0    0    0    0  0.00000000000E+00  0.00000000000E+00  0.99999998245E-14  0.12500000000E+03  0.12500000000E+03 0.  0.
        -11    1    3    3    0    0 -0.13969356982E+02 -0.38564180313E+02  0.21448117494E+02  0.46285642288E+02  0.51100000000E-03 0. -1.
         23    2    1    0    0    0 -0.27065521629E+02 -0.38493580140E+01 -0.10957662811E+02  0.95547828731E+02  0.90895308915E+02 0.  0.
         11    1    3    3    0    0 -0.13096164648E+02  0.34714822299E+02 -0.32405780305E+02  0.49262186443E+02  0.51100000000E-03 0.  1.
         22    1    1    0    0    0  0.27065521629E+02  0.38493580140E+01  0.10957662811E+02  0.29452171269E+02  0.00000000000E+00 0. -1.
</event>
<event>
 5    1  0.1681111E-003  0.9118800E+02  0.7818608E-02  0.1130116E+00
         25   -1    0    0    0    0  0.00000000000E+00  0.00000000000E+00  0.99999998245E-14  0.12500000000E+03  0.12500000000E+03 0.  0.
        -11    1    3    3    0    0  0.41758564414E+02  0.20924740915E+02 -0.55473679952E+01  0.47036111406E+02  0.51100000000E-03 0.  1.
         23    2    1    0    0    0  0.19411942776E+02 -0.19195399358E+02  0.10597634787E+02  0.95715247279E+02  0.91125253468E+02 0.  0.
         11    1    3    3    0    0 -0.22346621638E+02 -0.40120140273E+02  0.16145002782E+02  0.48679135872E+02  0.51100000000E-03 0. -1.
         22    1    1    0    0    0 -0.19411942776E+02  0.19195399358E+02 -0.10597634787E+02  0.29284752721E+02  0.00000000000E+00 0. -1.
</event>
<event>
 5    1  0.1681111E-003  0.9118800E+02  0.7818608E-02  0.1130116E+00
         25   -1    0    0    0    0  0.00000000000E+00  0.00000000000E+00  0.99999998245E-14  0.12500000000E+03  0.12500000000E+03 0.  0.
        -11    1    3    3    0    0 -0.31565144827E+02  0.30129404894E+02 -0.31270135877E+02  0.53683897076E+02  0.51100000000E-03 0. -1.
         23    2    1    0    0    0 -0.12146081341E+01  0.70600576516E+00 -0.28946579614E+02  0.96019348034E+02  0.91541449674E+02 0.  0.
         11    1    3    3    0    0  0.30350536693E+02 -0.29423399129E+02  0.23235562637E+01  0.42335450958E+02  0.51100000000E-03 0.  1.
         22    1    1    0    0    0  0.12146081341E+01 -0.70600576516E+00  0.28946579614E+02  0.28980651966E+02  0.00000000000E+00 0. -1.
</event>
<event>
 5    1  0.1681111E-003  0.9118800E+02  0.7818608E-02  0.1130116E+00
         25   -1    0    0    0    0  0.00000000000E+00  0.00000000000E+00  0.99999998245E-14  0.12500000000E+03  0.12500000000E+03 0.  0.
        -11    1    3    3    0    0 -0.31618374754E+02  0.32595133720E+02  0.85847980828E+01  0.46215399194E+02  0.51100000000E-03 0.  1.
         23    2    1    0    0    0 -0.22321449945E+02 -0.16680744752E+02 -0.25144298363E+00  0.97133216965E+02  0.93050009357E+02 0.  0.
         11    1    3    3    0    0  0.92969248092E+01 -0.49275878472E+02 -0.88362410665E+01  0.50917817771E+02  0.51100000000E-03 0. -1.
         22    1    1    0    0    0  0.22321449945E+02  0.16680744752E+02  0.25144298363E+00  0.27866783035E+02  0.00000000000E+00 0.  1.
</event>
<event>
 5    1  0.1681111E-003  0.9118800E+02  0.7818608E-02  0.1130116E+00
         25   -1    0    0    0    0  0.00000000000E+00  0.00000000000E+00  0.99999998245E-14  0.12500000000E+03  0.12500000000E+03 0.  0.
        -11    1    3    3    0    0 -0.95727831997E+01 -0.21257475631E+01  0.37855109346E+02  0.39104555805E+02  0.51100000000E-03 0.  1.
         23    2    1    0    0    0  0.85418021252E+01 -0.18654636528E+02 -0.16458316636E+02  0.98697261853E+02  0.95127890039E+02 0.  0.
         11    1    3    3    0    0  0.18114585325E+02 -0.16528888965E+02 -0.54313425982E+02  0.59592706047E+02  0.51100000000E-03 0. -1.
         22    1    1    0    0    0 -0.85418021252E+01  0.18654636528E+02  0.16458316636E+02  0.26302738147E+02  0.00000000000E+00 0. -1.
</event>
<event>
 5    1  0.1681111E-003  0.9118800E+02  0.7818608E-02  0.1130116E+00
         25   -1    0    0    0    0  0.00000000000E+00  0.00000000000E+00  0.99999998245E-14  0.12500000000E+03  0.12500000000E+03 0.  0.
        -11    1    3    3    0    0  0.55734253225E+02  0.21583636036E+02  0.12023944524E+02  0.60965035629E+02  0.51100000000E-03 0. -1.
         23    2    1    0    0    0  0.23230425494E+02  0.18160300391E+02  0.86572684558E+00  0.95500870150E+02  0.90830708120E+02 0.  0.
         11    1    3    3    0    0 -0.32503827731E+02 -0.34233356453E+01 -0.11158217678E+02  0.34535834521E+02  0.51100000000E-03 0.  1.
         22    1    1    0    0    0 -0.23230425494E+02 -0.18160300391E+02 -0.86572684558E+00  0.29499129850E+02  0.00000000000E+00 0. -1.
</event>
<event>
 5    1  0.1681111E-003  0.9118800E+02  0.7818608E-02  0.1130116E+00
         25   -1    0    0    0    0  0.00000000000E+00  0.00000000000E+00  0.99999998245E-14  0.12500000000E+03  0.12500000000E+03 0.  0.
        -11    1    3    3    0    0  0.26990714721E+02 -0.19643746112E+02  0.26688185523E+02  0.42739147034E+02  0.51100000000E-03 0.  1.
         23    2    1    0    0    0  0.25540431964E+02  0.22956778435E+02  0.59292173399E+01  0.90150567304E+02  0.83142298657E+02 0.  0.
         11    1    3    3    0    0 -0.14502827573E+01  0.42600524546E+02 -0.20758968183E+02  0.47411420269E+02  0.51100000000E-03 0. -1.
         22    1    1    0    0    0 -0.25540431964E+02 -0.22956778435E+02 -0.59292173399E+01  0.34849432696E+02  0.00000000000E+00 0.  1.
</event>
<event>
 5    1  0.1681111E-003  0.9118800E+02  0.7818608E-02  0.1130116E+00
         25   -1    0    0    0    0  0.00000000000E+00  0.00000000000E+00  0.99999998245E-14  0.12500000000E+03  0.12500000000E+03 0.  0.
        -11    1    3    3    0    0  0.20893746449E+02 -0.41755526725E+02 -0.65805471367E+01  0.47152690842E+02  0.51100000000E-03 0.  1.
         23    2    1    0    0    0  0.19903872661E+02 -0.13286051204E+01  0.20948788496E+02  0.96072831491E+02  0.91614452314E+02 0.  0.
         11    1    3    3    0    0 -0.98987378832E+00  0.40426921604E+02  0.27529335633E+02  0.48920140650E+02  0.51100000000E-03 0. -1.
         22    1    1    0    0    0 -0.19903872661E+02  0.13286051204E+01 -0.20948788496E+02  0.28927168509E+02  0.00000000000E+00 0.  1.
</event>
<event>
 5    1  0.1681111E-003  0.9118800E+02  0.7818608E-02  0.1130116E+00
         25   -1    0    0    0    0  0.00000000000E+00  0.00000000000E+00  0.99999998245E-14  0.12500000000E+03  0.12500000000E+03 0.  0.
        -11    1    3    3    0    0  0.33673420115E+02 -0.21680698910E+01 -0.39007751569E+01  0.33967864172E+02  0.51100000000E-03 0. -1.
         23    2    1    0    0    0 -0.28078971165E+02  0.49598261631E+01  0.20397726789E+01  0.96413479228E+02  0.92078063658E+02 0.  0.
         11    1    3    3    0    0 -0.61752391280E+02  0.71278960541E+01  0.59405478358E+01  0.62445615057E+02  0.51100000000E-03 0.  1.
         22    1    1    0    0    0  0.28078971165E+02 -0.49598261631E+01 -0.20397726789E+01  0.28586520772E+02  0.00000000000E+00 0.  1.
</event>
<event>
 5    1  0.1681111E-003  0.9118800E+02  0.7818608E-02  0.1130116E+00
         25   -1    0    0    0    0  0.00000000000E+00  0.00000000000E+00  0.99999998245E-14  0.12500000000E+03  0.12500000000E+03 0.  0.
        -11    1    3    3    0    0  0.26919193612E+02 -0.31403399113E+02  0.94616061083E+01  0.42430395367E+02  0.51100000000E-03 0.  1.
         23    2    1    0    0    0  0.16500571624E+02  0.12468398683E+02 -0.19948350006E+02  0.96265586876E+02  0.91877073958E+02 0.  0.
         11    1    3    3    0    0 -0.10418621988E+02  0.43871797796E+02 -0.29409956114E+02  0.53835191509E+02  0.51100000000E-03 0. -1.
         22    1    1    0    0    0 -0.16500571624E+02 -0.12468398683E+02  0.19948350006E+02  0.28734413124E+02  0.00000000000E+00 0. -1.
</event>
<event>
 5    1  0.1681111E-003  0.9118800E+02  0.7818608E-02  0.1130116E+00
         25   -1    0    0    0    0  0.00000000000E+00  0.00000000000E+00  0.99999998245E-14  0.12500000000E+03  0.12500000000E+03 0.  0.
        -11    1    3    3    0    0  0.24950234871E+02  0.47435020460E+02 -0.90289073198E+01  0.54351785194E+02  0.51100000000E-03 0.  1.
         23    2    1    0    0    0  0.13048195475E+02  0.19760971262E+02  0.18336500729E+02  0.95050398177E+02  0.90208644510E+02 0.  0.
         11    1    3    3    0    0 -0.11902039396E+02 -0.27674049198E+02  0.27365408049E+02  0.40698612983E+02  0.51100000000E-03 0. -1.
         22    1    1    0    0    0 -0.13048195475E+02 -0.19760971262E+02 -0.18336500729E+02  0.29949601823E+02  0.00000000000E+00 0. -1.
</event>
<event>
 5    1  0.1681111E-003  0.9118800E+02  0.7818608E-02  0.1130116E+00
         25   -1    0    0    0    0  0.00000000000E+00  0.00000000000E+00  0.99999998245E-14  0.12500000000E+03  0.12500000000E+03 0.  0.
        -11    1    3    3    0    0 -0.21578038114E+02  0.10932102666E+02 -0.85537580715E+01  0.25657150561E+02  0.51100000000E-03 0.  1.
         23    2    1    0    0    0  0.20092940615E+02 -0.13440049126E+02  0.29308340697E+02  0.87008684973E+02  0.78276249547E+02 0.  0.
         11    1    3    3    0    0  0.41670978728E+02 -0.24372151792E+02  0.37862098769E+02  0.61351534411E+02  0.51100000000E-03 0. -1.
         22    1    1    0    0    0 -0.20092940615E+02  0.13440049126E+02 -0.29308340697E+02  0.37991315027E+02  0.00000000000E+00 0. -1.
</event>
<event>
 5    1  0.1681111E-003  0.9118800E+02  0.7818608E-02  0.1130116E+00
         25   -1    0    0    0    0  0.00000000000E+00  0.00000000000E+00  0.99999998245E-14  0.12500000000E+03  0.12500000000E+03 0.  0.
        -11    1    3    3    0    0  0.10004424107E+02  0.32194094723E+02  0.45766141608E+02  0.56842659638E+02  0.51100000000E-03 0. -1.
         23    2    1    0    0    0  0.71102021284E+01 -0.12205314090E+01  0.30437524575E+02  0.93719213988E+02  0.88344798925E+02 0.  0.
         11    1    3    3    0    0 -0.28942219788E+01 -0.33414626132E+02 -0.15328617033E+02  0.36876554351E+02  0.51100000000E-03 0.  1.
         22    1    1    0    0    0 -0.71102021284E+01  0.12205314090E+01 -0.30437524575E+02  0.31280786012E+02  0.00000000000E+00 0. -1.
</event>
<event>
 5    1  0.1681111E-003  0.9118800E+02  0.7818608E-02  0.1130116E+00
         25   -1    0    0    0    0  0.00000000000E+00  0.00000000000E+00  0.99999998245E-14  0.12500000000E+03  0.12500000000E+03 0.  0.
        -11    1    3    3    0    0 -0.18199818284E+02 -0.26792791997E+02  0.34046081232E+02  0.46991730508E+02  0.51100000000E-03 0.  1.
         23    2    1    0    0    0 -0.26362266019E+02  0.12177318864E+02  0.69859305201E+01  0.95132636715E+02  0.90322528633E+02 0.  0.
         11    1    3    3    0    0 -0.81624477346E+01  0.38970110862E+02 -0.27060150712E+02  0.48140906207E+02  0.51100000000E-03 0. -1.
         22    1    1    0    0    0  0.26362266019E+02 -0.12177318864E+02 -0.69859305201E+01  0.29867363285E+02  0.00000000000E+00 0. -1.
</event>
<event>
 5    1  0.1681111E-003  0.9118800E+02  0.7818608E-02  0.1130116E+00
         25   -1    0    0    0    0  0.00000000000E+00  0.00000000000E+00  0.99999998245E-14  0.12500000000E+03  0.12500000000E+03 0.  0.
        -11    1    3    3    0    0 -0.19533694316E+02  0.18199835098E+02  0.26230820603E+02  0.37427999692E+02  0.51100000000E-03 0. -1.
         23    2    1    0    0    0 -0.85673688977E+01 -0.42202908710E+01 -0.27076368085E+02  0.96288671687E+02  0.91908475788E+02 0.  0.
         11    1    3    3    0    0  0.10966325418E+02 -0.22420125969E+02 -0.53307188687E+02  0.58860671994E+02  0.51100000000E-03 0.  1.
         22    1    1    0    0    0  0.85673688977E+01  0.42202908710E+01  0.27076368085E+02  0.28711328313E+02  0.00000000000E+00 0.  1.
</event>
<event>
 5    1  0.1681111E-003  0.9118800E+02  0.7818608E-02  0.1130116E+00
         25   -1    0    0    0    0  0.00000000000E+00  0.00000000000E+00  0.99999998245E-14  0.12500000000E+03  0.12500000000E+03 0.  0.
        -11    1    3    3    0    0 -0.38015991096E+01  0.56041836809E+02  0.22900561202E+02  0.60659503232E+02  0.51100000000E-03 0. -1.
         23    2    1    0    0    0  0.60244774086E+01  0.35179119486E+02  0.71128185172E+01  0.88606910504E+02  0.80788165135E+02 0.  0.
         11    1    3    3    0    0  0.98260765182E+01 -0.20862717323E+02 -0.15787742685E+02  0.27947407272E+02  0.51100000000E-03 0.  1.
         22    1    1    0    0    0 -0.60244774086E+01 -0.35179119486E+02 -0.71128185172E+01  0.36393089496E+02  0.00000000000E+00 0. -1.
</event>
<event>
 5    1  0.1681111E-003  0.9118800E+02  0.7818608E-02  0.1130116E+00
         25   -1    0    0    0    0  0.00000000000E+00  0.00000000000E+00  0.99999998245E-14  0.12500000000E+03  0.12500000000E+03 0.  0.
        -11    1    3    3    0    0 -0.13476235683E+02  0.11673452423E+02 -0.31646708649E+02  0.36323444057E+02  0.51100000000E-03 0.  1.
         23    2    1    0    0    0  0.33772035800E+02  0.65256691020E+01 -0.68620744179E+01  0.89925467578E+02  0.82803181668E+02 0.  0.
         11    1    3    3    0    0  0.47248271483E+02 -0.51477833206E+01  0.24784634231E+02  0.53602023520E+02  0.51100000000E-03 0. -1.
         22    1    1    0    0    0 -0.33772035800E+02 -0.65256691020E+01  0.68620744179E+01  0.35074532422E+02  0.00000000000E+00 0. -1.
</event>
<event>
 5    1  0.1681111E-003  0.9118800E+02  0.7818608E-02  0.1130116E+00
         25   -1    0    0    0    0  0.00000000000E+00  0.00000000000E+00  0.99999998245E-14  0.12500000000E+03  0.12500000000E+03 0.  0.
        -11    1    3    3    0    0  0.57005418840E+02 -0.16700530341E+02  0.15973594282E+02  0.61511634715E+02  0.51100000000E-03 0. -1.
         23    2    1    0    0    0  0.26003365633E+02 -0.11719777433E+02  0.60362932108E+00  0.96471197438E+02  0.92156385342E+02 0.  0.
         11    1    3    3    0    0 -0.31002053207E+02  0.49807529082E+01 -0.15369964961E+02  0.34959562723E+02  0.51100000000E-03 0.  1.
         22    1    1    0    0    0 -0.26003365633E+02  0.11719777433E+02 -0.60362932108E+00  0.28528802562E+02  0.00000000000E+00 0. -1.
</event>
<event>
 5    1  0.1681111E-003  0.9118800E+02  0.7818608E-02  0.1130116E+00
         25   -1    0    0    0    0  0.00000000000E+00  0.00000000000E+00  0.99999998245E-14  0.12500000000E+03  0.12500000000E+03 0.  0.
        -11    1    3    3    0    0 -0.20742817422E+02  0.18816355459E+02 -0.19973964852E+02  0.34398822357E+02  0.51100000000E-03 0.  1.
         23    2    1    0    0    0  0.12669333025E+02  0.39334336885E+02  0.84419224497E+01  0.82822184597E+02  0.71277949952E+02 0.  0.
         11    1    3    3    0    0  0.33412150447E+02  0.20517981426E+02  0.28415887302E+02  0.48423362241E+02  0.51100000000E-03 0. -1.
         22    1    1    0    0    0 -0.12669333025E+02 -0.39334336885E+02 -0.84419224497E+01  0.42177815403E+02  0.00000000000E+00 0. -1.
</event>
<event>
 5    1  0.1681111E-003  0.9118800E+02  0.7818608E-02  0.1130116E+00
         25   -1    0    0    0    0  0.00000000000E+00  0.00000000000E+00  0.99999998245E-14  0.12500000000E+03  0.12500000000E+03 0.  0.
        -11    1    3    3    0    0  0.48429097742E+02 -0.15455650070E+02  0.30109382721E+02  0.59083242593E+02  0.51100000000E-03 0. -1.
         23    2    1    0    0    0  0.24977787687E+02 -0.15473336202E+02  0.22025298746E+01  0.95535357650E+02  0.90878156961E+02 0.  0.
         11    1    3    3    0    0 -0.23451310056E+02 -0.17686132933E-01 -0.27906852846E+02  0.36452115057E+02  0.51100000000E-03 0.  1.
         22    1    1    0    0    0 -0.24977787687E+02  0.15473336202E+02 -0.22025298746E+01  0.29464642350E+02  0.00000000000E+00 0. -1.
</event>
<event>
 5    1  0.1681111E-003  0.9118800E+02  0.7818608E-02  0.1130116E+00
         25   -1    0    0    0    0  0.00000000000E+00  0.00000000000E+00  0.99999998245E-14  0.12500000000E+03  0.12500000000E+03 0.  0.
        -11    1    3    3    0    0 -0.42749659817E+02 -0.43328946074E+02  0.17537023101E+01  0.60893402388E+02  0.51100000000E-03 0. -1.
         23    2    1    0    0    0 -0.11066789310E+02 -0.25333361403E+02  0.61787131638E+00  0.97347969504E+02  0.93338054275E+02 0.  0.
         11    1    3    3    0    0  0.31682870508E+02  0.17995584671E+02 -0.11358309937E+01  0.36454567115E+02  0.51100000000E-03 0.  1.
         22    1    1    0    0    0  0.11066789310E+02  0.25333361403E+02 -0.61787131638E+00  0.27652030496E+02  0.00000000000E+00 0. -1.
</event>
<event>
 5    1  0.1681111E-003  0.9118800E+02  0.7818608E-02  0.1130116E+00
         25   -1    0    0    0    0  0.00000000000E+00  0.00000000000E+00  0.99999998245E-14  0.12500000000E+03  0.12500000000E+03 0.  0.
        -11    1    3    3    0    0  0.48539837018E+02 -0.16485694657E+02 -0.50396777506E+01  0.51510118017E+02  0.51100000000E-03 0. -1.
         23    2    1    0    0    0  0.20636035037E+02  0.16845065404E+02  0.84988690111E+01  0.97038724189E+02  0.92922984493E+02 0.  0.
         11    1    3    3    0    0 -0.27903801980E+02  0.33330760062E+02  0.13538546762E+02  0.45528606172E+02  0.51100000000E-03 0.  1.
         22    1    1    0    0    0 -0.20636035037E+02 -0.16845065404E+02 -0.84988690111E+01  0.27961275811E+02  0.00000000000E+00 0. -1.
</event>
<event>
 5    1  0.1681111E-003  0.9118800E+02  0.7818608E-02  0.1130116E+00
         25   -1    0    0    0    0  0.00000000000E+00  0.00000000000E+00  0.99999998245E-14  0.12500000000E+03  0.12500000000E+03 0.  0.
        -11    1    3    3    0    0  0.29808083422E+02 -0.22117584436E+02 -0.25711393508E+02  0.45152908378E+02  0.51100000000E-03 0. -1.
         23    2    1    0    0    0  0.17412806232E+02  0.22531516839E+02 -0.42889359388E+01  0.96202950786E+02  0.91791817155E+02 0.  0.
         11    1    3    3    0    0 -0.12395277191E+02  0.44649101275E+02  0.21422457569E+02  0.51050042408E+02  0.51100000000E-03 0.  1.
         22    1    1    0    0    0 -0.17412806232E+02 -0.22531516839E+02  0.42889359388E+01  0.28797049214E+02  0.00000000000E+00 0.  1.
</event>
<event>
 5    1  0.1681111E-003  0.9118800E+02  0.7818608E-02  0.1130116E+00
         25   -1    0    0    0    0  0.00000000000E+00  0.00000000000E+00  0.99999998245E-14  0.12500000000E+03  0.12500000000E+03 0.  0.
        -11    1    3    3    0    0 -0.26792940649E+02  0.84612411402E+01 -0.42113521819E+02  0.50626109771E+02  0.51100000000E-03 0.  1.
         23    2    1    0    0    0 -0.14646985496E+02 -0.22759964252E+02 -0.13160705299E+02  0.94904247462E+02  0.90005899060E+02 0.  0.
         11    1    3    3    0    0  0.12145955153E+02 -0.31221205392E+02  0.28952816520E+02  0.44278137691E+02  0.51100000000E-03 0. -1.
         22    1    1    0    0    0  0.14646985496E+02  0.22759964252E+02  0.13160705299E+02  0.30095752538E+02  0.00000000000E+00 0.  1.
</event>
<event>
 5    1  0.1681111E-003  0.9118800E+02  0.7818608E-02  0.1130116E+00
         25   -1    0    0    0    0  0.00000000000E+00  0.00000000000E+00  0.99999998245E-14  0.12500000000E+03  0.12500000000E+03 0.  0.
        -11    1    3    3    0    0  0.24146665214E+01  0.37820000082E+02 -0.11601281691E+02  0.39632975635E+02  0.51100000000E-03 0. -1.
         23    2    1    0    0    0  0.33042971839E+02 -0.26518262988E+01  0.64543710288E+00  0.91844506341E+02  0.85651191383E+02 0.  0.
         11    1    3    3    0    0  0.30628305318E+02 -0.40471826380E+02  0.12246718793E+02  0.52211530706E+02  0.51100000000E-03 0.  1.
         22    1    1    0    0    0 -0.33042971839E+02  0.26518262988E+01 -0.64543710288E+00  0.33155493659E+02  0.00000000000E+00 0.  1.
</event>
<event>
 5    1  0.1681111E-003  0.9118800E+02  0.7818608E-02  0.1130116E+00
         25   -1    0    0    0    0  0.00000000000E+00  0.00000000000E+00  0.99999998245E-14  0.12500000000E+03  0.12500000000E+03 0.  0.
        -11    1    3    3    0    0 -0.36580236646E+02 -0.12202604154E+02  0.72762948407E+01  0.39242346108E+02  0.51100000000E-03 0.  1.
         23    2    1    0    0    0  0.17877557865E+02 -0.22658337206E+02 -0.40960823965E+01  0.95848924356E+02  0.91308439309E+02 0.  0.
         11    1    3    3    0    0  0.54457794511E+02 -0.10455733052E+02 -0.11372377237E+02  0.56606578248E+02  0.51100000000E-03 0. -1.
         22    1    1    0    0    0 -0.17877557865E+02  0.22658337206E+02  0.40960823965E+01  0.29151075644E+02  0.00000000000E+00 0. -1.
</event>
<event>
 5    1  0.1681111E-003  0.9118800E+02  0.7818608E-02  0.1130116E+00
         25   -1    0    0    0    0  0.00000000000E+00  0.00000000000E+00  0.99999998245E-14  0.12500000000E+03  0.12500000000E+03 0.  0.
        -11    1    3    3    0    0  0.43875587150E+02  0.15840539051E+02  0.29228544268E+02  0.55048139165E+02  0.51100000000E-03 0. -1.
         23    2    1    0    0    0  0.27947705229E+02  0.61493320165E+01 -0.67748843580E+01  0.95592729302E+02  0.90957035603E+02 0.  0.
         11    1    3    3    0    0 -0.15927881921E+02 -0.96912070345E+01 -0.36003428626E+02  0.40544590137E+02  0.51100000000E-03 0.  1.
         22    1    1    0    0    0 -0.27947705229E+02 -0.61493320165E+01  0.67748843580E+01  0.29407270698E+02  0.00000000000E+00 0. -1.
</event>
<event>
 5    1  0.1681111E-003  0.9118800E+02  0.7818608E-02  0.1130116E+00
         25   -1    0    0    0    0  0.00000000000E+00  0.00000000000E+00  0.99999998245E-14  0.12500000000E+03  0.12500000000E+03 0.  0.
        -11    1    3    3    0    0  0.13859832818E+02 -0.37486302887E+02  0.29132828875E+02  0.49457452304E+02  0.51100000000E-03 0. -1.
         23    2    1    0    0    0 -0.20739576548E+01 -0.27352224655E+02 -0.12259983411E+02  0.94954156907E+02  0.90075186521E+02 0.  0.
         11    1    3    3    0    0 -0.15933790473E+02  0.10134078232E+02 -0.41392812286E+02  0.45496704603E+02  0.51100000000E-03 0.  1.
         22    1    1    0    0    0  0.20739576548E+01  0.27352224655E+02  0.12259983411E+02  0.30045843093E+02  0.00000000000E+00 0. -1.
</event>
<event>
 5    1  0.1681111E-003  0.9118800E+02  0.7818608E-02  0.1130116E+00
         25   -1    0    0    0    0  0.00000000000E+00  0.00000000000E+00  0.99999998245E-14  0.12500000000E+03  0.12500000000E+03 0.  0.
        -11    1    3    3    0    0 -0.22571353233E+02 -0.21945140650E+02 -0.30680402640E+02  0.43958415478E+02  0.51100000000E-03 0. -1.
         23    2    1    0    0    0  0.40056142003E+01  0.15280532561E+01  0.19294479300E+02  0.10523495957E+03  0.10336217825E+03 0.  0.
         11    1    3    3    0    0  0.26576967433E+02  0.23473193907E+02  0.49974881941E+02  0.61276544088E+02  0.51100000000E-03 0.  1.
         22    1    1    0    0    0 -0.40056142003E+01 -0.15280532561E+01 -0.19294479300E+02  0.19765040434E+02  0.00000000000E+00 0.  1.
</event>
<event>
 5    1  0.1681111E-003  0.9118800E+02  0.7818608E-02  0.1130116E+00
         25   -1    0    0    0    0  0.00000000000E+00  0.00000000000E+00  0.99999998245E-14  0.12500000000E+03  0.12500000000E+03 0.  0.
        -11    1    3    3    0    0  0.11223070764E+02 -0.36541023209E+02  0.34626150378E+02  0.51576874516E+02  0.51100000000E-03 0. -1.
         23    2    1    0    0    0  0.25015622497E+02 -0.52610295227E+01  0.11690779005E+01  0.99410421190E+02  0.96060425241E+02 0.  0.
         11    1    3    3    0    0  0.13792551733E+02  0.31279993686E+02 -0.33457072478E+02  0.47833546674E+02  0.51100000000E-03 0.  1.
         22    1    1    0    0    0 -0.25015622497E+02  0.52610295227E+01 -0.11690779005E+01  0.25589578810E+02  0.00000000000E+00 0. -1.
</event>
<event>
 5    1  0.1681111E-003  0.9118800E+02  0.7818608E-02  0.1130116E+00
         25   -1    0    0    0    0  0.00000000000E+00  0.00000000000E+00  0.99999998245E-14  0.12500000000E+03  0.12500000000E+03 0.  0.
        -11    1    3    3    0    0  0.37064344060E+02  0.91289865201E+01 -0.23532624019E+02  0.44842930200E+02  0.51100000000E-03 0. -1.
         23    2    1    0    0    0 -0.82137618606E+01 -0.15987989299E+02 -0.21928903525E+02  0.96645838127E+02  0.92392962566E+02 0.  0.
         11    1    3    3    0    0 -0.45278105920E+02 -0.25116975819E+02  0.16037204931E+01  0.51802907927E+02  0.51100000000E-03 0.  1.
         22    1    1    0    0    0  0.82137618606E+01  0.15987989299E+02  0.21928903525E+02  0.28354161873E+02  0.00000000000E+00 0.  1.
</event>
<event>
 5    1  0.1681111E-003  0.9118800E+02  0.7818608E-02  0.1130116E+00
         25   -1    0    0    0    0  0.00000000000E+00  0.00000000000E+00  0.99999998245E-14  0.12500000000E+03  0.12500000000E+03 0.  0.
        -11    1    3    3    0    0  0.54305960904E+02  0.58421213473E+01  0.29963788858E+02  0.62298446325E+02  0.51100000000E-03 0.  1.
         23    2    1    0    0    0  0.23408821913E+02  0.11227657208E+01  0.16544105261E+02  0.96313052357E+02  0.91941628706E+02 0.  0.
         11    1    3    3    0    0 -0.30897138991E+02 -0.47193556265E+01 -0.13419683597E+02  0.34014606032E+02  0.51100000000E-03 0. -1.
         22    1    1    0    0    0 -0.23408821913E+02 -0.11227657208E+01 -0.16544105261E+02  0.28686947643E+02  0.00000000000E+00 0.  1.
</event>
<event>
 5    1  0.1681111E-003  0.9118800E+02  0.7818608E-02  0.1130116E+00
         25   -1    0    0    0    0  0.00000000000E+00  0.00000000000E+00  0.99999998245E-14  0.12500000000E+03  0.12500000000E+03 0.  0.
        -11    1    3    3    0    0  0.15018058381E+02 -0.97286010743E+01 -0.37482413848E+02  0.41534553140E+02  0.51100000000E-03 0.  1.
         23    2    1    0    0    0  0.12423087105E+02 -0.10918200737E+02  0.19977131696E+02  0.99064965947E+02  0.95609839905E+02 0.  0.
         11    1    3    3    0    0 -0.25949712760E+01 -0.11895996629E+01  0.57459545544E+02  0.57530412806E+02  0.51100000000E-03 0. -1.
         22    1    1    0    0    0 -0.12423087105E+02  0.10918200737E+02 -0.19977131696E+02  0.25935034053E+02  0.00000000000E+00 0. -1.
</event>
<event>
 5    1  0.1681111E-003  0.9118800E+02  0.7818608E-02  0.1130116E+00
         25   -1    0    0    0    0  0.00000000000E+00  0.00000000000E+00  0.99999998245E-14  0.12500000000E+03  0.12500000000E+03 0.  0.
        -11    1    3    3    0    0 -0.19704416943E+02 -0.13351420704E+02 -0.23534382147E+02  0.33472251571E+02  0.51100000000E-03 0. -1.
         23    2    1    0    0    0  0.25935901628E+02  0.43016009115E+01  0.14064609363E+02  0.95184098199E+02  0.90393719637E+02 0.  0.
         11    1    3    3    0    0  0.45640318571E+02  0.17653021615E+02  0.37598991510E+02  0.61711846629E+02  0.51100000000E-03 0.  1.
         22    1    1    0    0    0 -0.25935901628E+02 -0.43016009115E+01 -0.14064609363E+02  0.29815901801E+02  0.00000000000E+00 0.  1.
</event>
<event>
 5    1  0.1681111E-003  0.9118800E+02  0.7818608E-02  0.1130116E+00
         25   -1    0    0    0    0  0.00000000000E+00  0.00000000000E+00  0.99999998245E-14  0.12500000000E+03  0.12500000000E+03 0.  0.
        -11    1    3    3    0    0  0.18150391087E+02 -0.25085366932E+02  0.17242715762E+02  0.35440422935E+02  0.51100000000E-03 0. -1.
         23    2    1    0    0    0  0.16760739340E+02  0.22052020461E+02 -0.15883526637E+02  0.93070383528E+02  0.87421941651E+02 0.  0.
         11    1    3    3    0    0 -0.13896517470E+01  0.47137387393E+02 -0.33126242399E+02  0.57629960593E+02  0.51100000000E-03 0.  1.
         22    1    1    0    0    0 -0.16760739340E+02 -0.22052020461E+02  0.15883526637E+02  0.31929616472E+02  0.00000000000E+00 0.  1.
</event>
<event>
 5    1  0.1681111E-003  0.9118800E+02  0.7818608E-02  0.1130116E+00
         25   -1    0    0    0    0  0.00000000000E+00  0.00000000000E+00  0.99999998245E-14  0.12500000000E+03  0.12500000000E+03 0.  0.
        -11    1    3    3    0    0  0.46430198275E+02 -0.14402255580E+02 -0.25895069078E+02  0.55079423385E+02  0.51100000000E-03 0. -1.
         23    2    1    0    0    0  0.53389102714E+01 -0.22058223456E+02 -0.13114776127E+02  0.98788045899E+02  0.95247107435E+02 0.  0.
         11    1    3    3    0    0 -0.41091288004E+02 -0.76559678755E+01  0.12780292950E+02  0.43708622514E+02  0.51100000000E-03 0.  1.
         22    1    1    0    0    0 -0.53389102714E+01  0.22058223456E+02  0.13114776127E+02  0.26211954101E+02  0.00000000000E+00 0.  1.
</event>
<event>
 5    1  0.1681111E-003  0.9118800E+02  0.7818608E-02  0.1130116E+00
         25   -1    0    0    0    0  0.00000000000E+00  0.00000000000E+00  0.99999998245E-14  0.12500000000E+03  0.12500000000E+03 0.  0.
        -11    1    3    3    0    0  0.22560916093E+02 -0.13716399906E+02  0.55384314152E+02  0.61355984351E+02  0.51100000000E-03 0.  1.
         23    2    1    0    0    0  0.16803716311E+02 -0.91761680188E+01  0.20714580160E+02  0.96792540480E+02  0.92591225935E+02 0.  0.
         11    1    3    3    0    0 -0.57571997827E+01  0.45402318872E+01 -0.34669733992E+02  0.35436556129E+02  0.51100000000E-03 0. -1.
         22    1    1    0    0    0 -0.16803716311E+02  0.91761680188E+01 -0.20714580160E+02  0.28207459520E+02  0.00000000000E+00 0.  1.
</event>
<event>
 5    1  0.1681111E-003  0.9118800E+02  0.7818608E-02  0.1130116E+00
         25   -1    0    0    0    0  0.00000000000E+00  0.00000000000E+00  0.99999998245E-14  0.12500000000E+03  0.12500000000E+03 0.  0.
        -11    1    3    3    0    0 -0.16425476851E+02 -0.11713112809E+01 -0.32622679618E+02  0.36543227630E+02  0.51100000000E-03 0. -1.
         23    2    1    0    0    0 -0.47213047525E+01  0.22642618901E+02  0.19314727426E+02  0.94866337680E+02  0.89953234628E+02 0.  0.
         11    1    3    3    0    0  0.11704172099E+02  0.23813930182E+02  0.51937407044E+02  0.58323110050E+02  0.51100000000E-03 0.  1.
         22    1    1    0    0    0  0.47213047525E+01 -0.22642618901E+02 -0.19314727426E+02  0.30133662320E+02  0.00000000000E+00 0.  1.
</event>
<event>
 5    1  0.1681111E-003  0.9118800E+02  0.7818608E-02  0.1130116E+00
         25   -1    0    0    0    0  0.00000000000E+00  0.00000000000E+00  0.99999998245E-14  0.12500000000E+03  0.12500000000E+03 0.  0.
        -11    1    3    3    0    0 -0.10071740451E+02 -0.41690345337E+02 -0.39122692260E+02  0.58052647657E+02  0.51100000000E-03 0.  1.
         23    2    1    0    0    0  0.10917014507E+02 -0.15173490109E+02 -0.22539209038E+02  0.95718060996E+02  0.91129113070E+02 0.  0.
         11    1    3    3    0    0  0.20988754957E+02  0.26516855229E+02  0.16583483223E+02  0.37665413338E+02  0.51100000000E-03 0. -1.
         22    1    1    0    0    0 -0.10917014507E+02  0.15173490109E+02  0.22539209038E+02  0.29281939004E+02  0.00000000000E+00 0.  1.
</event>
<event>
 5    1  0.1681111E-003  0.9118800E+02  0.7818608E-02  0.1130116E+00
         25   -1    0    0    0    0  0.00000000000E+00  0.00000000000E+00  0.99999998245E-14  0.12500000000E+03  0.12500000000E+03 0.  0.
        -11    1    3    3    0    0 -0.45577770357E+01  0.26027336116E+02  0.49186673011E+02  0.55834795235E+02  0.51100000000E-03 0. -1.
         23    2    1    0    0    0  0.73761078765E+01 -0.73698734059E+01  0.22441833054E+02  0.10025413424E+03  0.97152115571E+02 0.  0.
         11    1    3    3    0    0  0.11933884912E+02 -0.33397209522E+02 -0.26744839958E+02  0.44419339004E+02  0.51100000000E-03 0.  1.
         22    1    1    0    0    0 -0.73761078765E+01  0.73698734059E+01 -0.22441833054E+02  0.24745865761E+02  0.00000000000E+00 0. -1.
</event>
<event>
 5    1  0.1681111E-003  0.9118800E+02  0.7818608E-02  0.1130116E+00
         25   -1    0    0    0    0  0.00000000000E+00  0.00000000000E+00  0.99999998245E-14  0.12500000000E+03  0.12500000000E+03 0.  0.
        -11    1    3    3    0    0 -0.12899857836E+02 -0.34272632951E+02  0.27990873450E+02  0.46092393064E+02  0.51100000000E-03 0. -1.
         23    2    1    0    0    0 -0.95734896148E+01 -0.20768348875E+02 -0.19106330447E+02  0.95200203331E+02  0.90415987705E+02 0.  0.
         11    1    3    3    0    0  0.33263682208E+01  0.13504284077E+02 -0.47097203897E+02  0.49107810267E+02  0.51100000000E-03 0.  1.
         22    1    1    0    0    0  0.95734896148E+01  0.20768348875E+02  0.19106330447E+02  0.29799796669E+02  0.00000000000E+00 0. -1.
</event>
<event>
 5    1  0.1681111E-003  0.9118800E+02  0.7818608E-02  0.1130116E+00
         25   -1    0    0    0    0  0.00000000000E+00  0.00000000000E+00  0.99999998245E-14  0.12500000000E+03  0.12500000000E+03 0.  0.
        -11    1    3    3    0    0  0.12568943856E+02 -0.31804885978E+02  0.28797340611E+02  0.44708119489E+02  0.51100000000E-03 0. -1.
         23    2    1    0    0    0 -0.24329253121E+02  0.25773988722E+01  0.80338589736E+01  0.99249302293E+02  0.95850537679E+02 0.  0.
         11    1    3    3    0    0 -0.36898196977E+02  0.34382284851E+02 -0.20763481637E+02  0.54541182804E+02  0.51100000000E-03 0.  1.
         22    1    1    0    0    0  0.24329253121E+02 -0.25773988722E+01 -0.80338589736E+01  0.25750697707E+02  0.00000000000E+00 0.  1.
</event>
<event>
 5    1  0.1681111E-003  0.9118800E+02  0.7818608E-02  0.1130116E+00
         25   -1    0    0    0    0  0.00000000000E+00  0.00000000000E+00  0.99999998245E-14  0.12500000000E+03  0.12500000000E+03 0.  0.
        -11    1    3    3    0    0  0.24717645240E+01  0.11500064573E+02  0.33429531625E+02  0.35438604515E+02  0.51100000000E-03 0. -1.
         23    2    1    0    0    0 -0.17672678045E+02 -0.14831157458E+02 -0.17384969671E+02  0.96111871793E+02  0.91667703955E+02 0.  0.
         11    1    3    3    0    0 -0.20144442569E+02 -0.26331222030E+02 -0.50814501296E+02  0.60673267278E+02  0.51100000000E-03 0.  1.
         22    1    1    0    0    0  0.17672678045E+02  0.14831157458E+02  0.17384969671E+02  0.28888128207E+02  0.00000000000E+00 0.  1.
</event>
<event>
 5    1  0.1681111E-003  0.9118800E+02  0.7818608E-02  0.1130116E+00
         25   -1    0    0    0    0  0.00000000000E+00  0.00000000000E+00  0.99999998245E-14  0.12500000000E+03  0.12500000000E+03 0.  0.
        -11    1    3    3    0    0 -0.11528218844E+02 -0.17634520171E+01 -0.38561012652E+02  0.40285993717E+02  0.51100000000E-03 0.  1.
         23    2    1    0    0    0  0.28627961657E+02  0.22714418560E+01  0.25438280819E+00  0.96280941043E+02  0.91897961135E+02 0.  0.
         11    1    3    3    0    0  0.40156180502E+02  0.40348938731E+01  0.38815395461E+02  0.55994947326E+02  0.51100000000E-03 0. -1.
         22    1    1    0    0    0 -0.28627961657E+02 -0.22714418560E+01 -0.25438280819E+00  0.28719058957E+02  0.00000000000E+00 0. -1.
</event>
<event>
 5    1  0.1681111E-003  0.9118800E+02  0.7818608E-02  0.1130116E+00
         25   -1    0    0    0    0  0.00000000000E+00  0.00000000000E+00  0.99999998245E-14  0.12500000000E+03  0.12500000000E+03 0.  0.
        -11    1    3    3    0    0  0.10250808588E+02  0.30940879443E+02 -0.32833298771E+02  0.46264917657E+02  0.51100000000E-03 0. -1.
         23    2    1    0    0    0  0.27740872212E+02 -0.61104043315E+01 -0.41189161504E+01  0.96297064568E+02  0.91919889806E+02 0.  0.
         11    1    3    3    0    0  0.17490063624E+02 -0.37051283774E+02  0.28714382621E+02  0.50032146910E+02  0.51100000000E-03 0.  1.
         22    1    1    0    0    0 -0.27740872212E+02  0.61104043315E+01  0.41189161504E+01  0.28702935432E+02  0.00000000000E+00 0.  1.
</event>
<event>
 5    1  0.1681111E-003  0.9118800E+02  0.7818608E-02  0.1130116E+00
         25   -1    0    0    0    0  0.00000000000E+00  0.00000000000E+00  0.99999998245E-14  0.12500000000E+03  0.12500000000E+03 0.  0.
        -11    1    3    3    0    0 -0.16859802717E+02  0.36842354237E+02  0.35022756485E+02  0.53555629821E+02  0.51100000000E-03 0.  1.
         23    2    1    0    0    0 -0.16593525616E+02 -0.52383221966E+01  0.20586913287E+02  0.98044367741E+02  0.94266069905E+02 0.  0.
         11    1    3    3    0    0  0.26627710093E+00 -0.42080676434E+02 -0.14435843199E+02  0.44488737920E+02  0.51100000000E-03 0. -1.
         22    1    1    0    0    0  0.16593525616E+02  0.52383221966E+01 -0.20586913287E+02  0.26955632259E+02  0.00000000000E+00 0.  1.
</event>
<event>
 5    1  0.1681111E-003  0.9118800E+02  0.7818608E-02  0.1130116E+00
         25   -1    0    0    0    0  0.00000000000E+00  0.00000000000E+00  0.99999998245E-14  0.12500000000E+03  0.12500000000E+03 0.  0.
        -11    1    3    3    0    0 -0.29617930523E+02 -0.21277374138E+02  0.10654877158E+02  0.37993089716E+02  0.51100000000E-03 0.  1.
         23    2    1    0    0    0  0.26836152328E+01  0.41904771360E+01 -0.29266026229E+02  0.95313939625E+02  0.90573091513E+02 0.  0.
         11    1    3    3    0    0  0.32301545756E+02  0.25467851274E+02 -0.39920903387E+02  0.57320849909E+02  0.51100000000E-03 0. -1.
         22    1    1    0    0    0 -0.26836152328E+01 -0.41904771360E+01  0.29266026229E+02  0.29686060375E+02  0.00000000000E+00 0. -1.
</event>
<event>
 5    1  0.1681111E-003  0.9118800E+02  0.7818608E-02  0.1130116E+00
         25   -1    0    0    0    0  0.00000000000E+00  0.00000000000E+00  0.99999998245E-14  0.12500000000E+03  0.12500000000E+03 0.  0.
        -11    1    3    3    0    0 -0.54656393112E+02  0.40122800601E+01 -0.12074507071E+02  0.56117852957E+02  0.51100000000E-03 0.  1.
         23    2    1    0    0    0 -0.24696841383E+02 -0.13529399253E+02  0.73459486661E+01  0.95897739259E+02  0.91375241804E+02 0.  0.
         11    1    3    3    0    0  0.29959551729E+02 -0.17541679313E+02  0.19420455737E+02  0.39779886302E+02  0.51100000000E-03 0. -1.
         22    1    1    0    0    0  0.24696841383E+02  0.13529399253E+02 -0.73459486661E+01  0.29102260741E+02  0.00000000000E+00 0. -1.
</event>
<event>
 5    1  0.1681111E-003  0.9118800E+02  0.7818608E-02  0.1130116E+00
         25   -1    0    0    0    0  0.00000000000E+00  0.00000000000E+00  0.99999998245E-14  0.12500000000E+03  0.12500000000E+03 0.  0.
        -11    1    3    3    0    0  0.55892522443E+02 -0.19669938243E+02 -0.11391101087E+02  0.60337697335E+02  0.51100000000E-03 0.  1.
         23    2    1    0    0    0  0.20751401190E+02 -0.19496597047E+02 -0.61810909204E+01  0.95863359275E+02  0.91328198377E+02 0.  0.
         11    1    3    3    0    0 -0.35141121253E+02  0.17334119521E+00  0.52100101667E+01  0.35525661940E+02  0.51100000000E-03 0. -1.
         22    1    1    0    0    0 -0.20751401190E+02  0.19496597047E+02  0.61810909204E+01  0.29136640725E+02  0.00000000000E+00 0.  1.
</event>
<event>
 5    1  0.1681111E-003  0.9118800E+02  0.7818608E-02  0.1130116E+00
         25   -1    0    0    0    0  0.00000000000E+00  0.00000000000E+00  0.99999998245E-14  0.12500000000E+03  0.12500000000E+03 0.  0.
        -11    1    3    3    0    0  0.26025146304E+02 -0.30569989932E+02  0.19732647215E+02  0.44734884497E+02  0.51100000000E-03 0.  1.
         23    2    1    0    0    0 -0.17250229805E+02 -0.22526825048E+02 -0.63859328392E+01  0.95917214486E+02  0.91401879747E+02 0.  0.
         11    1    3    3    0    0 -0.43275376109E+02  0.80431648843E+01 -0.26118580054E+02  0.51182329988E+02  0.51100000000E-03 0. -1.
         22    1    1    0    0    0  0.17250229805E+02  0.22526825048E+02  0.63859328392E+01  0.29082785514E+02  0.00000000000E+00 0. -1.
</event>
<event>
 5    1  0.1681111E-003  0.9118800E+02  0.7818608E-02  0.1130116E+00
         25   -1    0    0    0    0  0.00000000000E+00  0.00000000000E+00  0.99999998245E-14  0.12500000000E+03  0.12500000000E+03 0.  0.
        -11    1    3    3    0    0  0.33120616602E+02 -0.29460805432E+02  0.54438432220E+01  0.44660382109E+02  0.51100000000E-03 0. -1.
         23    2    1    0    0    0 -0.17210482768E+02 -0.23437685153E+02 -0.18041749232E+01  0.95866156285E+02  0.91332026537E+02 0.  0.
         11    1    3    3    0    0 -0.50331099370E+02  0.60231202790E+01 -0.72480181451E+01  0.51205774176E+02  0.51100000000E-03 0.  1.
         22    1    1    0    0    0  0.17210482768E+02  0.23437685153E+02  0.18041749232E+01  0.29133843715E+02  0.00000000000E+00 0. -1.
</event>
<event>
 5    1  0.1681111E-003  0.9118800E+02  0.7818608E-02  0.1130116E+00
         25   -1    0    0    0    0  0.00000000000E+00  0.00000000000E+00  0.99999998245E-14  0.12500000000E+03  0.12500000000E+03 0.  0.
        -11    1    3    3    0    0 -0.32297689900E+02 -0.89988001660E+01  0.10546340537E+02  0.35147467566E+02  0.51100000000E-03 0. -1.
         23    2    1    0    0    0  0.19059263200E+02 -0.18093631946E+02 -0.16570956783E+02  0.93931822721E+02  0.88645110865E+02 0.  0.
         11    1    3    3    0    0  0.51356953100E+02 -0.90948317801E+01 -0.27117297320E+02  0.58784355155E+02  0.51100000000E-03 0.  1.
         22    1    1    0    0    0 -0.19059263200E+02  0.18093631946E+02  0.16570956783E+02  0.31068177279E+02  0.00000000000E+00 0.  1.
</event>
<event>
 5    1  0.1681111E-003  0.9118800E+02  0.7818608E-02  0.1130116E+00
         25   -1    0    0    0    0  0.00000000000E+00  0.00000000000E+00  0.99999998245E-14  0.12500000000E+03  0.12500000000E+03 0.  0.
        -11    1    3    3    0    0  0.10588343435E+02 -0.77390203835E+01  0.25667944279E+02  0.28824448251E+02  0.51100000000E-03 0.  1.
         23    2    1    0    0    0  0.17035103585E+02  0.34732435011E+02 -0.10427856926E+02  0.84934091848E+02  0.74890072520E+02 0.  0.
         11    1    3    3    0    0  0.64467601499E+01  0.42471455394E+02 -0.36095801205E+02  0.56109643597E+02  0.51100000000E-03 0. -1.
         22    1    1    0    0    0 -0.17035103585E+02 -0.34732435011E+02  0.10427856926E+02  0.40065908152E+02  0.00000000000E+00 0. -1.
</event>
<event>
 5    1  0.1681111E-003  0.9118800E+02  0.7818608E-02  0.1130116E+00
         25   -1    0    0    0    0  0.00000000000E+00  0.00000000000E+00  0.99999998245E-14  0.12500000000E+03  0.12500000000E+03 0.  0.
        -11    1    3    3    0    0 -0.39724396356E+02  0.28671195270E+02 -0.10845748726E+02  0.50176641674E+02  0.51100000000E-03 0.  1.
         23    2    1    0    0    0  0.70503728695E+01  0.25143395797E+02 -0.98380076931E+01  0.97095080986E+02  0.92998764758E+02 0.  0.
         11    1    3    3    0    0  0.46774769225E+02 -0.35277994733E+01  0.10077410324E+01  0.46918439312E+02  0.51100000000E-03 0. -1.
         22    1    1    0    0    0 -0.70503728695E+01 -0.25143395797E+02  0.98380076931E+01  0.27904919014E+02  0.00000000000E+00 0.  1.
</event>
<event>
 5    1  0.1681111E-003  0.9118800E+02  0.7818608E-02  0.1130116E+00
         25   -1    0    0    0    0  0.00000000000E+00  0.00000000000E+00  0.99999998245E-14  0.12500000000E+03  0.12500000000E+03 0.  0.
        -11    1    3    3    0    0 -0.13626865869E+02 -0.45522458481E+02  0.19098736863E+02  0.51212766471E+02  0.51100000000E-03 0.  1.
         23    2    1    0    0    0  0.74920140212E+01 -0.12510589176E+01  0.23348394610E+02  0.10044713961E+03  0.97400127835E+02 0.  0.
         11    1    3    3    0    0  0.21118879890E+02  0.44271399564E+02  0.42496577468E+01  0.49234373139E+02  0.51100000000E-03 0. -1.
         22    1    1    0    0    0 -0.74920140212E+01  0.12510589176E+01 -0.23348394610E+02  0.24552860391E+02  0.00000000000E+00 0. -1.
</event>
<event>
 5    1  0.1681111E-003  0.9118800E+02  0.7818608E-02  0.1130116E+00
         25   -1    0    0    0    0  0.00000000000E+00  0.00000000000E+00  0.99999998245E-14  0.12500000000E+03  0.12500000000E+03 0.  0.
        -11    1    3    3    0    0  0.29601721575E+02  0.38607217033E+02  0.11405217150E+02  0.49968571179E+02  0.51100000000E-03 0. -1.
         23    2    1    0    0    0  0.11990519049E+02  0.10512701168E+02 -0.22519408812E+02  0.97406283212E+02  0.93416116399E+02 0.  0.
         11    1    3    3    0    0 -0.17611202526E+02 -0.28094515864E+02 -0.33924625961E+02  0.47437712033E+02  0.51100000000E-03 0.  1.
         22    1    1    0    0    0 -0.11990519049E+02 -0.10512701168E+02  0.22519408812E+02  0.27593716788E+02  0.00000000000E+00 0.  1.
</event>
<event>
 5    1  0.1681111E-003  0.9118800E+02  0.7818608E-02  0.1130116E+00
         25   -1    0    0    0    0  0.00000000000E+00  0.00000000000E+00  0.99999998245E-14  0.12500000000E+03  0.12500000000E+03 0.  0.
        -11    1    3    3    0    0 -0.27741289584E+02 -0.31438843008E+02  0.23248553802E+02  0.47942415997E+02  0.51100000000E-03 0. -1.
         23    2    1    0    0    0  0.17745358195E+02 -0.15683628186E+02  0.15489361119E+02  0.96701691951E+02  0.92468497273E+02 0.  0.
         11    1    3    3    0    0  0.45486647779E+02  0.15755214822E+02 -0.77591926832E+01  0.48759275954E+02  0.51100000000E-03 0.  1.
         22    1    1    0    0    0 -0.17745358195E+02  0.15683628186E+02 -0.15489361119E+02  0.28298308049E+02  0.00000000000E+00 0. -1.
</event>
<event>
 5    1  0.1681111E-003  0.9118800E+02  0.7818608E-02  0.1130116E+00
         25   -1    0    0    0    0  0.00000000000E+00  0.00000000000E+00  0.99999998245E-14  0.12500000000E+03  0.12500000000E+03 0.  0.
        -11    1    3    3    0    0  0.40132839833E+02 -0.42916416379E+02  0.90985458946E+01  0.59457944511E+02  0.51100000000E-03 0. -1.
         23    2    1    0    0    0  0.42819228785E+01 -0.23970558893E+02  0.29065710415E+01  0.10047713898E+03  0.97438620403E+02 0.  0.
         11    1    3    3    0    0 -0.35850916955E+02  0.18945857486E+02 -0.61919748531E+01  0.41019194473E+02  0.51100000000E-03 0.  1.
         22    1    1    0    0    0 -0.42819228785E+01  0.23970558893E+02 -0.29065710415E+01  0.24522861015E+02  0.00000000000E+00 0. -1.
</event>
<event>
 5    1  0.1681111E-003  0.9118800E+02  0.7818608E-02  0.1130116E+00
         25   -1    0    0    0    0  0.00000000000E+00  0.00000000000E+00  0.99999998245E-14  0.12500000000E+03  0.12500000000E+03 0.  0.
        -11    1    3    3    0    0 -0.20439741031E+02  0.14044413771E+02  0.51484707030E+02  0.57146335227E+02  0.51100000000E-03 0. -1.
         23    2    1    0    0    0 -0.10848601291E+02 -0.11919176950E+02  0.23477828000E+02  0.96522511755E+02  0.92225961305E+02 0.  0.
         11    1    3    3    0    0  0.95911397399E+01 -0.25963590722E+02 -0.28006879030E+02  0.39376176528E+02  0.51100000000E-03 0.  1.
         22    1    1    0    0    0  0.10848601291E+02  0.11919176950E+02 -0.23477828000E+02  0.28477488245E+02  0.00000000000E+00 0. -1.
</event>
<event>
 5    1  0.1681111E-003  0.9118800E+02  0.7818608E-02  0.1130116E+00
         25   -1    0    0    0    0  0.00000000000E+00  0.00000000000E+00  0.99999998245E-14  0.12500000000E+03  0.12500000000E+03 0.  0.
        -11    1    3    3    0    0  0.53413294795E+02 -0.27662516572E+02 -0.15804053563E+02  0.62192949707E+02  0.51100000000E-03 0.  1.
         23    2    1    0    0    0  0.23381209435E+02 -0.14610182553E+02 -0.11116777097E+02  0.95272552718E+02  0.90515955386E+02 0.  0.
         11    1    3    3    0    0 -0.30032085360E+02  0.13052334019E+02  0.46872764661E+01  0.33079603011E+02  0.51100000000E-03 0. -1.
         22    1    1    0    0    0 -0.23381209435E+02  0.14610182553E+02  0.11116777097E+02  0.29727447282E+02  0.00000000000E+00 0.  1.
</event>
<event>
 5    1  0.1681111E-003  0.9118800E+02  0.7818608E-02  0.1130116E+00
         25   -1    0    0    0    0  0.00000000000E+00  0.00000000000E+00  0.99999998245E-14  0.12500000000E+03  0.12500000000E+03 0.  0.
        -11    1    3    3    0    0  0.11300952794E+02  0.24340374217E+02 -0.17696274896E+02  0.32145349532E+02  0.51100000000E-03 0. -1.
         23    2    1    0    0    0  0.17399765123E+02  0.18344479357E+02  0.32926683519E+02  0.83485686363E+02  0.72432186152E+02 0.  0.
         11    1    3    3    0    0  0.60988123288E+01 -0.59958948602E+01  0.50622958415E+02  0.51340336831E+02  0.51100000000E-03 0.  1.
         22    1    1    0    0    0 -0.17399765123E+02 -0.18344479357E+02 -0.32926683519E+02  0.41514313637E+02  0.00000000000E+00 0.  1.
</event>
<event>
 5    1  0.1681111E-003  0.9118800E+02  0.7818608E-02  0.1130116E+00
         25   -1    0    0    0    0  0.00000000000E+00  0.00000000000E+00  0.99999998245E-14  0.12500000000E+03  0.12500000000E+03 0.  0.
        -11    1    3    3    0    0 -0.28448086053E+02  0.40611763556E+02 -0.24555615455E+01  0.49645127877E+02  0.51100000000E-03 0.  1.
         23    2    1    0    0    0  0.12312942889E+02  0.23899852882E+02  0.11358184846E+02  0.95814046301E+02  0.91260679239E+02 0.  0.
         11    1    3    3    0    0  0.40761028942E+02 -0.16711910674E+02  0.13813746391E+02  0.46168918423E+02  0.51100000000E-03 0. -1.
         22    1    1    0    0    0 -0.12312942889E+02 -0.23899852882E+02 -0.11358184846E+02  0.29185953699E+02  0.00000000000E+00 0.  1.
</event>
<event>
 5    1  0.1681111E-003  0.9118800E+02  0.7818608E-02  0.1130116E+00
         25   -1    0    0    0    0  0.00000000000E+00  0.00000000000E+00  0.99999998245E-14  0.12500000000E+03  0.12500000000E+03 0.  0.
        -11    1    3    3    0    0 -0.47808044329E+01  0.30035045294E+02 -0.20230148518E+02  0.36526961907E+02  0.51100000000E-03 0. -1.
         23    2    1    0    0    0  0.11223332417E+01  0.40274460322E+01  0.30699714016E+02  0.94016901477E+02  0.88765000812E+02 0.  0.
         11    1    3    3    0    0  0.59031376746E+01 -0.26007599262E+02  0.50929862533E+02  0.57489939570E+02  0.51100000000E-03 0.  1.
         22    1    1    0    0    0 -0.11223332417E+01 -0.40274460322E+01 -0.30699714016E+02  0.30983098523E+02  0.00000000000E+00 0.  1.
</event>
<event>
 5    1  0.1681111E-003  0.9118800E+02  0.7818608E-02  0.1130116E+00
         25   -1    0    0    0    0  0.00000000000E+00  0.00000000000E+00  0.99999998245E-14  0.12500000000E+03  0.12500000000E+03 0.  0.
        -11    1    3    3    0    0 -0.18221682380E+02 -0.10881353284E+02 -0.53693427945E+02  0.57735758095E+02  0.51100000000E-03 0. -1.
         23    2    1    0    0    0 -0.20750897850E+02  0.43282915011E+01 -0.16058546194E+02  0.98406565194E+02  0.94745138654E+02 0.  0.
         11    1    3    3    0    0 -0.25292154699E+01  0.15209644785E+02  0.37634881751E+02  0.40670807099E+02  0.51100000000E-03 0.  1.
         22    1    1    0    0    0  0.20750897850E+02 -0.43282915011E+01  0.16058546194E+02  0.26593434806E+02  0.00000000000E+00 0. -1.
</event>
<event>
 5    1  0.1681111E-003  0.9118800E+02  0.7818608E-02  0.1130116E+00
         25   -1    0    0    0    0  0.00000000000E+00  0.00000000000E+00  0.99999998245E-14  0.12500000000E+03  0.12500000000E+03 0.  0.
        -11    1    3    3    0    0  0.15317331431E+02  0.29629314367E+02  0.17620155382E+02  0.37722497106E+02  0.51100000000E-03 0. -1.
         23    2    1    0    0    0 -0.17050615304E+02 -0.94855575303E+01 -0.16957412260E+02  0.99149407851E+02  0.95720175317E+02 0.  0.
         11    1    3    3    0    0 -0.32367946735E+02 -0.39114871897E+02 -0.34577567641E+02  0.61426910745E+02  0.51100000000E-03 0.  1.
         22    1    1    0    0    0  0.17050615304E+02  0.94855575303E+01  0.16957412260E+02  0.25850592149E+02  0.00000000000E+00 0.  1.
</event>
<event>
 5    1  0.1681111E-003  0.9118800E+02  0.7818608E-02  0.1130116E+00
         25   -1    0    0    0    0  0.00000000000E+00  0.00000000000E+00  0.99999998245E-14  0.12500000000E+03  0.12500000000E+03 0.  0.
        -11    1    3    3    0    0  0.26853109571E+02  0.47948934644E+02 -0.28171027679E+02  0.61755944069E+02  0.51100000000E-03 0.  1.
         23    2    1    0    0    0  0.68653872030E+01  0.25465810485E+02 -0.15573800837E+02  0.94370205394E+02  0.89261141313E+02 0.  0.
         11    1    3    3    0    0 -0.19987722368E+02 -0.22483124159E+02  0.12597226841E+02  0.32614261325E+02  0.51100000000E-03 0. -1.
         22    1    1    0    0    0 -0.68653872030E+01 -0.25465810485E+02  0.15573800837E+02  0.30629794606E+02  0.00000000000E+00 0.  1.
</event>
<event>
 5    1  0.1681111E-003  0.9118800E+02  0.7818608E-02  0.1130116E+00
         25   -1    0    0    0    0  0.00000000000E+00  0.00000000000E+00  0.99999998245E-14  0.12500000000E+03  0.12500000000E+03 0.  0.
        -11    1    3    3    0    0  0.34801143709E+02 -0.14292373385E+02  0.84581065767E+01  0.38560745682E+02  0.51100000000E-03 0.  1.
         23    2    1    0    0    0  0.32638027307E+01  0.29390951781E+02 -0.69975537235E+01  0.94611742186E+02  0.89598747461E+02 0.  0.
         11    1    3    3    0    0 -0.31537340979E+02  0.43683325165E+02 -0.15455660300E+02  0.56050996504E+02  0.51100000000E-03 0. -1.
         22    1    1    0    0    0 -0.32638027307E+01 -0.29390951781E+02  0.69975537235E+01  0.30388257814E+02  0.00000000000E+00 0. -1.
</event>
<event>
 5    1  0.1681111E-003  0.9118800E+02  0.7818608E-02  0.1130116E+00
         25   -1    0    0    0    0  0.00000000000E+00  0.00000000000E+00  0.99999998245E-14  0.12500000000E+03  0.12500000000E+03 0.  0.
        -11    1    3    3    0    0 -0.30989229944E+02 -0.26049197579E+02  0.25450317337E+02  0.47818529043E+02  0.51100000000E-03 0.  1.
         23    2    1    0    0    0  0.10631457449E+02  0.52713233821E+01  0.21978000710E+02  0.10002306558E+03  0.96854356617E+02 0.  0.
         11    1    3    3    0    0  0.41620687392E+02  0.31320520961E+02 -0.34723166274E+01  0.52204536540E+02  0.51100000000E-03 0. -1.
         22    1    1    0    0    0 -0.10631457449E+02 -0.52713233821E+01 -0.21978000710E+02  0.24976934417E+02  0.00000000000E+00 0. -1.
</event>
<event>
 5    1  0.1681111E-003  0.9118800E+02  0.7818608E-02  0.1130116E+00
         25   -1    0    0    0    0  0.00000000000E+00  0.00000000000E+00  0.99999998245E-14  0.12500000000E+03  0.12500000000E+03 0.  0.
        -11    1    3    3    0    0 -0.54608885884E+02 -0.55420114276E+01 -0.11273951610E+02  0.56035223684E+02  0.51100000000E-03 0. -1.
         23    2    1    0    0    0 -0.20721354656E+02  0.14293343263E+02 -0.15356580810E+02  0.95512735383E+02  0.90847035427E+02 0.  0.
         11    1    3    3    0    0  0.33887531229E+02  0.19835354691E+02 -0.40826292003E+01  0.39477511699E+02  0.51100000000E-03 0.  1.
         22    1    1    0    0    0  0.20721354656E+02 -0.14293343263E+02  0.15356580810E+02  0.29487264617E+02  0.00000000000E+00 0.  1.
</event>
<event>
 5    1  0.1681111E-003  0.9118800E+02  0.7818608E-02  0.1130116E+00
         25   -1    0    0    0    0  0.00000000000E+00  0.00000000000E+00  0.99999998245E-14  0.12500000000E+03  0.12500000000E+03 0.  0.
        -11    1    3    3    0    0  0.52742601124E+01 -0.34627889705E+02  0.30368019909E+02  0.46358658292E+02  0.51100000000E-03 0.  1.
         23    2    1    0    0    0  0.36845131278E+01 -0.23071121996E+02 -0.17615466222E+02  0.95739840101E+02  0.91158982142E+02 0.  0.
         11    1    3    3    0    0 -0.15897469846E+01  0.11556767709E+02 -0.47983486130E+02  0.49381181809E+02  0.51100000000E-03 0. -1.
         22    1    1    0    0    0 -0.36845131278E+01  0.23071121996E+02  0.17615466222E+02  0.29260159899E+02  0.00000000000E+00 0. -1.
</event>
<event>
 5    1  0.1681111E-003  0.9118800E+02  0.7818608E-02  0.1130116E+00
         25   -1    0    0    0    0  0.00000000000E+00  0.00000000000E+00  0.99999998245E-14  0.12500000000E+03  0.12500000000E+03 0.  0.
        -11    1    3    3    0    0  0.69034427601E+00 -0.13315655615E+02 -0.55536230971E+02  0.57114413333E+02  0.51100000000E-03 0.  1.
         23    2    1    0    0    0  0.15781804819E+02 -0.14118837678E+02 -0.19409503442E+02  0.96274823506E+02  0.91889639659E+02 0.  0.
         11    1    3    3    0    0  0.15091460543E+02 -0.80318206340E+00  0.36126727529E+02  0.39160410174E+02  0.51100000000E-03 0. -1.
         22    1    1    0    0    0 -0.15781804819E+02  0.14118837678E+02  0.19409503442E+02  0.28725176494E+02  0.00000000000E+00 0.  1.
</event>
<event>
 5    1  0.1681111E-003  0.9118800E+02  0.7818608E-02  0.1130116E+00
         25   -1    0    0    0    0  0.00000000000E+00  0.00000000000E+00  0.99999998245E-14  0.12500000000E+03  0.12500000000E+03 0.  0.
        -11    1    3    3    0    0 -0.20975388583E+02 -0.69116379585E+01  0.50104016875E+02  0.54755366612E+02  0.51100000000E-03 0.  1.
         23    2    1    0    0    0  0.50983566159E+01 -0.19555067484E+02  0.22100932047E+02  0.95052627797E+02  0.90211733989E+02 0.  0.
         11    1    3    3    0    0  0.26073745199E+02 -0.12643429526E+02 -0.28003084828E+02  0.40297261186E+02  0.51100000000E-03 0. -1.
         22    1    1    0    0    0 -0.50983566159E+01  0.19555067484E+02 -0.22100932047E+02  0.29947372203E+02  0.00000000000E+00 0.  1.
</event>
<event>
 5    1  0.1681111E-003  0.9118800E+02  0.7818608E-02  0.1130116E+00
         25   -1    0    0    0    0  0.00000000000E+00  0.00000000000E+00  0.99999998245E-14  0.12500000000E+03  0.12500000000E+03 0.  0.
        -11    1    3    3    0    0  0.41985826940E+02 -0.33917072717E+02 -0.26933464519E+02  0.60320717807E+02  0.51100000000E-03 0.  1.
         23    2    1    0    0    0  0.19185073510E+02 -0.21267198277E+02 -0.21777683643E+01  0.96275386110E+02  0.91890404980E+02 0.  0.
         11    1    3    3    0    0 -0.22800753431E+02  0.12649874440E+02  0.24755696155E+02  0.35954668302E+02  0.51100000000E-03 0. -1.
         22    1    1    0    0    0 -0.19185073510E+02  0.21267198277E+02  0.21777683643E+01  0.28724613890E+02  0.00000000000E+00 0.  1.
</event>
<event>
 5    1  0.1681111E-003  0.9118800E+02  0.7818608E-02  0.1130116E+00
         25   -1    0    0    0    0  0.00000000000E+00  0.00000000000E+00  0.99999998245E-14  0.12500000000E+03  0.12500000000E+03 0.  0.
        -11    1    3    3    0    0  0.20931706074E+01 -0.50042099255E+02  0.22400098898E+02  0.54866724815E+02  0.51100000000E-03 0.  1.
         23    2    1    0    0    0 -0.20731396698E+02 -0.25622733401E+02  0.94559068271E+01  0.90711088528E+02  0.83980784303E+02 0.  0.
         11    1    3    3    0    0 -0.22824567306E+02  0.24419365854E+02 -0.12944192071E+02  0.35844363713E+02  0.51100000000E-03 0. -1.
         22    1    1    0    0    0  0.20731396698E+02  0.25622733401E+02 -0.94559068271E+01  0.34288911472E+02  0.00000000000E+00 0.  1.
</event>
<event>
 5    1  0.1681111E-003  0.9118800E+02  0.7818608E-02  0.1130116E+00
         25   -1    0    0    0    0  0.00000000000E+00  0.00000000000E+00  0.99999998245E-14  0.12500000000E+03  0.12500000000E+03 0.  0.
        -11    1    3    3    0    0  0.27852942886E+02  0.79524602120E+01 -0.16912152575E+02  0.33541749444E+02  0.51100000000E-03 0. -1.
         23    2    1    0    0    0 -0.16341752486E+02 -0.18912996101E+02  0.16440249554E+02  0.95082846037E+02  0.90253595548E+02 0.  0.
         11    1    3    3    0    0 -0.44194695371E+02 -0.26865456313E+02  0.33352402129E+02  0.61541096593E+02  0.51100000000E-03 0.  1.
         22    1    1    0    0    0  0.16341752486E+02  0.18912996101E+02 -0.16440249554E+02  0.29917153963E+02  0.00000000000E+00 0.  1.
</event>
<event>
 5    1  0.1681111E-003  0.9118800E+02  0.7818608E-02  0.1130116E+00
         25   -1    0    0    0    0  0.00000000000E+00  0.00000000000E+00  0.99999998245E-14  0.12500000000E+03  0.12500000000E+03 0.  0.
        -11    1    3    3    0    0 -0.38165388207E+02 -0.40344068966E+01 -0.13755028362E+02  0.40768543039E+02  0.51100000000E-03 0. -1.
         23    2    1    0    0    0  0.17549578274E+02 -0.17899065118E+02  0.50737779658E+00  0.99927671390E+02  0.96731162753E+02 0.  0.
         11    1    3    3    0    0  0.55714966481E+02 -0.13864658221E+02  0.14262406158E+02  0.59159128351E+02  0.51100000000E-03 0.  1.
         22    1    1    0    0    0 -0.17549578274E+02  0.17899065118E+02 -0.50737779658E+00  0.25072328610E+02  0.00000000000E+00 0.  1.
</event>
<event>
 5    1  0.1681111E-003  0.9118800E+02  0.7818608E-02  0.1130116E+00
         25   -1    0    0    0    0  0.00000000000E+00  0.00000000000E+00  0.99999998245E-14  0.12500000000E+03  0.12500000000E+03 0.  0.
        -11    1    3    3    0    0  0.53793458406E+01 -0.23055609701E+02  0.53632545855E+02  0.58625493393E+02  0.51100000000E-03 0. -1.
         23    2    1    0    0    0 -0.11962038218E+02 -0.15946119743E+02  0.32517792091E+02  0.86858475441E+02  0.78036010022E+02 0.  0.
         11    1    3    3    0    0 -0.17341384059E+02  0.71094899575E+01 -0.21114753764E+02  0.28232982048E+02  0.51100000000E-03 0.  1.
         22    1    1    0    0    0  0.11962038218E+02  0.15946119743E+02 -0.32517792091E+02  0.38141524559E+02  0.00000000000E+00 0. -1.
</event>
<event>
 5    1  0.1681111E-003  0.9118800E+02  0.7818608E-02  0.1130116E+00
         25   -1    0    0    0    0  0.00000000000E+00  0.00000000000E+00  0.99999998245E-14  0.12500000000E+03  0.12500000000E+03 0.  0.
        -11    1    3    3    0    0 -0.19996198499E+02 -0.32418476779E+02 -0.39697558848E+01  0.38295751111E+02  0.51100000000E-03 0.  1.
         23    2    1    0    0    0  0.26496582857E+02 -0.79050803070E+00  0.10707854856E+02  0.96410632017E+02  0.92074198363E+02 0.  0.
         11    1    3    3    0    0  0.46492781356E+02  0.31627968749E+02  0.14677610741E+02  0.58114880906E+02  0.51100000000E-03 0. -1.
         22    1    1    0    0    0 -0.26496582857E+02  0.79050803070E+00 -0.10707854856E+02  0.28589367983E+02  0.00000000000E+00 0. -1.
</event>
<event>
 5    1  0.1681111E-003  0.9118800E+02  0.7818608E-02  0.1130116E+00
         25   -1    0    0    0    0  0.00000000000E+00  0.00000000000E+00  0.99999998245E-14  0.12500000000E+03  0.12500000000E+03 0.  0.
        -11    1    3    3    0    0  0.34220685760E+01  0.41153847813E+02 -0.29875873126E+01  0.41403809262E+02  0.51100000000E-03 0.  1.
         23    2    1    0    0    0 -0.84088862776E+01 -0.34956096159E+01  0.27020745148E+02  0.96485980232E+02  0.92176434396E+02 0.  0.
         11    1    3    3    0    0 -0.11830954854E+02 -0.44649457429E+02  0.30008332460E+02  0.55082170970E+02  0.51100000000E-03 0. -1.
         22    1    1    0    0    0  0.84088862776E+01  0.34956096159E+01 -0.27020745148E+02  0.28514019768E+02  0.00000000000E+00 0. -1.
</event>
<event>
 5    1  0.1681111E-003  0.9118800E+02  0.7818608E-02  0.1130116E+00
         25   -1    0    0    0    0  0.00000000000E+00  0.00000000000E+00  0.99999998245E-14  0.12500000000E+03  0.12500000000E+03 0.  0.
        -11    1    3    3    0    0 -0.38828584103E+02  0.75716567787E+01 -0.43617504767E+01  0.39799670819E+02  0.51100000000E-03 0.  1.
         23    2    1    0    0    0  0.59785760171E+01 -0.11919600615E+02  0.24899795475E+02  0.96754291216E+02  0.92539574259E+02 0.  0.
         11    1    3    3    0    0  0.44807160120E+02 -0.19491257394E+02  0.29261545951E+02  0.56954620397E+02  0.51100000000E-03 0. -1.
         22    1    1    0    0    0 -0.59785760171E+01  0.11919600615E+02 -0.24899795475E+02  0.28245708784E+02  0.00000000000E+00 0. -1.
</event>
<event>
 5    1  0.1681111E-003  0.9118800E+02  0.7818608E-02  0.1130116E+00
         25   -1    0    0    0    0  0.00000000000E+00  0.00000000000E+00  0.99999998245E-14  0.12500000000E+03  0.12500000000E+03 0.  0.
        -11    1    3    3    0    0 -0.21909237368E+02  0.24043220846E+02 -0.23533954392E+02  0.40148949679E+02  0.51100000000E-03 0.  1.
         23    2    1    0    0    0 -0.19327805834E+02 -0.12382437544E+02  0.18274614150E+02  0.95659748464E+02  0.91049091791E+02 0.  0.
         11    1    3    3    0    0  0.25814315338E+01 -0.36425658390E+02  0.41808568543E+02  0.55510798785E+02  0.51100000000E-03 0. -1.
         22    1    1    0    0    0  0.19327805834E+02  0.12382437544E+02 -0.18274614150E+02  0.29340251536E+02  0.00000000000E+00 0. -1.
</event>
<event>
 5    1  0.1681111E-003  0.9118800E+02  0.7818608E-02  0.1130116E+00
         25   -1    0    0    0    0  0.00000000000E+00  0.00000000000E+00  0.99999998245E-14  0.12500000000E+03  0.12500000000E+03 0.  0.
        -11    1    3    3    0    0  0.38517021829E+02  0.18015817347E+01  0.42806592051E+02  0.57612594027E+02  0.51100000000E-03 0.  1.
         23    2    1    0    0    0  0.18631657570E+02 -0.16294596341E+02  0.16334449259E+02  0.95344195066E+02  0.90614837452E+02 0.  0.
         11    1    3    3    0    0 -0.19885364259E+02 -0.18096178076E+02 -0.26472142792E+02  0.37731601038E+02  0.51100000000E-03 0. -1.
         22    1    1    0    0    0 -0.18631657570E+02  0.16294596341E+02 -0.16334449259E+02  0.29655804934E+02  0.00000000000E+00 0.  1.
</event>
<event>
 5    1  0.1681111E-003  0.9118800E+02  0.7818608E-02  0.1130116E+00
         25   -1    0    0    0    0  0.00000000000E+00  0.00000000000E+00  0.99999998245E-14  0.12500000000E+03  0.12500000000E+03 0.  0.
        -11    1    3    3    0    0  0.19461210473E+02 -0.29011077711E+02  0.13661500325E+02  0.37510237728E+02  0.51100000000E-03 0.  1.
         23    2    1    0    0    0  0.13661039646E+02  0.26431390147E+02 -0.12684009666E+01  0.95219952479E+02  0.90443286759E+02 0.  0.
         11    1    3    3    0    0 -0.58001708273E+01  0.55442467858E+02 -0.14929901291E+02  0.57709714751E+02  0.51100000000E-03 0. -1.
         22    1    1    0    0    0 -0.13661039646E+02 -0.26431390147E+02  0.12684009666E+01  0.29780047521E+02  0.00000000000E+00 0. -1.
</event>
<event>
 5    1  0.1681111E-003  0.9118800E+02  0.7818608E-02  0.1130116E+00
         25   -1    0    0    0    0  0.00000000000E+00  0.00000000000E+00  0.99999998245E-14  0.12500000000E+03  0.12500000000E+03 0.  0.
        -11    1    3    3    0    0 -0.14777223539E+02  0.53489005657E+02  0.67232656807E+01  0.55898500547E+02  0.51100000000E-03 0.  1.
         23    2    1    0    0    0 -0.28955092224E+00  0.22368493591E+02 -0.16377709417E+02  0.97275232896E+02  0.93240593219E+02 0.  0.
         11    1    3    3    0    0  0.14487672617E+02 -0.31120512067E+02 -0.23100975097E+02  0.41376732349E+02  0.51100000000E-03 0. -1.
         22    1    1    0    0    0  0.28955092224E+00 -0.22368493591E+02  0.16377709417E+02  0.27724767104E+02  0.00000000000E+00 0. -1.
</event>
<event>
 5    1  0.1681111E-003  0.9118800E+02  0.7818608E-02  0.1130116E+00
         25   -1    0    0    0    0  0.00000000000E+00  0.00000000000E+00  0.99999998245E-14  0.12500000000E+03  0.12500000000E+03 0.  0.
        -11    1    3    3    0    0 -0.34834899542E+01 -0.89717274577E+01  0.40931692153E+02  0.42047949041E+02  0.51100000000E-03 0.  1.
         23    2    1    0    0    0  0.27843320856E+02  0.14482245885E+02  0.95970160362E+01  0.92180970780E+02  0.86140830591E+02 0.  0.
         11    1    3    3    0    0  0.31326810810E+02  0.23453973343E+02 -0.31334676116E+02  0.50133021739E+02  0.51100000000E-03 0. -1.
         22    1    1    0    0    0 -0.27843320856E+02 -0.14482245885E+02 -0.95970160362E+01  0.32819029220E+02  0.00000000000E+00 0. -1.
</event>
<event>
 5    1  0.1681111E-003  0.9118800E+02  0.7818608E-02  0.1130116E+00
         25   -1    0    0    0    0  0.00000000000E+00  0.00000000000E+00  0.99999998245E-14  0.12500000000E+03  0.12500000000E+03 0.  0.
        -11    1    3    3    0    0  0.61434763754E+01  0.40631098625E+02 -0.50712529142E+01  0.41404662585E+02  0.51100000000E-03 0.  1.
         23    2    1    0    0    0  0.19059555241E+02 -0.10646822395E+02  0.15585762383E+02  0.98175804538E+02  0.94440198722E+02 0.  0.
         11    1    3    3    0    0  0.12916078866E+02 -0.51277921020E+02  0.20657015297E+02  0.56771141953E+02  0.51100000000E-03 0. -1.
         22    1    1    0    0    0 -0.19059555241E+02  0.10646822395E+02 -0.15585762383E+02  0.26824195462E+02  0.00000000000E+00 0. -1.
</event>
<event>
 5    1  0.1681111E-003  0.9118800E+02  0.7818608E-02  0.1130116E+00
         25   -1    0    0    0    0  0.00000000000E+00  0.00000000000E+00  0.99999998245E-14  0.12500000000E+03  0.12500000000E+03 0.  0.
        -11    1    3    3    0    0  0.34922878578E+02 -0.44989271957E+02 -0.11438374572E+02  0.58090261253E+02  0.51100000000E-03 0. -1.
         23    2    1    0    0    0  0.14804675914E+02 -0.29880310788E+02 -0.21647853677E+02  0.85242724307E+02  0.75403455337E+02 0.  0.
         11    1    3    3    0    0 -0.20118202664E+02  0.15108961169E+02 -0.10209479105E+02  0.27152463054E+02  0.51100000000E-03 0.  1.
         22    1    1    0    0    0 -0.14804675914E+02  0.29880310788E+02  0.21647853677E+02  0.39757275693E+02  0.00000000000E+00 0. -1.
</event>
<event>
 5    1  0.1681111E-003  0.9118800E+02  0.7818608E-02  0.1130116E+00
         25   -1    0    0    0    0  0.00000000000E+00  0.00000000000E+00  0.99999998245E-14  0.12500000000E+03  0.12500000000E+03 0.  0.
        -11    1    3    3    0    0 -0.39540256467E+01  0.29630914276E+02  0.18032952399E+02  0.34911499139E+02  0.51100000000E-03 0.  1.
         23    2    1    0    0    0 -0.11700466274E+02 -0.21148798497E+02 -0.15529506752E+02  0.96271300606E+02  0.91884847236E+02 0.  0.
         11    1    3    3    0    0 -0.77464406278E+01 -0.50779712772E+02 -0.33562459151E+02  0.61359801468E+02  0.51100000000E-03 0. -1.
         22    1    1    0    0    0  0.11700466274E+02  0.21148798497E+02  0.15529506752E+02  0.28728699394E+02  0.00000000000E+00 0. -1.
</event>
<event>
 5    1  0.1681111E-003  0.9118800E+02  0.7818608E-02  0.1130116E+00
         25   -1    0    0    0    0  0.00000000000E+00  0.00000000000E+00  0.99999998245E-14  0.12500000000E+03  0.12500000000E+03 0.  0.
        -11    1    3    3    0    0 -0.24870710561E+02 -0.47326752589E+02  0.31612207601E+02  0.62110429270E+02  0.51100000000E-03 0. -1.
         23    2    1    0    0    0 -0.96137331924E+01 -0.26399192872E+02  0.20115071443E+02  0.90446312073E+02  0.83585752484E+02 0.  0.
         11    1    3    3    0    0  0.15256977369E+02  0.20927559717E+02 -0.11497136157E+02  0.28335882803E+02  0.51100000000E-03 0.  1.
         22    1    1    0    0    0  0.96137331924E+01  0.26399192872E+02 -0.20115071443E+02  0.34553687927E+02  0.00000000000E+00 0. -1.
</event>
<event>
 5    1  0.1681111E-003  0.9118800E+02  0.7818608E-02  0.1130116E+00
         25   -1    0    0    0    0  0.00000000000E+00  0.00000000000E+00  0.99999998245E-14  0.12500000000E+03  0.12500000000E+03 0.  0.
        -11    1    3    3    0    0  0.58991072800E+02 -0.16789818578E+01 -0.34603281637E+01  0.59116321954E+02  0.51100000000E-03 0.  1.
         23    2    1    0    0    0  0.25672066866E+02 -0.59693497298E+00  0.12913319951E+02  0.96256910732E+02  0.91865269188E+02 0.  0.
         11    1    3    3    0    0 -0.33319005934E+02  0.10820468848E+01  0.16373648114E+02  0.37140588777E+02  0.51100000000E-03 0. -1.
         22    1    1    0    0    0 -0.25672066866E+02  0.59693497298E+00 -0.12913319951E+02  0.28743089268E+02  0.00000000000E+00 0.  1.
</event>
<event>
 5    1  0.1681111E-003  0.9118800E+02  0.7818608E-02  0.1130116E+00
         25   -1    0    0    0    0  0.00000000000E+00  0.00000000000E+00  0.99999998245E-14  0.12500000000E+03  0.12500000000E+03 0.  0.
        -11    1    3    3    0    0 -0.44529460304E+01 -0.39292341324E+02 -0.29602295972E+02  0.49396485119E+02  0.51100000000E-03 0.  1.
         23    2    1    0    0    0  0.25529205848E+02 -0.15530197798E+02 -0.54896438010E+01  0.94618038511E+02  0.89607531088E+02 0.  0.
         11    1    3    3    0    0  0.29982151879E+02  0.23762143526E+02  0.24112652170E+02  0.45221553392E+02  0.51100000000E-03 0. -1.
         22    1    1    0    0    0 -0.25529205848E+02  0.15530197798E+02  0.54896438010E+01  0.30381961489E+02  0.00000000000E+00 0. -1.
</event>
<event>
 5    1  0.1681111E-003  0.9118800E+02  0.7818608E-02  0.1130116E+00
         25   -1    0    0    0    0  0.00000000000E+00  0.00000000000E+00  0.99999998245E-14  0.12500000000E+03  0.12500000000E+03 0.  0.
        -11    1    3    3    0    0 -0.35383357839E+02  0.66312855860E+01  0.16436232394E+02  0.39574053318E+02  0.51100000000E-03 0.  1.
         23    2    1    0    0    0  0.17679324698E+02 -0.10288980526E+02  0.21284338082E+02  0.95479757968E+02  0.90801649170E+02 0.  0.
         11    1    3    3    0    0  0.53062682537E+02 -0.16920266112E+02  0.48481056887E+01  0.55905704650E+02  0.51100000000E-03 0. -1.
         22    1    1    0    0    0 -0.17679324698E+02  0.10288980526E+02 -0.21284338082E+02  0.29520242032E+02  0.00000000000E+00 0. -1.
</event>
<event>
 5    1  0.1681111E-003  0.9118800E+02  0.7818608E-02  0.1130116E+00
         25   -1    0    0    0    0  0.00000000000E+00  0.00000000000E+00  0.99999998245E-14  0.12500000000E+03  0.12500000000E+03 0.  0.
        -11    1    3    3    0    0 -0.89191276041E+01  0.14361470235E+02 -0.31210702189E+02  0.35495219339E+02  0.51100000000E-03 0.  1.
         23    2    1    0    0    0  0.88921357422E+01 -0.29303045966E+01  0.25734079510E+02  0.97615705025E+02  0.93695924437E+02 0.  0.
         11    1    3    3    0    0  0.17811263346E+02 -0.17291774832E+02  0.56944781699E+02  0.62120485686E+02  0.51100000000E-03 0. -1.
         22    1    1    0    0    0 -0.88921357422E+01  0.29303045966E+01 -0.25734079510E+02  0.27384294975E+02  0.00000000000E+00 0. -1.
</event>
<event>
 5    1  0.1681111E-003  0.9118800E+02  0.7818608E-02  0.1130116E+00
         25   -1    0    0    0    0  0.00000000000E+00  0.00000000000E+00  0.99999998245E-14  0.12500000000E+03  0.12500000000E+03 0.  0.
        -11    1    3    3    0    0  0.15977596735E+01  0.37362042670E+02 -0.28829167053E+02  0.47218597413E+02  0.51100000000E-03 0.  1.
         23    2    1    0    0    0  0.26239315763E+02 -0.63249849468E+00 -0.15895535134E+02  0.94314990903E+02  0.89183786227E+02 0.  0.
         11    1    3    3    0    0  0.24641556090E+02 -0.37994541165E+02  0.12933631920E+02  0.47096393490E+02  0.51100000000E-03 0. -1.
         22    1    1    0    0    0 -0.26239315763E+02  0.63249849468E+00  0.15895535134E+02  0.30685009097E+02  0.00000000000E+00 0. -1.
</event>
<event>
 5    1  0.1681111E-003  0.9118800E+02  0.7818608E-02  0.1130116E+00
         25   -1    0    0    0    0  0.00000000000E+00  0.00000000000E+00  0.99999998245E-14  0.12500000000E+03  0.12500000000E+03 0.  0.
        -11    1    3    3    0    0  0.16578038427E+02 -0.26486256826E+00 -0.58951739928E+02  0.61238951257E+02  0.51100000000E-03 0. -1.
         23    2    1    0    0    0  0.15843166547E+02  0.46423852719E-01 -0.23745103411E+02  0.96454632295E+02  0.92133913809E+02 0.  0.
         11    1    3    3    0    0 -0.73487187955E+00  0.31128642097E+00  0.35206636517E+02  0.35215681038E+02  0.51100000000E-03 0.  1.
         22    1    1    0    0    0 -0.15843166547E+02 -0.46423852719E-01  0.23745103411E+02  0.28545367705E+02  0.00000000000E+00 0. -1.
</event>
<event>
 5    1  0.1681111E-003  0.9118800E+02  0.7818608E-02  0.1130116E+00
         25   -1    0    0    0    0  0.00000000000E+00  0.00000000000E+00  0.99999998245E-14  0.12500000000E+03  0.12500000000E+03 0.  0.
        -11    1    3    3    0    0 -0.20637509878E+02  0.99593876152E+01 -0.50120126764E+02  0.55110101821E+02  0.51100000000E-03 0. -1.
         23    2    1    0    0    0  0.70814167650E+01 -0.82402868403E+01 -0.27987210496E+02  0.94977795851E+02  0.90107985011E+02 0.  0.
         11    1    3    3    0    0  0.27718926643E+02 -0.18199674456E+02  0.22132916268E+02  0.39867694030E+02  0.51100000000E-03 0.  1.
         22    1    1    0    0    0 -0.70814167650E+01  0.82402868403E+01  0.27987210496E+02  0.30022204149E+02  0.00000000000E+00 0. -1.
</event>
<event>
 5    1  0.1681111E-003  0.9118800E+02  0.7818608E-02  0.1130116E+00
         25   -1    0    0    0    0  0.00000000000E+00  0.00000000000E+00  0.99999998245E-14  0.12500000000E+03  0.12500000000E+03 0.  0.
        -11    1    3    3    0    0  0.53896830051E+02  0.27220405477E+02  0.12024447827E+02  0.61566274125E+02  0.51100000000E-03 0.  1.
         23    2    1    0    0    0  0.24634105758E+02  0.13340186909E+02  0.13320747148E+02  0.93979973278E+02  0.88712982812E+02 0.  0.
         11    1    3    3    0    0 -0.29262724293E+02 -0.13880218568E+02  0.12962993208E+01  0.32413699152E+02  0.51100000000E-03 0. -1.
         22    1    1    0    0    0 -0.24634105758E+02 -0.13340186909E+02 -0.13320747148E+02  0.31020026722E+02  0.00000000000E+00 0.  1.
</event>
<event>
 5    1  0.1681111E-003  0.9118800E+02  0.7818608E-02  0.1130116E+00
         25   -1    0    0    0    0  0.00000000000E+00  0.00000000000E+00  0.99999998245E-14  0.12500000000E+03  0.12500000000E+03 0.  0.
        -11    1    3    3    0    0  0.27472473097E+01  0.35617884497E+02  0.68947502938E+01  0.36382944434E+02  0.51100000000E-03 0. -1.
         23    2    1    0    0    0 -0.24684773376E+02 -0.11706086270E+02 -0.13201760041E+02  0.94657670482E+02  0.89662799535E+02 0.  0.
         11    1    3    3    0    0 -0.27432020686E+02 -0.47323970767E+02 -0.20096510335E+02  0.58274726048E+02  0.51100000000E-03 0.  1.
         22    1    1    0    0    0  0.24684773376E+02  0.11706086270E+02  0.13201760041E+02  0.30342329518E+02  0.00000000000E+00 0.  1.
</event>
<event>
 5    1  0.1681111E-003  0.9118800E+02  0.7818608E-02  0.1130116E+00
         25   -1    0    0    0    0  0.00000000000E+00  0.00000000000E+00  0.99999998245E-14  0.12500000000E+03  0.12500000000E+03 0.  0.
        -11    1    3    3    0    0 -0.31541993540E+02 -0.64252540006E+01 -0.13041091548E+02  0.34731128897E+02  0.51100000000E-03 0. -1.
         23    2    1    0    0    0  0.19195196081E+02  0.17213533461E+02  0.12605386920E+02  0.96300573765E+02  0.91924661769E+02 0.  0.
         11    1    3    3    0    0  0.50737189621E+02  0.23638787462E+02  0.25646478468E+02  0.61569444868E+02  0.51100000000E-03 0.  1.
         22    1    1    0    0    0 -0.19195196081E+02 -0.17213533461E+02 -0.12605386920E+02  0.28699426235E+02  0.00000000000E+00 0.  1.
</event>
<event>
 5    1  0.1681111E-003  0.9118800E+02  0.7818608E-02  0.1130116E+00
         25   -1    0    0    0    0  0.00000000000E+00  0.00000000000E+00  0.99999998245E-14  0.12500000000E+03  0.12500000000E+03 0.  0.
        -11    1    3    3    0    0 -0.25205489725E+02 -0.94114529334E+01  0.43722362933E+02  0.51337483180E+02  0.51100000000E-03 0. -1.
         23    2    1    0    0    0 -0.13556409684E+02  0.21339805393E+02  0.12050453506E+02  0.96993269248E+02  0.92861818375E+02 0.  0.
         11    1    3    3    0    0  0.11649080042E+02  0.30751258326E+02 -0.31671909426E+02  0.45655786067E+02  0.51100000000E-03 0.  1.
         22    1    1    0    0    0  0.13556409684E+02 -0.21339805393E+02 -0.12050453506E+02  0.28006730752E+02  0.00000000000E+00 0. -1.
</event>
<event>
 5    1  0.1681111E-003  0.9118800E+02  0.7818608E-02  0.1130116E+00
         25   -1    0    0    0    0  0.00000000000E+00  0.00000000000E+00  0.99999998245E-14  0.12500000000E+03  0.12500000000E+03 0.  0.
        -11    1    3    3    0    0 -0.36652802899E+02 -0.16850245955E+02  0.56065771338E+01  0.40728275884E+02  0.51100000000E-03 0. -1.
         23    2    1    0    0    0 -0.47557576719E+01  0.27307857254E+02  0.10359071537E+02  0.95408672522E+02  0.90703738239E+02 0.  0.
         11    1    3    3    0    0  0.31897045227E+02  0.44158103208E+02  0.47524944031E+01  0.54680396638E+02  0.51100000000E-03 0.  1.
         22    1    1    0    0    0  0.47557576719E+01 -0.27307857254E+02 -0.10359071537E+02  0.29591327478E+02  0.00000000000E+00 0.  1.
</event>
<event>
 5    1  0.1681111E-003  0.9118800E+02  0.7818608E-02  0.1130116E+00
         25   -1    0    0    0    0  0.00000000000E+00  0.00000000000E+00  0.99999998245E-14  0.12500000000E+03  0.12500000000E+03 0.  0.
        -11    1    3    3    0    0  0.47191550298E+02  0.34477594144E+02 -0.16849950014E+02  0.60824894025E+02  0.51100000000E-03 0.  1.
         23    2    1    0    0    0  0.12728144571E+02  0.69541334860E+01  0.44838366843E+01  0.10981874748E+03  0.10876436397E+03 0.  0.
         11    1    3    3    0    0 -0.34463405727E+02 -0.27523460658E+02  0.21333786698E+02  0.48993853451E+02  0.51100000000E-03 0. -1.
         22    1    1    0    0    0 -0.12728144571E+02 -0.69541334860E+01 -0.44838366843E+01  0.15181252523E+02  0.00000000000E+00 0.  1.
</event>
<event>
 5    1  0.1681111E-003  0.9118800E+02  0.7818608E-02  0.1130116E+00
         25   -1    0    0    0    0  0.00000000000E+00  0.00000000000E+00  0.99999998245E-14  0.12500000000E+03  0.12500000000E+03 0.  0.
        -11    1    3    3    0    0 -0.13853641525E+02 -0.18118395125E+02 -0.35375855563E+02  0.42090982200E+02  0.51100000000E-03 0.  1.
         23    2    1    0    0    0  0.34835844934E+01  0.26700207883E+02 -0.12954468656E+02  0.95119325308E+02  0.90304104707E+02 0.  0.
         11    1    3    3    0    0  0.17337226019E+02  0.44818603009E+02  0.22421386908E+02  0.53028343108E+02  0.51100000000E-03 0. -1.
         22    1    1    0    0    0 -0.34835844934E+01 -0.26700207883E+02  0.12954468656E+02  0.29880674692E+02  0.00000000000E+00 0. -1.
</event>
<event>
 5    1  0.1681111E-003  0.9118800E+02  0.7818608E-02  0.1130116E+00
         25   -1    0    0    0    0  0.00000000000E+00  0.00000000000E+00  0.99999998245E-14  0.12500000000E+03  0.12500000000E+03 0.  0.
        -11    1    3    3    0    0 -0.30998617398E+02  0.16175122747E+02 -0.71302526014E+01  0.35684581809E+02  0.51100000000E-03 0.  1.
         23    2    1    0    0    0  0.27336076164E+02  0.98366999105E+01  0.47749403123E+01  0.95558162758E+02  0.90909519246E+02 0.  0.
         11    1    3    3    0    0  0.58334693563E+02 -0.63384228362E+01  0.11905192914E+02  0.59873580949E+02  0.51100000000E-03 0. -1.
         22    1    1    0    0    0 -0.27336076164E+02 -0.98366999105E+01 -0.47749403123E+01  0.29441837242E+02  0.00000000000E+00 0. -1.
</event>
<event>
 5    1  0.1681111E-003  0.9118800E+02  0.7818608E-02  0.1130116E+00
         25   -1    0    0    0    0  0.00000000000E+00  0.00000000000E+00  0.99999998245E-14  0.12500000000E+03  0.12500000000E+03 0.  0.
        -11    1    3    3    0    0 -0.24323169850E+02  0.29682709709E+02 -0.10160260310E+02  0.39697742216E+02  0.51100000000E-03 0.  1.
         23    2    1    0    0    0  0.13332193724E+02 -0.68483232347E+01 -0.26421098613E+02  0.94623670851E+02  0.89615387701E+02 0.  0.
         11    1    3    3    0    0  0.37655363575E+02 -0.36531032943E+02 -0.16260838303E+02  0.54925928635E+02  0.51100000000E-03 0. -1.
         22    1    1    0    0    0 -0.13332193724E+02  0.68483232347E+01  0.26421098613E+02  0.30376329149E+02  0.00000000000E+00 0. -1.
</event>
<event>
 5    1  0.1681111E-003  0.9118800E+02  0.7818608E-02  0.1130116E+00
         25   -1    0    0    0    0  0.00000000000E+00  0.00000000000E+00  0.99999998245E-14  0.12500000000E+03  0.12500000000E+03 0.  0.
        -11    1    3    3    0    0 -0.23320075520E+01 -0.15724781753E+02  0.43320321421E+02  0.46144959299E+02  0.51100000000E-03 0.  1.
         23    2    1    0    0    0 -0.28091138038E+02 -0.83108955044E+01  0.16924029781E+01  0.95656393402E+02  0.91044485557E+02 0.  0.
         11    1    3    3    0    0 -0.25759130486E+02  0.74138862490E+01 -0.41627918443E+02  0.49511434103E+02  0.51100000000E-03 0. -1.
         22    1    1    0    0    0  0.28091138038E+02  0.83108955044E+01 -0.16924029781E+01  0.29343606598E+02  0.00000000000E+00 0. -1.
</event>
<event>
 5    1  0.1681111E-003  0.9118800E+02  0.7818608E-02  0.1130116E+00
         25   -1    0    0    0    0  0.00000000000E+00  0.00000000000E+00  0.99999998245E-14  0.12500000000E+03  0.12500000000E+03 0.  0.
        -11    1    3    3    0    0 -0.31882318360E+01 -0.28380677330E+02  0.31430563982E+02  0.42467729165E+02  0.51100000000E-03 0. -1.
         23    2    1    0    0    0 -0.25769207700E+02  0.12531272436E+02  0.58028924686E+01  0.95763748267E+02  0.91191759863E+02 0.  0.
         11    1    3    3    0    0 -0.22580975864E+02  0.40911949766E+02 -0.25627671514E+02  0.53296019102E+02  0.51100000000E-03 0.  1.
         22    1    1    0    0    0  0.25769207700E+02 -0.12531272436E+02 -0.58028924686E+01  0.29236251733E+02  0.00000000000E+00 0.  1.
</event>
<event>
 5    1  0.1681111E-003  0.9118800E+02  0.7818608E-02  0.1130116E+00
         25   -1    0    0    0    0  0.00000000000E+00  0.00000000000E+00  0.99999998245E-14  0.12500000000E+03  0.12500000000E+03 0.  0.
        -11    1    3    3    0    0 -0.21437140803E+02 -0.45206489689E+02 -0.22641083313E+02  0.54916266895E+02  0.51100000000E-03 0. -1.
         23    2    1    0    0    0 -0.27083914560E+02 -0.95602173433E+01 -0.26947531753E+01  0.96152159904E+02  0.91722625213E+02 0.  0.
         11    1    3    3    0    0 -0.56467737569E+01  0.35646272346E+02  0.19946330138E+02  0.41235893009E+02  0.51100000000E-03 0.  1.
         22    1    1    0    0    0  0.27083914560E+02  0.95602173433E+01  0.26947531753E+01  0.28847840096E+02  0.00000000000E+00 0. -1.
</event>
<event>
 5    1  0.1681111E-003  0.9118800E+02  0.7818608E-02  0.1130116E+00
         25   -1    0    0    0    0  0.00000000000E+00  0.00000000000E+00  0.99999998245E-14  0.12500000000E+03  0.12500000000E+03 0.  0.
        -11    1    3    3    0    0 -0.16637094707E+02 -0.29543060377E+02  0.28296043616E+01  0.34023403678E+02  0.51100000000E-03 0. -1.
         23    2    1    0    0    0  0.23715065688E+02  0.16684259128E+02  0.56866835904E+01  0.95451612337E+02  0.90762894865E+02 0.  0.
         11    1    3    3    0    0  0.40352160395E+02  0.46227319505E+02  0.28570792288E+01  0.61428208659E+02  0.51100000000E-03 0.  1.
         22    1    1    0    0    0 -0.23715065688E+02 -0.16684259128E+02 -0.56866835904E+01  0.29548387663E+02  0.00000000000E+00 0.  1.
</event>
<event>
 5    1  0.1681111E-003  0.9118800E+02  0.7818608E-02  0.1130116E+00
         25   -1    0    0    0    0  0.00000000000E+00  0.00000000000E+00  0.99999998245E-14  0.12500000000E+03  0.12500000000E+03 0.  0.
        -11    1    3    3    0    0 -0.64354534885E+00  0.19765762299E+02 -0.27979896500E+02  0.34263305711E+02  0.51100000000E-03 0.  1.
         23    2    1    0    0    0  0.17553152236E+02 -0.13117591677E+02  0.20083460181E+02  0.95275771875E+02  0.90520400842E+02 0.  0.
         11    1    3    3    0    0  0.18196697584E+02 -0.32883353976E+02  0.48063356681E+02  0.61012466163E+02  0.51100000000E-03 0. -1.
         22    1    1    0    0    0 -0.17553152236E+02  0.13117591677E+02 -0.20083460181E+02  0.29724228125E+02  0.00000000000E+00 0. -1.
</event>
<event>
 5    1  0.1681111E-003  0.9118800E+02  0.7818608E-02  0.1130116E+00
         25   -1    0    0    0    0  0.00000000000E+00  0.00000000000E+00  0.99999998245E-14  0.12500000000E+03  0.12500000000E+03 0.  0.
        -11    1    3    3    0    0  0.35362336998E+01  0.32873283369E+02 -0.24371705076E+02  0.41074782006E+02  0.51100000000E-03 0. -1.
         23    2    1    0    0    0  0.21613091826E+02 -0.16782787332E+02 -0.10314285460E+02  0.95756673010E+02  0.91182061023E+02 0.  0.
         11    1    3    3    0    0  0.18076858126E+02 -0.49656070702E+02  0.14057419616E+02  0.54681891004E+02  0.51100000000E-03 0.  1.
         22    1    1    0    0    0 -0.21613091826E+02  0.16782787332E+02  0.10314285460E+02  0.29243326990E+02  0.00000000000E+00 0.  1.
</event>
<event>
 5    1  0.1681111E-003  0.9118800E+02  0.7818608E-02  0.1130116E+00
         25   -1    0    0    0    0  0.00000000000E+00  0.00000000000E+00  0.99999998245E-14  0.12500000000E+03  0.12500000000E+03 0.  0.
        -11    1    3    3    0    0  0.36803914877E+02 -0.18741125389E+02  0.20621786625E+02  0.46162929012E+02  0.51100000000E-03 0.  1.
         23    2    1    0    0    0 -0.62858465795E+01 -0.25620214526E+02  0.23193219725E+02  0.89874045197E+02  0.82725517824E+02 0.  0.
         11    1    3    3    0    0 -0.43089761456E+02 -0.68790891372E+01  0.25714331001E+01  0.43711116185E+02  0.51100000000E-03 0. -1.
         22    1    1    0    0    0  0.62858465795E+01  0.25620214526E+02 -0.23193219725E+02  0.35125954803E+02  0.00000000000E+00 0. -1.
</event>
<event>
 5    1  0.1681111E-003  0.9118800E+02  0.7818608E-02  0.1130116E+00
         25   -1    0    0    0    0  0.00000000000E+00  0.00000000000E+00  0.99999998245E-14  0.12500000000E+03  0.12500000000E+03 0.  0.
        -11    1    3    3    0    0  0.32583291390E+02 -0.85208788610E+01  0.28559694184E+02  0.44158038753E+02  0.51100000000E-03 0. -1.
         23    2    1    0    0    0 -0.11532892862E+02  0.17244666360E+02  0.20418094044E+02  0.95891844785E+02  0.91367177893E+02 0.  0.
         11    1    3    3    0    0 -0.44116184251E+02  0.25765545221E+02 -0.81416001400E+01  0.51733806032E+02  0.51100000000E-03 0.  1.
         22    1    1    0    0    0  0.11532892862E+02 -0.17244666360E+02 -0.20418094044E+02  0.29108155215E+02  0.00000000000E+00 0.  1.
</event>
<event>
 5    1  0.1681111E-003  0.9118800E+02  0.7818608E-02  0.1130116E+00
         25   -1    0    0    0    0  0.00000000000E+00  0.00000000000E+00  0.99999998245E-14  0.12500000000E+03  0.12500000000E+03 0.  0.
        -11    1    3    3    0    0  0.30563393184E+02  0.49907406493E+01  0.16932074285E+02  0.35294810312E+02  0.51100000000E-03 0.  1.
         23    2    1    0    0    0 -0.24090239611E+02  0.15853697639E+02 -0.59859804032E+01  0.95546454632E+02  0.90893419223E+02 0.  0.
         11    1    3    3    0    0 -0.54653632795E+02  0.10862956990E+02 -0.22918054688E+02  0.60251644320E+02  0.51100000000E-03 0. -1.
         22    1    1    0    0    0  0.24090239611E+02 -0.15853697639E+02  0.59859804032E+01  0.29453545368E+02  0.00000000000E+00 0. -1.
</event>
<event>
 5    1  0.1681111E-003  0.9118800E+02  0.7818608E-02  0.1130116E+00
         25   -1    0    0    0    0  0.00000000000E+00  0.00000000000E+00  0.99999998245E-14  0.12500000000E+03  0.12500000000E+03 0.  0.
        -11    1    3    3    0    0 -0.34153357015E+02  0.33080584272E+02  0.31194772441E+01  0.47649847740E+02  0.51100000000E-03 0. -1.
         23    2    1    0    0    0  0.66569476241E+01  0.18967362039E+02 -0.20010663429E+02  0.96636248040E+02  0.92379987064E+02 0.  0.
         11    1    3    3    0    0  0.40810304639E+02 -0.14113222233E+02 -0.23130140673E+02  0.48986400299E+02  0.51100000000E-03 0.  1.
         22    1    1    0    0    0 -0.66569476241E+01 -0.18967362039E+02  0.20010663429E+02  0.28363751960E+02  0.00000000000E+00 0. -1.
</event>
<event>
 5    1  0.1681111E-003  0.9118800E+02  0.7818608E-02  0.1130116E+00
         25   -1    0    0    0    0  0.00000000000E+00  0.00000000000E+00  0.99999998245E-14  0.12500000000E+03  0.12500000000E+03 0.  0.
        -11    1    3    3    0    0 -0.39882497672E+02  0.17286898889E+02  0.44374274902E+02  0.62117040875E+02  0.51100000000E-03 0.  1.
         23    2    1    0    0    0 -0.17360023933E+02  0.12785617671E+02  0.20384807516E+02  0.95328754195E+02  0.90593534806E+02 0.  0.
         11    1    3    3    0    0  0.22522473739E+02 -0.45012812188E+01 -0.23989467386E+02  0.33211713320E+02  0.51100000000E-03 0. -1.
         22    1    1    0    0    0  0.17360023933E+02 -0.12785617671E+02 -0.20384807516E+02  0.29671245805E+02  0.00000000000E+00 0.  1.
</event>
<event>
 5    1  0.1681111E-003  0.9118800E+02  0.7818608E-02  0.1130116E+00
         25   -1    0    0    0    0  0.00000000000E+00  0.00000000000E+00  0.99999998245E-14  0.12500000000E+03  0.12500000000E+03 0.  0.
        -11    1    3    3    0    0 -0.30794086044E+02 -0.22172968047E+02 -0.33305659031E+02  0.50489436232E+02  0.51100000000E-03 0. -1.
         23    2    1    0    0    0 -0.10754408168E+02  0.16650408581E+02 -0.21522113884E+02  0.95740902492E+02  0.91160438914E+02 0.  0.
         11    1    3    3    0    0  0.20039677876E+02  0.38823376628E+02  0.11783545147E+02  0.45251466259E+02  0.51100000000E-03 0.  1.
         22    1    1    0    0    0  0.10754408168E+02 -0.16650408581E+02  0.21522113884E+02  0.29259097508E+02  0.00000000000E+00 0.  1.
</event>
<event>
 5    1  0.1681111E-003  0.9118800E+02  0.7818608E-02  0.1130116E+00
         25   -1    0    0    0    0  0.00000000000E+00  0.00000000000E+00  0.99999998245E-14  0.12500000000E+03  0.12500000000E+03 0.  0.
        -11    1    3    3    0    0 -0.13343957391E+02 -0.25517646540E+02 -0.25577587126E+02  0.38515249542E+02  0.51100000000E-03 0.  1.
         23    2    1    0    0    0 -0.24492580758E+02  0.13298751168E+02  0.12893571657E+02  0.94291898709E+02  0.89151414332E+02 0.  0.
         11    1    3    3    0    0 -0.11148623367E+02  0.38816397708E+02  0.38471158783E+02  0.55776649168E+02  0.51100000000E-03 0. -1.
         22    1    1    0    0    0  0.24492580758E+02 -0.13298751168E+02 -0.12893571657E+02  0.30708101291E+02  0.00000000000E+00 0.  1.
</event>
<event>
 5    1  0.1681111E-003  0.9118800E+02  0.7818608E-02  0.1130116E+00
         25   -1    0    0    0    0  0.00000000000E+00  0.00000000000E+00  0.99999998245E-14  0.12500000000E+03  0.12500000000E+03 0.  0.
        -11    1    3    3    0    0  0.78592665994E+01  0.15904686953E+02 -0.57272446135E+02  0.59957153244E+02  0.51100000000E-03 0.  1.
         23    2    1    0    0    0 -0.84902584729E+01  0.83199731187E+01 -0.30829338837E+02  0.91958290378E+02  0.85817088010E+02 0.  0.
         11    1    3    3    0    0 -0.16349525072E+02 -0.75847138345E+01  0.26443107298E+02  0.32001137134E+02  0.51100000000E-03 0. -1.
         22    1    1    0    0    0  0.84902584729E+01 -0.83199731187E+01  0.30829338837E+02  0.33041709622E+02  0.00000000000E+00 0.  1.
</event>
<event>
 5    1  0.1681111E-003  0.9118800E+02  0.7818608E-02  0.1130116E+00
         25   -1    0    0    0    0  0.00000000000E+00  0.00000000000E+00  0.99999998245E-14  0.12500000000E+03  0.12500000000E+03 0.  0.
        -11    1    3    3    0    0 -0.85854350419E+01 -0.39948223955E+02  0.30693371097E+02  0.51104337600E+02  0.51100000000E-03 0. -1.
         23    2    1    0    0    0  0.15088237186E+02 -0.25160955134E+02 -0.37338138833E+01  0.95425180799E+02  0.90726485658E+02 0.  0.
         11    1    3    3    0    0  0.23673672228E+02  0.14787268821E+02 -0.34427184980E+02  0.44320843199E+02  0.51100000000E-03 0.  1.
         22    1    1    0    0    0 -0.15088237186E+02  0.25160955134E+02  0.37338138833E+01  0.29574819201E+02  0.00000000000E+00 0. -1.
</event>
<event>
 5    1  0.1681111E-003  0.9118800E+02  0.7818608E-02  0.1130116E+00
         25   -1    0    0    0    0  0.00000000000E+00  0.00000000000E+00  0.99999998245E-14  0.12500000000E+03  0.12500000000E+03 0.  0.
        -11    1    3    3    0    0 -0.16589594545E+02 -0.20762964926E+02 -0.25853646857E+02  0.37077303242E+02  0.51100000000E-03 0.  1.
         23    2    1    0    0    0  0.68961803314E+01  0.56153057217E+00  0.26126575340E+02  0.97972781150E+02  0.94171095818E+02 0.  0.
         11    1    3    3    0    0  0.23485774876E+02  0.21324495498E+02  0.51980222197E+02  0.60895477908E+02  0.51100000000E-03 0. -1.
         22    1    1    0    0    0 -0.68961803314E+01 -0.56153057217E+00 -0.26126575340E+02  0.27027218850E+02  0.00000000000E+00 0. -1.
</event>
<event>
 5    1  0.1681111E-003  0.9118800E+02  0.7818608E-02  0.1130116E+00
         25   -1    0    0    0    0  0.00000000000E+00  0.00000000000E+00  0.99999998245E-14  0.12500000000E+03  0.12500000000E+03 0.  0.
        -11    1    3    3    0    0 -0.66095725391E+01 -0.34294004344E+01  0.35186594640E+02  0.35965868252E+02  0.51100000000E-03 0. -1.
         23    2    1    0    0    0  0.13383880997E+02 -0.17411041458E+02 -0.19362566347E+02  0.95722335975E+02  0.91134976785E+02 0.  0.
         11    1    3    3    0    0  0.19993453536E+02 -0.13981641024E+02 -0.54549160987E+02  0.59756467723E+02  0.51100000000E-03 0.  1.
         22    1    1    0    0    0 -0.13383880997E+02  0.17411041458E+02  0.19362566347E+02  0.29277664025E+02  0.00000000000E+00 0.  1.
</event>
<event>
 5    1  0.1681111E-003  0.9118800E+02  0.7818608E-02  0.1130116E+00
         25   -1    0    0    0    0  0.00000000000E+00  0.00000000000E+00  0.99999998245E-14  0.12500000000E+03  0.12500000000E+03 0.  0.
        -11    1    3    3    0    0 -0.41593581282E+02 -0.21615036911E+02  0.29110278672E+02  0.55178294185E+02  0.51100000000E-03 0. -1.
         23    2    1    0    0    0 -0.10642130077E+02 -0.28897584460E+02  0.85609305679E+01  0.93037289659E+02  0.87374609668E+02 0.  0.
         11    1    3    3    0    0  0.30951451205E+02 -0.72825475481E+01 -0.20549348104E+02  0.37858995473E+02  0.51100000000E-03 0.  1.
         22    1    1    0    0    0  0.10642130077E+02  0.28897584460E+02 -0.85609305679E+01  0.31962710341E+02  0.00000000000E+00 0. -1.
</event>
<event>
 5    1  0.1681111E-003  0.9118800E+02  0.7818608E-02  0.1130116E+00
         25   -1    0    0    0    0  0.00000000000E+00  0.00000000000E+00  0.99999998245E-14  0.12500000000E+03  0.12500000000E+03 0.  0.
        -11    1    3    3    0    0  0.35670066190E+02 -0.74534001030E+01  0.25587062531E+00  0.36441353777E+02  0.51100000000E-03 0.  1.
         23    2    1    0    0    0 -0.13049208993E+02  0.19145658212E+02  0.19008217217E+02  0.95030842429E+02  0.90181542498E+02 0.  0.
         11    1    3    3    0    0 -0.48719275182E+02  0.26599058315E+02  0.18752346592E+02  0.58589488652E+02  0.51100000000E-03 0. -1.
         22    1    1    0    0    0  0.13049208993E+02 -0.19145658212E+02 -0.19008217217E+02  0.29969157571E+02  0.00000000000E+00 0.  1.
</event>
<event>
 5    1  0.1681111E-003  0.9118800E+02  0.7818608E-02  0.1130116E+00
         25   -1    0    0    0    0  0.00000000000E+00  0.00000000000E+00  0.99999998245E-14  0.12500000000E+03  0.12500000000E+03 0.  0.
        -11    1    3    3    0    0 -0.55895354571E+02 -0.13351200656E+00  0.24231045026E+02  0.60921687693E+02  0.51100000000E-03 0. -1.
         23    2    1    0    0    0 -0.22673250511E+02 -0.70100373262E+01  0.17510002863E+02  0.95507337992E+02  0.90839608641E+02 0.  0.
         11    1    3    3    0    0  0.33222104060E+02 -0.68765253196E+01 -0.67210421632E+01  0.34585650300E+02  0.51100000000E-03 0.  1.
         22    1    1    0    0    0  0.22673250511E+02  0.70100373262E+01 -0.17510002863E+02  0.29492662008E+02  0.00000000000E+00 0. -1.
</event>
<event>
 5    1  0.1681111E-003  0.9118800E+02  0.7818608E-02  0.1130116E+00
         25   -1    0    0    0    0  0.00000000000E+00  0.00000000000E+00  0.99999998245E-14  0.12500000000E+03  0.12500000000E+03 0.  0.
        -11    1    3    3    0    0  0.27300495345E+02  0.19347191329E+01 -0.25989440615E+02  0.37742697412E+02  0.51100000000E-03 0.  1.
         23    2    1    0    0    0 -0.21759621149E+02  0.45078318046E+01  0.11907947982E+02  0.99788873781E+02  0.96551636160E+02 0.  0.
         11    1    3    3    0    0 -0.49060116494E+02  0.25731126717E+01  0.37897388597E+02  0.62046176368E+02  0.51100000000E-03 0. -1.
         22    1    1    0    0    0  0.21759621149E+02 -0.45078318046E+01 -0.11907947982E+02  0.25211126219E+02  0.00000000000E+00 0. -1.
</event>
<event>
 5    1  0.1681111E-003  0.9118800E+02  0.7818608E-02  0.1130116E+00
         25   -1    0    0    0    0  0.00000000000E+00  0.00000000000E+00  0.99999998245E-14  0.12500000000E+03  0.12500000000E+03 0.  0.
        -11    1    3    3    0    0  0.22765042149E+02  0.13462148763E+02  0.20871734242E+02  0.33691332474E+02  0.51100000000E-03 0. -1.
         23    2    1    0    0    0 -0.22143288111E+02  0.55021969705E+01 -0.19792242561E+02  0.94795161887E+02  0.89854273531E+02 0.  0.
         11    1    3    3    0    0 -0.44908330259E+02 -0.79599517927E+01 -0.40663976803E+02  0.61103829413E+02  0.51100000000E-03 0.  1.
         22    1    1    0    0    0  0.22143288111E+02 -0.55021969705E+01  0.19792242561E+02  0.30204838113E+02  0.00000000000E+00 0.  1.
</event>
<event>
 5    1  0.1681111E-003  0.9118800E+02  0.7818608E-02  0.1130116E+00
         25   -1    0    0    0    0  0.00000000000E+00  0.00000000000E+00  0.99999998245E-14  0.12500000000E+03  0.12500000000E+03 0.  0.
        -11    1    3    3    0    0  0.74230978638E+01  0.26208005309E+02 -0.15087369996E+02  0.31138250719E+02  0.51100000000E-03 0.  1.
         23    2    1    0    0    0  0.12035277416E+01 -0.23401058538E+02  0.21583638927E+02  0.93142324488E+02  0.87524745770E+02 0.  0.
         11    1    3    3    0    0 -0.62195701222E+01 -0.49609063847E+02  0.36671008923E+02  0.62004073769E+02  0.51100000000E-03 0. -1.
         22    1    1    0    0    0 -0.12035277416E+01  0.23401058538E+02 -0.21583638927E+02  0.31857675512E+02  0.00000000000E+00 0. -1.
</event>
<event>
 5    1  0.1681111E-003  0.9118800E+02  0.7818608E-02  0.1130116E+00
         25   -1    0    0    0    0  0.00000000000E+00  0.00000000000E+00  0.99999998245E-14  0.12500000000E+03  0.12500000000E+03 0.  0.
        -11    1    3    3    0    0  0.21657949395E+02 -0.25158389689E+02  0.16124940310E+02  0.36905623474E+02  0.51100000000E-03 0.  1.
         23    2    1    0    0    0 -0.25913354442E+02 -0.79990533981E+01 -0.12633130945E+02  0.95082065727E+02  0.90252514822E+02 0.  0.
         11    1    3    3    0    0 -0.47571303837E+02  0.17159336291E+02 -0.28758071254E+02  0.58176442253E+02  0.51100000000E-03 0. -1.
         22    1    1    0    0    0  0.25913354442E+02  0.79990533981E+01  0.12633130945E+02  0.29917934273E+02  0.00000000000E+00 0. -1.
</event>
<event>
 5    1  0.1681111E-003  0.9118800E+02  0.7818608E-02  0.1130116E+00
         25   -1    0    0    0    0  0.00000000000E+00  0.00000000000E+00  0.99999998245E-14  0.12500000000E+03  0.12500000000E+03 0.  0.
        -11    1    3    3    0    0 -0.35222091733E+02  0.24969531463E+02  0.22412772344E+02  0.48645715247E+02  0.51100000000E-03 0. -1.
         23    2    1    0    0    0 -0.14772235912E+02  0.12976599513E+02 -0.19822543038E+02  0.97079679421E+02  0.92978061150E+02 0.  0.
         11    1    3    3    0    0  0.20449855821E+02 -0.11992931950E+02 -0.42235315382E+02  0.48433964173E+02  0.51100000000E-03 0.  1.
         22    1    1    0    0    0  0.14772235912E+02 -0.12976599513E+02  0.19822543038E+02  0.27920320579E+02  0.00000000000E+00 0. -1.
</event>
<event>
 5    1  0.1681111E-003  0.9118800E+02  0.7818608E-02  0.1130116E+00
         25   -1    0    0    0    0  0.00000000000E+00  0.00000000000E+00  0.99999998245E-14  0.12500000000E+03  0.12500000000E+03 0.  0.
        -11    1    3    3    0    0  0.26016118893E+02  0.37350507987E+02  0.84602856200E+01  0.46297681607E+02  0.51100000000E-03 0.  1.
         23    2    1    0    0    0  0.48473390783E+01  0.12441861760E+02  0.34445862500E+02  0.88056610015E+02  0.79932174396E+02 0.  0.
         11    1    3    3    0    0 -0.21168779815E+02 -0.24908646227E+02  0.25985576881E+02  0.41758928408E+02  0.51100000000E-03 0. -1.
         22    1    1    0    0    0 -0.48473390783E+01 -0.12441861760E+02 -0.34445862500E+02  0.36943389985E+02  0.00000000000E+00 0.  1.
</event>
<event>
 5    1  0.1681111E-003  0.9118800E+02  0.7818608E-02  0.1130116E+00
         25   -1    0    0    0    0  0.00000000000E+00  0.00000000000E+00  0.99999998245E-14  0.12500000000E+03  0.12500000000E+03 0.  0.
        -11    1    3    3    0    0 -0.49148646977E+02  0.15398137477E+01 -0.27478219503E+02  0.56329504465E+02  0.51100000000E-03 0.  1.
         23    2    1    0    0    0 -0.10093019450E+02 -0.26414010265E+00 -0.27794984022E+02  0.95428054708E+02  0.90730445149E+02 0.  0.
         11    1    3    3    0    0  0.39055627527E+02 -0.18039538504E+01 -0.31676451901E+00  0.39098550242E+02  0.51100000000E-03 0. -1.
         22    1    1    0    0    0  0.10093019450E+02  0.26414010265E+00  0.27794984022E+02  0.29571945292E+02  0.00000000000E+00 0.  1.
</event>
<event>
 5    1  0.1681111E-003  0.9118800E+02  0.7818608E-02  0.1130116E+00
         25   -1    0    0    0    0  0.00000000000E+00  0.00000000000E+00  0.99999998245E-14  0.12500000000E+03  0.12500000000E+03 0.  0.
        -11    1    3    3    0    0 -0.59868518764E+01 -0.26247833193E+02  0.54829667024E+02  0.61082595958E+02  0.51100000000E-03 0.  1.
         23    2    1    0    0    0  0.48632367139E+01 -0.19006399666E+02  0.29534287038E+02  0.89543429235E+02  0.82224432553E+02 0.  0.
         11    1    3    3    0    0  0.10850088590E+02  0.72414335269E+01 -0.25295379986E+02  0.28460833277E+02  0.51100000000E-03 0. -1.
         22    1    1    0    0    0 -0.48632367139E+01  0.19006399666E+02 -0.29534287038E+02  0.35456570765E+02  0.00000000000E+00 0.  1.
</event>
<event>
 5    1  0.1681111E-003  0.9118800E+02  0.7818608E-02  0.1130116E+00
         25   -1    0    0    0    0  0.00000000000E+00  0.00000000000E+00  0.99999998245E-14  0.12500000000E+03  0.12500000000E+03 0.  0.
        -11    1    3    3    0    0  0.47539276595E+01  0.92978210993E+01 -0.33682237072E+02  0.35263896549E+02  0.51100000000E-03 0. -1.
         23    2    1    0    0    0 -0.17839926206E+01  0.16834507610E+02  0.25010635982E+02  0.94798755185E+02  0.89859272177E+02 0.  0.
         11    1    3    3    0    0 -0.65379202801E+01  0.75366865104E+01  0.58692873054E+02  0.59534858636E+02  0.51100000000E-03 0.  1.
         22    1    1    0    0    0  0.17839926206E+01 -0.16834507610E+02 -0.25010635982E+02  0.30201244815E+02  0.00000000000E+00 0.  1.
</event>
<event>
 5    1  0.1681111E-003  0.9118800E+02  0.7818608E-02  0.1130116E+00
         25   -1    0    0    0    0  0.00000000000E+00  0.00000000000E+00  0.99999998245E-14  0.12500000000E+03  0.12500000000E+03 0.  0.
        -11    1    3    3    0    0  0.51495120708E+02 -0.25901185120E+02 -0.22074460496E+02  0.61724392696E+02  0.51100000000E-03 0.  1.
         23    2    1    0    0    0  0.22548702621E+02 -0.16918215483E+02 -0.54654693710E+01  0.96285171767E+02  0.91903715604E+02 0.  0.
         11    1    3    3    0    0 -0.28946418087E+02  0.89829696370E+01  0.16608991125E+02  0.34560779071E+02  0.51100000000E-03 0. -1.
         22    1    1    0    0    0 -0.22548702621E+02  0.16918215483E+02  0.54654693710E+01  0.28714828233E+02  0.00000000000E+00 0.  1.
</event>
<event>
 5    1  0.1681111E-003  0.9118800E+02  0.7818608E-02  0.1130116E+00
         25   -1    0    0    0    0  0.00000000000E+00  0.00000000000E+00  0.99999998245E-14  0.12500000000E+03  0.12500000000E+03 0.  0.
        -11    1    3    3    0    0 -0.47194583852E+02 -0.15534603824E+02 -0.25331392888E+02  0.55770351683E+02  0.51100000000E-03 0. -1.
         23    2    1    0    0    0 -0.27917112781E+02 -0.29160804276E+02 -0.11986177584E+02  0.82888408423E+02  0.71393992085E+02 0.  0.
         11    1    3    3    0    0  0.19277471071E+02 -0.13626200451E+02  0.13345215303E+02  0.27118056741E+02  0.51100000000E-03 0.  1.
         22    1    1    0    0    0  0.27917112781E+02  0.29160804276E+02  0.11986177584E+02  0.42111591577E+02  0.00000000000E+00 0. -1.
</event>
<event>
 5    1  0.1681111E-003  0.9118800E+02  0.7818608E-02  0.1130116E+00
         25   -1    0    0    0    0  0.00000000000E+00  0.00000000000E+00  0.99999998245E-14  0.12500000000E+03  0.12500000000E+03 0.  0.
        -11    1    3    3    0    0  0.10214399550E+01  0.15700969017E+02  0.31157025163E+02  0.34904498061E+02  0.51100000000E-03 0.  1.
         23    2    1    0    0    0 -0.17424531049E+02 -0.34611623191E+01 -0.23412266652E+02  0.95610747600E+02  0.90981794333E+02 0.  0.
         11    1    3    3    0    0 -0.18445971004E+02 -0.19162131337E+02 -0.54569291814E+02  0.60706249538E+02  0.51100000000E-03 0. -1.
         22    1    1    0    0    0  0.17424531049E+02  0.34611623191E+01  0.23412266652E+02  0.29389252400E+02  0.00000000000E+00 0. -1.
</event>
<event>
 5    1  0.1681111E-003  0.9118800E+02  0.7818608E-02  0.1130116E+00
         25   -1    0    0    0    0  0.00000000000E+00  0.00000000000E+00  0.99999998245E-14  0.12500000000E+03  0.12500000000E+03 0.  0.
        -11    1    3    3    0    0  0.14373097141E+02 -0.46460297183E+02 -0.10891550191E+02  0.49837445777E+02  0.51100000000E-03 0. -1.
         23    2    1    0    0    0  0.25442976692E+02 -0.24722598139E+01 -0.14963952252E+02  0.95379449726E+02  0.90663456979E+02 0.  0.
         11    1    3    3    0    0  0.11069879552E+02  0.43988037369E+02 -0.40724020604E+01  0.45542003949E+02  0.51100000000E-03 0.  1.
         22    1    1    0    0    0 -0.25442976692E+02  0.24722598139E+01  0.14963952252E+02  0.29620550274E+02  0.00000000000E+00 0.  1.
</event>
<event>
 5    1  0.1681111E-003  0.9118800E+02  0.7818608E-02  0.1130116E+00
         25   -1    0    0    0    0  0.00000000000E+00  0.00000000000E+00  0.99999998245E-14  0.12500000000E+03  0.12500000000E+03 0.  0.
        -11    1    3    3    0    0 -0.13615568709E+02  0.38175560140E+02 -0.20120252545E+02  0.45250211779E+02  0.51100000000E-03 0.  1.
         23    2    1    0    0    0  0.21101999219E+02  0.73496351880E+00 -0.19416488530E+02  0.96314906846E+02  0.91944149958E+02 0.  0.
         11    1    3    3    0    0  0.34717567928E+02 -0.37440596622E+02  0.70376401523E+00  0.51064695067E+02  0.51100000000E-03 0. -1.
         22    1    1    0    0    0 -0.21101999219E+02 -0.73496351880E+00  0.19416488530E+02  0.28685093154E+02  0.00000000000E+00 0.  1.
</event>
<event>
 5    1  0.1681111E-003  0.9118800E+02  0.7818608E-02  0.1130116E+00
         25   -1    0    0    0    0  0.00000000000E+00  0.00000000000E+00  0.99999998245E-14  0.12500000000E+03  0.12500000000E+03 0.  0.
        -11    1    3    3    0    0  0.17984050287E+02  0.16530248357E+01  0.37260102437E+02  0.41406204725E+02  0.51100000000E-03 0. -1.
         23    2    1    0    0    0 -0.25695181293E+02  0.12102198376E+02  0.64380780567E+01  0.95876909569E+02  0.91346742647E+02 0.  0.
         11    1    3    3    0    0 -0.43679231580E+02  0.10449173541E+02 -0.30822024380E+02  0.54470704844E+02  0.51100000000E-03 0.  1.
         22    1    1    0    0    0  0.25695181293E+02 -0.12102198376E+02 -0.64380780567E+01  0.29123090431E+02  0.00000000000E+00 0.  1.
</event>
<event>
 5    1  0.1681111E-003  0.9118800E+02  0.7818608E-02  0.1130116E+00
         25   -1    0    0    0    0  0.00000000000E+00  0.00000000000E+00  0.99999998245E-14  0.12500000000E+03  0.12500000000E+03 0.  0.
        -11    1    3    3    0    0  0.42030742512E+02  0.21229579373E+02 -0.21122136853E+02  0.51608361939E+02  0.51100000000E-03 0. -1.
         23    2    1    0    0    0  0.56576926594E+01  0.30642890560E+02 -0.19767152239E+01  0.93776553182E+02  0.88425891545E+02 0.  0.
         11    1    3    3    0    0 -0.36373049853E+02  0.94133111877E+01  0.19145421629E+02  0.42168191243E+02  0.51100000000E-03 0.  1.
         22    1    1    0    0    0 -0.56576926594E+01 -0.30642890560E+02  0.19767152239E+01  0.31223446818E+02  0.00000000000E+00 0.  1.
</event>
<event>
 5    1  0.1681111E-003  0.9118800E+02  0.7818608E-02  0.1130116E+00
         25   -1    0    0    0    0  0.00000000000E+00  0.00000000000E+00  0.99999998245E-14  0.12500000000E+03  0.12500000000E+03 0.  0.
        -11    1    3    3    0    0 -0.36816116564E+02 -0.37937251174E+02 -0.43194398986E+01  0.53040729885E+02  0.51100000000E-03 0.  1.
         23    2    1    0    0    0 -0.27854116058E+02  0.46857809391E+01 -0.70102578815E+00  0.96745800993E+02  0.92528105180E+02 0.  0.
         11    1    3    3    0    0  0.89620005057E+01  0.42623032113E+02  0.36184141105E+01  0.43705071107E+02  0.51100000000E-03 0. -1.
         22    1    1    0    0    0  0.27854116058E+02 -0.46857809391E+01  0.70102578815E+00  0.28254199007E+02  0.00000000000E+00 0.  1.
</event>
<event>
 5    1  0.1681111E-003  0.9118800E+02  0.7818608E-02  0.1130116E+00
         25   -1    0    0    0    0  0.00000000000E+00  0.00000000000E+00  0.99999998245E-14  0.12500000000E+03  0.12500000000E+03 0.  0.
        -11    1    3    3    0    0 -0.28710473548E+02 -0.22532417040E+02  0.44536772078E+02  0.57580597222E+02  0.51100000000E-03 0.  1.
         23    2    1    0    0    0  0.16029178352E+01 -0.19304939794E+02  0.23124930596E+02  0.94833587202E+02  0.89907712686E+02 0.  0.
         11    1    3    3    0    0  0.30313391384E+02  0.32274772456E+01 -0.21411841482E+02  0.37252989980E+02  0.51100000000E-03 0. -1.
         22    1    1    0    0    0 -0.16029178352E+01  0.19304939794E+02 -0.23124930596E+02  0.30166412798E+02  0.00000000000E+00 0.  1.
</event>
<event>
 5    1  0.1681111E-003  0.9118800E+02  0.7818608E-02  0.1130116E+00
         25   -1    0    0    0    0  0.00000000000E+00  0.00000000000E+00  0.99999998245E-14  0.12500000000E+03  0.12500000000E+03 0.  0.
        -11    1    3    3    0    0 -0.32023161976E+02  0.11170067874E+02 -0.11199160243E+02  0.35716585918E+02  0.51100000000E-03 0.  1.
         23    2    1    0    0    0  0.23082294624E+02 -0.62124573865E+01 -0.19576795261E+02  0.94102785488E+02  0.88885861485E+02 0.  0.
         11    1    3    3    0    0  0.55105456600E+02 -0.17382525261E+02 -0.83776350188E+01  0.58386199570E+02  0.51100000000E-03 0. -1.
         22    1    1    0    0    0 -0.23082294624E+02  0.62124573865E+01  0.19576795261E+02  0.30897214512E+02  0.00000000000E+00 0. -1.
</event>
<event>
 5    1  0.1681111E-003  0.9118800E+02  0.7818608E-02  0.1130116E+00
         25   -1    0    0    0    0  0.00000000000E+00  0.00000000000E+00  0.99999998245E-14  0.12500000000E+03  0.12500000000E+03 0.  0.
        -11    1    3    3    0    0  0.27324981692E+02  0.17417725860E+02  0.27101766922E+02  0.42243787344E+02  0.51100000000E-03 0.  1.
         23    2    1    0    0    0  0.22947182423E+02 -0.97694376289E+01 -0.17409398784E+02  0.94584506271E+02  0.89560742336E+02 0.  0.
         11    1    3    3    0    0 -0.43777992688E+01 -0.27187163489E+02 -0.44511165706E+02  0.52340718927E+02  0.51100000000E-03 0. -1.
         22    1    1    0    0    0 -0.22947182423E+02  0.97694376289E+01  0.17409398784E+02  0.30415493729E+02  0.00000000000E+00 0.  1.
</event>
<event>
 5    1  0.1681111E-003  0.9118800E+02  0.7818608E-02  0.1130116E+00
         25   -1    0    0    0    0  0.00000000000E+00  0.00000000000E+00  0.99999998245E-14  0.12500000000E+03  0.12500000000E+03 0.  0.
        -11    1    3    3    0    0  0.13177097583E+02  0.32579392723E+02  0.56061063780E+01  0.35587654599E+02  0.51100000000E-03 0. -1.
         23    2    1    0    0    0 -0.11309048511E+02 -0.23849551213E+02  0.87826315744E+01  0.97182194754E+02  0.93115781093E+02 0.  0.
         11    1    3    3    0    0 -0.24486146094E+02 -0.56428943936E+02  0.31765251964E+01  0.61594540155E+02  0.51100000000E-03 0.  1.
         22    1    1    0    0    0  0.11309048511E+02  0.23849551213E+02 -0.87826315744E+01  0.27817805246E+02  0.00000000000E+00 0.  1.
</event>
<event>
 5    1  0.1681111E-003  0.9118800E+02  0.7818608E-02  0.1130116E+00
         25   -1    0    0    0    0  0.00000000000E+00  0.00000000000E+00  0.99999998245E-14  0.12500000000E+03  0.12500000000E+03 0.  0.
        -11    1    3    3    0    0 -0.24951106641E+02 -0.86744571141E+01  0.26416156400E+02  0.37357960972E+02  0.51100000000E-03 0.  1.
         23    2    1    0    0    0  0.15518365445E+02 -0.96891067361E+01 -0.19290049846E+02  0.98414205325E+02  0.94755217963E+02 0.  0.
         11    1    3    3    0    0  0.40469472086E+02 -0.10146496219E+01 -0.45706206246E+02  0.61056244352E+02  0.51100000000E-03 0. -1.
         22    1    1    0    0    0 -0.15518365445E+02  0.96891067361E+01  0.19290049846E+02  0.26585794675E+02  0.00000000000E+00 0. -1.
</event>
<event>
 5    1  0.1681111E-003  0.9118800E+02  0.7818608E-02  0.1130116E+00
         25   -1    0    0    0    0  0.00000000000E+00  0.00000000000E+00  0.99999998245E-14  0.12500000000E+03  0.12500000000E+03 0.  0.
        -11    1    3    3    0    0  0.22028698566E+02 -0.52999311490E+02  0.20065238806E+02  0.60801351855E+02  0.51100000000E-03 0.  1.
         23    2    1    0    0    0  0.12063081343E+02 -0.19714833721E+02  0.18175248279E+02  0.95597070722E+02  0.90963001712E+02 0.  0.
         11    1    3    3    0    0 -0.99656172222E+01  0.33284477769E+02 -0.18899905260E+01  0.34795718866E+02  0.51100000000E-03 0. -1.
         22    1    1    0    0    0 -0.12063081343E+02  0.19714833721E+02 -0.18175248279E+02  0.29402929278E+02  0.00000000000E+00 0.  1.
</event>
<event>
 5    1  0.1681111E-003  0.9118800E+02  0.7818608E-02  0.1130116E+00
         25   -1    0    0    0    0  0.00000000000E+00  0.00000000000E+00  0.99999998245E-14  0.12500000000E+03  0.12500000000E+03 0.  0.
        -11    1    3    3    0    0  0.18237316518E+02 -0.29281504918E+02 -0.25294937778E+01  0.34589081848E+02  0.51100000000E-03 0.  1.
         23    2    1    0    0    0 -0.22458965603E+02  0.12598517550E+02  0.14537958869E+02  0.95428391513E+02  0.90730909167E+02 0.  0.
         11    1    3    3    0    0 -0.40696282122E+02  0.41880022468E+02  0.17067452646E+02  0.60839309665E+02  0.51100000000E-03 0. -1.
         22    1    1    0    0    0  0.22458965603E+02 -0.12598517550E+02 -0.14537958869E+02  0.29571608487E+02  0.00000000000E+00 0. -1.
</event>
<event>
 5    1  0.1681111E-003  0.9118800E+02  0.7818608E-02  0.1130116E+00
         25   -1    0    0    0    0  0.00000000000E+00  0.00000000000E+00  0.99999998245E-14  0.12500000000E+03  0.12500000000E+03 0.  0.
        -11    1    3    3    0    0  0.26897372643E-01  0.20675682436E+01  0.54646735655E+02  0.54685841677E+02  0.51100000000E-03 0. -1.
         23    2    1    0    0    0 -0.11192368960E+02  0.20019242574E+02  0.25593827151E+02  0.90633109183E+02  0.83864636741E+02 0.  0.
         11    1    3    3    0    0 -0.11219266333E+02  0.17951674331E+02 -0.29052908504E+02  0.35947267506E+02  0.51100000000E-03 0.  1.
         22    1    1    0    0    0  0.11192368960E+02 -0.20019242574E+02 -0.25593827151E+02  0.34366890817E+02  0.00000000000E+00 0.  1.
</event>
<event>
 5    1  0.1681111E-003  0.9118800E+02  0.7818608E-02  0.1130116E+00
         25   -1    0    0    0    0  0.00000000000E+00  0.00000000000E+00  0.99999998245E-14  0.12500000000E+03  0.12500000000E+03 0.  0.
        -11    1    3    3    0    0 -0.20315844214E+02  0.55226891092E+01  0.32023867742E+02  0.38324427282E+02  0.51100000000E-03 0.  1.
         23    2    1    0    0    0  0.46272491757E+01  0.22105311452E+02 -0.17654693154E+02  0.96333915166E+02  0.91969988537E+02 0.  0.
         11    1    3    3    0    0  0.24943093389E+02  0.16582622343E+02 -0.49678560896E+02  0.58009487884E+02  0.51100000000E-03 0. -1.
         22    1    1    0    0    0 -0.46272491757E+01 -0.22105311452E+02  0.17654693154E+02  0.28666084834E+02  0.00000000000E+00 0. -1.
</event>
<event>
 5    1  0.1681111E-003  0.9118800E+02  0.7818608E-02  0.1130116E+00
         25   -1    0    0    0    0  0.00000000000E+00  0.00000000000E+00  0.99999998245E-14  0.12500000000E+03  0.12500000000E+03 0.  0.
        -11    1    3    3    0    0 -0.19201285865E+02  0.19471808735E+00  0.28855379732E+02  0.34660643873E+02  0.51100000000E-03 0.  1.
         23    2    1    0    0    0  0.14129342445E+02  0.14425800237E+02 -0.20718348715E+02  0.96069185910E+02  0.91609478099E+02 0.  0.
         11    1    3    3    0    0  0.33330628310E+02  0.14231082149E+02 -0.49573728447E+02  0.61408542037E+02  0.51100000000E-03 0. -1.
         22    1    1    0    0    0 -0.14129342445E+02 -0.14425800237E+02  0.20718348715E+02  0.28930814090E+02  0.00000000000E+00 0. -1.
</event>
<event>
 5    1  0.1681111E-003  0.9118800E+02  0.7818608E-02  0.1130116E+00
         25   -1    0    0    0    0  0.00000000000E+00  0.00000000000E+00  0.99999998245E-14  0.12500000000E+03  0.12500000000E+03 0.  0.
        -11    1    3    3    0    0 -0.39306483800E+02 -0.48316629716E+02 -0.35847024845E+01  0.62388672594E+02  0.51100000000E-03 0. -1.
         23    2    1    0    0    0 -0.16033465770E+02 -0.23830886548E+02 -0.20289265038E+01  0.96205908227E+02  0.91795844442E+02 0.  0.
         11    1    3    3    0    0  0.23273018030E+02  0.24485743168E+02  0.15557759806E+01  0.33817235634E+02  0.51100000000E-03 0.  1.
         22    1    1    0    0    0  0.16033465770E+02  0.23830886548E+02  0.20289265038E+01  0.28794091773E+02  0.00000000000E+00 0. -1.
</event>
<event>
 5    1  0.1681111E-003  0.9118800E+02  0.7818608E-02  0.1130116E+00
         25   -1    0    0    0    0  0.00000000000E+00  0.00000000000E+00  0.99999998245E-14  0.12500000000E+03  0.12500000000E+03 0.  0.
        -11    1    3    3    0    0  0.21488184614E+02 -0.14092040781E+02 -0.52522549699E+02  0.58471753168E+02  0.51100000000E-03 0.  1.
         23    2    1    0    0    0  0.19576368013E+02 -0.11980692276E+02 -0.11987897718E+02  0.99106354763E+02  0.95663936207E+02 0.  0.
         11    1    3    3    0    0 -0.19118166008E+01  0.21113485051E+01  0.40534651981E+02  0.40634601594E+02  0.51100000000E-03 0. -1.
         22    1    1    0    0    0 -0.19576368013E+02  0.11980692276E+02  0.11987897718E+02  0.25893645237E+02  0.00000000000E+00 0.  1.
</event>
<event>
 5    1  0.1681111E-003  0.9118800E+02  0.7818608E-02  0.1130116E+00
         25   -1    0    0    0    0  0.00000000000E+00  0.00000000000E+00  0.99999998245E-14  0.12500000000E+03  0.12500000000E+03 0.  0.
        -11    1    3    3    0    0  0.61495047357E+01  0.34586395987E+02  0.13629251614E+02  0.37680123351E+02  0.51100000000E-03 0. -1.
         23    2    1    0    0    0  0.31308194712E+02 -0.18288799132E+01 -0.14838050006E+02  0.90305395436E+02  0.83374749529E+02 0.  0.
         11    1    3    3    0    0  0.25158689976E+02 -0.36415275901E+02 -0.28467301620E+02  0.52625272085E+02  0.51100000000E-03 0.  1.
         22    1    1    0    0    0 -0.31308194712E+02  0.18288799132E+01  0.14838050006E+02  0.34694604564E+02  0.00000000000E+00 0.  1.
</event>
<event>
 4    1  0.1681111E-003  0.9118800E+02  0.7818608E-02  0.1130116E+00
         25   -1    0    0    0    0  0.00000000000E+00  0.00000000000E+00  0.99999998245E-14  0.12500000000E+03  0.12500000000E+03 0.  0.
        -11    1    1    0    0    0  0.12020671566E+02 -0.12941405645E+02 -0.16482782923E+01  0.17739598264E+02  0.51100000000E-03 0.  1.
         11    1    1    0    0    0 -0.17934078671E+02  0.11559857316E+02 -0.50467190544E+02  0.54792324285E+02  0.51100000000E-03 0. -1.
         22    1    1    0    0    0  0.59134071048E+01  0.13815483286E+01  0.52115468836E+02  0.52468077451E+02  0.00000000000E+00 0. -1.
</event>
<event>
 5    1  0.1681111E-003  0.9118800E+02  0.7818608E-02  0.1130116E+00
         25   -1    0    0    0    0  0.00000000000E+00  0.00000000000E+00  0.99999998245E-14  0.12500000000E+03  0.12500000000E+03 0.  0.
        -11    1    3    3    0    0  0.25015487600E+02 -0.11002600720E+01 -0.41676140841E+02  0.48619809829E+02  0.51100000000E-03 0. -1.
         23    2    1    0    0    0  0.23937329698E+02  0.18987474703E+02 -0.50555256060E+00  0.94442259048E+02  0.89361987232E+02 0.  0.
         11    1    3    3    0    0 -0.10781579018E+01  0.20087734775E+02  0.41170588281E+02  0.45822449220E+02  0.51100000000E-03 0.  1.
         22    1    1    0    0    0 -0.23937329698E+02 -0.18987474703E+02  0.50555256060E+00  0.30557740952E+02  0.00000000000E+00 0. -1.
</event>
<event>
 5    1  0.1681111E-003  0.9118800E+02  0.7818608E-02  0.1130116E+00
         25   -1    0    0    0    0  0.00000000000E+00  0.00000000000E+00  0.99999998245E-14  0.12500000000E+03  0.12500000000E+03 0.  0.
        -11    1    3    3    0    0  0.36214413470E+02  0.20055452381E+02  0.62949007844E+01  0.41872791755E+02  0.51100000000E-03 0. -1.
         23    2    1    0    0    0 -0.21325643720E+02 -0.72624451761E-01  0.60514699269E+01  0.10283226122E+03  0.10041446761E+03 0.  0.
         11    1    3    3    0    0 -0.57540057191E+02 -0.20128076833E+02 -0.24343085748E+00  0.60959469464E+02  0.51100000000E-03 0.  1.
         22    1    1    0    0    0  0.21325643720E+02  0.72624451761E-01 -0.60514699269E+01  0.22167738781E+02  0.00000000000E+00 0.  1.
</event>
<event>
 5    1  0.1681111E-003  0.9118800E+02  0.7818608E-02  0.1130116E+00
         25   -1    0    0    0    0  0.00000000000E+00  0.00000000000E+00  0.99999998245E-14  0.12500000000E+03  0.12500000000E+03 0.  0.
        -11    1    3    3    0    0 -0.49528222103E+02  0.36098401400E+01 -0.35811999327E+02  0.61225607605E+02  0.51100000000E-03 0.  1.
         23    2    1    0    0    0 -0.25558315374E+02 -0.50932179278E+01 -0.11307747623E+02  0.96591664781E+02  0.92319641438E+02 0.  0.
         11    1    3    3    0    0  0.23969906730E+02 -0.87030580678E+01  0.24504251704E+02  0.35366057176E+02  0.51100000000E-03 0. -1.
         22    1    1    0    0    0  0.25558315374E+02  0.50932179278E+01  0.11307747623E+02  0.28408335219E+02  0.00000000000E+00 0.  1.
</event>
<event>
 5    1  0.1681111E-003  0.9118800E+02  0.7818608E-02  0.1130116E+00
         25   -1    0    0    0    0  0.00000000000E+00  0.00000000000E+00  0.99999998245E-14  0.12500000000E+03  0.12500000000E+03 0.  0.
        -11    1    3    3    0    0 -0.32857728012E+01 -0.61580614520E+01  0.42111643469E+02  0.42686163328E+02  0.51100000000E-03 0. -1.
         23    2    1    0    0    0 -0.21687205663E+00 -0.28973472540E+02 -0.54420626860E+01  0.95519070727E+02  0.90855752057E+02 0.  0.
         11    1    3    3    0    0  0.30689007445E+01 -0.22815411088E+02 -0.47553706155E+02  0.52832907399E+02  0.51100000000E-03 0.  1.
         22    1    1    0    0    0  0.21687205663E+00  0.28973472540E+02  0.54420626860E+01  0.29480929273E+02  0.00000000000E+00 0.  1.
</event>
<event>
 5    1  0.1681111E-003  0.9118800E+02  0.7818608E-02  0.1130116E+00
         25   -1    0    0    0    0  0.00000000000E+00  0.00000000000E+00  0.99999998245E-14  0.12500000000E+03  0.12500000000E+03 0.  0.
        -11    1    3    3    0    0  0.28644189733E+02 -0.12665106991E+02  0.30754777456E+02  0.43894770499E+02  0.51100000000E-03 0.  1.
         23    2    1    0    0    0 -0.89119102322E+01  0.19541620021E+02  0.22213444408E+02  0.94101227055E+02  0.88883669837E+02 0.  0.
         11    1    3    3    0    0 -0.37556099965E+02  0.32206727012E+02 -0.85413330478E+01  0.50206456556E+02  0.51100000000E-03 0. -1.
         22    1    1    0    0    0  0.89119102322E+01 -0.19541620021E+02 -0.22213444408E+02  0.30898772945E+02  0.00000000000E+00 0. -1.
</event>
<event>
 5    1  0.1681111E-003  0.9118800E+02  0.7818608E-02  0.1130116E+00
         25   -1    0    0    0    0  0.00000000000E+00  0.00000000000E+00  0.99999998245E-14  0.12500000000E+03  0.12500000000E+03 0.  0.
        -11    1    3    3    0    0 -0.49001853608E+02  0.43146149303E+01 -0.24699589062E+01  0.49253408575E+02  0.51100000000E-03 0. -1.
         23    2    1    0    0    0 -0.98205307982E+01 -0.26564207113E+01 -0.27098705687E+02  0.96054547058E+02  0.91589501387E+02 0.  0.
         11    1    3    3    0    0  0.39181322810E+02 -0.69710356416E+01 -0.24628746780E+02  0.46801138483E+02  0.51100000000E-03 0.  1.
         22    1    1    0    0    0  0.98205307982E+01  0.26564207113E+01  0.27098705687E+02  0.28945452942E+02  0.00000000000E+00 0. -1.
</event>
<event>
 5    1  0.1681111E-003  0.9118800E+02  0.7818608E-02  0.1130116E+00
         25   -1    0    0    0    0  0.00000000000E+00  0.00000000000E+00  0.99999998245E-14  0.12500000000E+03  0.12500000000E+03 0.  0.
        -11    1    3    3    0    0 -0.83507968973E+01  0.37238500603E+02  0.14711029950E+02  0.40900564036E+02  0.51100000000E-03 0. -1.
         23    2    1    0    0    0 -0.98502646256E+01  0.68143245609E+00 -0.26921104757E+02  0.96325308289E+02  0.91958289850E+02 0.  0.
         11    1    3    3    0    0 -0.14994677282E+01 -0.36557068147E+02 -0.41632134708E+02  0.55424744253E+02  0.51100000000E-03 0.  1.
         22    1    1    0    0    0  0.98502646256E+01 -0.68143245609E+00  0.26921104757E+02  0.28674691711E+02  0.00000000000E+00 0.  1.
</event>
<event>
 5    1  0.1681111E-003  0.9118800E+02  0.7818608E-02  0.1130116E+00
         25   -1    0    0    0    0  0.00000000000E+00  0.00000000000E+00  0.99999998245E-14  0.12500000000E+03  0.12500000000E+03 0.  0.
        -11    1    3    3    0    0 -0.39608369243E+02 -0.25533387491E+02 -0.19324153568E+02  0.50933286781E+02  0.51100000000E-03 0.  1.
         23    2    1    0    0    0 -0.20301229158E+02 -0.19715178900E+00  0.16476069794E+02  0.98853496409E+02  0.95332964406E+02 0.  0.
         11    1    3    3    0    0  0.19307140086E+02  0.25336235702E+02  0.35800223362E+02  0.47920209629E+02  0.51100000000E-03 0. -1.
         22    1    1    0    0    0  0.20301229158E+02  0.19715178900E+00 -0.16476069794E+02  0.26146503591E+02  0.00000000000E+00 0. -1.
</event>
<event>
 5    1  0.1681111E-003  0.9118800E+02  0.7818608E-02  0.1130116E+00
         25   -1    0    0    0    0  0.00000000000E+00  0.00000000000E+00  0.99999998245E-14  0.12500000000E+03  0.12500000000E+03 0.  0.
        -11    1    3    3    0    0 -0.26141253853E+02 -0.17451670622E+02 -0.31744906866E+02  0.44672867299E+02  0.51100000000E-03 0.  1.
         23    2    1    0    0    0 -0.49820341890E+01  0.24794005302E+02 -0.18257706311E+02  0.93808539577E+02  0.88471096377E+02 0.  0.
         11    1    3    3    0    0  0.21159219664E+02  0.42245675924E+02  0.13487200555E+02  0.49135672278E+02  0.51100000000E-03 0. -1.
         22    1    1    0    0    0  0.49820341890E+01 -0.24794005302E+02  0.18257706311E+02  0.31191460423E+02  0.00000000000E+00 0.  1.
</event>
<event>
 5    1  0.1681111E-003  0.9118800E+02  0.7818608E-02  0.1130116E+00
         25   -1    0    0    0    0  0.00000000000E+00  0.00000000000E+00  0.99999998245E-14  0.12500000000E+03  0.12500000000E+03 0.  0.
        -11    1    3    3    0    0  0.25189915775E+02  0.13130133759E+02  0.27815046143E+02  0.39756874393E+02  0.51100000000E-03 0. -1.
         23    2    1    0    0    0 -0.79243943938E+01  0.26907559706E+02 -0.12993475712E+02  0.94086520627E+02  0.88862985302E+02 0.  0.
         11    1    3    3    0    0 -0.33114310169E+02  0.13777425947E+02 -0.40808521855E+02  0.54329646234E+02  0.51100000000E-03 0.  1.
         22    1    1    0    0    0  0.79243943938E+01 -0.26907559706E+02  0.12993475712E+02  0.30913479373E+02  0.00000000000E+00 0.  1.
</event>
<event>
 5    1  0.1681111E-003  0.9118800E+02  0.7818608E-02  0.1130116E+00
         25   -1    0    0    0    0  0.00000000000E+00  0.00000000000E+00  0.99999998245E-14  0.12500000000E+03  0.12500000000E+03 0.  0.
        -11    1    3    3    0    0  0.42763349629E+02 -0.38418920143E+02 -0.13039495765E+02  0.58946975720E+02  0.51100000000E-03 0. -1.
         23    2    1    0    0    0  0.14547393039E+02 -0.12295897014E+02  0.97053122973E+01  0.10362223551E+03  0.10139309088E+03 0.  0.
         11    1    3    3    0    0 -0.28215956589E+02  0.26123023129E+02  0.22744808062E+02  0.44675259795E+02  0.51100000000E-03 0.  1.
         22    1    1    0    0    0 -0.14547393039E+02  0.12295897014E+02 -0.97053122973E+01  0.21377764486E+02  0.00000000000E+00 0. -1.
</event>
<event>
 5    1  0.1681111E-003  0.9118800E+02  0.7818608E-02  0.1130116E+00
         25   -1    0    0    0    0  0.00000000000E+00  0.00000000000E+00  0.99999998245E-14  0.12500000000E+03  0.12500000000E+03 0.  0.
        -11    1    3    3    0    0 -0.75767749081E+01 -0.69460438944E+01 -0.57694291635E+02  0.58602784331E+02  0.51100000000E-03 0. -1.
         23    2    1    0    0    0 -0.16479184999E+02  0.48827422949E+01 -0.23311161008E+02  0.96037697984E+02  0.91566503133E+02 0.  0.
         11    1    3    3    0    0 -0.89024100911E+01  0.11828786189E+02  0.34383130628E+02  0.37434913652E+02  0.51100000000E-03 0.  1.
         22    1    1    0    0    0  0.16479184999E+02 -0.48827422949E+01  0.23311161008E+02  0.28962302016E+02  0.00000000000E+00 0. -1.
</event>
<event>
 5    1  0.1681111E-003  0.9118800E+02  0.7818608E-02  0.1130116E+00
         25   -1    0    0    0    0  0.00000000000E+00  0.00000000000E+00  0.99999998245E-14  0.12500000000E+03  0.12500000000E+03 0.  0.
        -11    1    3    3    0    0 -0.27217574346E+02 -0.11126233876E+02  0.50773873225E+02  0.58673466201E+02  0.51100000000E-03 0.  1.
         23    2    1    0    0    0 -0.20411964405E+02 -0.15447518940E+02  0.15029489372E+02  0.95315666033E+02  0.90575474099E+02 0.  0.
         11    1    3    3    0    0  0.68056099408E+01 -0.43212850640E+01 -0.35744383853E+02  0.36642199832E+02  0.51100000000E-03 0. -1.
         22    1    1    0    0    0  0.20411964405E+02  0.15447518940E+02 -0.15029489372E+02  0.29684333967E+02  0.00000000000E+00 0.  1.
</event>
<event>
 5    1  0.1681111E-003  0.9118800E+02  0.7818608E-02  0.1130116E+00
         25   -1    0    0    0    0  0.00000000000E+00  0.00000000000E+00  0.99999998245E-14  0.12500000000E+03  0.12500000000E+03 0.  0.
        -11    1    3    3    0    0 -0.63828010709E+01  0.95100769993E+01 -0.54443420553E+02  0.55635130591E+02  0.51100000000E-03 0.  1.
         23    2    1    0    0    0  0.42604129203E+01  0.24339804933E+02 -0.30322624551E+02  0.85884289831E+02  0.76459613245E+02 0.  0.
         11    1    3    3    0    0  0.10643213991E+02  0.14829727934E+02  0.24120796003E+02  0.30249159240E+02  0.51100000000E-03 0. -1.
         22    1    1    0    0    0 -0.42604129203E+01 -0.24339804933E+02  0.30322624551E+02  0.39115710169E+02  0.00000000000E+00 0.  1.
</event>
<event>
 5    1  0.1681111E-003  0.9118800E+02  0.7818608E-02  0.1130116E+00
         25   -1    0    0    0    0  0.00000000000E+00  0.00000000000E+00  0.99999998245E-14  0.12500000000E+03  0.12500000000E+03 0.  0.
        -11    1    3    3    0    0  0.51352007157E+02 -0.21616276955E+02 -0.17314272502E+02  0.58344460757E+02  0.51100000000E-03 0. -1.
         23    2    1    0    0    0  0.14232105284E+02 -0.10647241775E+02 -0.21302768017E+02  0.97256090697E+02  0.93214927314E+02 0.  0.
         11    1    3    3    0    0 -0.37119901873E+02  0.10969035180E+02 -0.39884955157E+01  0.38911629940E+02  0.51100000000E-03 0.  1.
         22    1    1    0    0    0 -0.14232105284E+02  0.10647241775E+02  0.21302768017E+02  0.27743909303E+02  0.00000000000E+00 0. -1.
</event>
<event>
 5    1  0.1681111E-003  0.9118800E+02  0.7818608E-02  0.1130116E+00
         25   -1    0    0    0    0  0.00000000000E+00  0.00000000000E+00  0.99999998245E-14  0.12500000000E+03  0.12500000000E+03 0.  0.
        -11    1    3    3    0    0 -0.25166403990E+02 -0.55405951947E+02 -0.12101645039E+02  0.62045283575E+02  0.51100000000E-03 0.  1.
         23    2    1    0    0    0 -0.67529291548E+01 -0.26826201082E+02 -0.73790920239E+01  0.96369629486E+02  0.92018516460E+02 0.  0.
         11    1    3    3    0    0  0.18413474835E+02  0.28579750864E+02  0.47225530154E+01  0.34324345911E+02  0.51100000000E-03 0. -1.
         22    1    1    0    0    0  0.67529291548E+01  0.26826201082E+02  0.73790920239E+01  0.28630370514E+02  0.00000000000E+00 0.  1.
</event>
<event>
 5    1  0.1681111E-003  0.9118800E+02  0.7818608E-02  0.1130116E+00
         25   -1    0    0    0    0  0.00000000000E+00  0.00000000000E+00  0.99999998245E-14  0.12500000000E+03  0.12500000000E+03 0.  0.
        -11    1    3    3    0    0  0.19124023040E+02 -0.31465394658E+02 -0.55796468073E+01  0.37241532957E+02  0.51100000000E-03 0.  1.
         23    2    1    0    0    0  0.81286834085E+01  0.25493366847E+02  0.84784321383E+01  0.96930959071E+02  0.92777905601E+02 0.  0.
         11    1    3    3    0    0 -0.10995339632E+02  0.56958761505E+02  0.14058078946E+02  0.59689426114E+02  0.51100000000E-03 0. -1.
         22    1    1    0    0    0 -0.81286834085E+01 -0.25493366847E+02 -0.84784321383E+01  0.28069040929E+02  0.00000000000E+00 0. -1.
</event>
<event>
 5    1  0.1681111E-003  0.9118800E+02  0.7818608E-02  0.1130116E+00
         25   -1    0    0    0    0  0.00000000000E+00  0.00000000000E+00  0.99999998245E-14  0.12500000000E+03  0.12500000000E+03 0.  0.
        -11    1    3    3    0    0 -0.50943758788E+02  0.12249249398E+01 -0.86955786525E+01  0.51695068323E+02  0.51100000000E-03 0. -1.
         23    2    1    0    0    0 -0.14369667892E+02 -0.23803074915E+02 -0.81860813832E+01  0.96015768784E+02  0.91536562073E+02 0.  0.
         11    1    3    3    0    0  0.36574090896E+02 -0.25027999855E+02  0.50949726934E+00  0.44320700461E+02  0.51100000000E-03 0.  1.
         22    1    1    0    0    0  0.14369667892E+02  0.23803074915E+02  0.81860813832E+01  0.28984231216E+02  0.00000000000E+00 0. -1.
</event>
<event>
 5    1  0.1681111E-003  0.9118800E+02  0.7818608E-02  0.1130116E+00
         25   -1    0    0    0    0  0.00000000000E+00  0.00000000000E+00  0.99999998245E-14  0.12500000000E+03  0.12500000000E+03 0.  0.
        -11    1    3    3    0    0 -0.46795648865E+01  0.44517164904E+02  0.30231746195E+02  0.54015134702E+02  0.51100000000E-03 0.  1.
         23    2    1    0    0    0  0.10253411356E+02  0.27943357734E+02 -0.40952554699E+01  0.94954454519E+02  0.90075599525E+02 0.  0.
         11    1    3    3    0    0  0.14932976242E+02 -0.16573807170E+02 -0.34327001664E+02  0.40939319817E+02  0.51100000000E-03 0. -1.
         22    1    1    0    0    0 -0.10253411356E+02 -0.27943357734E+02  0.40952554699E+01  0.30045545481E+02  0.00000000000E+00 0.  1.
</event>
<event>
 5    1  0.1681111E-003  0.9118800E+02  0.7818608E-02  0.1130116E+00
         25   -1    0    0    0    0  0.00000000000E+00  0.00000000000E+00  0.99999998245E-14  0.12500000000E+03  0.12500000000E+03 0.  0.
        -11    1    3    3    0    0 -0.41669900623E+02 -0.57273374343E+01  0.24863053840E+02  0.48860561382E+02  0.51100000000E-03 0.  1.
         23    2    1    0    0    0  0.10342107092E+02 -0.17108331722E+01  0.21433927836E+02  0.10114000436E+03  0.98285304553E+02 0.  0.
         11    1    3    3    0    0  0.52012007716E+02  0.40165042621E+01 -0.34291260042E+01  0.52279442982E+02  0.51100000000E-03 0. -1.
         22    1    1    0    0    0 -0.10342107092E+02  0.17108331722E+01 -0.21433927836E+02  0.23859995636E+02  0.00000000000E+00 0. -1.
</event>
<event>
 5    1  0.1681111E-003  0.9118800E+02  0.7818608E-02  0.1130116E+00
         25   -1    0    0    0    0  0.00000000000E+00  0.00000000000E+00  0.99999998245E-14  0.12500000000E+03  0.12500000000E+03 0.  0.
        -11    1    3    3    0    0 -0.32542643195E+02 -0.14130917467E+02  0.28355997035E+02  0.45417717057E+02  0.51100000000E-03 0. -1.
         23    2    1    0    0    0  0.16722660923E+02 -0.14375779215E+02  0.19682672490E+02  0.95441278567E+02  0.90748661928E+02 0.  0.
         11    1    3    3    0    0  0.49265304119E+02 -0.24486174882E+00 -0.86733245446E+01  0.50023561510E+02  0.51100000000E-03 0.  1.
         22    1    1    0    0    0 -0.16722660923E+02  0.14375779215E+02 -0.19682672490E+02  0.29558721433E+02  0.00000000000E+00 0.  1.
</event>
<event>
 5    1  0.1681111E-003  0.9118800E+02  0.7818608E-02  0.1130116E+00
         25   -1    0    0    0    0  0.00000000000E+00  0.00000000000E+00  0.99999998245E-14  0.12500000000E+03  0.12500000000E+03 0.  0.
        -11    1    3    3    0    0  0.49071306736E+02  0.17943323986E+02 -0.28238338281E+02  0.59391579955E+02  0.51100000000E-03 0.  1.
         23    2    1    0    0    0  0.18967277359E+02  0.21296829071E+02 -0.98406728619E+01  0.94831284726E+02  0.89904511463E+02 0.  0.
         11    1    3    3    0    0 -0.30104029377E+02  0.33535050854E+01  0.18397665419E+02  0.35439704771E+02  0.51100000000E-03 0. -1.
         22    1    1    0    0    0 -0.18967277359E+02 -0.21296829071E+02  0.98406728619E+01  0.30168715274E+02  0.00000000000E+00 0.  1.
</event>
<event>
 5    1  0.1681111E-003  0.9118800E+02  0.7818608E-02  0.1130116E+00
         25   -1    0    0    0    0  0.00000000000E+00  0.00000000000E+00  0.99999998245E-14  0.12500000000E+03  0.12500000000E+03 0.  0.
        -11    1    3    3    0    0 -0.25500564905E+02 -0.19760392625E+02  0.74283349650E+00  0.32269238122E+02  0.51100000000E-03 0.  1.
         23    2    1    0    0    0  0.26337151568E+02 -0.13980572669E+02 -0.20739444188E+02  0.88678842115E+02  0.80899385219E+02 0.  0.
         11    1    3    3    0    0  0.51837716473E+02  0.57798199555E+01 -0.21482277685E+02  0.56409603993E+02  0.51100000000E-03 0. -1.
         22    1    1    0    0    0 -0.26337151568E+02  0.13980572669E+02  0.20739444188E+02  0.36321157885E+02  0.00000000000E+00 0. -1.
</event>
<event>
 5    1  0.1681111E-003  0.9118800E+02  0.7818608E-02  0.1130116E+00
         25   -1    0    0    0    0  0.00000000000E+00  0.00000000000E+00  0.99999998245E-14  0.12500000000E+03  0.12500000000E+03 0.  0.
        -11    1    3    3    0    0 -0.25279621881E+01 -0.42308333956E+02  0.10249873641E+02  0.43605568737E+02  0.51100000000E-03 0.  1.
         23    2    1    0    0    0 -0.82323826930E+01  0.64778026757E+01  0.27426720649E+02  0.95640860743E+02  0.91023157415E+02 0.  0.
         11    1    3    3    0    0 -0.57044205049E+01  0.48786136632E+02  0.17176847008E+02  0.52035292006E+02  0.51100000000E-03 0. -1.
         22    1    1    0    0    0  0.82323826930E+01 -0.64778026757E+01 -0.27426720649E+02  0.29359139257E+02  0.00000000000E+00 0.  1.
</event>
<event>
 5    1  0.1681111E-003  0.9118800E+02  0.7818608E-02  0.1130116E+00
         25   -1    0    0    0    0  0.00000000000E+00  0.00000000000E+00  0.99999998245E-14  0.12500000000E+03  0.12500000000E+03 0.  0.
        -11    1    3    3    0    0 -0.36460975106E+02  0.38353425595E+02 -0.21208572891E+02  0.57010451014E+02  0.51100000000E-03 0. -1.
         23    2    1    0    0    0 -0.28630844954E+02  0.65610163400E+01 -0.75312491583E+00  0.95617362009E+02  0.90990881423E+02 0.  0.
         11    1    3    3    0    0  0.78301301517E+01 -0.31792409255E+02  0.20455447975E+02  0.38606910995E+02  0.51100000000E-03 0.  1.
         22    1    1    0    0    0  0.28630844954E+02 -0.65610163400E+01  0.75312491583E+00  0.29382637991E+02  0.00000000000E+00 0.  1.
</event>
<event>
 5    1  0.1681111E-003  0.9118800E+02  0.7818608E-02  0.1130116E+00
         25   -1    0    0    0    0  0.00000000000E+00  0.00000000000E+00  0.99999998245E-14  0.12500000000E+03  0.12500000000E+03 0.  0.
        -11    1    3    3    0    0 -0.15744478218E+02  0.48755062174E+02 -0.29932996386E+01  0.51321579525E+02  0.51100000000E-03 0.  1.
         23    2    1    0    0    0 -0.25797761010E+01  0.22991515902E+02  0.24548866696E+02  0.91267050169E+02  0.84804260166E+02 0.  0.
         11    1    3    3    0    0  0.13164702117E+02 -0.25763546272E+02  0.27542166335E+02  0.39945470644E+02  0.51100000000E-03 0. -1.
         22    1    1    0    0    0  0.25797761010E+01 -0.22991515902E+02 -0.24548866696E+02  0.33732949831E+02  0.00000000000E+00 0.  1.
</event>
<event>
 5    1  0.1681111E-003  0.9118800E+02  0.7818608E-02  0.1130116E+00
         25   -1    0    0    0    0  0.00000000000E+00  0.00000000000E+00  0.99999998245E-14  0.12500000000E+03  0.12500000000E+03 0.  0.
        -11    1    3    3    0    0 -0.15795452547E+02 -0.19554568486E+02  0.23285881837E+02  0.34265285101E+02  0.51100000000E-03 0. -1.
         23    2    1    0    0    0  0.59609560330E+01  0.24210261642E+02 -0.14602198111E+02  0.96105468419E+02  0.91658971764E+02 0.  0.
         11    1    3    3    0    0  0.21756408580E+02  0.43764830128E+02 -0.37888079948E+02  0.61840183318E+02  0.51100000000E-03 0.  1.
         22    1    1    0    0    0 -0.59609560330E+01 -0.24210261642E+02  0.14602198111E+02  0.28894531581E+02  0.00000000000E+00 0.  1.
</event>
<event>
 5    1  0.1681111E-003  0.9118800E+02  0.7818608E-02  0.1130116E+00
         25   -1    0    0    0    0  0.00000000000E+00  0.00000000000E+00  0.99999998245E-14  0.12500000000E+03  0.12500000000E+03 0.  0.
        -11    1    3    3    0    0  0.13406025048E+02  0.37629145046E+02  0.85613316811E+01  0.40853034954E+02  0.51100000000E-03 0.  1.
         23    2    1    0    0    0 -0.21462246376E+02 -0.20299075103E+01  0.20781853900E+02  0.95056152626E+02  0.90216617962E+02 0.  0.
         11    1    3    3    0    0 -0.34868271425E+02 -0.39659052557E+02  0.12220522219E+02  0.54203117672E+02  0.51100000000E-03 0. -1.
         22    1    1    0    0    0  0.21462246376E+02  0.20299075103E+01 -0.20781853900E+02  0.29943847374E+02  0.00000000000E+00 0. -1.
</event>
<event>
 5    1  0.1681111E-003  0.9118800E+02  0.7818608E-02  0.1130116E+00
         25   -1    0    0    0    0  0.00000000000E+00  0.00000000000E+00  0.99999998245E-14  0.12500000000E+03  0.12500000000E+03 0.  0.
        -11    1    3    3    0    0 -0.18183973963E+02 -0.29572541899E+02  0.26244843984E+02  0.43519926234E+02  0.51100000000E-03 0.  1.
         23    2    1    0    0    0  0.12455470120E+02  0.13287397870E+02  0.22091986553E+02  0.96368731290E+02  0.92017296323E+02 0.  0.
         11    1    3    3    0    0  0.30639444084E+02  0.42859939769E+02 -0.41528574308E+01  0.52848805056E+02  0.51100000000E-03 0. -1.
         22    1    1    0    0    0 -0.12455470120E+02 -0.13287397870E+02 -0.22091986553E+02  0.28631268710E+02  0.00000000000E+00 0. -1.
</event>
<event>
 5    1  0.1681111E-003  0.9118800E+02  0.7818608E-02  0.1130116E+00
         25   -1    0    0    0    0  0.00000000000E+00  0.00000000000E+00  0.99999998245E-14  0.12500000000E+03  0.12500000000E+03 0.  0.
        -11    1    3    3    0    0  0.56010467963E+02 -0.10290819701E+02  0.10474766230E+02  0.57903317862E+02  0.51100000000E-03 0. -1.
         23    2    1    0    0    0  0.22087724424E+02 -0.17384538821E+02 -0.59715217070E+01  0.96264154236E+02  0.91875124811E+02 0.  0.
         11    1    3    3    0    0 -0.33922743539E+02 -0.70937191204E+01 -0.16446287937E+02  0.38360836375E+02  0.51100000000E-03 0.  1.
         22    1    1    0    0    0 -0.22087724424E+02  0.17384538821E+02  0.59715217070E+01  0.28735845764E+02  0.00000000000E+00 0. -1.
</event>
<event>
 5    1  0.1681111E-003  0.9118800E+02  0.7818608E-02  0.1130116E+00
         25   -1    0    0    0    0  0.00000000000E+00  0.00000000000E+00  0.99999998245E-14  0.12500000000E+03  0.12500000000E+03 0.  0.
        -11    1    3    3    0    0 -0.23583717527E+02  0.10644246416E+02  0.27943504910E+02  0.38083213902E+02  0.51100000000E-03 0. -1.
         23    2    1    0    0    0  0.16408085694E+02 -0.24110226395E+02  0.73805409420E+01  0.94916770826E+02  0.90023289800E+02 0.  0.
         11    1    3    3    0    0  0.39991803221E+02 -0.34754472811E+02 -0.20562963968E+02  0.56833556924E+02  0.51100000000E-03 0.  1.
         22    1    1    0    0    0 -0.16408085694E+02  0.24110226395E+02 -0.73805409420E+01  0.30083229174E+02  0.00000000000E+00 0.  1.
</event>
<event>
 5    1  0.1681111E-003  0.9118800E+02  0.7818608E-02  0.1130116E+00
         25   -1    0    0    0    0  0.00000000000E+00  0.00000000000E+00  0.99999998245E-14  0.12500000000E+03  0.12500000000E+03 0.  0.
        -11    1    3    3    0    0  0.29773313032E+02 -0.10876467587E+02 -0.15411859253E+02  0.35245895108E+02  0.51100000000E-03 0. -1.
         23    2    1    0    0    0 -0.26393821833E+02  0.10016286537E+02 -0.81834220917E+01  0.95607344045E+02  0.90977118065E+02 0.  0.
         11    1    3    3    0    0 -0.56167134864E+02  0.20892754124E+02  0.72284371618E+01  0.60361448937E+02  0.51100000000E-03 0.  1.
         22    1    1    0    0    0  0.26393821833E+02 -0.10016286537E+02  0.81834220917E+01  0.29392655955E+02  0.00000000000E+00 0.  1.
</event>
<event>
 5    1  0.1681111E-003  0.9118800E+02  0.7818608E-02  0.1130116E+00
         25   -1    0    0    0    0  0.00000000000E+00  0.00000000000E+00  0.99999998245E-14  0.12500000000E+03  0.12500000000E+03 0.  0.
        -11    1    3    3    0    0  0.48820463548E+02 -0.10379892185E+02 -0.33239839272E+02  0.59967213858E+02  0.51100000000E-03 0. -1.
         23    2    1    0    0    0  0.17427262248E+02 -0.16400317102E+02 -0.14164673914E+02  0.97191406767E+02  0.93128146614E+02 0.  0.
         11    1    3    3    0    0 -0.31393201300E+02 -0.60204249170E+01  0.19075165358E+02  0.37224192909E+02  0.51100000000E-03 0.  1.
         22    1    1    0    0    0 -0.17427262248E+02  0.16400317102E+02  0.14164673914E+02  0.27808593233E+02  0.00000000000E+00 0. -1.
</event>
<event>
 5    1  0.1681111E-003  0.9118800E+02  0.7818608E-02  0.1130116E+00
         25   -1    0    0    0    0  0.00000000000E+00  0.00000000000E+00  0.99999998245E-14  0.12500000000E+03  0.12500000000E+03 0.  0.
        -11    1    3    3    0    0 -0.33597271932E+02  0.34259419494E+02 -0.13401742715E+02  0.49820590256E+02  0.51100000000E-03 0.  1.
         23    2    1    0    0    0 -0.22002093905E+02 -0.11633290341E+02 -0.12465046333E+02  0.97164717346E+02  0.93092316205E+02 0.  0.
         11    1    3    3    0    0  0.11595178028E+02 -0.45892709836E+02  0.93669638187E+00  0.47344127090E+02  0.51100000000E-03 0. -1.
         22    1    1    0    0    0  0.22002093905E+02  0.11633290341E+02  0.12465046333E+02  0.27835282654E+02  0.00000000000E+00 0.  1.
</event>
<event>
 5    1  0.1681111E-003  0.9118800E+02  0.7818608E-02  0.1130116E+00
         25   -1    0    0    0    0  0.00000000000E+00  0.00000000000E+00  0.99999998245E-14  0.12500000000E+03  0.12500000000E+03 0.  0.
        -11    1    3    3    0    0  0.26776678124E+01  0.10898360873E+02  0.30840962231E+02  0.32819340734E+02  0.51100000000E-03 0.  1.
         23    2    1    0    0    0 -0.23640695883E+02 -0.14106700490E+02 -0.16825376187E+02  0.92735859156E+02  0.86942307245E+02 0.  0.
         11    1    3    3    0    0 -0.26318363695E+02 -0.25005061364E+02 -0.47666338418E+02  0.59916518422E+02  0.51100000000E-03 0. -1.
         22    1    1    0    0    0  0.23640695883E+02  0.14106700490E+02  0.16825376187E+02  0.32264140844E+02  0.00000000000E+00 0. -1.
</event>
<event>
 5    1  0.1681111E-003  0.9118800E+02  0.7818608E-02  0.1130116E+00
         25   -1    0    0    0    0  0.00000000000E+00  0.00000000000E+00  0.99999998245E-14  0.12500000000E+03  0.12500000000E+03 0.  0.
        -11    1    3    3    0    0 -0.44406039222E+01 -0.41274230743E+02  0.18459623500E+02  0.45431693636E+02  0.51100000000E-03 0. -1.
         23    2    1    0    0    0  0.13127130344E+02 -0.12836043538E+02 -0.20973177439E+02  0.97126002500E+02  0.93040317202E+02 0.  0.
         11    1    3    3    0    0  0.17567734266E+02  0.28438187205E+02 -0.39432800939E+02  0.51694308864E+02  0.51100000000E-03 0.  1.
         22    1    1    0    0    0 -0.13127130344E+02  0.12836043538E+02  0.20973177439E+02  0.27873997500E+02  0.00000000000E+00 0.  1.
</event>
<event>
 5    1  0.1681111E-003  0.9118800E+02  0.7818608E-02  0.1130116E+00
         25   -1    0    0    0    0  0.00000000000E+00  0.00000000000E+00  0.99999998245E-14  0.12500000000E+03  0.12500000000E+03 0.  0.
        -11    1    3    3    0    0 -0.28095242966E+02 -0.25790859723E+02  0.30126678351E+02  0.48601727041E+02  0.51100000000E-03 0.  1.
         23    2    1    0    0    0  0.15582818672E+02 -0.82060302002E+01  0.22700704213E+02  0.96268742785E+02  0.91881367513E+02 0.  0.
         11    1    3    3    0    0  0.43678061637E+02  0.17584829523E+02 -0.74259741381E+01  0.47667015744E+02  0.51100000000E-03 0. -1.
         22    1    1    0    0    0 -0.15582818672E+02  0.82060302002E+01 -0.22700704213E+02  0.28731257215E+02  0.00000000000E+00 0. -1.
</event>
<event>
 5    1  0.1681111E-003  0.9118800E+02  0.7818608E-02  0.1130116E+00
         25   -1    0    0    0    0  0.00000000000E+00  0.00000000000E+00  0.99999998245E-14  0.12500000000E+03  0.12500000000E+03 0.  0.
        -11    1    3    3    0    0 -0.38873126728E+02 -0.17971907381E+02  0.15627367959E+02  0.45588639661E+02  0.51100000000E-03 0.  1.
         23    2    1    0    0    0  0.60862316297E+01  0.21331364473E+01  0.27916154860E+02  0.96348574403E+02  0.91989910320E+02 0.  0.
         11    1    3    3    0    0  0.44959358358E+02  0.20105043829E+02  0.12288786901E+02  0.50759934742E+02  0.51100000000E-03 0. -1.
         22    1    1    0    0    0 -0.60862316297E+01 -0.21331364473E+01 -0.27916154860E+02  0.28651425597E+02  0.00000000000E+00 0. -1.
</event>
<event>
 5    1  0.1681111E-003  0.9118800E+02  0.7818608E-02  0.1130116E+00
         25   -1    0    0    0    0  0.00000000000E+00  0.00000000000E+00  0.99999998245E-14  0.12500000000E+03  0.12500000000E+03 0.  0.
        -11    1    3    3    0    0  0.33182655998E+02  0.38694839206E+02  0.11640816876E+02  0.52286593483E+02  0.51100000000E-03 0.  1.
         23    2    1    0    0    0  0.24882442068E+02  0.47577154606E+01 -0.14399026604E+02  0.95860615195E+02  0.91324442504E+02 0.  0.
         11    1    3    3    0    0 -0.83002139303E+01 -0.33937123745E+02 -0.26039843480E+02  0.43574021712E+02  0.51100000000E-03 0. -1.
         22    1    1    0    0    0 -0.24882442068E+02 -0.47577154606E+01  0.14399026604E+02  0.29139384805E+02  0.00000000000E+00 0. -1.
</event>
<event>
 5    1  0.1681111E-003  0.9118800E+02  0.7818608E-02  0.1130116E+00
         25   -1    0    0    0    0  0.00000000000E+00  0.00000000000E+00  0.99999998245E-14  0.12500000000E+03  0.12500000000E+03 0.  0.
        -11    1    3    3    0    0 -0.13340370496E+02 -0.31895634262E+02 -0.32440213332E+02  0.47409539243E+02  0.51100000000E-03 0.  1.
         23    2    1    0    0    0  0.16741466103E+02  0.45980630639E+01 -0.23886425731E+02  0.95470689046E+02  0.90789163789E+02 0.  0.
         11    1    3    3    0    0  0.30081836600E+02  0.36493697326E+02  0.85537876010E+01  0.48061149802E+02  0.51100000000E-03 0. -1.
         22    1    1    0    0    0 -0.16741466103E+02 -0.45980630639E+01  0.23886425731E+02  0.29529310954E+02  0.00000000000E+00 0. -1.
</event>
<event>
 5    1  0.1681111E-003  0.9118800E+02  0.7818608E-02  0.1130116E+00
         25   -1    0    0    0    0  0.00000000000E+00  0.00000000000E+00  0.99999998245E-14  0.12500000000E+03  0.12500000000E+03 0.  0.
        -11    1    3    3    0    0 -0.14907537904E+02  0.10943143228E+02  0.43020926257E+02  0.46827205409E+02  0.51100000000E-03 0.  1.
         23    2    1    0    0    0 -0.24573921418E+02  0.14519543773E+02 -0.50701336410E+01  0.96010329074E+02  0.91529133442E+02 0.  0.
         11    1    3    3    0    0 -0.96663835137E+01  0.35764005445E+01 -0.48091059898E+02  0.49183123666E+02  0.51100000000E-03 0. -1.
         22    1    1    0    0    0  0.24573921418E+02 -0.14519543773E+02  0.50701336410E+01  0.28989670926E+02  0.00000000000E+00 0.  1.
</event>
<event>
 5    1  0.1681111E-003  0.9118800E+02  0.7818608E-02  0.1130116E+00
         25   -1    0    0    0    0  0.00000000000E+00  0.00000000000E+00  0.99999998245E-14  0.12500000000E+03  0.12500000000E+03 0.  0.
        -11    1    3    3    0    0  0.64588072823E+00 -0.19202026317E+02  0.30829900644E+02  0.36326543334E+02  0.51100000000E-03 0.  1.
         23    2    1    0    0    0 -0.22261471727E+02 -0.18036097957E+01 -0.20187164803E+02  0.94894389982E+02  0.89992207972E+02 0.  0.
         11    1    3    3    0    0 -0.22907352455E+02  0.17398416521E+02 -0.51017065447E+02  0.58567846649E+02  0.51100000000E-03 0. -1.
         22    1    1    0    0    0  0.22261471727E+02  0.18036097957E+01  0.20187164803E+02  0.30105610018E+02  0.00000000000E+00 0. -1.
</event>
<event>
 5    1  0.1681111E-003  0.9118800E+02  0.7818608E-02  0.1130116E+00
         25   -1    0    0    0    0  0.00000000000E+00  0.00000000000E+00  0.99999998245E-14  0.12500000000E+03  0.12500000000E+03 0.  0.
        -11    1    3    3    0    0 -0.23388793018E+02 -0.34696055129E+02  0.35087064000E+02  0.54607270036E+02  0.51100000000E-03 0.  1.
         23    2    1    0    0    0 -0.22076689766E+02  0.33541625783E+01  0.17906605630E+02  0.96376981941E+02  0.92028503656E+02 0.  0.
         11    1    3    3    0    0  0.13121032517E+01  0.38050217707E+02 -0.17180458371E+02  0.41769711905E+02  0.51100000000E-03 0. -1.
         22    1    1    0    0    0  0.22076689766E+02 -0.33541625783E+01 -0.17906605630E+02  0.28623018059E+02  0.00000000000E+00 0.  1.
</event>
<event>
 5    1  0.1681111E-003  0.9118800E+02  0.7818608E-02  0.1130116E+00
         25   -1    0    0    0    0  0.00000000000E+00  0.00000000000E+00  0.99999998245E-14  0.12500000000E+03  0.12500000000E+03 0.  0.
        -11    1    3    3    0    0  0.40250156916E+02  0.39710529877E+02  0.11702502273E+02  0.57740366076E+02  0.51100000000E-03 0.  1.
         23    2    1    0    0    0  0.27314721507E+02  0.69785691037E+01 -0.44389824763E+01  0.96460571079E+02  0.92141970728E+02 0.  0.
         11    1    3    3    0    0 -0.12935435409E+02 -0.32731960774E+02 -0.16141484749E+02  0.38720205003E+02  0.51100000000E-03 0. -1.
         22    1    1    0    0    0 -0.27314721507E+02 -0.69785691037E+01  0.44389824763E+01  0.28539428921E+02  0.00000000000E+00 0.  1.
</event>
<event>
 5    1  0.1681111E-003  0.9118800E+02  0.7818608E-02  0.1130116E+00
         25   -1    0    0    0    0  0.00000000000E+00  0.00000000000E+00  0.99999998245E-14  0.12500000000E+03  0.12500000000E+03 0.  0.
        -11    1    3    3    0    0 -0.28373716621E+02  0.25455716104E+02  0.13193014521E+01  0.38141864582E+02  0.51100000000E-03 0.  1.
         23    2    1    0    0    0  0.18427210718E+02 -0.13420250690E+01  0.22327565328E+02  0.96019259851E+02  0.91541329260E+02 0.  0.
         11    1    3    3    0    0  0.46800927338E+02 -0.26797741173E+02  0.21008263876E+02  0.57877395268E+02  0.51100000000E-03 0. -1.
         22    1    1    0    0    0 -0.18427210718E+02  0.13420250690E+01 -0.22327565328E+02  0.28980740149E+02  0.00000000000E+00 0. -1.
</event>
<event>
 5    1  0.1681111E-003  0.9118800E+02  0.7818608E-02  0.1130116E+00
         25   -1    0    0    0    0  0.00000000000E+00  0.00000000000E+00  0.99999998245E-14  0.12500000000E+03  0.12500000000E+03 0.  0.
        -11    1    3    3    0    0 -0.29778721762E+02  0.39337777869E+02  0.33664329413E+02  0.59728721002E+02  0.51100000000E-03 0.  1.
         23    2    1    0    0    0 -0.19588603064E+02  0.70004292444E+01  0.19546725566E+02  0.96455405766E+02  0.92134963188E+02 0.  0.
         11    1    3    3    0    0  0.10190118698E+02 -0.32337348624E+02 -0.14117603847E+02  0.36726684764E+02  0.51100000000E-03 0. -1.
         22    1    1    0    0    0  0.19588603064E+02 -0.70004292444E+01 -0.19546725566E+02  0.28544594234E+02  0.00000000000E+00 0.  1.
</event>
<event>
 5    1  0.1681111E-003  0.9118800E+02  0.7818608E-02  0.1130116E+00
         25   -1    0    0    0    0  0.00000000000E+00  0.00000000000E+00  0.99999998245E-14  0.12500000000E+03  0.12500000000E+03 0.  0.
        -11    1    3    3    0    0 -0.16887923823E+02  0.31724112296E+02  0.24172886361E+02  0.43312235076E+02  0.51100000000E-03 0.  1.
         23    2    1    0    0    0 -0.25056112193E+02 -0.15190861713E+02  0.26248063655E+01  0.95581287481E+02  0.90941310032E+02 0.  0.
         11    1    3    3    0    0 -0.81681883705E+01 -0.46914974009E+02 -0.21548079995E+02  0.52269052405E+02  0.51100000000E-03 0. -1.
         22    1    1    0    0    0  0.25056112193E+02  0.15190861713E+02 -0.26248063655E+01  0.29418712519E+02  0.00000000000E+00 0. -1.
</event>
<event>
 5    1  0.1681111E-003  0.9118800E+02  0.7818608E-02  0.1130116E+00
         25   -1    0    0    0    0  0.00000000000E+00  0.00000000000E+00  0.99999998245E-14  0.12500000000E+03  0.12500000000E+03 0.  0.
        -11    1    3    3    0    0  0.15145236348E+02  0.22511389871E+02  0.44019603403E+02  0.51709441517E+02  0.51100000000E-03 0.  1.
         23    2    1    0    0    0  0.11024046286E+02  0.26446982492E+02 -0.25198764492E+00  0.96346274637E+02  0.91986785242E+02 0.  0.
         11    1    3    3    0    0 -0.41211900618E+01  0.39355926210E+01 -0.44271591048E+02  0.44636833120E+02  0.51100000000E-03 0. -1.
         22    1    1    0    0    0 -0.11024046286E+02 -0.26446982492E+02  0.25198764492E+00  0.28653725363E+02  0.00000000000E+00 0.  1.
</event>
<event>
 5    1  0.1681111E-003  0.9118800E+02  0.7818608E-02  0.1130116E+00
         25   -1    0    0    0    0  0.00000000000E+00  0.00000000000E+00  0.99999998245E-14  0.12500000000E+03  0.12500000000E+03 0.  0.
        -11    1    3    3    0    0  0.36731826296E+02  0.40575660370E+01  0.49010083250E+02  0.61381423620E+02  0.51100000000E-03 0. -1.
         23    2    1    0    0    0  0.15380598845E+02 -0.36428666755E+00  0.33489972964E+02  0.88145233487E+02  0.80070646131E+02 0.  0.
         11    1    3    3    0    0 -0.21351227452E+02 -0.44218527045E+01 -0.15520110286E+02  0.26763809867E+02  0.51100000000E-03 0.  1.
         22    1    1    0    0    0 -0.15380598845E+02  0.36428666755E+00 -0.33489972964E+02  0.36854766513E+02  0.00000000000E+00 0. -1.
</event>
<event>
 5    1  0.1681111E-003  0.9118800E+02  0.7818608E-02  0.1130116E+00
         25   -1    0    0    0    0  0.00000000000E+00  0.00000000000E+00  0.99999998245E-14  0.12500000000E+03  0.12500000000E+03 0.  0.
        -11    1    3    3    0    0  0.80992315934E+01 -0.27201414972E+02 -0.44979031888E+02  0.53184845950E+02  0.51100000000E-03 0.  1.
         23    2    1    0    0    0  0.24659972856E+02 -0.27219927625E+01 -0.12093672154E+02  0.97399630220E+02  0.93407213613E+02 0.  0.
         11    1    3    3    0    0  0.16560741262E+02  0.24479422209E+02  0.32885359734E+02  0.44214784269E+02  0.51100000000E-03 0. -1.
         22    1    1    0    0    0 -0.24659972856E+02  0.27219927625E+01  0.12093672154E+02  0.27600369780E+02  0.00000000000E+00 0.  1.
</event>
<event>
 5    1  0.1681111E-003  0.9118800E+02  0.7818608E-02  0.1130116E+00
         25   -1    0    0    0    0  0.00000000000E+00  0.00000000000E+00  0.99999998245E-14  0.12500000000E+03  0.12500000000E+03 0.  0.
        -11    1    3    3    0    0  0.45571041912E+02  0.26865483461E+02  0.24660173726E+02  0.58366070888E+02  0.51100000000E-03 0. -1.
         23    2    1    0    0    0  0.19453093326E+02  0.22141497656E+02 -0.13072070793E+01  0.95497838236E+02  0.90826535545E+02 0.  0.
         11    1    3    3    0    0 -0.26117948586E+02 -0.47239858046E+01 -0.25967380805E+02  0.37131767348E+02  0.51100000000E-03 0.  1.
         22    1    1    0    0    0 -0.19453093326E+02 -0.22141497656E+02  0.13072070793E+01  0.29502161764E+02  0.00000000000E+00 0. -1.
</event>
<event>
 5    1  0.1681111E-003  0.9118800E+02  0.7818608E-02  0.1130116E+00
         25   -1    0    0    0    0  0.00000000000E+00  0.00000000000E+00  0.99999998245E-14  0.12500000000E+03  0.12500000000E+03 0.  0.
        -11    1    3    3    0    0  0.30177600554E+02  0.27729188361E+01  0.18668231553E+02  0.35593251096E+02  0.51100000000E-03 0.  1.
         23    2    1    0    0    0  0.19187043201E+01 -0.20154458088E+02 -0.25254542144E+02  0.92632184102E+02  0.86793121994E+02 0.  0.
         11    1    3    3    0    0 -0.28258896233E+02 -0.22927376924E+02 -0.43922773697E+02  0.57038933006E+02  0.51100000000E-03 0. -1.
         22    1    1    0    0    0 -0.19187043201E+01  0.20154458088E+02  0.25254542144E+02  0.32367815898E+02  0.00000000000E+00 0. -1.
</event>
<event>
 5    1  0.1681111E-003  0.9118800E+02  0.7818608E-02  0.1130116E+00
         25   -1    0    0    0    0  0.00000000000E+00  0.00000000000E+00  0.99999998245E-14  0.12500000000E+03  0.12500000000E+03 0.  0.
        -11    1    3    3    0    0 -0.14511612199E+02  0.21168613056E+02 -0.25631548785E+02  0.36272211963E+02  0.51100000000E-03 0.  1.
         23    2    1    0    0    0  0.14669897066E+02 -0.20311152700E+02  0.97545524421E+01  0.98113198456E+02  0.94357297620E+02 0.  0.
         11    1    3    3    0    0  0.29181509265E+02 -0.41479765755E+02  0.35386101227E+02  0.61840986493E+02  0.51100000000E-03 0. -1.
         22    1    1    0    0    0 -0.14669897066E+02  0.20311152700E+02 -0.97545524421E+01  0.26886801544E+02  0.00000000000E+00 0. -1.
</event>
<event>
 5    1  0.1681111E-003  0.9118800E+02  0.7818608E-02  0.1130116E+00
         25   -1    0    0    0    0  0.00000000000E+00  0.00000000000E+00  0.99999998245E-14  0.12500000000E+03  0.12500000000E+03 0.  0.
        -11    1    3    3    0    0 -0.34950675439E+02 -0.21818435120E+02 -0.39370755347E+02  0.56988158433E+02  0.51100000000E-03 0.  1.
         23    2    1    0    0    0 -0.33143300454E+00 -0.13046619924E+02 -0.27393786787E+02  0.94656241271E+02  0.89660807033E+02 0.  0.
         11    1    3    3    0    0  0.34619242435E+02  0.87718151960E+01  0.11976968560E+02  0.37668082839E+02  0.51100000000E-03 0. -1.
         22    1    1    0    0    0  0.33143300454E+00  0.13046619924E+02  0.27393786787E+02  0.30343758729E+02  0.00000000000E+00 0.  1.
</event>
<event>
 5    1  0.1681111E-003  0.9118800E+02  0.7818608E-02  0.1130116E+00
         25   -1    0    0    0    0  0.00000000000E+00  0.00000000000E+00  0.99999998245E-14  0.12500000000E+03  0.12500000000E+03 0.  0.
        -11    1    3    3    0    0 -0.44478903373E+02 -0.10493068508E+02 -0.39571060877E+02  0.60451188501E+02  0.51100000000E-03 0. -1.
         23    2    1    0    0    0 -0.23780215400E+02 -0.11739131331E+02 -0.98101392524E+01  0.96723778876E+02  0.92498349818E+02 0.  0.
         11    1    3    3    0    0  0.20698687972E+02 -0.12460628230E+01  0.29760921624E+02  0.36272590375E+02  0.51100000000E-03 0.  1.
         22    1    1    0    0    0  0.23780215400E+02  0.11739131331E+02  0.98101392524E+01  0.28276221124E+02  0.00000000000E+00 0. -1.
</event>
<event>
 5    1  0.1681111E-003  0.9118800E+02  0.7818608E-02  0.1130116E+00
         25   -1    0    0    0    0  0.00000000000E+00  0.00000000000E+00  0.99999998245E-14  0.12500000000E+03  0.12500000000E+03 0.  0.
        -11    1    3    3    0    0 -0.17995495306E+02  0.29168412881E+02  0.40118228681E+02  0.52764632417E+02  0.51100000000E-03 0.  1.
         23    2    1    0    0    0 -0.12176847974E+02 -0.10939509635E+02  0.23024332680E+02  0.96749895700E+02  0.92533636722E+02 0.  0.
         11    1    3    3    0    0  0.58186473328E+01 -0.40107922516E+02 -0.17093896001E+02  0.43985263283E+02  0.51100000000E-03 0. -1.
         22    1    1    0    0    0  0.12176847974E+02  0.10939509635E+02 -0.23024332680E+02  0.28250104300E+02  0.00000000000E+00 0.  1.
</event>
<event>
 5    1  0.1681111E-003  0.9118800E+02  0.7818608E-02  0.1130116E+00
         25   -1    0    0    0    0  0.00000000000E+00  0.00000000000E+00  0.99999998245E-14  0.12500000000E+03  0.12500000000E+03 0.  0.
        -11    1    3    3    0    0  0.27010472136E+02  0.32281108386E+02 -0.19927159641E+02  0.46569595825E+02  0.51100000000E-03 0. -1.
         23    2    1    0    0    0 -0.17924709023E+02  0.17656160996E+02  0.39779934117E+01  0.99527276426E+02  0.96212364624E+02 0.  0.
         11    1    3    3    0    0 -0.44935181159E+02 -0.14624947390E+02  0.23905153053E+02  0.52957680602E+02  0.51100000000E-03 0.  1.
         22    1    1    0    0    0  0.17924709023E+02 -0.17656160996E+02 -0.39779934117E+01  0.25472723574E+02  0.00000000000E+00 0.  1.
</event>
<event>
 5    1  0.1681111E-003  0.9118800E+02  0.7818608E-02  0.1130116E+00
         25   -1    0    0    0    0  0.00000000000E+00  0.00000000000E+00  0.99999998245E-14  0.12500000000E+03  0.12500000000E+03 0.  0.
        -11    1    3    3    0    0  0.38048185616E+02  0.36972752212E+02 -0.22769209883E+02  0.57732882777E+02  0.51100000000E-03 0. -1.
         23    2    1    0    0    0  0.48918454433E+01  0.24463937450E+02 -0.19527270991E+02  0.93318322333E+02  0.87775740289E+02 0.  0.
         11    1    3    3    0    0 -0.33156340172E+02 -0.12508814761E+02  0.32419388923E+01  0.35585439556E+02  0.51100000000E-03 0.  1.
         22    1    1    0    0    0 -0.48918454433E+01 -0.24463937450E+02  0.19527270991E+02  0.31681677667E+02  0.00000000000E+00 0. -1.
</event>
<event>
 5    1  0.1681111E-003  0.9118800E+02  0.7818608E-02  0.1130116E+00
         25   -1    0    0    0    0  0.00000000000E+00  0.00000000000E+00  0.99999998245E-14  0.12500000000E+03  0.12500000000E+03 0.  0.
        -11    1    3    3    0    0 -0.29751637007E+02 -0.22199750074E+02  0.26190637571E+00  0.37122195560E+02  0.51100000000E-03 0. -1.
         23    2    1    0    0    0  0.27487382209E+02 -0.72289286400E+01  0.34318676341E+01  0.96371494879E+02  0.92021050417E+02 0.  0.
         11    1    3    3    0    0  0.57239019216E+02  0.14970821434E+02  0.31699612584E+01  0.59249299320E+02  0.51100000000E-03 0.  1.
         22    1    1    0    0    0 -0.27487382209E+02  0.72289286400E+01 -0.34318676341E+01  0.28628505121E+02  0.00000000000E+00 0.  1.
</event>
<event>
 5    1  0.1681111E-003  0.9118800E+02  0.7818608E-02  0.1130116E+00
         25   -1    0    0    0    0  0.00000000000E+00  0.00000000000E+00  0.99999998245E-14  0.12500000000E+03  0.12500000000E+03 0.  0.
        -11    1    3    3    0    0  0.94811196100E+01 -0.39060955268E+02 -0.15777923022E+02  0.43180929942E+02  0.51100000000E-03 0.  1.
         23    2    1    0    0    0 -0.24953604618E+02  0.16037938052E+01 -0.13656028780E+02  0.96508919640E+02  0.92207537165E+02 0.  0.
         11    1    3    3    0    0 -0.34434724228E+02  0.40664749073E+02  0.21218942417E+01  0.53327989699E+02  0.51100000000E-03 0. -1.
         22    1    1    0    0    0  0.24953604618E+02 -0.16037938052E+01  0.13656028780E+02  0.28491080360E+02  0.00000000000E+00 0.  1.
</event>
<event>
 5    1  0.1681111E-003  0.9118800E+02  0.7818608E-02  0.1130116E+00
         25   -1    0    0    0    0  0.00000000000E+00  0.00000000000E+00  0.99999998245E-14  0.12500000000E+03  0.12500000000E+03 0.  0.
        -11    1    3    3    0    0  0.16470260799E+02 -0.42977590051E+02  0.14299831786E+02  0.48195725192E+02  0.51100000000E-03 0.  1.
         23    2    1    0    0    0  0.21289733296E+02 -0.81146582250E+01 -0.17998863776E+02  0.95964512762E+02  0.91466541372E+02 0.  0.
         11    1    3    3    0    0  0.48194724973E+01  0.34862931826E+02 -0.32298695562E+02  0.47768787570E+02  0.51100000000E-03 0. -1.
         22    1    1    0    0    0 -0.21289733296E+02  0.81146582250E+01  0.17998863776E+02  0.29035487238E+02  0.00000000000E+00 0.  1.
</event>
<event>
 5    1  0.1681111E-003  0.9118800E+02  0.7818608E-02  0.1130116E+00
         25   -1    0    0    0    0  0.00000000000E+00  0.00000000000E+00  0.99999998245E-14  0.12500000000E+03  0.12500000000E+03 0.  0.
        -11    1    3    3    0    0  0.14756134368E+01  0.39425721685E+02  0.12216449106E+02  0.41301411531E+02  0.51100000000E-03 0. -1.
         23    2    1    0    0    0 -0.20983993063E+02 -0.12914444065E+02  0.10314339562E+02  0.98288646029E+02  0.94589436552E+02 0.  0.
         11    1    3    3    0    0 -0.22459606499E+02 -0.52340165750E+02 -0.19021095437E+01  0.56987234499E+02  0.51100000000E-03 0.  1.
         22    1    1    0    0    0  0.20983993063E+02  0.12914444065E+02 -0.10314339562E+02  0.26711353971E+02  0.00000000000E+00 0.  1.
</event>
<event>
 5    1  0.1681111E-003  0.9118800E+02  0.7818608E-02  0.1130116E+00
         25   -1    0    0    0    0  0.00000000000E+00  0.00000000000E+00  0.99999998245E-14  0.12500000000E+03  0.12500000000E+03 0.  0.
        -11    1    3    3    0    0  0.29892136683E+02  0.20707990292E+02 -0.14473675401E+02  0.39138829534E+02  0.51100000000E-03 0. -1.
         23    2    1    0    0    0 -0.30382556155E+01  0.46098785953E+00  0.28150874180E+02  0.96681892293E+02  0.92441727987E+02 0.  0.
         11    1    3    3    0    0 -0.32930392299E+02 -0.20247002433E+02  0.42624549581E+02  0.57543062759E+02  0.51100000000E-03 0.  1.
         22    1    1    0    0    0  0.30382556155E+01 -0.46098785953E+00 -0.28150874180E+02  0.28318107707E+02  0.00000000000E+00 0.  1.
</event>
<event>
 5    1  0.1681111E-003  0.9118800E+02  0.7818608E-02  0.1130116E+00
         25   -1    0    0    0    0  0.00000000000E+00  0.00000000000E+00  0.99999998245E-14  0.12500000000E+03  0.12500000000E+03 0.  0.
        -11    1    3    3    0    0 -0.41024769438E+00  0.13131290295E+02 -0.38759951921E+02  0.40925944842E+02  0.51100000000E-03 0. -1.
         23    2    1    0    0    0  0.76296543936E+01  0.25297533929E+02  0.13602590231E+02  0.95281196020E+02  0.90527890757E+02 0.  0.
         11    1    3    3    0    0  0.80399020880E+01  0.12166243634E+02  0.52362542152E+02  0.54355251178E+02  0.51100000000E-03 0.  1.
         22    1    1    0    0    0 -0.76296543936E+01 -0.25297533929E+02 -0.13602590231E+02  0.29718803980E+02  0.00000000000E+00 0.  1.
</event>
<event>
 5    1  0.1681111E-003  0.9118800E+02  0.7818608E-02  0.1130116E+00
         25   -1    0    0    0    0  0.00000000000E+00  0.00000000000E+00  0.99999998245E-14  0.12500000000E+03  0.12500000000E+03 0.  0.
        -11    1    3    3    0    0 -0.36959514616E+02 -0.11166832502E+02  0.31447672543E+02  0.49796184366E+02  0.51100000000E-03 0. -1.
         23    2    1    0    0    0 -0.22116002469E+01  0.16392850529E+02  0.25586590341E+02  0.94532142685E+02  0.89487628593E+02 0.  0.
         11    1    3    3    0    0  0.34747914370E+02  0.27559683032E+02 -0.58610822020E+01  0.44735958318E+02  0.51100000000E-03 0.  1.
         22    1    1    0    0    0  0.22116002469E+01 -0.16392850529E+02 -0.25586590341E+02  0.30467857315E+02  0.00000000000E+00 0.  1.
</event>
<event>
 5    1  0.1681111E-003  0.9118800E+02  0.7818608E-02  0.1130116E+00
         25   -1    0    0    0    0  0.00000000000E+00  0.00000000000E+00  0.99999998245E-14  0.12500000000E+03  0.12500000000E+03 0.  0.
        -11    1    3    3    0    0 -0.16540255485E+02  0.38149392024E+02 -0.50473669671E+01  0.41885941280E+02  0.51100000000E-03 0.  1.
         23    2    1    0    0    0  0.29802353203E+01 -0.19731006192E+02  0.64228179118E+01  0.10403700885E+03  0.10190315114E+03 0.  0.
         11    1    3    3    0    0  0.19520490806E+02 -0.57880398216E+02  0.11470184879E+02  0.62151067573E+02  0.51100000000E-03 0. -1.
         22    1    1    0    0    0 -0.29802353203E+01  0.19731006192E+02 -0.64228179118E+01  0.20962991147E+02  0.00000000000E+00 0. -1.
</event>
<event>
 5    1  0.1681111E-003  0.9118800E+02  0.7818608E-02  0.1130116E+00
         25   -1    0    0    0    0  0.00000000000E+00  0.00000000000E+00  0.99999998245E-14  0.12500000000E+03  0.12500000000E+03 0.  0.
        -11    1    3    3    0    0  0.15702236017E+01 -0.11356597827E+01 -0.33584095126E+02  0.33639957951E+02  0.51100000000E-03 0.  1.
         23    2    1    0    0    0  0.71121161771E+01  0.78755377580E+01  0.27442798565E+02  0.95576990559E+02  0.90935403665E+02 0.  0.
         11    1    3    3    0    0  0.55418925754E+01  0.90111975407E+01  0.61026893691E+02  0.61937032607E+02  0.51100000000E-03 0. -1.
         22    1    1    0    0    0 -0.71121161771E+01 -0.78755377580E+01 -0.27442798565E+02  0.29423009441E+02  0.00000000000E+00 0. -1.
</event>
<event>
 5    1  0.1681111E-003  0.9118800E+02  0.7818608E-02  0.1130116E+00
         25   -1    0    0    0    0  0.00000000000E+00  0.00000000000E+00  0.99999998245E-14  0.12500000000E+03  0.12500000000E+03 0.  0.
        -11    1    3    3    0    0  0.17219604510E+02 -0.47239157359E+02 -0.23177442550E+02  0.55364669338E+02  0.51100000000E-03 0.  1.
         23    2    1    0    0    0 -0.31214682864E+01 -0.37324235701E+02 -0.27667446318E+02  0.78434672548E+02  0.63116306428E+02 0.  0.
         11    1    3    3    0    0 -0.20341072797E+02  0.99149216586E+01 -0.44900037685E+01  0.23070003210E+02  0.51100000000E-03 0. -1.
         22    1    1    0    0    0  0.31214682864E+01  0.37324235701E+02  0.27667446318E+02  0.46565327452E+02  0.00000000000E+00 0.  1.
</event>
<event>
 5    1  0.1681111E-003  0.9118800E+02  0.7818608E-02  0.1130116E+00
         25   -1    0    0    0    0  0.00000000000E+00  0.00000000000E+00  0.99999998245E-14  0.12500000000E+03  0.12500000000E+03 0.  0.
        -11    1    3    3    0    0 -0.22241247280E+02  0.38092862520E+00 -0.29520316780E+02  0.36963053043E+02  0.51100000000E-03 0. -1.
         23    2    1    0    0    0  0.27806308783E+02  0.92906508735E+01 -0.12956235820E+00  0.95682363871E+02  0.91080134869E+02 0.  0.
         11    1    3    3    0    0  0.50047556063E+02  0.89097222483E+01  0.29390754422E+02  0.58719310828E+02  0.51100000000E-03 0.  1.
         22    1    1    0    0    0 -0.27806308783E+02 -0.92906508735E+01  0.12956235820E+00  0.29317636129E+02  0.00000000000E+00 0.  1.
</event>
<event>
 5    1  0.1681111E-003  0.9118800E+02  0.7818608E-02  0.1130116E+00
         25   -1    0    0    0    0  0.00000000000E+00  0.00000000000E+00  0.99999998245E-14  0.12500000000E+03  0.12500000000E+03 0.  0.
        -11    1    3    3    0    0  0.40301767116E+02  0.22666984852E+02  0.89424759608E+01  0.47095567855E+02  0.51100000000E-03 0.  1.
         23    2    1    0    0    0 -0.90822990433E+01  0.25988646254E+02  0.68258988684E+01  0.96636453230E+02  0.92380264708E+02 0.  0.
         11    1    3    3    0    0 -0.49384066160E+02  0.33216614021E+01 -0.21165770924E+01  0.49540885375E+02  0.51100000000E-03 0. -1.
         22    1    1    0    0    0  0.90822990433E+01 -0.25988646254E+02 -0.68258988684E+01  0.28363546770E+02  0.00000000000E+00 0.  1.
</event>
<event>
 5    1  0.1681111E-003  0.9118800E+02  0.7818608E-02  0.1130116E+00
         25   -1    0    0    0    0  0.00000000000E+00  0.00000000000E+00  0.99999998245E-14  0.12500000000E+03  0.12500000000E+03 0.  0.
        -11    1    3    3    0    0  0.15668670755E+02 -0.20063504847E+02  0.19383683636E+02  0.31996541400E+02  0.51100000000E-03 0. -1.
         23    2    1    0    0    0 -0.21007493816E+02  0.14521912892E+02 -0.17135616153E+02  0.94245649227E+02  0.89086543916E+02 0.  0.
         11    1    3    3    0    0 -0.36676164571E+02  0.34585417740E+02 -0.36519299790E+02  0.62249107827E+02  0.51100000000E-03 0.  1.
         22    1    1    0    0    0  0.21007493816E+02 -0.14521912892E+02  0.17135616153E+02  0.30754350773E+02  0.00000000000E+00 0.  1.
</event>
<event>
 5    1  0.1681111E-003  0.9118800E+02  0.7818608E-02  0.1130116E+00
         25   -1    0    0    0    0  0.00000000000E+00  0.00000000000E+00  0.99999998245E-14  0.12500000000E+03  0.12500000000E+03 0.  0.
        -11    1    3    3    0    0  0.49668666831E+02 -0.22044975415E+02 -0.27055293603E+02  0.60703758681E+02  0.51100000000E-03 0.  1.
         23    2    1    0    0    0  0.19941055492E+02 -0.19259037343E+02 -0.79166688421E+01  0.96168942803E+02  0.91745494172E+02 0.  0.
         11    1    3    3    0    0 -0.29727611338E+02  0.27859380716E+01  0.19138624761E+02  0.35465184122E+02  0.51100000000E-03 0. -1.
         22    1    1    0    0    0 -0.19941055492E+02  0.19259037343E+02  0.79166688421E+01  0.28831057197E+02  0.00000000000E+00 0.  1.
</event>
<event>
 5    1  0.1681111E-003  0.9118800E+02  0.7818608E-02  0.1130116E+00
         25   -1    0    0    0    0  0.00000000000E+00  0.00000000000E+00  0.99999998245E-14  0.12500000000E+03  0.12500000000E+03 0.  0.
        -11    1    3    3    0    0 -0.47030640131E+01  0.15440412309E+02  0.58303982615E+02  0.60496938207E+02  0.51100000000E-03 0. -1.
         23    2    1    0    0    0 -0.94741296340E+01  0.14169872340E+02  0.21830136532E+02  0.97303442895E+02  0.93278404380E+02 0.  0.
         11    1    3    3    0    0 -0.47710656209E+01 -0.12705399684E+01 -0.36473846083E+02  0.36806504687E+02  0.51100000000E-03 0.  1.
         22    1    1    0    0    0  0.94741296340E+01 -0.14169872340E+02 -0.21830136532E+02  0.27696557105E+02  0.00000000000E+00 0. -1.
</event>
<event>
 5    1  0.1681111E-003  0.9118800E+02  0.7818608E-02  0.1130116E+00
         25   -1    0    0    0    0  0.00000000000E+00  0.00000000000E+00  0.99999998245E-14  0.12500000000E+03  0.12500000000E+03 0.  0.
        -11    1    3    3    0    0  0.46816000666E+02  0.27325338770E+02 -0.26509368079E+02  0.60342014000E+02  0.51100000000E-03 0.  1.
         23    2    1    0    0    0  0.28533883627E+02  0.41083434142E+01 -0.85148966715E+01  0.94940650943E+02  0.90056441944E+02 0.  0.
         11    1    3    3    0    0 -0.18282117040E+02 -0.23216995356E+02  0.17994471408E+02  0.34598636943E+02  0.51100000000E-03 0. -1.
         22    1    1    0    0    0 -0.28533883627E+02 -0.41083434142E+01  0.85148966715E+01  0.30059349057E+02  0.00000000000E+00 0.  1.
</event>
<event>
 5    1  0.1681111E-003  0.9118800E+02  0.7818608E-02  0.1130116E+00
         25   -1    0    0    0    0  0.00000000000E+00  0.00000000000E+00  0.99999998245E-14  0.12500000000E+03  0.12500000000E+03 0.  0.
        -11    1    3    3    0    0  0.25488762023E+02 -0.10509406140E+02 -0.40547779708E+02  0.49033121932E+02  0.51100000000E-03 0.  1.
         23    2    1    0    0    0  0.24892151871E+02 -0.12471704452E+02  0.67308399638E+01  0.96356207595E+02  0.92000282058E+02 0.  0.
         11    1    3    3    0    0 -0.59661015193E+00 -0.19622983122E+01  0.47278619672E+02  0.47323085663E+02  0.51100000000E-03 0. -1.
         22    1    1    0    0    0 -0.24892151871E+02  0.12471704452E+02 -0.67308399638E+01  0.28643792405E+02  0.00000000000E+00 0.  1.
</event>
<event>
 5    1  0.1681111E-003  0.9118800E+02  0.7818608E-02  0.1130116E+00
         25   -1    0    0    0    0  0.00000000000E+00  0.00000000000E+00  0.99999998245E-14  0.12500000000E+03  0.12500000000E+03 0.  0.
        -11    1    3    3    0    0 -0.80916934365E+01 -0.31596265234E+02 -0.15312083692E+02  0.36031366705E+02  0.51100000000E-03 0.  1.
         23    2    1    0    0    0  0.16475766221E+02  0.11343896259E+02  0.19922857702E+02  0.96767835473E+02  0.92557867673E+02 0.  0.
         11    1    3    3    0    0  0.24567459658E+02  0.42940161493E+02  0.35234941393E+02  0.60736468767E+02  0.51100000000E-03 0. -1.
         22    1    1    0    0    0 -0.16475766221E+02 -0.11343896259E+02 -0.19922857702E+02  0.28232164527E+02  0.00000000000E+00 0. -1.
</event>
<event>
 5    1  0.1681111E-003  0.9118800E+02  0.7818608E-02  0.1130116E+00
         25   -1    0    0    0    0  0.00000000000E+00  0.00000000000E+00  0.99999998245E-14  0.12500000000E+03  0.12500000000E+03 0.  0.
        -11    1    3    3    0    0  0.43315927891E+02 -0.21101343078E+02  0.10268805205E+02  0.49264435948E+02  0.51100000000E-03 0. -1.
         23    2    1    0    0    0  0.52273820254E+00 -0.28719827543E+02 -0.59641215889E+01  0.95662779688E+02  0.91053253220E+02 0.  0.
         11    1    3    3    0    0 -0.42793189688E+02 -0.76184844649E+01 -0.16232926794E+02  0.46398343740E+02  0.51100000000E-03 0.  1.
         22    1    1    0    0    0 -0.52273820254E+00  0.28719827543E+02  0.59641215889E+01  0.29337220312E+02  0.00000000000E+00 0.  1.
</event>
<event>
 5    1  0.1681111E-003  0.9118800E+02  0.7818608E-02  0.1130116E+00
         25   -1    0    0    0    0  0.00000000000E+00  0.00000000000E+00  0.99999998245E-14  0.12500000000E+03  0.12500000000E+03 0.  0.
        -11    1    3    3    0    0  0.88535891236E+01 -0.11379633978E+01  0.33400937584E+02  0.34573163477E+02  0.51100000000E-03 0.  1.
         23    2    1    0    0    0 -0.21014673692E+01  0.16753240993E+02 -0.23981842598E+02  0.95670560468E+02  0.91063934227E+02 0.  0.
         11    1    3    3    0    0 -0.10955056493E+02  0.17891204391E+02 -0.57382780182E+02  0.61097396990E+02  0.51100000000E-03 0. -1.
         22    1    1    0    0    0  0.21014673692E+01 -0.16753240993E+02  0.23981842598E+02  0.29329439532E+02  0.00000000000E+00 0. -1.
</event>
<event>
 5    1  0.1681111E-003  0.9118800E+02  0.7818608E-02  0.1130116E+00
         25   -1    0    0    0    0  0.00000000000E+00  0.00000000000E+00  0.99999998245E-14  0.12500000000E+03  0.12500000000E+03 0.  0.
        -11    1    3    3    0    0 -0.45548337484E+01 -0.18433146401E+02 -0.36349142973E+02  0.41009603654E+02  0.51100000000E-03 0. -1.
         23    2    1    0    0    0 -0.55278514629E+00  0.21597766111E+02  0.89680729259E+01  0.10160779180E+03  0.98878450384E+02 0.  0.
         11    1    3    3    0    0  0.40020486021E+01  0.40030912513E+02  0.45317215899E+02  0.60598188147E+02  0.51100000000E-03 0.  1.
         22    1    1    0    0    0  0.55278514629E+00 -0.21597766111E+02 -0.89680729259E+01  0.23392208199E+02  0.00000000000E+00 0.  1.
</event>
<event>
 5    1  0.1681111E-003  0.9118800E+02  0.7818608E-02  0.1130116E+00
         25   -1    0    0    0    0  0.00000000000E+00  0.00000000000E+00  0.99999998245E-14  0.12500000000E+03  0.12500000000E+03 0.  0.
        -11    1    3    3    0    0  0.35948461620E+00 -0.14451301802E+02 -0.44183952617E+02  0.46488611746E+02  0.51100000000E-03 0. -1.
         23    2    1    0    0    0  0.90606928163E+01  0.23824560794E+02 -0.14753452594E+02  0.95548850366E+02  0.90896713865E+02 0.  0.
         11    1    3    3    0    0  0.87012082001E+01  0.38275862596E+02  0.29430500023E+02  0.49060238620E+02  0.51100000000E-03 0.  1.
         22    1    1    0    0    0 -0.90606928163E+01 -0.23824560794E+02  0.14753452594E+02  0.29451149634E+02  0.00000000000E+00 0.  1.
</event>
<event>
 5    1  0.1681111E-003  0.9118800E+02  0.7818608E-02  0.1130116E+00
         25   -1    0    0    0    0  0.00000000000E+00  0.00000000000E+00  0.99999998245E-14  0.12500000000E+03  0.12500000000E+03 0.  0.
        -11    1    3    3    0    0  0.85726708354E+00  0.41777202614E+02 -0.22906902644E+02  0.47652867218E+02  0.51100000000E-03 0.  1.
         23    2    1    0    0    0  0.17032568936E+02 -0.23823306968E+01 -0.24916252731E+02  0.94724538744E+02  0.89755972982E+02 0.  0.
         11    1    3    3    0    0  0.16175301853E+02 -0.44159533310E+02 -0.20093500865E+01  0.47071671526E+02  0.51100000000E-03 0. -1.
         22    1    1    0    0    0 -0.17032568936E+02  0.23823306968E+01  0.24916252731E+02  0.30275461256E+02  0.00000000000E+00 0. -1.
</event>
<event>
 5    1  0.1681111E-003  0.9118800E+02  0.7818608E-02  0.1130116E+00
         25   -1    0    0    0    0  0.00000000000E+00  0.00000000000E+00  0.99999998245E-14  0.12500000000E+03  0.12500000000E+03 0.  0.
        -11    1    3    3    0    0 -0.23383710422E+02  0.44736462584E+02 -0.32770063461E+02  0.60183270575E+02  0.51100000000E-03 0. -1.
         23    2    1    0    0    0 -0.31223366321E+01  0.27650699996E+02 -0.90849162570E+01  0.95728069765E+02  0.91142840866E+02 0.  0.
         11    1    3    3    0    0  0.20261373789E+02 -0.17085762588E+02  0.23685147204E+02  0.35544799189E+02  0.51100000000E-03 0.  1.
         22    1    1    0    0    0  0.31223366321E+01 -0.27650699996E+02  0.90849162570E+01  0.29271930235E+02  0.00000000000E+00 0. -1.
</event>
<event>
 5    1  0.1681111E-003  0.9118800E+02  0.7818608E-02  0.1130116E+00
         25   -1    0    0    0    0  0.00000000000E+00  0.00000000000E+00  0.99999998245E-14  0.12500000000E+03  0.12500000000E+03 0.  0.
        -11    1    3    3    0    0  0.40127315819E+01 -0.56528228001E+02 -0.16571862981E+02  0.59043790686E+02  0.51100000000E-03 0.  1.
         23    2    1    0    0    0 -0.17438847209E+01 -0.21087724102E+02 -0.20960731624E+02  0.95216019206E+02  0.90437850491E+02 0.  0.
         11    1    3    3    0    0 -0.57566163028E+01  0.35440503899E+02 -0.43888686431E+01  0.36172228520E+02  0.51100000000E-03 0. -1.
         22    1    1    0    0    0  0.17438847209E+01  0.21087724102E+02  0.20960731624E+02  0.29783980794E+02  0.00000000000E+00 0.  1.
</event>
<event>
 5    1  0.1681111E-003  0.9118800E+02  0.7818608E-02  0.1130116E+00
         25   -1    0    0    0    0  0.00000000000E+00  0.00000000000E+00  0.99999998245E-14  0.12500000000E+03  0.12500000000E+03 0.  0.
        -11    1    3    3    0    0  0.51940071121E+02 -0.70744231883E+00 -0.23573322941E+02  0.57043606281E+02  0.51100000000E-03 0. -1.
         23    2    1    0    0    0  0.27912224352E+02 -0.68314855734E+01  0.60078071465E+01  0.95642629373E+02  0.91025586202E+02 0.  0.
         11    1    3    3    0    0 -0.24027846770E+02 -0.61240432546E+01  0.29581130088E+02  0.38599023093E+02  0.51100000000E-03 0.  1.
         22    1    1    0    0    0 -0.27912224352E+02  0.68314855734E+01 -0.60078071465E+01  0.29357370627E+02  0.00000000000E+00 0. -1.
</event>
<event>
 5    1  0.1681111E-003  0.9118800E+02  0.7818608E-02  0.1130116E+00
         25   -1    0    0    0    0  0.00000000000E+00  0.00000000000E+00  0.99999998245E-14  0.12500000000E+03  0.12500000000E+03 0.  0.
        -11    1    3    3    0    0  0.56458992475E+02 -0.15524832702E+02  0.76177617801E+01  0.59048019074E+02  0.51100000000E-03 0.  1.
         23    2    1    0    0    0  0.28561144379E+02  0.18865519017E+01 -0.77485526355E+01  0.95346364232E+02  0.90617829692E+02 0.  0.
         11    1    3    3    0    0 -0.27897848097E+02  0.17411384604E+02 -0.15366314416E+02  0.36298345158E+02  0.51100000000E-03 0. -1.
         22    1    1    0    0    0 -0.28561144379E+02 -0.18865519017E+01  0.77485526355E+01  0.29653635768E+02  0.00000000000E+00 0.  1.
</event>
<event>
 5    1  0.1681111E-003  0.9118800E+02  0.7818608E-02  0.1130116E+00
         25   -1    0    0    0    0  0.00000000000E+00  0.00000000000E+00  0.99999998245E-14  0.12500000000E+03  0.12500000000E+03 0.  0.
        -11    1    3    3    0    0  0.14073205916E+01 -0.84521916476E+01  0.43612898595E+02  0.44446653631E+02  0.51100000000E-03 0. -1.
         23    2    1    0    0    0  0.27210374157E+02 -0.32386154328E+01 -0.24366340657E+01  0.97489451528E+02  0.93527337618E+02 0.  0.
         11    1    3    3    0    0  0.25803053565E+02  0.52135762148E+01 -0.46049532661E+02  0.53042797897E+02  0.51100000000E-03 0.  1.
         22    1    1    0    0    0 -0.27210374157E+02  0.32386154328E+01  0.24366340657E+01  0.27510548472E+02  0.00000000000E+00 0.  1.
</event>
<event>
 5    1  0.1681111E-003  0.9118800E+02  0.7818608E-02  0.1130116E+00
         25   -1    0    0    0    0  0.00000000000E+00  0.00000000000E+00  0.99999998245E-14  0.12500000000E+03  0.12500000000E+03 0.  0.
        -11    1    3    3    0    0 -0.28293859771E+02  0.34019369864E+02  0.20975042356E+02  0.48967462960E+02  0.51100000000E-03 0. -1.
         23    2    1    0    0    0  0.68144124037E+01  0.28121439171E+02 -0.81225909389E+01  0.94946247472E+02  0.90064209695E+02 0.  0.
         11    1    3    3    0    0  0.35108272175E+02 -0.58979306929E+01 -0.29097633295E+02  0.45978784511E+02  0.51100000000E-03 0.  1.
         22    1    1    0    0    0 -0.68144124037E+01 -0.28121439171E+02  0.81225909389E+01  0.30053752528E+02  0.00000000000E+00 0. -1.
</event>
<event>
 5    1  0.1681111E-003  0.9118800E+02  0.7818608E-02  0.1130116E+00
         25   -1    0    0    0    0  0.00000000000E+00  0.00000000000E+00  0.99999998245E-14  0.12500000000E+03  0.12500000000E+03 0.  0.
        -11    1    3    3    0    0 -0.53402701637E+02  0.16915216205E+02  0.23455512065E+02  0.60730010109E+02  0.51100000000E-03 0.  1.
         23    2    1    0    0    0 -0.20120113958E+02  0.14664533132E+02  0.17378252225E+02  0.94637668600E+02  0.89634910330E+02 0.  0.
         11    1    3    3    0    0  0.33282587679E+02 -0.22506830729E+01 -0.60772598404E+01  0.33907658491E+02  0.51100000000E-03 0. -1.
         22    1    1    0    0    0  0.20120113958E+02 -0.14664533132E+02 -0.17378252225E+02  0.30362331400E+02  0.00000000000E+00 0.  1.
</event>
<event>
 5    1  0.1681111E-003  0.9118800E+02  0.7818608E-02  0.1130116E+00
         25   -1    0    0    0    0  0.00000000000E+00  0.00000000000E+00  0.99999998245E-14  0.12500000000E+03  0.12500000000E+03 0.  0.
        -11    1    3    3    0    0 -0.34880154800E+02 -0.30116749554E+02 -0.12626096689E+02  0.47781399315E+02  0.51100000000E-03 0.  1.
         23    2    1    0    0    0  0.14023388885E+02 -0.22721026277E+02 -0.35928444392E+01  0.98059157362E+02  0.94285679403E+02 0.  0.
         11    1    3    3    0    0  0.48903543685E+02  0.73957232776E+01  0.90332522500E+01  0.50277758047E+02  0.51100000000E-03 0. -1.
         22    1    1    0    0    0 -0.14023388885E+02  0.22721026277E+02  0.35928444392E+01  0.26940842638E+02  0.00000000000E+00 0.  1.
</event>
<event>
 5    1  0.1681111E-003  0.9118800E+02  0.7818608E-02  0.1130116E+00
         25   -1    0    0    0    0  0.00000000000E+00  0.00000000000E+00  0.99999998245E-14  0.12500000000E+03  0.12500000000E+03 0.  0.
        -11    1    3    3    0    0 -0.22457633547E+02  0.22097377285E+02  0.14186724944E+02  0.34552894992E+02  0.51100000000E-03 0. -1.
         23    2    1    0    0    0  0.22419493522E+02 -0.13475972813E+02 -0.10369114391E+02  0.96861875218E+02  0.92684781946E+02 0.  0.
         11    1    3    3    0    0  0.44877127069E+02 -0.35573350098E+02 -0.24555839335E+02  0.62308980226E+02  0.51100000000E-03 0.  1.
         22    1    1    0    0    0 -0.22419493522E+02  0.13475972813E+02  0.10369114391E+02  0.28138124782E+02  0.00000000000E+00 0.  1.
</event>
<event>
 5    1  0.1681111E-003  0.9118800E+02  0.7818608E-02  0.1130116E+00
         25   -1    0    0    0    0  0.00000000000E+00  0.00000000000E+00  0.99999998245E-14  0.12500000000E+03  0.12500000000E+03 0.  0.
        -11    1    3    3    0    0  0.20954115312E+02  0.76315630572E+01  0.28954659297E+02  0.36547065525E+02  0.51100000000E-03 0.  1.
         23    2    1    0    0    0 -0.18897805592E+02  0.17975734979E+02 -0.13452588140E+02  0.95653343770E+02  0.91040298453E+02 0.  0.
         11    1    3    3    0    0 -0.39851920904E+02  0.10344171922E+02 -0.42407247438E+02  0.59106278245E+02  0.51100000000E-03 0. -1.
         22    1    1    0    0    0  0.18897805592E+02 -0.17975734979E+02  0.13452588140E+02  0.29346656230E+02  0.00000000000E+00 0. -1.
</event>
<event>
 5    1  0.1681111E-003  0.9118800E+02  0.7818608E-02  0.1130116E+00
         25   -1    0    0    0    0  0.00000000000E+00  0.00000000000E+00  0.99999998245E-14  0.12500000000E+03  0.12500000000E+03 0.  0.
        -11    1    3    3    0    0  0.30171689648E+02  0.89250747627E+01  0.22071528894E+02  0.38433581719E+02  0.51100000000E-03 0. -1.
         23    2    1    0    0    0 -0.24452951514E+02 -0.87198167270E+01  0.10521419759E+02  0.96987818449E+02  0.92854480841E+02 0.  0.
         11    1    3    3    0    0 -0.54624641162E+02 -0.17644891490E+02 -0.11550109135E+02  0.58554236730E+02  0.51100000000E-03 0.  1.
         22    1    1    0    0    0  0.24452951514E+02  0.87198167270E+01 -0.10521419759E+02  0.28012181551E+02  0.00000000000E+00 0.  1.
</event>
<event>
 5    1  0.1681111E-003  0.9118800E+02  0.7818608E-02  0.1130116E+00
         25   -1    0    0    0    0  0.00000000000E+00  0.00000000000E+00  0.99999998245E-14  0.12500000000E+03  0.12500000000E+03 0.  0.
        -11    1    3    3    0    0  0.65776097347E-01  0.34916031836E+02  0.53250801843E+01  0.35319825663E+02  0.51100000000E-03 0. -1.
         23    2    1    0    0    0 -0.13781791833E+02 -0.20203900766E+02 -0.15723176601E+02  0.95925033539E+02  0.91412572356E+02 0.  0.
         11    1    3    3    0    0 -0.13847567930E+02 -0.55119932602E+02 -0.21048256786E+02  0.60605207875E+02  0.51100000000E-03 0.  1.
         22    1    1    0    0    0  0.13781791833E+02  0.20203900766E+02  0.15723176601E+02  0.29074966461E+02  0.00000000000E+00 0.  1.
</event>
<event>
 5    1  0.1681111E-003  0.9118800E+02  0.7818608E-02  0.1130116E+00
         25   -1    0    0    0    0  0.00000000000E+00  0.00000000000E+00  0.99999998245E-14  0.12500000000E+03  0.12500000000E+03 0.  0.
        -11    1    3    3    0    0 -0.17520874776E+00 -0.57919143392E+01 -0.57751947771E+02  0.58041919691E+02  0.51100000000E-03 0. -1.
         23    2    1    0    0    0 -0.97601730741E+01  0.10901148989E+02 -0.25336789522E+02  0.95741686122E+02  0.91161513428E+02 0.  0.
         11    1    3    3    0    0 -0.95849643263E+01  0.16693063328E+02  0.32415158249E+02  0.37699766431E+02  0.51100000000E-03 0.  1.
         22    1    1    0    0    0  0.97601730741E+01 -0.10901148989E+02  0.25336789522E+02  0.29258313878E+02  0.00000000000E+00 0. -1.
</event>
<event>
 5    1  0.1681111E-003  0.9118800E+02  0.7818608E-02  0.1130116E+00
         25   -1    0    0    0    0  0.00000000000E+00  0.00000000000E+00  0.99999998245E-14  0.12500000000E+03  0.12500000000E+03 0.  0.
        -11    1    3    3    0    0  0.15234288871E+02  0.14819289789E+02  0.36292355071E+02  0.42057460029E+02  0.51100000000E-03 0. -1.
         23    2    1    0    0    0  0.21813073649E+02  0.60113215237E+01 -0.17143555058E+02  0.96612544170E+02  0.92347907624E+02 0.  0.
         11    1    3    3    0    0  0.65787847777E+01 -0.88079682651E+01 -0.53435910129E+02  0.54555084141E+02  0.51100000000E-03 0.  1.
         22    1    1    0    0    0 -0.21813073649E+02 -0.60113215237E+01  0.17143555058E+02  0.28387455830E+02  0.00000000000E+00 0.  1.
</event>
<event>
 5    1  0.1681111E-003  0.9118800E+02  0.7818608E-02  0.1130116E+00
         25   -1    0    0    0    0  0.00000000000E+00  0.00000000000E+00  0.99999998245E-14  0.12500000000E+03  0.12500000000E+03 0.  0.
        -11    1    3    3    0    0  0.19593162950E+02 -0.13139800507E+02  0.26146539556E+02  0.35216301945E+02  0.51100000000E-03 0.  1.
         23    2    1    0    0    0 -0.24315560054E+02 -0.76289928253E+01 -0.14819391414E+02  0.95520136463E+02  0.90857218292E+02 0.  0.
         11    1    3    3    0    0 -0.43908723003E+02  0.55108076813E+01 -0.40965930970E+02  0.60303834518E+02  0.51100000000E-03 0. -1.
         22    1    1    0    0    0  0.24315560054E+02  0.76289928253E+01  0.14819391414E+02  0.29479863537E+02  0.00000000000E+00 0. -1.
</event>
<event>
 5    1  0.1681111E-003  0.9118800E+02  0.7818608E-02  0.1130116E+00
         25   -1    0    0    0    0  0.00000000000E+00  0.00000000000E+00  0.99999998245E-14  0.12500000000E+03  0.12500000000E+03 0.  0.
        -11    1    3    3    0    0  0.98980861550E+01  0.29148763218E+02 -0.15046449972E+02  0.34263948454E+02  0.51100000000E-03 0.  1.
         23    2    1    0    0    0 -0.15030397918E+02 -0.17157092543E+02  0.17623652764E+02  0.96175152682E+02  0.91753954523E+02 0.  0.
         11    1    3    3    0    0 -0.24928484073E+02 -0.46305855761E+02  0.32670102736E+02  0.61911204228E+02  0.51100000000E-03 0. -1.
         22    1    1    0    0    0  0.15030397918E+02  0.17157092543E+02 -0.17623652764E+02  0.28824847318E+02  0.00000000000E+00 0. -1.
</event>
<event>
 5    1  0.1681111E-003  0.9118800E+02  0.7818608E-02  0.1130116E+00
         25   -1    0    0    0    0  0.00000000000E+00  0.00000000000E+00  0.99999998245E-14  0.12500000000E+03  0.12500000000E+03 0.  0.
        -11    1    3    3    0    0 -0.52835935804E+02 -0.15303185967E+01  0.28326471935E+01  0.52933938808E+02  0.51100000000E-03 0.  1.
         23    2    1    0    0    0 -0.17258062282E+02 -0.24268228552E+02  0.17072221337E+01  0.95172123136E+02  0.90377158530E+02 0.  0.
         11    1    3    3    0    0  0.35577873522E+02 -0.22737909956E+02 -0.11254250598E+01  0.42238184328E+02  0.51100000000E-03 0. -1.
         22    1    1    0    0    0  0.17258062282E+02  0.24268228552E+02 -0.17072221337E+01  0.29827876864E+02  0.00000000000E+00 0. -1.
</event>
<event>
 5    1  0.1681111E-003  0.9118800E+02  0.7818608E-02  0.1130116E+00
         25   -1    0    0    0    0  0.00000000000E+00  0.00000000000E+00  0.99999998245E-14  0.12500000000E+03  0.12500000000E+03 0.  0.
        -11    1    3    3    0    0  0.42871265476E+02  0.27587445479E+02 -0.21604563000E+02  0.55369393118E+02  0.51100000000E-03 0. -1.
         23    2    1    0    0    0  0.37500541608E+02  0.18485716219E+02  0.39319117007E+01  0.83006283153E+02  0.71600075337E+02 0.  0.
         11    1    3    3    0    0 -0.53707238688E+01 -0.91017292594E+01  0.25536474701E+02  0.27636890035E+02  0.51100000000E-03 0.  1.
         22    1    1    0    0    0 -0.37500541608E+02 -0.18485716219E+02 -0.39319117007E+01  0.41993716847E+02  0.00000000000E+00 0. -1.
</event>
<event>
 5    1  0.1681111E-003  0.9118800E+02  0.7818608E-02  0.1130116E+00
         25   -1    0    0    0    0  0.00000000000E+00  0.00000000000E+00  0.99999998245E-14  0.12500000000E+03  0.12500000000E+03 0.  0.
        -11    1    3    3    0    0  0.44454381241E+01 -0.59080057534E+01  0.32518524317E+02  0.33348476369E+02  0.51100000000E-03 0.  1.
         23    2    1    0    0    0 -0.16185862342E+02  0.11880821045E+02 -0.22562237857E+02  0.94797506302E+02  0.89857534884E+02 0.  0.
         11    1    3    3    0    0 -0.20631300466E+02  0.17788826798E+02 -0.55080762174E+02  0.61449029933E+02  0.51100000000E-03 0. -1.
         22    1    1    0    0    0  0.16185862342E+02 -0.11880821045E+02  0.22562237857E+02  0.30202493698E+02  0.00000000000E+00 0. -1.
</event>
<event>
 5    1  0.1681111E-003  0.9118800E+02  0.7818608E-02  0.1130116E+00
         25   -1    0    0    0    0  0.00000000000E+00  0.00000000000E+00  0.99999998245E-14  0.12500000000E+03  0.12500000000E+03 0.  0.
        -11    1    3    3    0    0  0.36894825594E+02 -0.47409703508E+01  0.22315151083E+02  0.43378230988E+02  0.51100000000E-03 0. -1.
         23    2    1    0    0    0 -0.13137273349E+02  0.11779577257E+02  0.22924873665E+02  0.96070841285E+02  0.91611736809E+02 0.  0.
         11    1    3    3    0    0 -0.50032098944E+02  0.16520547608E+02  0.60972258169E+00  0.52692610297E+02  0.51100000000E-03 0.  1.
         22    1    1    0    0    0  0.13137273349E+02 -0.11779577257E+02 -0.22924873665E+02  0.28929158715E+02  0.00000000000E+00 0.  1.
</event>
<event>
 5    1  0.1681111E-003  0.9118800E+02  0.7818608E-02  0.1130116E+00
         25   -1    0    0    0    0  0.00000000000E+00  0.00000000000E+00  0.99999998245E-14  0.12500000000E+03  0.12500000000E+03 0.  0.
        -11    1    3    3    0    0 -0.81318231680E+01 -0.97705527735E+01 -0.28274895401E+02  0.31000967077E+02  0.51100000000E-03 0. -1.
         23    2    1    0    0    0  0.19290479662E+02 -0.20603202350E+02  0.21952925597E+02  0.89243245465E+02  0.81766810908E+02 0.  0.
         11    1    3    3    0    0  0.27422302830E+02 -0.10832649576E+02  0.50227820997E+02  0.58242278387E+02  0.51100000000E-03 0.  1.
         22    1    1    0    0    0 -0.19290479662E+02  0.20603202350E+02 -0.21952925597E+02  0.35756754535E+02  0.00000000000E+00 0.  1.
</event>
<event>
 5    1  0.1681111E-003  0.9118800E+02  0.7818608E-02  0.1130116E+00
         25   -1    0    0    0    0  0.00000000000E+00  0.00000000000E+00  0.99999998245E-14  0.12500000000E+03  0.12500000000E+03 0.  0.
        -11    1    3    3    0    0  0.63206646121E+01  0.89819697128E+01  0.34124285044E+02  0.35848199551E+02  0.51100000000E-03 0.  1.
         23    2    1    0    0    0 -0.20612800076E+02 -0.10173282358E+02 -0.16779745368E+02  0.96540501488E+02  0.92250340769E+02 0.  0.
         11    1    3    3    0    0 -0.26933464688E+02 -0.19155252071E+02 -0.50904030412E+02  0.60692301937E+02  0.51100000000E-03 0. -1.
         22    1    1    0    0    0  0.20612800076E+02  0.10173282358E+02  0.16779745368E+02  0.28459498512E+02  0.00000000000E+00 0. -1.
</event>
<event>
 5    1  0.1681111E-003  0.9118800E+02  0.7818608E-02  0.1130116E+00
         25   -1    0    0    0    0  0.00000000000E+00  0.00000000000E+00  0.99999998245E-14  0.12500000000E+03  0.12500000000E+03 0.  0.
        -11    1    3    3    0    0 -0.21773851582E+02 -0.37413633525E+01 -0.27527001466E+02  0.35296376902E+02  0.51100000000E-03 0.  1.
         23    2    1    0    0    0  0.22035790860E+02 -0.48429961677E+01  0.16216031024E+02  0.97215285625E+02  0.93160192176E+02 0.  0.
         11    1    3    3    0    0  0.43809642443E+02 -0.11016328152E+01  0.43743032489E+02  0.61918908723E+02  0.51100000000E-03 0. -1.
         22    1    1    0    0    0 -0.22035790860E+02  0.48429961677E+01 -0.16216031024E+02  0.27784714375E+02  0.00000000000E+00 0. -1.
</event>
<event>
 5    1  0.1681111E-003  0.9118800E+02  0.7818608E-02  0.1130116E+00
         25   -1    0    0    0    0  0.00000000000E+00  0.00000000000E+00  0.99999998245E-14  0.12500000000E+03  0.12500000000E+03 0.  0.
        -11    1    3    3    0    0  0.35974090038E+02  0.25923130872E+02  0.29827501114E+02  0.53439907290E+02  0.51100000000E-03 0.  1.
         23    2    1    0    0    0  0.80501588804E+01  0.26771175346E+02  0.33220759436E+02  0.81582034307E+02  0.69068868361E+02 0.  0.
         11    1    3    3    0    0 -0.27923931157E+02  0.84804447418E+00  0.33932583227E+01  0.28142127016E+02  0.51100000000E-03 0. -1.
         22    1    1    0    0    0 -0.80501588804E+01 -0.26771175346E+02 -0.33220759436E+02  0.43417965693E+02  0.00000000000E+00 0.  1.
</event>
<event>
 5    1  0.1681111E-003  0.9118800E+02  0.7818608E-02  0.1130116E+00
         25   -1    0    0    0    0  0.00000000000E+00  0.00000000000E+00  0.99999998245E-14  0.12500000000E+03  0.12500000000E+03 0.  0.
        -11    1    3    3    0    0  0.34939226348E+02  0.24080517513E+02 -0.44556952811E+02  0.61530016298E+02  0.51100000000E-03 0.  1.
         23    2    1    0    0    0  0.98545869007E+01  0.15028227881E+02 -0.22939634148E+02  0.95859181015E+02  0.91322479455E+02 0.  0.
         11    1    3    3    0    0 -0.25084639447E+02 -0.90522896320E+01  0.21617318663E+02  0.34329164718E+02  0.51100000000E-03 0. -1.
         22    1    1    0    0    0 -0.98545869007E+01 -0.15028227881E+02  0.22939634148E+02  0.29140818985E+02  0.00000000000E+00 0.  1.
</event>
<event>
 5    1  0.1681111E-003  0.9118800E+02  0.7818608E-02  0.1130116E+00
         25   -1    0    0    0    0  0.00000000000E+00  0.00000000000E+00  0.99999998245E-14  0.12500000000E+03  0.12500000000E+03 0.  0.
        -11    1    3    3    0    0  0.22216226980E+02  0.38365853184E+02  0.25108087210E+02  0.50950127334E+02  0.51100000000E-03 0. -1.
         23    2    1    0    0    0 -0.15630700449E+02  0.18685004718E+02  0.19131084253E+02  0.94025065254E+02  0.88776496402E+02 0.  0.
         11    1    3    3    0    0 -0.37846927429E+02 -0.19680848466E+02 -0.59770029576E+01  0.43074937919E+02  0.51100000000E-03 0.  1.
         22    1    1    0    0    0  0.15630700449E+02 -0.18685004718E+02 -0.19131084253E+02  0.30974934746E+02  0.00000000000E+00 0.  1.
</event>
<event>
 5    1  0.1681111E-003  0.9118800E+02  0.7818608E-02  0.1130116E+00
         25   -1    0    0    0    0  0.00000000000E+00  0.00000000000E+00  0.99999998245E-14  0.12500000000E+03  0.12500000000E+03 0.  0.
        -11    1    3    3    0    0 -0.68040839739E+01 -0.17667714656E+00  0.51528457577E+02  0.51976039807E+02  0.51100000000E-03 0.  1.
         23    2    1    0    0    0  0.21319828122E+02 -0.68109176166E+01  0.17701106151E+02  0.96464884284E+02  0.92147821847E+02 0.  0.
         11    1    3    3    0    0  0.28123912096E+02 -0.66342404701E+01 -0.33827351426E+02  0.44488844477E+02  0.51100000000E-03 0. -1.
         22    1    1    0    0    0 -0.21319828122E+02  0.68109176166E+01 -0.17701106151E+02  0.28535115716E+02  0.00000000000E+00 0.  1.
</event>
<event>
 5    1  0.1681111E-003  0.9118800E+02  0.7818608E-02  0.1130116E+00
         25   -1    0    0    0    0  0.00000000000E+00  0.00000000000E+00  0.99999998245E-14  0.12500000000E+03  0.12500000000E+03 0.  0.
        -11    1    3    3    0    0 -0.24025669451E+02 -0.33300259228E+02  0.36788671894E+02  0.55132081742E+02  0.51100000000E-03 0. -1.
         23    2    1    0    0    0  0.59853874943E+01 -0.22251979184E+02  0.28215383973E+01  0.10178499365E+03  0.99102211942E+02 0.  0.
         11    1    3    3    0    0  0.30011056945E+02  0.11048280045E+02 -0.33967133497E+02  0.46652911904E+02  0.51100000000E-03 0.  1.
         22    1    1    0    0    0 -0.59853874943E+01  0.22251979184E+02 -0.28215383973E+01  0.23215006353E+02  0.00000000000E+00 0. -1.
</event>
<event>
 5    1  0.1681111E-003  0.9118800E+02  0.7818608E-02  0.1130116E+00
         25   -1    0    0    0    0  0.00000000000E+00  0.00000000000E+00  0.99999998245E-14  0.12500000000E+03  0.12500000000E+03 0.  0.
        -11    1    3    3    0    0  0.22831884681E+02 -0.12605887790E+02 -0.33583205058E+02  0.42520995135E+02  0.51100000000E-03 0.  1.
         23    2    1    0    0    0 -0.12920589671E+01 -0.26457343592E+02  0.11998312974E+02  0.95920454602E+02  0.91406310781E+02 0.  0.
         11    1    3    3    0    0 -0.24123943648E+02 -0.13851455802E+02  0.45581518032E+02  0.53399459467E+02  0.51100000000E-03 0. -1.
         22    1    1    0    0    0  0.12920589671E+01  0.26457343592E+02 -0.11998312974E+02  0.29079545398E+02  0.00000000000E+00 0. -1.
</event>
<event>
 5    1  0.1681111E-003  0.9118800E+02  0.7818608E-02  0.1130116E+00
         25   -1    0    0    0    0  0.00000000000E+00  0.00000000000E+00  0.99999998245E-14  0.12500000000E+03  0.12500000000E+03 0.  0.
        -11    1    3    3    0    0 -0.22073302244E+02  0.34433580886E+02  0.16799424993E+02  0.44216771082E+02  0.51100000000E-03 0. -1.
         23    2    1    0    0    0 -0.54802426432E+01 -0.15073213670E+02  0.23173190481E+02  0.96817885338E+02  0.92625435677E+02 0.  0.
         11    1    3    3    0    0  0.16593059600E+02 -0.49506794556E+02  0.63737654876E+01  0.52601114255E+02  0.51100000000E-03 0.  1.
         22    1    1    0    0    0  0.54802426432E+01  0.15073213670E+02 -0.23173190481E+02  0.28182114662E+02  0.00000000000E+00 0.  1.
</event>
<event>
 4    1  0.1681111E-003  0.9118800E+02  0.7818608E-02  0.1130116E+00
         25   -1    0    0    0    0  0.00000000000E+00  0.00000000000E+00  0.99999998245E-14  0.12500000000E+03  0.12500000000E+03 0.  0.
        -11    1    1    0    0    0 -0.53382603114E+01 -0.20126294054E+02 -0.55341095397E+01  0.21545094666E+02  0.51100000000E-03 0.  1.
         11    1    1    0    0    0  0.49237039694E+02 -0.60674910908E+01 -0.87542485255E+01  0.50375960472E+02  0.51100000000E-03 0. -1.
         22    1    1    0    0    0 -0.43898779383E+02  0.26193785145E+02  0.14288358065E+02  0.53078944862E+02  0.00000000000E+00 0. -1.
</event>
<event>
 5    1  0.1681111E-003  0.9118800E+02  0.7818608E-02  0.1130116E+00
         25   -1    0    0    0    0  0.00000000000E+00  0.00000000000E+00  0.99999998245E-14  0.12500000000E+03  0.12500000000E+03 0.  0.
        -11    1    3    3    0    0 -0.51991729609E+02 -0.25205281097E+02 -0.17754228810E+02  0.60445502593E+02  0.51100000000E-03 0.  1.
         23    2    1    0    0    0 -0.34555285697E+02 -0.27316094545E+02 -0.91163364481E+01  0.80018399528E+02  0.66178545481E+02 0.  0.
         11    1    3    3    0    0  0.17436443912E+02 -0.21108134478E+01  0.86378923616E+01  0.19572896934E+02  0.51100000000E-03 0. -1.
         22    1    1    0    0    0  0.34555285697E+02  0.27316094545E+02  0.91163364481E+01  0.44981600472E+02  0.00000000000E+00 0.  1.
</event>
<event>
 5    1  0.1681111E-003  0.9118800E+02  0.7818608E-02  0.1130116E+00
         25   -1    0    0    0    0  0.00000000000E+00  0.00000000000E+00  0.99999998245E-14  0.12500000000E+03  0.12500000000E+03 0.  0.
        -11    1    3    3    0    0  0.27648178700E+02  0.63886091229E+01 -0.33700042702E+02  0.44055975648E+02  0.51100000000E-03 0. -1.
         23    2    1    0    0    0 -0.16126632460E+02  0.21612674769E+02 -0.90131166755E+01  0.96567408535E+02  0.92286792846E+02 0.  0.
         11    1    3    3    0    0 -0.43774811160E+02  0.15224065646E+02  0.24686926026E+02  0.52511432887E+02  0.51100000000E-03 0.  1.
         22    1    1    0    0    0  0.16126632460E+02 -0.21612674769E+02  0.90131166755E+01  0.28432591465E+02  0.00000000000E+00 0. -1.
</event>
<event>
 5    1  0.1681111E-003  0.9118800E+02  0.7818608E-02  0.1130116E+00
         25   -1    0    0    0    0  0.00000000000E+00  0.00000000000E+00  0.99999998245E-14  0.12500000000E+03  0.12500000000E+03 0.  0.
        -11    1    3    3    0    0 -0.10433932751E+01  0.29284951682E+02  0.29664046954E+02  0.41697155137E+02  0.51100000000E-03 0.  1.
         23    2    1    0    0    0 -0.27052647653E+02  0.83821038653E+01 -0.11279045404E+02  0.94515212392E+02  0.89463976539E+02 0.  0.
         11    1    3    3    0    0 -0.26009254378E+02 -0.20902847817E+02 -0.40943092358E+02  0.52818057256E+02  0.51100000000E-03 0. -1.
         22    1    1    0    0    0  0.27052647653E+02 -0.83821038653E+01  0.11279045404E+02  0.30484787608E+02  0.00000000000E+00 0. -1.
</event>
<event>
 5    1  0.1681111E-003  0.9118800E+02  0.7818608E-02  0.1130116E+00
         25   -1    0    0    0    0  0.00000000000E+00  0.00000000000E+00  0.99999998245E-14  0.12500000000E+03  0.12500000000E+03 0.  0.
        -11    1    3    3    0    0  0.23014900454E+02 -0.25514920537E+02  0.29612582218E+02  0.45360796276E+02  0.51100000000E-03 0.  1.
         23    2    1    0    0    0  0.17706621526E+02  0.20581379614E+02  0.14854112614E+02  0.94052265119E+02  0.88814786380E+02 0.  0.
         11    1    3    3    0    0 -0.53082789277E+01  0.46096300152E+02 -0.14758469603E+02  0.48691468843E+02  0.51100000000E-03 0. -1.
         22    1    1    0    0    0 -0.17706621526E+02 -0.20581379614E+02 -0.14854112614E+02  0.30947734881E+02  0.00000000000E+00 0.  1.
</event>
<event>
 5    1  0.1681111E-003  0.9118800E+02  0.7818608E-02  0.1130116E+00
         25   -1    0    0    0    0  0.00000000000E+00  0.00000000000E+00  0.99999998245E-14  0.12500000000E+03  0.12500000000E+03 0.  0.
        -11    1    3    3    0    0 -0.34386646679E+02 -0.48887535847E+02  0.24906628300E+01  0.59821702021E+02  0.51100000000E-03 0.  1.
         23    2    1    0    0    0 -0.77223511426E+01 -0.27088967760E+02 -0.78088106605E+01  0.95769461083E+02  0.91199590299E+02 0.  0.
         11    1    3    3    0    0  0.26664295537E+02  0.21798568088E+02 -0.10299473491E+02  0.35947759062E+02  0.51100000000E-03 0. -1.
         22    1    1    0    0    0  0.77223511426E+01  0.27088967760E+02  0.78088106605E+01  0.29230538917E+02  0.00000000000E+00 0.  1.
</event>
<event>
 5    1  0.1681111E-003  0.9118800E+02  0.7818608E-02  0.1130116E+00
         25   -1    0    0    0    0  0.00000000000E+00  0.00000000000E+00  0.99999998245E-14  0.12500000000E+03  0.12500000000E+03 0.  0.
        -11    1    3    3    0    0 -0.20740799197E+02 -0.28161944073E+02  0.90044011576E+01  0.36115856431E+02  0.51100000000E-03 0.  1.
         23    2    1    0    0    0 -0.96248946584E+01  0.27271164310E+02 -0.77074672606E+01  0.95070749231E+02  0.90236840081E+02 0.  0.
         11    1    3    3    0    0  0.11115904539E+02  0.55433108383E+02 -0.16711868418E+02  0.58954892800E+02  0.51100000000E-03 0. -1.
         22    1    1    0    0    0  0.96248946584E+01 -0.27271164310E+02  0.77074672606E+01  0.29929250769E+02  0.00000000000E+00 0. -1.
</event>
<event>
 5    1  0.1681111E-003  0.9118800E+02  0.7818608E-02  0.1130116E+00
         25   -1    0    0    0    0  0.00000000000E+00  0.00000000000E+00  0.99999998245E-14  0.12500000000E+03  0.12500000000E+03 0.  0.
        -11    1    3    3    0    0 -0.69533913851E+01 -0.35536169096E+02  0.38033241415E+02  0.52513773608E+02  0.51100000000E-03 0.  1.
         23    2    1    0    0    0  0.61843476214E+01 -0.28706994308E+02 -0.23643504542E+01  0.95539385092E+02  0.90883696409E+02 0.  0.
         11    1    3    3    0    0  0.13137739007E+02  0.68291747881E+01 -0.40397591869E+02  0.43025611484E+02  0.51100000000E-03 0. -1.
         22    1    1    0    0    0 -0.61843476214E+01  0.28706994308E+02  0.23643504542E+01  0.29460614908E+02  0.00000000000E+00 0.  1.
</event>
<event>
 5    1  0.1681111E-003  0.9118800E+02  0.7818608E-02  0.1130116E+00
         25   -1    0    0    0    0  0.00000000000E+00  0.00000000000E+00  0.99999998245E-14  0.12500000000E+03  0.12500000000E+03 0.  0.
        -11    1    3    3    0    0 -0.26426923862E+02  0.24038084965E+02 -0.94172456622E+00  0.35736517444E+02  0.51100000000E-03 0. -1.
         23    2    1    0    0    0  0.10581330371E+02 -0.18521192253E+02  0.19865201625E+02  0.95851666420E+02  0.91312193080E+02 0.  0.
         11    1    3    3    0    0  0.37008254232E+02 -0.42559277218E+02  0.20806926191E+02  0.60115148976E+02  0.51100000000E-03 0.  1.
         22    1    1    0    0    0 -0.10581330371E+02  0.18521192253E+02 -0.19865201625E+02  0.29148333580E+02  0.00000000000E+00 0.  1.
</event>
<event>
 5    1  0.1681111E-003  0.9118800E+02  0.7818608E-02  0.1130116E+00
         25   -1    0    0    0    0  0.00000000000E+00  0.00000000000E+00  0.99999998245E-14  0.12500000000E+03  0.12500000000E+03 0.  0.
        -11    1    3    3    0    0 -0.30925275538E+02  0.21498817611E+02 -0.44509587201E+02  0.58306733563E+02  0.51100000000E-03 0. -1.
         23    2    1    0    0    0 -0.27485247571E+02  0.29518501291E+01 -0.14416224117E+02  0.93823409888E+02  0.88492104009E+02 0.  0.
         11    1    3    3    0    0  0.34400279672E+01 -0.18546967482E+02  0.30093363084E+02  0.35516676324E+02  0.51100000000E-03 0.  1.
         22    1    1    0    0    0  0.27485247571E+02 -0.29518501291E+01  0.14416224117E+02  0.31176590112E+02  0.00000000000E+00 0. -1.
</event>
<event>
 5    1  0.1681111E-003  0.9118800E+02  0.7818608E-02  0.1130116E+00
         25   -1    0    0    0    0  0.00000000000E+00  0.00000000000E+00  0.99999998245E-14  0.12500000000E+03  0.12500000000E+03 0.  0.
        -11    1    3    3    0    0  0.20749437548E+02  0.54517652092E+02  0.36607616321E+01  0.58447538221E+02  0.51100000000E-03 0.  1.
         23    2    1    0    0    0  0.12534974369E+02  0.21261269916E+02  0.16807307020E+02  0.95139444912E+02  0.90331950207E+02 0.  0.
         11    1    3    3    0    0 -0.82144631791E+01 -0.33256382176E+02  0.13146545388E+02  0.36691906691E+02  0.51100000000E-03 0. -1.
         22    1    1    0    0    0 -0.12534974369E+02 -0.21261269916E+02 -0.16807307020E+02  0.29860555088E+02  0.00000000000E+00 0.  1.
</event>
<event>
 5    1  0.1681111E-003  0.9118800E+02  0.7818608E-02  0.1130116E+00
         25   -1    0    0    0    0  0.00000000000E+00  0.00000000000E+00  0.99999998245E-14  0.12500000000E+03  0.12500000000E+03 0.  0.
        -11    1    3    3    0    0  0.56896334033E+02 -0.18587270367E+02 -0.10166122383E+02  0.60712679818E+02  0.51100000000E-03 0.  1.
         23    2    1    0    0    0  0.22521768844E+02 -0.15760484026E+02 -0.11437892086E+02  0.95226718287E+02  0.90452637174E+02 0.  0.
         11    1    3    3    0    0 -0.34374565189E+02  0.28267863413E+01 -0.12717697023E+01  0.34514038469E+02  0.51100000000E-03 0. -1.
         22    1    1    0    0    0 -0.22521768844E+02  0.15760484026E+02  0.11437892086E+02  0.29773281713E+02  0.00000000000E+00 0.  1.
</event>
<event>
 5    1  0.1681111E-003  0.9118800E+02  0.7818608E-02  0.1130116E+00
         25   -1    0    0    0    0  0.00000000000E+00  0.00000000000E+00  0.99999998245E-14  0.12500000000E+03  0.12500000000E+03 0.  0.
        -11    1    3    3    0    0  0.90830507104E+01 -0.32768768181E+02 -0.18430124356E+02  0.38677686880E+02  0.51100000000E-03 0.  1.
         23    2    1    0    0    0  0.53623522410E+01  0.21590981245E+02 -0.22553704311E+02  0.93320434492E+02  0.87778748128E+02 0.  0.
         11    1    3    3    0    0 -0.37206984694E+01  0.54359749426E+02 -0.41235799543E+01  0.54642747612E+02  0.51100000000E-03 0. -1.
         22    1    1    0    0    0 -0.53623522410E+01 -0.21590981245E+02  0.22553704311E+02  0.31679565508E+02  0.00000000000E+00 0. -1.
</event>
<event>
 5    1  0.1681111E-003  0.9118800E+02  0.7818608E-02  0.1130116E+00
         25   -1    0    0    0    0  0.00000000000E+00  0.00000000000E+00  0.99999998245E-14  0.12500000000E+03  0.12500000000E+03 0.  0.
        -11    1    3    3    0    0  0.37243362591E+02  0.36716124516E+02  0.10937051362E+02  0.53429963029E+02  0.51100000000E-03 0. -1.
         23    2    1    0    0    0  0.11865049150E+02  0.19568600059E+02 -0.18243306383E+02  0.95733505038E+02  0.91150294896E+02 0.  0.
         11    1    3    3    0    0 -0.25378313441E+02 -0.17147524457E+02 -0.29180357745E+02  0.42303542009E+02  0.51100000000E-03 0.  1.
         22    1    1    0    0    0 -0.11865049150E+02 -0.19568600059E+02  0.18243306383E+02  0.29266494962E+02  0.00000000000E+00 0. -1.
</event>
<event>
 5    1  0.1681111E-003  0.9118800E+02  0.7818608E-02  0.1130116E+00
         25   -1    0    0    0    0  0.00000000000E+00  0.00000000000E+00  0.99999998245E-14  0.12500000000E+03  0.12500000000E+03 0.  0.
        -11    1    3    3    0    0 -0.45121301484E+02 -0.17063231771E+01  0.34048551121E+02  0.56552163708E+02  0.51100000000E-03 0.  1.
         23    2    1    0    0    0 -0.10235085653E+02  0.11473191578E+02  0.26139015047E+02  0.94674446238E+02  0.89686183772E+02 0.  0.
         11    1    3    3    0    0  0.34886215830E+02  0.13179514755E+02 -0.79095360743E+01  0.38122282530E+02  0.51100000000E-03 0. -1.
         22    1    1    0    0    0  0.10235085653E+02 -0.11473191578E+02 -0.26139015047E+02  0.30325553762E+02  0.00000000000E+00 0.  1.
</event>
<event>
 5    1  0.1681111E-003  0.9118800E+02  0.7818608E-02  0.1130116E+00
         25   -1    0    0    0    0  0.00000000000E+00  0.00000000000E+00  0.99999998245E-14  0.12500000000E+03  0.12500000000E+03 0.  0.
        -11    1    3    3    0    0  0.35587815264E+02 -0.45917281668E+01 -0.21549856950E+02  0.41856575322E+02  0.51100000000E-03 0. -1.
         23    2    1    0    0    0 -0.10201056047E+02 -0.27183275457E+02 -0.49447377129E+01  0.95547624203E+02  0.90895027646E+02 0.  0.
         11    1    3    3    0    0 -0.45788871311E+02 -0.22591547290E+02  0.16605119237E+02  0.53691048882E+02  0.51100000000E-03 0.  1.
         22    1    1    0    0    0  0.10201056047E+02  0.27183275457E+02  0.49447377129E+01  0.29452375797E+02  0.00000000000E+00 0.  1.
</event>
<event>
 5    1  0.1681111E-003  0.9118800E+02  0.7818608E-02  0.1130116E+00
         25   -1    0    0    0    0  0.00000000000E+00  0.00000000000E+00  0.99999998245E-14  0.12500000000E+03  0.12500000000E+03 0.  0.
        -11    1    3    3    0    0 -0.32728525127E+02  0.88952735491E+01  0.13475488163E+02  0.36494808261E+02  0.51100000000E-03 0.  1.
         23    2    1    0    0    0  0.69354200401E+01 -0.11888716060E+01 -0.28810727322E+02  0.95342429708E+02  0.90612402170E+02 0.  0.
         11    1    3    3    0    0  0.39663945167E+02 -0.10084145155E+02 -0.42286215485E+02  0.58847621447E+02  0.51100000000E-03 0. -1.
         22    1    1    0    0    0 -0.69354200401E+01  0.11888716060E+01  0.28810727322E+02  0.29657570292E+02  0.00000000000E+00 0. -1.
</event>
<event>
 5    1  0.1681111E-003  0.9118800E+02  0.7818608E-02  0.1130116E+00
         25   -1    0    0    0    0  0.00000000000E+00  0.00000000000E+00  0.99999998245E-14  0.12500000000E+03  0.12500000000E+03 0.  0.
        -11    1    3    3    0    0  0.34858475754E+02  0.32606494520E+02  0.32295727169E+01  0.47840641268E+02  0.51100000000E-03 0.  1.
         23    2    1    0    0    0  0.36190089774E+02  0.28989420088E+01 -0.18095864630E+02  0.84434167340E+02  0.74050940812E+02 0.  0.
         11    1    3    3    0    0  0.13316140208E+01 -0.29707552511E+02 -0.21325437347E+02  0.36593526072E+02  0.51100000000E-03 0. -1.
         22    1    1    0    0    0 -0.36190089774E+02 -0.28989420088E+01  0.18095864630E+02  0.40565832660E+02  0.00000000000E+00 0. -1.
</event>
<event>
 5    1  0.1681111E-003  0.9118800E+02  0.7818608E-02  0.1130116E+00
         25   -1    0    0    0    0  0.00000000000E+00  0.00000000000E+00  0.99999998245E-14  0.12500000000E+03  0.12500000000E+03 0.  0.
        -11    1    3    3    0    0  0.13238248532E+02  0.60254354212E+02 -0.90288080384E+01  0.62348679220E+02  0.51100000000E-03 0.  1.
         23    2    1    0    0    0  0.88434618053E+01  0.27501544146E+02 -0.28083201917E+01  0.95975382700E+02  0.91481395239E+02 0.  0.
         11    1    3    3    0    0 -0.43947867269E+01 -0.32752810066E+02  0.62204878467E+01  0.33626703479E+02  0.51100000000E-03 0. -1.
         22    1    1    0    0    0 -0.88434618053E+01 -0.27501544146E+02  0.28083201917E+01  0.29024617300E+02  0.00000000000E+00 0.  1.
</event>
<event>
 5    1  0.1681111E-003  0.9118800E+02  0.7818608E-02  0.1130116E+00
         25   -1    0    0    0    0  0.00000000000E+00  0.00000000000E+00  0.99999998245E-14  0.12500000000E+03  0.12500000000E+03 0.  0.
        -11    1    3    3    0    0  0.29886003371E+02 -0.41853095497E+02  0.13867174534E+02  0.53264935276E+02  0.51100000000E-03 0. -1.
         23    2    1    0    0    0 -0.29315946016E+01 -0.26353114861E+02 -0.99534854645E+01  0.96677698139E+02  0.92436056465E+02 0.  0.
         11    1    3    3    0    0 -0.32817597972E+02  0.15499980636E+02 -0.23820659999E+02  0.43412762863E+02  0.51100000000E-03 0.  1.
         22    1    1    0    0    0  0.29315946016E+01  0.26353114861E+02  0.99534854645E+01  0.28322301861E+02  0.00000000000E+00 0. -1.
</event>
<event>
 5    1  0.1681111E-003  0.9118800E+02  0.7818608E-02  0.1130116E+00
         25   -1    0    0    0    0  0.00000000000E+00  0.00000000000E+00  0.99999998245E-14  0.12500000000E+03  0.12500000000E+03 0.  0.
        -11    1    3    3    0    0 -0.52161869542E+02 -0.14661211244E+02  0.24781657041E+02  0.59581392021E+02  0.51100000000E-03 0. -1.
         23    2    1    0    0    0 -0.17000350341E+02 -0.17554882373E+02  0.15497298304E+02  0.96062963843E+02  0.91600987772E+02 0.  0.
         11    1    3    3    0    0  0.35161519202E+02 -0.28936711287E+01 -0.92843587363E+01  0.36481571821E+02  0.51100000000E-03 0.  1.
         22    1    1    0    0    0  0.17000350341E+02  0.17554882373E+02 -0.15497298304E+02  0.28937036157E+02  0.00000000000E+00 0. -1.
</event>
<event>
 5    1  0.1681111E-003  0.9118800E+02  0.7818608E-02  0.1130116E+00
         25   -1    0    0    0    0  0.00000000000E+00  0.00000000000E+00  0.99999998245E-14  0.12500000000E+03  0.12500000000E+03 0.  0.
        -11    1    3    3    0    0 -0.52731537247E+01  0.33091013235E+02  0.24733920502E+02  0.41648386893E+02  0.51100000000E-03 0.  1.
         23    2    1    0    0    0 -0.26638820538E+02 -0.12053123980E+02  0.50691781504E+01  0.95325075831E+02  0.90588459296E+02 0.  0.
         11    1    3    3    0    0 -0.21365666813E+02 -0.45144137215E+02 -0.19664742352E+02  0.53676688938E+02  0.51100000000E-03 0. -1.
         22    1    1    0    0    0  0.26638820538E+02  0.12053123980E+02 -0.50691781504E+01  0.29674924169E+02  0.00000000000E+00 0. -1.
</event>
<event>
 5    1  0.1681111E-003  0.9118800E+02  0.7818608E-02  0.1130116E+00
         25   -1    0    0    0    0  0.00000000000E+00  0.00000000000E+00  0.99999998245E-14  0.12500000000E+03  0.12500000000E+03 0.  0.
        -11    1    3    3    0    0 -0.14819230053E+02 -0.11954358736E+02 -0.35839130883E+02  0.40582749720E+02  0.51100000000E-03 0. -1.
         23    2    1    0    0    0 -0.92754029997E+01 -0.15813589976E+02  0.20599337703E+02  0.97424006047E+02  0.93439828294E+02 0.  0.
         11    1    3    3    0    0  0.55438270535E+01 -0.38592312399E+01  0.56438468586E+02  0.56841256326E+02  0.51100000000E-03 0.  1.
         22    1    1    0    0    0  0.92754029997E+01  0.15813589976E+02 -0.20599337703E+02  0.27575993953E+02  0.00000000000E+00 0.  1.
</event>
<event>
 4    1  0.1681111E-003  0.9118800E+02  0.7818608E-02  0.1130116E+00
         25   -1    0    0    0    0  0.00000000000E+00  0.00000000000E+00  0.99999998245E-14  0.12500000000E+03  0.12500000000E+03 0.  0.
        -11    1    1    0    0    0  0.38138618870E+02 -0.17530340123E+02 -0.16170579014E+02  0.44981715175E+02  0.51100000000E-03 0.  1.
         11    1    1    0    0    0  0.16831388708E+02  0.15585005498E+02  0.85878713877E+01  0.24493664027E+02  0.51100000000E-03 0. -1.
         22    1    1    0    0    0 -0.54970007578E+02  0.19453346250E+01  0.75827076264E+01  0.55524620799E+02  0.00000000000E+00 0.  1.
</event>
<event>
 5    1  0.1681111E-003  0.9118800E+02  0.7818608E-02  0.1130116E+00
         25   -1    0    0    0    0  0.00000000000E+00  0.00000000000E+00  0.99999998245E-14  0.12500000000E+03  0.12500000000E+03 0.  0.
        -11    1    3    3    0    0 -0.96241634872E+00 -0.89498236773E+01 -0.35488613457E+02  0.36612392362E+02  0.51100000000E-03 0.  1.
         23    2    1    0    0    0 -0.70939078173E+01 -0.19323533601E+02  0.21719449721E+02  0.95075812874E+02  0.90243854188E+02 0.  0.
         11    1    3    3    0    0 -0.61314914686E+01 -0.10373709923E+02  0.57208063178E+02  0.58463420513E+02  0.51100000000E-03 0. -1.
         22    1    1    0    0    0  0.70939078173E+01  0.19323533601E+02 -0.21719449721E+02  0.29924187126E+02  0.00000000000E+00 0. -1.
</event>
<event>
 5    1  0.1681111E-003  0.9118800E+02  0.7818608E-02  0.1130116E+00
         25   -1    0    0    0    0  0.00000000000E+00  0.00000000000E+00  0.99999998245E-14  0.12500000000E+03  0.12500000000E+03 0.  0.
        -11    1    3    3    0    0  0.28614711880E+02 -0.37612025867E+02  0.21993831903E+02  0.52126719328E+02  0.51100000000E-03 0. -1.
         23    2    1    0    0    0 -0.22092999571E+01 -0.79182231516E+01  0.28427633230E+02  0.95407609166E+02  0.90702272803E+02 0.  0.
         11    1    3    3    0    0 -0.30824011837E+02  0.29693802716E+02  0.64338013273E+01  0.43280889839E+02  0.51100000000E-03 0.  1.
         22    1    1    0    0    0  0.22092999571E+01  0.79182231516E+01 -0.28427633230E+02  0.29592390834E+02  0.00000000000E+00 0. -1.
</event>
<event>
 5    1  0.1681111E-003  0.9118800E+02  0.7818608E-02  0.1130116E+00
         25   -1    0    0    0    0  0.00000000000E+00  0.00000000000E+00  0.99999998245E-14  0.12500000000E+03  0.12500000000E+03 0.  0.
        -11    1    3    3    0    0 -0.53197893762E+02  0.21343709549E+02 -0.95587831869E+01  0.58111446156E+02  0.51100000000E-03 0.  1.
         23    2    1    0    0    0 -0.26005145118E+02  0.84433346075E+01  0.12007469084E+02  0.95138037813E+02  0.90330003062E+02 0.  0.
         11    1    3    3    0    0  0.27192748644E+02 -0.12900374942E+02  0.21566252271E+02  0.37026591657E+02  0.51100000000E-03 0. -1.
         22    1    1    0    0    0  0.26005145118E+02 -0.84433346075E+01 -0.12007469084E+02  0.29861962187E+02  0.00000000000E+00 0.  1.
</event>
<event>
 5    1  0.1681111E-003  0.9118800E+02  0.7818608E-02  0.1130116E+00
         25   -1    0    0    0    0  0.00000000000E+00  0.00000000000E+00  0.99999998245E-14  0.12500000000E+03  0.12500000000E+03 0.  0.
        -11    1    3    3    0    0 -0.41429438369E+02 -0.38997260244E+01  0.37183447550E+02  0.55805152080E+02  0.51100000000E-03 0.  1.
         23    2    1    0    0    0 -0.19372550475E+02  0.18562432037E+02  0.15773908290E+02  0.93876443363E+02  0.88566985049E+02 0.  0.
         11    1    3    3    0    0  0.22056887894E+02  0.22462158061E+02 -0.21409539260E+02  0.38071291283E+02  0.51100000000E-03 0. -1.
         22    1    1    0    0    0  0.19372550475E+02 -0.18562432037E+02 -0.15773908290E+02  0.31123556637E+02  0.00000000000E+00 0.  1.
</event>
<event>
 5    1  0.1681111E-003  0.9118800E+02  0.7818608E-02  0.1130116E+00
         25   -1    0    0    0    0  0.00000000000E+00  0.00000000000E+00  0.99999998245E-14  0.12500000000E+03  0.12500000000E+03 0.  0.
        -11    1    3    3    0    0  0.28155160342E+02 -0.76852129282E+00  0.25150246588E+02  0.37760277840E+02  0.51100000000E-03 0.  1.
         23    2    1    0    0    0 -0.97096614659E+01  0.26427016365E+02 -0.88799336396E+01  0.95478517293E+02  0.90799941208E+02 0.  0.
         11    1    3    3    0    0 -0.37864821808E+02  0.27195537658E+02 -0.34030180227E+02  0.57718239454E+02  0.51100000000E-03 0. -1.
         22    1    1    0    0    0  0.97096614659E+01 -0.26427016365E+02  0.88799336396E+01  0.29521482707E+02  0.00000000000E+00 0. -1.
</event>
<event>
 5    1  0.1681111E-003  0.9118800E+02  0.7818608E-02  0.1130116E+00
         25   -1    0    0    0    0  0.00000000000E+00  0.00000000000E+00  0.99999998245E-14  0.12500000000E+03  0.12500000000E+03 0.  0.
        -11    1    3    3    0    0 -0.32345311484E+02  0.12160783386E+02 -0.13792114986E+02  0.37206535227E+02  0.51100000000E-03 0.  1.
         23    2    1    0    0    0  0.13830960860E+02  0.16670122443E+02  0.20715263460E+02  0.95028169879E+02  0.90177838019E+02 0.  0.
         11    1    3    3    0    0  0.46176272344E+02  0.45093390572E+01  0.34507378446E+02  0.57821634652E+02  0.51100000000E-03 0. -1.
         22    1    1    0    0    0 -0.13830960860E+02 -0.16670122443E+02 -0.20715263460E+02  0.29971830121E+02  0.00000000000E+00 0. -1.
</event>
<event>
 5    1  0.1681111E-003  0.9118800E+02  0.7818608E-02  0.1130116E+00
         25   -1    0    0    0    0  0.00000000000E+00  0.00000000000E+00  0.99999998245E-14  0.12500000000E+03  0.12500000000E+03 0.  0.
        -11    1    3    3    0    0 -0.15584739306E+02 -0.82574280539E+01 -0.51324872510E+02  0.54270726508E+02  0.51100000000E-03 0.  1.
         23    2    1    0    0    0  0.38590863231E+01 -0.22871908498E+02 -0.17450258276E+02  0.95973662658E+02  0.91479044947E+02 0.  0.
         11    1    3    3    0    0  0.19443825629E+02 -0.14614480445E+02  0.33874614234E+02  0.41702936149E+02  0.51100000000E-03 0. -1.
         22    1    1    0    0    0 -0.38590863231E+01  0.22871908498E+02  0.17450258276E+02  0.29026337342E+02  0.00000000000E+00 0. -1.
</event>
<event>
 5    1  0.1681111E-003  0.9118800E+02  0.7818608E-02  0.1130116E+00
         25   -1    0    0    0    0  0.00000000000E+00  0.00000000000E+00  0.99999998245E-14  0.12500000000E+03  0.12500000000E+03 0.  0.
        -11    1    3    3    0    0 -0.30631408102E+02  0.59042955264E+01  0.93639773657E+01  0.32570353703E+02  0.51100000000E-03 0.  1.
         23    2    1    0    0    0  0.21895025013E+02  0.26409144283E+02  0.10980853325E+02  0.88980364219E+02  0.81363941981E+02 0.  0.
         11    1    3    3    0    0  0.52526433115E+02  0.20504848756E+02  0.16168759588E+01  0.56410010516E+02  0.51100000000E-03 0. -1.
         22    1    1    0    0    0 -0.21895025013E+02 -0.26409144283E+02 -0.10980853325E+02  0.36019635781E+02  0.00000000000E+00 0. -1.
</event>
<event>
 5    1  0.1681111E-003  0.9118800E+02  0.7818608E-02  0.1130116E+00
         25   -1    0    0    0    0  0.00000000000E+00  0.00000000000E+00  0.99999998245E-14  0.12500000000E+03  0.12500000000E+03 0.  0.
        -11    1    3    3    0    0  0.34428232137E+02 -0.10963771750E+02 -0.47207355694E+01  0.36438891361E+02  0.51100000000E-03 0. -1.
         23    2    1    0    0    0 -0.26290599286E+02 -0.15228042893E+01  0.34962216236E+01  0.98434268138E+02  0.94781680901E+02 0.  0.
         11    1    3    3    0    0 -0.60718831423E+02  0.94409674610E+01  0.82169571930E+01  0.61995376777E+02  0.51100000000E-03 0.  1.
         22    1    1    0    0    0  0.26290599286E+02  0.15228042893E+01 -0.34962216236E+01  0.26565731862E+02  0.00000000000E+00 0.  1.
</event>
<event>
 5    1  0.1681111E-003  0.9118800E+02  0.7818608E-02  0.1130116E+00
         25   -1    0    0    0    0  0.00000000000E+00  0.00000000000E+00  0.99999998245E-14  0.12500000000E+03  0.12500000000E+03 0.  0.
        -11    1    3    3    0    0 -0.22295051474E+02  0.28033499782E+02  0.45485919378E+02  0.57895727754E+02  0.51100000000E-03 0. -1.
         23    2    1    0    0    0 -0.21999169249E+02  0.15931503741E+02  0.89241135676E+01  0.96409510986E+02  0.92072676438E+02 0.  0.
         11    1    3    3    0    0  0.29588222487E+00 -0.12101996040E+02 -0.36561805810E+02  0.38513783232E+02  0.51100000000E-03 0.  1.
         22    1    1    0    0    0  0.21999169249E+02 -0.15931503741E+02 -0.89241135676E+01  0.28590489014E+02  0.00000000000E+00 0. -1.
</event>
<event>
 5    1  0.1681111E-003  0.9118800E+02  0.7818608E-02  0.1130116E+00
         25   -1    0    0    0    0  0.00000000000E+00  0.00000000000E+00  0.99999998245E-14  0.12500000000E+03  0.12500000000E+03 0.  0.
        -11    1    3    3    0    0  0.49458643832E+02  0.98292658516E+01  0.93435153974E+01  0.51284239266E+02  0.51100000000E-03 0.  1.
         23    2    1    0    0    0  0.15878249241E+02  0.16440394670E+02 -0.18650713416E+02  0.95499923952E+02  0.90829405966E+02 0.  0.
         11    1    3    3    0    0 -0.33580394591E+02  0.66111288183E+01 -0.27994228814E+02  0.44215684686E+02  0.51100000000E-03 0. -1.
         22    1    1    0    0    0 -0.15878249241E+02 -0.16440394670E+02  0.18650713416E+02  0.29500076048E+02  0.00000000000E+00 0. -1.
</event>
<event>
 5    1  0.1681111E-003  0.9118800E+02  0.7818608E-02  0.1130116E+00
         25   -1    0    0    0    0  0.00000000000E+00  0.00000000000E+00  0.99999998245E-14  0.12500000000E+03  0.12500000000E+03 0.  0.
        -11    1    3    3    0    0 -0.41394978456E+02  0.99401158709E+01  0.35935376529E+02  0.55710873548E+02  0.51100000000E-03 0. -1.
         23    2    1    0    0    0 -0.25889915193E+02  0.58552938932E+01 -0.34480697613E+01  0.98233204144E+02  0.94516141670E+02 0.  0.
         11    1    3    3    0    0  0.15505063263E+02 -0.40848219777E+01 -0.39383446291E+02  0.42522330596E+02  0.51100000000E-03 0.  1.
         22    1    1    0    0    0  0.25889915193E+02 -0.58552938932E+01  0.34480697613E+01  0.26766795856E+02  0.00000000000E+00 0. -1.
</event>
<event>
 5    1  0.1681111E-003  0.9118800E+02  0.7818608E-02  0.1130116E+00
         25   -1    0    0    0    0  0.00000000000E+00  0.00000000000E+00  0.99999998245E-14  0.12500000000E+03  0.12500000000E+03 0.  0.
        -11    1    3    3    0    0 -0.20876846990E+02 -0.41488766535E+02  0.35953139159E+02  0.58734901928E+02  0.51100000000E-03 0.  1.
         23    2    1    0    0    0 -0.13512848112E+02 -0.60627603985E+01  0.23918914647E+02  0.96866948163E+02  0.92691623359E+02 0.  0.
         11    1    3    3    0    0  0.73639988786E+01  0.35426006136E+02 -0.12034224512E+02  0.38132046236E+02  0.51100000000E-03 0. -1.
         22    1    1    0    0    0  0.13512848112E+02  0.60627603985E+01 -0.23918914647E+02  0.28133051837E+02  0.00000000000E+00 0.  1.
</event>
<event>
 5    1  0.1681111E-003  0.9118800E+02  0.7818608E-02  0.1130116E+00
         25   -1    0    0    0    0  0.00000000000E+00  0.00000000000E+00  0.99999998245E-14  0.12500000000E+03  0.12500000000E+03 0.  0.
        -11    1    3    3    0    0  0.19002547245E+02 -0.29294305724E+02  0.44927108355E+02  0.56900775171E+02  0.51100000000E-03 0. -1.
         23    2    1    0    0    0 -0.78021711277E+01 -0.22003567484E+02  0.18986664906E+02  0.94908069179E+02  0.90011206495E+02 0.  0.
         11    1    3    3    0    0 -0.26804718373E+02  0.72907382403E+01 -0.25940443449E+02  0.38007294007E+02  0.51100000000E-03 0.  1.
         22    1    1    0    0    0  0.78021711277E+01  0.22003567484E+02 -0.18986664906E+02  0.30091930821E+02  0.00000000000E+00 0. -1.
</event>
<event>
 5    1  0.1681111E-003  0.9118800E+02  0.7818608E-02  0.1130116E+00
         25   -1    0    0    0    0  0.00000000000E+00  0.00000000000E+00  0.99999998245E-14  0.12500000000E+03  0.12500000000E+03 0.  0.
        -11    1    3    3    0    0  0.25028438343E+02 -0.26749356113E+02 -0.76159029028E+01  0.37415942533E+02  0.51100000000E-03 0. -1.
         23    2    1    0    0    0 -0.37195046815E+01  0.26469987326E+02 -0.34744642279E+01  0.98045096071E+02  0.94267035690E+02 0.  0.
         11    1    3    3    0    0 -0.28747943024E+02  0.53219343439E+02  0.41414386749E+01  0.60629153539E+02  0.51100000000E-03 0.  1.
         22    1    1    0    0    0  0.37195046815E+01 -0.26469987326E+02  0.34744642279E+01  0.26954903929E+02  0.00000000000E+00 0.  1.
</event>
<event>
 5    1  0.1681111E-003  0.9118800E+02  0.7818608E-02  0.1130116E+00
         25   -1    0    0    0    0  0.00000000000E+00  0.00000000000E+00  0.99999998245E-14  0.12500000000E+03  0.12500000000E+03 0.  0.
        -11    1    3    3    0    0  0.60128052229E+02  0.80186199681E+01 -0.14692015831E+02  0.62414231233E+02  0.51100000000E-03 0. -1.
         23    2    1    0    0    0  0.27724481676E+02  0.19370609165E+01 -0.51691914031E+01  0.96731295945E+02  0.92508507643E+02 0.  0.
         11    1    3    3    0    0 -0.32403570553E+02 -0.60815590516E+01  0.95228244276E+01  0.34317064712E+02  0.51100000000E-03 0.  1.
         22    1    1    0    0    0 -0.27724481676E+02 -0.19370609165E+01  0.51691914031E+01  0.28268704055E+02  0.00000000000E+00 0. -1.
</event>
<event>
 5    1  0.1681111E-003  0.9118800E+02  0.7818608E-02  0.1130116E+00
         25   -1    0    0    0    0  0.00000000000E+00  0.00000000000E+00  0.99999998245E-14  0.12500000000E+03  0.12500000000E+03 0.  0.
        -11    1    3    3    0    0 -0.13346749680E+02  0.49770202468E+02 -0.42281820435E+01  0.51701898460E+02  0.51100000000E-03 0.  1.
         23    2    1    0    0    0  0.19130372523E+02  0.26396143512E+02  0.26112454351E+01  0.92296083600E+02  0.86307710548E+02 0.  0.
         11    1    3    3    0    0  0.32477122203E+02 -0.23374058956E+02  0.68394274786E+01  0.40594185140E+02  0.51100000000E-03 0. -1.
         22    1    1    0    0    0 -0.19130372523E+02 -0.26396143512E+02 -0.26112454351E+01  0.32703916400E+02  0.00000000000E+00 0.  1.
</event>
<event>
 5    1  0.1681111E-003  0.9118800E+02  0.7818608E-02  0.1130116E+00
         25   -1    0    0    0    0  0.00000000000E+00  0.00000000000E+00  0.99999998245E-14  0.12500000000E+03  0.12500000000E+03 0.  0.
        -11    1    3    3    0    0 -0.54534611589E+01  0.35792242441E+02 -0.85950464655E+01  0.37211553065E+02  0.51100000000E-03 0. -1.
         23    2    1    0    0    0  0.27294541939E+02 -0.11524294150E+02 -0.14867181200E+00  0.95371914024E+02  0.90653066722E+02 0.  0.
         11    1    3    3    0    0  0.32748003097E+02 -0.47316536590E+02  0.84463746535E+01  0.58160360959E+02  0.51100000000E-03 0.  1.
         22    1    1    0    0    0 -0.27294541939E+02  0.11524294150E+02  0.14867181200E+00  0.29628085976E+02  0.00000000000E+00 0.  1.
</event>
<event>
 5    1  0.1681111E-003  0.9118800E+02  0.7818608E-02  0.1130116E+00
         25   -1    0    0    0    0  0.00000000000E+00  0.00000000000E+00  0.99999998245E-14  0.12500000000E+03  0.12500000000E+03 0.  0.
        -11    1    3    3    0    0 -0.29720183216E+02  0.39642191852E+02  0.32292240588E+02  0.59140353970E+02  0.51100000000E-03 0. -1.
         23    2    1    0    0    0 -0.12102165536E+02  0.26734582848E+02  0.32558303064E+01  0.95473727602E+02  0.90793347226E+02 0.  0.
         11    1    3    3    0    0  0.17618017680E+02 -0.12907609004E+02 -0.29036410282E+02  0.36333373632E+02  0.51100000000E-03 0.  1.
         22    1    1    0    0    0  0.12102165536E+02 -0.26734582848E+02 -0.32558303064E+01  0.29526272398E+02  0.00000000000E+00 0. -1.
</event>
<event>
 5    1  0.1681111E-003  0.9118800E+02  0.7818608E-02  0.1130116E+00
         25   -1    0    0    0    0  0.00000000000E+00  0.00000000000E+00  0.99999998245E-14  0.12500000000E+03  0.12500000000E+03 0.  0.
        -11    1    3    3    0    0 -0.87035026881E+01 -0.18996893060E+02 -0.35745353346E+02  0.41404869171E+02  0.51100000000E-03 0.  1.
         23    2    1    0    0    0 -0.12468518854E+02 -0.16741153722E+02  0.19267685893E+02  0.96592713786E+02  0.92321061771E+02 0.  0.
         11    1    3    3    0    0 -0.37650161662E+01  0.22557393377E+01  0.55013039239E+02  0.55187844615E+02  0.51100000000E-03 0. -1.
         22    1    1    0    0    0  0.12468518854E+02  0.16741153722E+02 -0.19267685893E+02  0.28407286214E+02  0.00000000000E+00 0. -1.
</event>
<event>
 5    1  0.1681111E-003  0.9118800E+02  0.7818608E-02  0.1130116E+00
         25   -1    0    0    0    0  0.00000000000E+00  0.00000000000E+00  0.99999998245E-14  0.12500000000E+03  0.12500000000E+03 0.  0.
        -11    1    3    3    0    0  0.19567039347E+01 -0.53510626300E+01  0.60197549768E+02  0.60466582174E+02  0.51100000000E-03 0.  1.
         23    2    1    0    0    0  0.23885113953E+00  0.87885941836E+01  0.27413944909E+02  0.96210751780E+02  0.91802439755E+02 0.  0.
         11    1    3    3    0    0 -0.17178527952E+01  0.14139656814E+02 -0.32783604858E+02  0.35744169605E+02  0.51100000000E-03 0. -1.
         22    1    1    0    0    0 -0.23885113953E+00 -0.87885941836E+01 -0.27413944909E+02  0.28789248220E+02  0.00000000000E+00 0.  1.
</event>
<event>
 5    1  0.1681111E-003  0.9118800E+02  0.7818608E-02  0.1130116E+00
         25   -1    0    0    0    0  0.00000000000E+00  0.00000000000E+00  0.99999998245E-14  0.12500000000E+03  0.12500000000E+03 0.  0.
        -11    1    3    3    0    0  0.33948103301E+02 -0.88696469431E+01 -0.50273232582E+02  0.61306951230E+02  0.51100000000E-03 0.  1.
         23    2    1    0    0    0  0.10714583986E+02 -0.13495127800E+01 -0.30228731692E+02  0.92900160212E+02  0.87178208590E+02 0.  0.
         11    1    3    3    0    0 -0.23233519315E+02  0.75201341632E+01  0.20044500890E+02  0.31593208982E+02  0.51100000000E-03 0. -1.
         22    1    1    0    0    0 -0.10714583986E+02  0.13495127800E+01  0.30228731692E+02  0.32099839788E+02  0.00000000000E+00 0.  1.
</event>
<event>
 5    1  0.1681111E-003  0.9118800E+02  0.7818608E-02  0.1130116E+00
         25   -1    0    0    0    0  0.00000000000E+00  0.00000000000E+00  0.99999998245E-14  0.12500000000E+03  0.12500000000E+03 0.  0.
        -11    1    3    3    0    0 -0.12078538335E+01  0.46155619269E+02  0.25359258374E+02  0.52677244485E+02  0.51100000000E-03 0. -1.
         23    2    1    0    0    0 -0.23665285511E+02  0.16923207920E+02  0.30943844315E+01  0.95742250264E+02  0.91162286972E+02 0.  0.
         11    1    3    3    0    0 -0.22457431677E+02 -0.29232411349E+02 -0.22264873943E+02  0.43065005779E+02  0.51100000000E-03 0.  1.
         22    1    1    0    0    0  0.23665285511E+02 -0.16923207920E+02 -0.30943844315E+01  0.29257749736E+02  0.00000000000E+00 0. -1.
</event>
<event>
 5    1  0.1681111E-003  0.9118800E+02  0.7818608E-02  0.1130116E+00
         25   -1    0    0    0    0  0.00000000000E+00  0.00000000000E+00  0.99999998245E-14  0.12500000000E+03  0.12500000000E+03 0.  0.
        -11    1    3    3    0    0  0.18055523395E+01  0.24722241935E+02  0.36321518389E+02  0.43973878200E+02  0.51100000000E-03 0.  1.
         23    2    1    0    0    0 -0.20517096819E+02 -0.15879467815E+02  0.15569890783E+02  0.94742269435E+02  0.89780662499E+02 0.  0.
         11    1    3    3    0    0 -0.22322649158E+02 -0.40601709750E+02 -0.20751627607E+02  0.50768391235E+02  0.51100000000E-03 0. -1.
         22    1    1    0    0    0  0.20517096819E+02  0.15879467815E+02 -0.15569890783E+02  0.30257730565E+02  0.00000000000E+00 0.  1.
</event>
<event>
 5    1  0.1681111E-003  0.9118800E+02  0.7818608E-02  0.1130116E+00
         25   -1    0    0    0    0  0.00000000000E+00  0.00000000000E+00  0.99999998245E-14  0.12500000000E+03  0.12500000000E+03 0.  0.
        -11    1    3    3    0    0  0.46598868860E+02  0.29624280697E+02  0.25719824620E+02  0.60914382247E+02  0.51100000000E-03 0. -1.
         23    2    1    0    0    0  0.25123190292E+02  0.15475777171E+02  0.28047048140E+01  0.95359812102E+02  0.90636378048E+02 0.  0.
         11    1    3    3    0    0 -0.21475678568E+02 -0.14148503526E+02 -0.22915119806E+02  0.34445429855E+02  0.51100000000E-03 0.  1.
         22    1    1    0    0    0 -0.25123190292E+02 -0.15475777171E+02 -0.28047048140E+01  0.29640187898E+02  0.00000000000E+00 0. -1.
</event>
<event>
 5    1  0.1681111E-003  0.9118800E+02  0.7818608E-02  0.1130116E+00
         25   -1    0    0    0    0  0.00000000000E+00  0.00000000000E+00  0.99999998245E-14  0.12500000000E+03  0.12500000000E+03 0.  0.
        -11    1    3    3    0    0 -0.33021675418E+02 -0.18018487961E+02 -0.42088263151E+02  0.56449259084E+02  0.51100000000E-03 0. -1.
         23    2    1    0    0    0 -0.27832125902E+02 -0.64311218509E+01 -0.45526537965E+01  0.96074004476E+02  0.91616052736E+02 0.  0.
         11    1    3    3    0    0  0.51895495160E+01  0.11587366110E+02  0.37535609354E+02  0.39624745392E+02  0.51100000000E-03 0.  1.
         22    1    1    0    0    0  0.27832125902E+02  0.64311218509E+01  0.45526537965E+01  0.28925995524E+02  0.00000000000E+00 0. -1.
</event>
<event>
 5    1  0.1681111E-003  0.9118800E+02  0.7818608E-02  0.1130116E+00
         25   -1    0    0    0    0  0.00000000000E+00  0.00000000000E+00  0.99999998245E-14  0.12500000000E+03  0.12500000000E+03 0.  0.
        -11    1    3    3    0    0 -0.21585034931E+02 -0.37594550639E+02  0.27783257624E+02  0.51489546271E+02  0.51100000000E-03 0.  1.
         23    2    1    0    0    0  0.15187791716E+02 -0.23676810570E+02  0.67848153975E+01  0.96063965442E+02  0.91602354557E+02 0.  0.
         11    1    3    3    0    0  0.36772826647E+02  0.13917740069E+02 -0.20998442226E+02  0.44574419171E+02  0.51100000000E-03 0. -1.
         22    1    1    0    0    0 -0.15187791716E+02  0.23676810570E+02 -0.67848153975E+01  0.28936034558E+02  0.00000000000E+00 0.  1.
</event>
<event>
 5    1  0.1681111E-003  0.9118800E+02  0.7818608E-02  0.1130116E+00
         25   -1    0    0    0    0  0.00000000000E+00  0.00000000000E+00  0.99999998245E-14  0.12500000000E+03  0.12500000000E+03 0.  0.
        -11    1    3    3    0    0 -0.17720830908E+01 -0.22558640443E+02 -0.27609439607E+02  0.35697530626E+02  0.51100000000E-03 0. -1.
         23    2    1    0    0    0 -0.92825542214E+01  0.23373261863E+01  0.27092690730E+02  0.96265999277E+02  0.91877635033E+02 0.  0.
         11    1    3    3    0    0 -0.75104711306E+01  0.24895966629E+02  0.54702130337E+02  0.60568468651E+02  0.51100000000E-03 0.  1.
         22    1    1    0    0    0  0.92825542214E+01 -0.23373261863E+01 -0.27092690730E+02  0.28734000723E+02  0.00000000000E+00 0.  1.
</event>
<event>
 5    1  0.1681111E-003  0.9118800E+02  0.7818608E-02  0.1130116E+00
         25   -1    0    0    0    0  0.00000000000E+00  0.00000000000E+00  0.99999998245E-14  0.12500000000E+03  0.12500000000E+03 0.  0.
        -11    1    3    3    0    0  0.53289874175E+02 -0.27462834342E+02  0.16887299404E+02  0.62283214762E+02  0.51100000000E-03 0. -1.
         23    2    1    0    0    0  0.25893788886E+02 -0.12463396311E+02  0.43659271728E+01  0.95933079445E+02  0.91423573881E+02 0.  0.
         11    1    3    3    0    0 -0.27396085289E+02  0.14999438031E+02 -0.12521372231E+02  0.33649864683E+02  0.51100000000E-03 0.  1.
         22    1    1    0    0    0 -0.25893788886E+02  0.12463396311E+02 -0.43659271728E+01  0.29066920555E+02  0.00000000000E+00 0. -1.
</event>
<event>
 5    1  0.1681111E-003  0.9118800E+02  0.7818608E-02  0.1130116E+00
         25   -1    0    0    0    0  0.00000000000E+00  0.00000000000E+00  0.99999998245E-14  0.12500000000E+03  0.12500000000E+03 0.  0.
        -11    1    3    3    0    0 -0.48193785360E+02 -0.30214012825E+02  0.13289672720E+02  0.58413550821E+02  0.51100000000E-03 0.  1.
         23    2    1    0    0    0 -0.13445273995E+02 -0.27103748119E+02  0.80476236066E+01  0.93692607892E+02  0.88307145650E+02 0.  0.
         11    1    3    3    0    0  0.34748511365E+02  0.31102647054E+01 -0.52420491136E+01  0.35279057070E+02  0.51100000000E-03 0. -1.
         22    1    1    0    0    0  0.13445273995E+02  0.27103748119E+02 -0.80476236066E+01  0.31307392108E+02  0.00000000000E+00 0.  1.
</event>
<event>
 5    1  0.1681111E-003  0.9118800E+02  0.7818608E-02  0.1130116E+00
         25   -1    0    0    0    0  0.00000000000E+00  0.00000000000E+00  0.99999998245E-14  0.12500000000E+03  0.12500000000E+03 0.  0.
        -11    1    3    3    0    0  0.50147006217E+02 -0.39160194814E+01 -0.26632780180E+02  0.56915397051E+02  0.51100000000E-03 0.  1.
         23    2    1    0    0    0  0.11557085347E+02 -0.21683278952E+01 -0.27004284880E+02  0.95546659451E+02  0.90893700898E+02 0.  0.
         11    1    3    3    0    0 -0.38589920870E+02  0.17476915862E+01 -0.37150470009E+00  0.38631262400E+02  0.51100000000E-03 0. -1.
         22    1    1    0    0    0 -0.11557085347E+02  0.21683278952E+01  0.27004284880E+02  0.29453340549E+02  0.00000000000E+00 0.  1.
</event>
<event>
 5    1  0.1681111E-003  0.9118800E+02  0.7818608E-02  0.1130116E+00
         25   -1    0    0    0    0  0.00000000000E+00  0.00000000000E+00  0.99999998245E-14  0.12500000000E+03  0.12500000000E+03 0.  0.
        -11    1    3    3    0    0 -0.43656438338E+02 -0.28364717332E+01 -0.34580682969E+02  0.55765166682E+02  0.51100000000E-03 0. -1.
         23    2    1    0    0    0 -0.27554444639E+01  0.97381443589E-01 -0.27480651197E+02  0.97381380419E+02  0.93382788054E+02 0.  0.
         11    1    3    3    0    0  0.40900993874E+02  0.29338531768E+01  0.71000317717E+01  0.41616213736E+02  0.51100000000E-03 0.  1.
         22    1    1    0    0    0  0.27554444639E+01 -0.97381443589E-01  0.27480651197E+02  0.27618619581E+02  0.00000000000E+00 0. -1.
</event>
<event>
 5    1  0.1681111E-003  0.9118800E+02  0.7818608E-02  0.1130116E+00
         25   -1    0    0    0    0  0.00000000000E+00  0.00000000000E+00  0.99999998245E-14  0.12500000000E+03  0.12500000000E+03 0.  0.
        -11    1    3    3    0    0 -0.57728850812E+01 -0.43692517278E+02 -0.13893911661E+02  0.46210421441E+02  0.51100000000E-03 0.  1.
         23    2    1    0    0    0 -0.22785931405E+02  0.31667072475E+01 -0.17355643475E+02  0.96182556234E+02  0.91764040116E+02 0.  0.
         11    1    3    3    0    0 -0.17013046324E+02  0.46859224525E+02 -0.34617318143E+01  0.49972134793E+02  0.51100000000E-03 0. -1.
         22    1    1    0    0    0  0.22785931405E+02 -0.31667072475E+01  0.17355643475E+02  0.28817443766E+02  0.00000000000E+00 0. -1.
</event>
<event>
 5    1  0.1681111E-003  0.9118800E+02  0.7818608E-02  0.1130116E+00
         25   -1    0    0    0    0  0.00000000000E+00  0.00000000000E+00  0.99999998245E-14  0.12500000000E+03  0.12500000000E+03 0.  0.
        -11    1    3    3    0    0  0.39179148616E+02 -0.24664910604E+02 -0.35721611233E+02  0.58475610392E+02  0.51100000000E-03 0.  1.
         23    2    1    0    0    0  0.24022092629E+02 -0.14971084840E+02 -0.20897227277E+01  0.96617588956E+02  0.92354735878E+02 0.  0.
         11    1    3    3    0    0 -0.15157055986E+02  0.96938257644E+01  0.33631888505E+02  0.38141978565E+02  0.51100000000E-03 0. -1.
         22    1    1    0    0    0 -0.24022092629E+02  0.14971084840E+02  0.20897227277E+01  0.28382411044E+02  0.00000000000E+00 0.  1.
</event>
<event>
 5    1  0.1681111E-003  0.9118800E+02  0.7818608E-02  0.1130116E+00
         25   -1    0    0    0    0  0.00000000000E+00  0.00000000000E+00  0.99999998245E-14  0.12500000000E+03  0.12500000000E+03 0.  0.
        -11    1    3    3    0    0 -0.29539338419E+02 -0.72431930307E+01 -0.18790227138E+02  0.35750650283E+02  0.51100000000E-03 0.  1.
         23    2    1    0    0    0  0.45205916612E+01  0.15345743464E+01  0.29290411281E+02  0.95323092135E+02  0.90585722020E+02 0.  0.
         11    1    3    3    0    0  0.34059930080E+02  0.87777673770E+01  0.48080638419E+02  0.59572441852E+02  0.51100000000E-03 0. -1.
         22    1    1    0    0    0 -0.45205916612E+01 -0.15345743464E+01 -0.29290411281E+02  0.29676907865E+02  0.00000000000E+00 0. -1.
</event>
<event>
 5    1  0.1681111E-003  0.9118800E+02  0.7818608E-02  0.1130116E+00
         25   -1    0    0    0    0  0.00000000000E+00  0.00000000000E+00  0.99999998245E-14  0.12500000000E+03  0.12500000000E+03 0.  0.
        -11    1    3    3    0    0 -0.26183798016E+02 -0.19089966044E+02 -0.23064898840E+02  0.39774459655E+02  0.51100000000E-03 0.  1.
         23    2    1    0    0    0 -0.64306618004E+01 -0.44824755888E+01  0.27721800267E+02  0.96191247708E+02  0.91775878786E+02 0.  0.
         11    1    3    3    0    0  0.19753136215E+02  0.14607490455E+02  0.50786699107E+02  0.56416788053E+02  0.51100000000E-03 0. -1.
         22    1    1    0    0    0  0.64306618004E+01  0.44824755888E+01 -0.27721800267E+02  0.28808752292E+02  0.00000000000E+00 0. -1.
</event>
<event>
 5    1  0.1681111E-003  0.9118800E+02  0.7818608E-02  0.1130116E+00
         25   -1    0    0    0    0  0.00000000000E+00  0.00000000000E+00  0.99999998245E-14  0.12500000000E+03  0.12500000000E+03 0.  0.
        -11    1    3    3    0    0  0.38085933161E+01  0.36623765139E+02  0.26610483864E+02  0.45430423812E+02  0.51100000000E-03 0. -1.
         23    2    1    0    0    0 -0.29698524289E+02  0.75936364399E+01  0.10997311459E+02  0.92433045604E+02  0.86505846051E+02 0.  0.
         11    1    3    3    0    0 -0.33507117605E+02 -0.29030128699E+02 -0.15613172406E+02  0.47002621792E+02  0.51100000000E-03 0.  1.
         22    1    1    0    0    0  0.29698524289E+02 -0.75936364399E+01 -0.10997311459E+02  0.32566954396E+02  0.00000000000E+00 0. -1.
</event>
<event>
 5    1  0.1681111E-003  0.9118800E+02  0.7818608E-02  0.1130116E+00
         25   -1    0    0    0    0  0.00000000000E+00  0.00000000000E+00  0.99999998245E-14  0.12500000000E+03  0.12500000000E+03 0.  0.
        -11    1    3    3    0    0  0.44896813068E+02 -0.57651566831E+01 -0.33909255874E+02  0.56557921544E+02  0.51100000000E-03 0.  1.
         23    2    1    0    0    0  0.73094135869E+01 -0.25256414718E+01 -0.29454998672E+02  0.94546702336E+02  0.89507963802E+02 0.  0.
         11    1    3    3    0    0 -0.37587399481E+02  0.32395152113E+01  0.44542572020E+01  0.37988780791E+02  0.51100000000E-03 0. -1.
         22    1    1    0    0    0 -0.73094135869E+01  0.25256414718E+01  0.29454998672E+02  0.30453297664E+02  0.00000000000E+00 0.  1.
</event>
<event>
 5    1  0.1681111E-003  0.9118800E+02  0.7818608E-02  0.1130116E+00
         25   -1    0    0    0    0  0.00000000000E+00  0.00000000000E+00  0.99999998245E-14  0.12500000000E+03  0.12500000000E+03 0.  0.
        -11    1    3    3    0    0  0.25288525459E+02  0.97350433174E+01 -0.49920406465E+02  0.56800770860E+02  0.51100000000E-03 0.  1.
         23    2    1    0    0    0  0.99818113391E+01 -0.14581530531E+02 -0.20737085156E+02  0.97755105231E+02  0.93881714448E+02 0.  0.
         11    1    3    3    0    0 -0.15306714120E+02 -0.24316573848E+02  0.29183321309E+02  0.40954334371E+02  0.51100000000E-03 0. -1.
         22    1    1    0    0    0 -0.99818113391E+01  0.14581530531E+02  0.20737085156E+02  0.27244894769E+02  0.00000000000E+00 0.  1.
</event>
<event>
 5    1  0.1681111E-003  0.9118800E+02  0.7818608E-02  0.1130116E+00
         25   -1    0    0    0    0  0.00000000000E+00  0.00000000000E+00  0.99999998245E-14  0.12500000000E+03  0.12500000000E+03 0.  0.
        -11    1    3    3    0    0  0.59575584036E+01 -0.25358416916E+02  0.55377893613E+02  0.61198471483E+02  0.51100000000E-03 0.  1.
         23    2    1    0    0    0  0.51872298893E+01 -0.15848806948E+02  0.15393952131E+02  0.10230493891E+03  0.99755875656E+02 0.  0.
         11    1    3    3    0    0 -0.77032851435E+00  0.95096099683E+01 -0.39983941482E+02  0.41106467428E+02  0.51100000000E-03 0. -1.
         22    1    1    0    0    0 -0.51872298893E+01  0.15848806948E+02 -0.15393952131E+02  0.22695061089E+02  0.00000000000E+00 0.  1.
</event>
<event>
 5    1  0.1681111E-003  0.9118800E+02  0.7818608E-02  0.1130116E+00
         25   -1    0    0    0    0  0.00000000000E+00  0.00000000000E+00  0.99999998245E-14  0.12500000000E+03  0.12500000000E+03 0.  0.
        -11    1    3    3    0    0 -0.88747857426E+01  0.41532478870E+02  0.29967769043E+02  0.51978609108E+02  0.51100000000E-03 0.  1.
         23    2    1    0    0    0  0.16925394858E+02  0.24300933802E+02 -0.38654830289E+00  0.95383217691E+02  0.90668651819E+02 0.  0.
         11    1    3    3    0    0  0.25800180600E+02 -0.17231545068E+02 -0.30354317346E+02  0.43404608583E+02  0.51100000000E-03 0. -1.
         22    1    1    0    0    0 -0.16925394858E+02 -0.24300933802E+02  0.38654830289E+00  0.29616782309E+02  0.00000000000E+00 0. -1.
</event>
<event>
 5    1  0.1681111E-003  0.9118800E+02  0.7818608E-02  0.1130116E+00
         25   -1    0    0    0    0  0.00000000000E+00  0.00000000000E+00  0.99999998245E-14  0.12500000000E+03  0.12500000000E+03 0.  0.
        -11    1    3    3    0    0  0.20025362855E+01  0.60257735034E+02  0.33513557997E+01  0.60384073803E+02  0.51100000000E-03 0.  1.
         23    2    1    0    0    0 -0.47270468863E+01  0.24158965770E+02  0.11233125339E+02  0.97941106744E+02  0.94129042734E+02 0.  0.
         11    1    3    3    0    0 -0.67295831718E+01 -0.36098769264E+02  0.78817695392E+01  0.37557032942E+02  0.51100000000E-03 0. -1.
         22    1    1    0    0    0  0.47270468863E+01 -0.24158965770E+02 -0.11233125339E+02  0.27058893256E+02  0.00000000000E+00 0.  1.
</event>
<event>
 5    1  0.1681111E-003  0.9118800E+02  0.7818608E-02  0.1130116E+00
         25   -1    0    0    0    0  0.00000000000E+00  0.00000000000E+00  0.99999998245E-14  0.12500000000E+03  0.12500000000E+03 0.  0.
        -11    1    3    3    0    0 -0.45783828286E+02  0.24908785941E+02 -0.84555198592E+01  0.52802484467E+02  0.51100000000E-03 0.  1.
         23    2    1    0    0    0 -0.24291853682E+02 -0.11021176421E+02 -0.13726741368E+02  0.95000268108E+02  0.90139153684E+02 0.  0.
         11    1    3    3    0    0  0.21491974604E+02 -0.35929962362E+02 -0.52712215088E+01  0.42197783640E+02  0.51100000000E-03 0. -1.
         22    1    1    0    0    0  0.24291853682E+02  0.11021176421E+02  0.13726741368E+02  0.29999731892E+02  0.00000000000E+00 0.  1.
</event>
<event>
 5    1  0.1681111E-003  0.9118800E+02  0.7818608E-02  0.1130116E+00
         25   -1    0    0    0    0  0.00000000000E+00  0.00000000000E+00  0.99999998245E-14  0.12500000000E+03  0.12500000000E+03 0.  0.
        -11    1    3    3    0    0  0.47583003664E+02 -0.85971634096E+01 -0.39306768060E+02  0.62314327983E+02  0.51100000000E-03 0.  1.
         23    2    1    0    0    0  0.22657587040E+02 -0.71932068025E+01 -0.21118630305E+02  0.93202122389E+02  0.87610105566E+02 0.  0.
         11    1    3    3    0    0 -0.24925416624E+02  0.14039566071E+01  0.18188137754E+02  0.30887794406E+02  0.51100000000E-03 0. -1.
         22    1    1    0    0    0 -0.22657587040E+02  0.71932068025E+01  0.21118630305E+02  0.31797877611E+02  0.00000000000E+00 0.  1.
</event>
<event>
 5    1  0.1681111E-003  0.9118800E+02  0.7818608E-02  0.1130116E+00
         25   -1    0    0    0    0  0.00000000000E+00  0.00000000000E+00  0.99999998245E-14  0.12500000000E+03  0.12500000000E+03 0.  0.
        -11    1    3    3    0    0 -0.82249677054E+01 -0.18248701099E+01  0.35606456709E+02  0.36589616072E+02  0.51100000000E-03 0.  1.
         23    2    1    0    0    0  0.32233190368E+01 -0.25589470498E+02 -0.16071659468E+02  0.94610708727E+02  0.89597305662E+02 0.  0.
         11    1    3    3    0    0  0.11448286742E+02 -0.23764600388E+02 -0.51678116178E+02  0.58021092655E+02  0.51100000000E-03 0. -1.
         22    1    1    0    0    0 -0.32233190368E+01  0.25589470498E+02  0.16071659468E+02  0.30389291273E+02  0.00000000000E+00 0. -1.
</event>
<event>
 5    1  0.1681111E-003  0.9118800E+02  0.7818608E-02  0.1130116E+00
         25   -1    0    0    0    0  0.00000000000E+00  0.00000000000E+00  0.99999998245E-14  0.12500000000E+03  0.12500000000E+03 0.  0.
        -11    1    3    3    0    0  0.13397968179E+02  0.36383742820E+02 -0.47422579595E+02  0.61255067942E+02  0.51100000000E-03 0.  1.
         23    2    1    0    0    0  0.26669667736E+01  0.10045815282E+02 -0.26418026475E+02  0.96610860540E+02  0.92345628673E+02 0.  0.
         11    1    3    3    0    0 -0.10731001405E+02 -0.26337927538E+02  0.21004553120E+02  0.35355792598E+02  0.51100000000E-03 0. -1.
         22    1    1    0    0    0 -0.26669667736E+01 -0.10045815282E+02  0.26418026475E+02  0.28389139460E+02  0.00000000000E+00 0.  1.
</event>
<event>
 5    1  0.1681111E-003  0.9118800E+02  0.7818608E-02  0.1130116E+00
         25   -1    0    0    0    0  0.00000000000E+00  0.00000000000E+00  0.99999998245E-14  0.12500000000E+03  0.12500000000E+03 0.  0.
        -11    1    3    3    0    0  0.44768534660E+02 -0.38686995709E+02  0.35876487587E+01  0.59277116635E+02  0.51100000000E-03 0. -1.
         23    2    1    0    0    0  0.28161391226E+02 -0.57828532024E+01  0.80170774036E+00  0.96239817764E+02  0.91842008041E+02 0.  0.
         11    1    3    3    0    0 -0.16607143434E+02  0.32904142507E+02 -0.27859410183E+01  0.36962701129E+02  0.51100000000E-03 0.  1.
         22    1    1    0    0    0 -0.28161391226E+02  0.57828532024E+01 -0.80170774036E+00  0.28760182236E+02  0.00000000000E+00 0. -1.
</event>
<event>
 5    1  0.1681111E-003  0.9118800E+02  0.7818608E-02  0.1130116E+00
         25   -1    0    0    0    0  0.00000000000E+00  0.00000000000E+00  0.99999998245E-14  0.12500000000E+03  0.12500000000E+03 0.  0.
        -11    1    3    3    0    0  0.95807455806E+01 -0.31525906593E+02  0.13476793090E+02  0.35599121122E+02  0.51100000000E-03 0.  1.
         23    2    1    0    0    0  0.98113370255E+01  0.27183202795E+02 -0.10575668952E+01  0.96081021869E+02  0.91625626694E+02 0.  0.
         11    1    3    3    0    0  0.23059144488E+00  0.58709109388E+02 -0.14534359985E+02  0.60481900747E+02  0.51100000000E-03 0. -1.
         22    1    1    0    0    0 -0.98113370255E+01 -0.27183202795E+02  0.10575668952E+01  0.28918978131E+02  0.00000000000E+00 0. -1.
</event>
<event>
 5    1  0.1681111E-003  0.9118800E+02  0.7818608E-02  0.1130116E+00
         25   -1    0    0    0    0  0.00000000000E+00  0.00000000000E+00  0.99999998245E-14  0.12500000000E+03  0.12500000000E+03 0.  0.
        -11    1    3    3    0    0 -0.38580386821E+02 -0.12546000765E+02  0.15106577723E+02  0.43290380839E+02  0.51100000000E-03 0.  1.
         23    2    1    0    0    0 -0.87014945776E+01  0.48265988819E+01 -0.26096970507E+02  0.97070375328E+02  0.92965551857E+02 0.  0.
         11    1    3    3    0    0  0.29878892243E+02  0.17372599647E+02 -0.41203548231E+02  0.53779994489E+02  0.51100000000E-03 0. -1.
         22    1    1    0    0    0  0.87014945776E+01 -0.48265988819E+01  0.26096970507E+02  0.27929624672E+02  0.00000000000E+00 0. -1.
</event>
<event>
 5    1  0.1681111E-003  0.9118800E+02  0.7818608E-02  0.1130116E+00
         25   -1    0    0    0    0  0.00000000000E+00  0.00000000000E+00  0.99999998245E-14  0.12500000000E+03  0.12500000000E+03 0.  0.
        -11    1    3    3    0    0  0.28538407768E+02 -0.42658736030E+02  0.32081785333E+02  0.60526435778E+02  0.51100000000E-03 0. -1.
         23    2    1    0    0    0  0.31796104570E+01 -0.22017472342E+02  0.19002803939E+02  0.95742768953E+02  0.91162998186E+02 0.  0.
         11    1    3    3    0    0 -0.25358797311E+02  0.20641263688E+02 -0.13078981394E+02  0.35216333175E+02  0.51100000000E-03 0.  1.
         22    1    1    0    0    0 -0.31796104570E+01  0.22017472342E+02 -0.19002803939E+02  0.29257231047E+02  0.00000000000E+00 0. -1.
</event>
<event>
 5    1  0.1681111E-003  0.9118800E+02  0.7818608E-02  0.1130116E+00
         25   -1    0    0    0    0  0.00000000000E+00  0.00000000000E+00  0.99999998245E-14  0.12500000000E+03  0.12500000000E+03 0.  0.
        -11    1    3    3    0    0  0.16960717003E+02 -0.29314309902E+02  0.58279470974E+01  0.34365093539E+02  0.51100000000E-03 0.  1.
         23    2    1    0    0    0 -0.23781617443E+02  0.50717356875E+01  0.24140003711E+02  0.90735913696E+02  0.84017726844E+02 0.  0.
         11    1    3    3    0    0 -0.40742334446E+02  0.34386045590E+02  0.18312056614E+02  0.56370820157E+02  0.51100000000E-03 0. -1.
         22    1    1    0    0    0  0.23781617443E+02 -0.50717356875E+01 -0.24140003711E+02  0.34264086304E+02  0.00000000000E+00 0. -1.
</event>
<event>
 5    1  0.1681111E-003  0.9118800E+02  0.7818608E-02  0.1130116E+00
         25   -1    0    0    0    0  0.00000000000E+00  0.00000000000E+00  0.99999998245E-14  0.12500000000E+03  0.12500000000E+03 0.  0.
        -11    1    3    3    0    0 -0.30484369025E+02 -0.35810007179E+01  0.47681990263E+02  0.56707076425E+02  0.51100000000E-03 0.  1.
         23    2    1    0    0    0 -0.24237331975E+02  0.11242999082E+02  0.12274878296E+02  0.95597178251E+02  0.90963149477E+02 0.  0.
         11    1    3    3    0    0  0.62470370499E+01  0.14823999800E+02 -0.35407111966E+02  0.38890101826E+02  0.51100000000E-03 0. -1.
         22    1    1    0    0    0  0.24237331975E+02 -0.11242999082E+02 -0.12274878296E+02  0.29402821749E+02  0.00000000000E+00 0.  1.
</event>
<event>
 5    1  0.1681111E-003  0.9118800E+02  0.7818608E-02  0.1130116E+00
         25   -1    0    0    0    0  0.00000000000E+00  0.00000000000E+00  0.99999998245E-14  0.12500000000E+03  0.12500000000E+03 0.  0.
        -11    1    3    3    0    0 -0.27105478881E+02 -0.19033823494E+02 -0.17703610883E+02  0.37555442491E+02  0.51100000000E-03 0. -1.
         23    2    1    0    0    0 -0.34537037402E+01  0.72721639334E+01  0.28293999478E+02  0.95582949770E+02  0.90943594840E+02 0.  0.
         11    1    3    3    0    0  0.23651775140E+02  0.26305987427E+02  0.45997610361E+02  0.58027507279E+02  0.51100000000E-03 0.  1.
         22    1    1    0    0    0  0.34537037402E+01 -0.72721639334E+01 -0.28293999478E+02  0.29417050230E+02  0.00000000000E+00 0.  1.
</event>
<event>
 5    1  0.1681111E-003  0.9118800E+02  0.7818608E-02  0.1130116E+00
         25   -1    0    0    0    0  0.00000000000E+00  0.00000000000E+00  0.99999998245E-14  0.12500000000E+03  0.12500000000E+03 0.  0.
        -11    1    3    3    0    0 -0.95758529756E+01  0.30895519855E+02 -0.14689899232E+02  0.35524966531E+02  0.51100000000E-03 0.  1.
         23    2    1    0    0    0 -0.39438970749E+02 -0.67676656142E+01 -0.38349859474E+01  0.84801233491E+02  0.74667987604E+02 0.  0.
         11    1    3    3    0    0 -0.29863117773E+02 -0.37663185470E+02  0.10854913284E+02  0.49276266960E+02  0.51100000000E-03 0. -1.
         22    1    1    0    0    0  0.39438970749E+02  0.67676656142E+01  0.38349859474E+01  0.40198766509E+02  0.00000000000E+00 0. -1.
</event>
<event>
 5    1  0.1681111E-003  0.9118800E+02  0.7818608E-02  0.1130116E+00
         25   -1    0    0    0    0  0.00000000000E+00  0.00000000000E+00  0.99999998245E-14  0.12500000000E+03  0.12500000000E+03 0.  0.
        -11    1    3    3    0    0  0.53648748286E+01  0.18126618523E+02 -0.39010332310E+02  0.43349304587E+02  0.51100000000E-03 0. -1.
         23    2    1    0    0    0  0.15253315267E+02  0.19999692931E+02  0.13250687744E+02  0.96570577395E+02  0.92291084883E+02 0.  0.
         11    1    3    3    0    0  0.98884404379E+01  0.18730744079E+01  0.52261020054E+02  0.53221272808E+02  0.51100000000E-03 0.  1.
         22    1    1    0    0    0 -0.15253315267E+02 -0.19999692931E+02 -0.13250687744E+02  0.28429422605E+02  0.00000000000E+00 0.  1.
</event>
<event>
 5    1  0.1681111E-003  0.9118800E+02  0.7818608E-02  0.1130116E+00
         25   -1    0    0    0    0  0.00000000000E+00  0.00000000000E+00  0.99999998245E-14  0.12500000000E+03  0.12500000000E+03 0.  0.
        -11    1    3    3    0    0 -0.47553508335E+02  0.84198052672E+01  0.10005530548E+02  0.49318758273E+02  0.51100000000E-03 0.  1.
         23    2    1    0    0    0 -0.27154607304E+01  0.20618288998E+02 -0.12274173446E+02  0.10085164805E+03  0.97917884026E+02 0.  0.
         11    1    3    3    0    0  0.44838047605E+02  0.12198483731E+02 -0.22279703994E+02  0.51532889776E+02  0.51100000000E-03 0. -1.
         22    1    1    0    0    0  0.27154607304E+01 -0.20618288998E+02  0.12274173446E+02  0.24148351951E+02  0.00000000000E+00 0.  1.
</event>
<event>
 5    1  0.1681111E-003  0.9118800E+02  0.7818608E-02  0.1130116E+00
         25   -1    0    0    0    0  0.00000000000E+00  0.00000000000E+00  0.99999998245E-14  0.12500000000E+03  0.12500000000E+03 0.  0.
        -11    1    3    3    0    0 -0.39218267403E+02  0.25017731597E+02 -0.17664854350E+02  0.49759486250E+02  0.51100000000E-03 0. -1.
         23    2    1    0    0    0 -0.23851527825E+02 -0.15507074365E+02 -0.29200049119E-01  0.96550648732E+02  0.92264089347E+02 0.  0.
         11    1    3    3    0    0  0.15366739579E+02 -0.40524805962E+02  0.17635654301E+02  0.46791162482E+02  0.51100000000E-03 0.  1.
         22    1    1    0    0    0  0.23851527825E+02  0.15507074365E+02  0.29200049119E-01  0.28449351268E+02  0.00000000000E+00 0.  1.
</event>
<event>
 5    1  0.1681111E-003  0.9118800E+02  0.7818608E-02  0.1130116E+00
         25   -1    0    0    0    0  0.00000000000E+00  0.00000000000E+00  0.99999998245E-14  0.12500000000E+03  0.12500000000E+03 0.  0.
        -11    1    3    3    0    0 -0.23857450649E+02 -0.45116721868E+02 -0.18963591708E+01  0.51071447228E+02  0.51100000000E-03 0. -1.
         23    2    1    0    0    0  0.15424792113E+02 -0.25890778250E+02  0.29769944045E+00  0.94861233684E+02  0.89946141779E+02 0.  0.
         11    1    3    3    0    0  0.39282242762E+02  0.19225943618E+02  0.21940586112E+01  0.43789786456E+02  0.51100000000E-03 0.  1.
         22    1    1    0    0    0 -0.15424792113E+02  0.25890778250E+02 -0.29769944045E+00  0.30138766316E+02  0.00000000000E+00 0. -1.
</event>
<event>
 5    1  0.1681111E-003  0.9118800E+02  0.7818608E-02  0.1130116E+00
         25   -1    0    0    0    0  0.00000000000E+00  0.00000000000E+00  0.99999998245E-14  0.12500000000E+03  0.12500000000E+03 0.  0.
        -11    1    3    3    0    0 -0.11515301562E+02 -0.16252537313E+02 -0.26676651018E+02  0.33292504396E+02  0.51100000000E-03 0.  1.
         23    2    1    0    0    0  0.95004771224E+01  0.28083941833E+02  0.90675404776E+01  0.93996981683E+02  0.88736945073E+02 0.  0.
         11    1    3    3    0    0  0.21015778685E+02  0.44336479146E+02  0.35744191496E+02  0.60704477287E+02  0.51100000000E-03 0. -1.
         22    1    1    0    0    0 -0.95004771224E+01 -0.28083941833E+02 -0.90675404776E+01  0.31003018317E+02  0.00000000000E+00 0. -1.
</event>
<event>
 5    1  0.1681111E-003  0.9118800E+02  0.7818608E-02  0.1130116E+00
         25   -1    0    0    0    0  0.00000000000E+00  0.00000000000E+00  0.99999998245E-14  0.12500000000E+03  0.12500000000E+03 0.  0.
        -11    1    3    3    0    0 -0.35172373729E+02 -0.32942645836E+01  0.67071085163E+01  0.35957382521E+02  0.51100000000E-03 0.  1.
         23    2    1    0    0    0  0.14290248845E+02  0.12746961979E+02  0.27104269331E+02  0.91813592124E+02  0.85606063050E+02 0.  0.
         11    1    3    3    0    0  0.49462622574E+02  0.16041226563E+02  0.20397160815E+02  0.55856209602E+02  0.51100000000E-03 0. -1.
         22    1    1    0    0    0 -0.14290248845E+02 -0.12746961979E+02 -0.27104269331E+02  0.33186407876E+02  0.00000000000E+00 0. -1.
</event>
<event>
 5    1  0.1681111E-003  0.9118800E+02  0.7818608E-02  0.1130116E+00
         25   -1    0    0    0    0  0.00000000000E+00  0.00000000000E+00  0.99999998245E-14  0.12500000000E+03  0.12500000000E+03 0.  0.
        -11    1    3    3    0    0  0.50320273214E+02 -0.16838518499E+02  0.31352302995E+02  0.61633047182E+02  0.51100000000E-03 0.  1.
         23    2    1    0    0    0  0.23186952298E+02 -0.54987382272E+01  0.22198684115E+02  0.92432340345E+02  0.86504826954E+02 0.  0.
         11    1    3    3    0    0 -0.27133320915E+02  0.11339780272E+02 -0.91536188801E+01  0.30799293164E+02  0.51100000000E-03 0. -1.
         22    1    1    0    0    0 -0.23186952298E+02  0.54987382272E+01 -0.22198684115E+02  0.32567659655E+02  0.00000000000E+00 0.  1.
</event>
<event>
 5    1  0.1681111E-003  0.9118800E+02  0.7818608E-02  0.1130116E+00
         25   -1    0    0    0    0  0.00000000000E+00  0.00000000000E+00  0.99999998245E-14  0.12500000000E+03  0.12500000000E+03 0.  0.
        -11    1    3    3    0    0  0.14678978130E+02  0.31922665772E+02  0.10881617355E+02  0.36782313487E+02  0.51100000000E-03 0. -1.
         23    2    1    0    0    0 -0.28072979690E+01 -0.95136175387E+01 -0.27410308894E+02  0.95850130803E+02  0.91310090903E+02 0.  0.
         11    1    3    3    0    0 -0.17486276099E+02 -0.41436283311E+02 -0.38291926248E+02  0.59067817316E+02  0.51100000000E-03 0.  1.
         22    1    1    0    0    0  0.28072979690E+01  0.95136175387E+01  0.27410308894E+02  0.29149869197E+02  0.00000000000E+00 0.  1.
</event>
<event>
 5    1  0.1681111E-003  0.9118800E+02  0.7818608E-02  0.1130116E+00
         25   -1    0    0    0    0  0.00000000000E+00  0.00000000000E+00  0.99999998245E-14  0.12500000000E+03  0.12500000000E+03 0.  0.
        -11    1    3    3    0    0  0.33197480578E+01  0.38936603369E+02  0.92034952477E+00  0.39088704924E+02  0.51100000000E-03 0. -1.
         23    2    1    0    0    0  0.26537360856E+02 -0.11058003445E+02  0.91666587234E+01  0.94824867962E+02  0.89895589383E+02 0.  0.
         11    1    3    3    0    0  0.23217612798E+02 -0.49994606814E+02  0.82463091987E+01  0.55736163038E+02  0.51100000000E-03 0.  1.
         22    1    1    0    0    0 -0.26537360856E+02  0.11058003445E+02 -0.91666587234E+01  0.30175132038E+02  0.00000000000E+00 0.  1.
</event>
<event>
 5    1  0.1681111E-003  0.9118800E+02  0.7818608E-02  0.1130116E+00
         25   -1    0    0    0    0  0.00000000000E+00  0.00000000000E+00  0.99999998245E-14  0.12500000000E+03  0.12500000000E+03 0.  0.
        -11    1    3    3    0    0  0.11298058699E+02  0.52293591900E+02  0.23723100072E+02  0.58523938363E+02  0.51100000000E-03 0.  1.
         23    2    1    0    0    0  0.16172409818E+02  0.23070438621E+02 -0.54354973629E+00  0.96820443158E+02  0.92628887447E+02 0.  0.
         11    1    3    3    0    0  0.48743511188E+01 -0.29223153279E+02 -0.24266649808E+02  0.38296504796E+02  0.51100000000E-03 0. -1.
         22    1    1    0    0    0 -0.16172409818E+02 -0.23070438621E+02  0.54354973629E+00  0.28179556842E+02  0.00000000000E+00 0.  1.
</event>
<event>
 5    1  0.1681111E-003  0.9118800E+02  0.7818608E-02  0.1130116E+00
         25   -1    0    0    0    0  0.00000000000E+00  0.00000000000E+00  0.99999998245E-14  0.12500000000E+03  0.12500000000E+03 0.  0.
        -11    1    3    3    0    0  0.31981884464E+01  0.19363663780E+02  0.26945570614E+02  0.33335321513E+02  0.51100000000E-03 0.  1.
         23    2    1    0    0    0 -0.17460802033E+02 -0.18350021760E+02 -0.16743321855E+02  0.94636506575E+02  0.89633289819E+02 0.  0.
         11    1    3    3    0    0 -0.20658990479E+02 -0.37713685541E+02 -0.43688892469E+02  0.61301185063E+02  0.51100000000E-03 0. -1.
         22    1    1    0    0    0  0.17460802033E+02  0.18350021760E+02  0.16743321855E+02  0.30363493425E+02  0.00000000000E+00 0. -1.
</event>
<event>
 5    1  0.1681111E-003  0.9118800E+02  0.7818608E-02  0.1130116E+00
         25   -1    0    0    0    0  0.00000000000E+00  0.00000000000E+00  0.99999998245E-14  0.12500000000E+03  0.12500000000E+03 0.  0.
        -11    1    3    3    0    0 -0.24502069719E+02 -0.17948888686E+02  0.37064521298E+02  0.47919649048E+02  0.51100000000E-03 0.  1.
         23    2    1    0    0    0  0.40240233753E+01 -0.28363994966E+02 -0.65488328598E+00  0.96344497096E+02  0.91984369727E+02 0.  0.
         11    1    3    3    0    0  0.28526093094E+02 -0.10415106280E+02 -0.37719404584E+02  0.48424848048E+02  0.51100000000E-03 0. -1.
         22    1    1    0    0    0 -0.40240233753E+01  0.28363994966E+02  0.65488328598E+00  0.28655502904E+02  0.00000000000E+00 0.  1.
</event>
<event>
 5    1  0.1681111E-003  0.9118800E+02  0.7818608E-02  0.1130116E+00
         25   -1    0    0    0    0  0.00000000000E+00  0.00000000000E+00  0.99999998245E-14  0.12500000000E+03  0.12500000000E+03 0.  0.
        -11    1    3    3    0    0 -0.19862063318E+01  0.13494239143E+02 -0.31375334576E+02  0.34211856507E+02  0.51100000000E-03 0. -1.
         23    2    1    0    0    0  0.78776113249E+01 -0.19575477496E+02  0.19884767237E+02  0.96005861843E+02  0.91523032406E+02 0.  0.
         11    1    3    3    0    0  0.98638176566E+01 -0.33069716639E+02  0.51260101813E+02  0.61794005336E+02  0.51100000000E-03 0.  1.
         22    1    1    0    0    0 -0.78776113249E+01  0.19575477496E+02 -0.19884767237E+02  0.28994138157E+02  0.00000000000E+00 0.  1.
</event>
<event>
 5    1  0.1681111E-003  0.9118800E+02  0.7818608E-02  0.1130116E+00
         25   -1    0    0    0    0  0.00000000000E+00  0.00000000000E+00  0.99999998245E-14  0.12500000000E+03  0.12500000000E+03 0.  0.
        -11    1    3    3    0    0  0.93285972731E+01 -0.11251982988E+02 -0.41984621233E+02  0.44456026235E+02  0.51100000000E-03 0.  1.
         23    2    1    0    0    0 -0.23887174633E+02  0.89786207258E+01 -0.33735819823E+01  0.99259102629E+02  0.95863317579E+02 0.  0.
         11    1    3    3    0    0 -0.33215771906E+02  0.20230603713E+02  0.38611039251E+02  0.54803076394E+02  0.51100000000E-03 0. -1.
         22    1    1    0    0    0  0.23887174633E+02 -0.89786207258E+01  0.33735819823E+01  0.25740897371E+02  0.00000000000E+00 0. -1.
</event>
<event>
 5    1  0.1681111E-003  0.9118800E+02  0.7818608E-02  0.1130116E+00
         25   -1    0    0    0    0  0.00000000000E+00  0.00000000000E+00  0.99999998245E-14  0.12500000000E+03  0.12500000000E+03 0.  0.
        -11    1    3    3    0    0  0.45849498352E+02 -0.32456803609E+02  0.15890816236E+02  0.58379265502E+02  0.51100000000E-03 0.  1.
         23    2    1    0    0    0  0.13166960442E+02 -0.26461751990E+02 -0.52019069183E+00  0.95438813217E+02  0.90745266015E+02 0.  0.
         11    1    3    3    0    0 -0.32682537910E+02  0.59950516189E+01 -0.16411006928E+02  0.37059547715E+02  0.51100000000E-03 0. -1.
         22    1    1    0    0    0 -0.13166960442E+02  0.26461751990E+02  0.52019069183E+00  0.29561186783E+02  0.00000000000E+00 0.  1.
</event>
<event>
 5    1  0.1681111E-003  0.9118800E+02  0.7818608E-02  0.1130116E+00
         25   -1    0    0    0    0  0.00000000000E+00  0.00000000000E+00  0.99999998245E-14  0.12500000000E+03  0.12500000000E+03 0.  0.
        -11    1    3    3    0    0 -0.36591080907E+02 -0.38172020386E+02  0.27811139639E+02  0.59745040217E+02  0.51100000000E-03 0. -1.
         23    2    1    0    0    0 -0.79646126420E+01 -0.15437963028E+02  0.22329179551E+02  0.96709400565E+02  0.92478917279E+02 0.  0.
         11    1    3    3    0    0  0.28626468265E+02  0.22734057358E+02 -0.54819600879E+01  0.36964360348E+02  0.51100000000E-03 0.  1.
         22    1    1    0    0    0  0.79646126420E+01  0.15437963028E+02 -0.22329179551E+02  0.28290599435E+02  0.00000000000E+00 0. -1.
</event>
<event>
 5    1  0.1681111E-003  0.9118800E+02  0.7818608E-02  0.1130116E+00
         25   -1    0    0    0    0  0.00000000000E+00  0.00000000000E+00  0.99999998245E-14  0.12500000000E+03  0.12500000000E+03 0.  0.
        -11    1    3    3    0    0 -0.21699353879E+02 -0.12729698804E+02  0.20606693761E+02  0.32519886507E+02  0.51100000000E-03 0.  1.
         23    2    1    0    0    0  0.18498173435E+02 -0.98902210931E+01 -0.24328107429E+02  0.92877489127E+02  0.87145695715E+02 0.  0.
         11    1    3    3    0    0  0.40197527314E+02  0.28394777106E+01 -0.44934801190E+02  0.60357602620E+02  0.51100000000E-03 0. -1.
         22    1    1    0    0    0 -0.18498173435E+02  0.98902210931E+01  0.24328107429E+02  0.32122510873E+02  0.00000000000E+00 0. -1.
</event>
<event>
 5    1  0.1681111E-003  0.9118800E+02  0.7818608E-02  0.1130116E+00
         25   -1    0    0    0    0  0.00000000000E+00  0.00000000000E+00  0.99999998245E-14  0.12500000000E+03  0.12500000000E+03 0.  0.
        -11    1    3    3    0    0  0.38080629673E+02 -0.61691330096E+01 -0.16031260241E+01  0.38610394607E+02  0.51100000000E-03 0. -1.
         23    2    1    0    0    0 -0.10847270889E+02 -0.16346272266E+02  0.23377859497E+02  0.94481346403E+02  0.89416646106E+02 0.  0.
         11    1    3    3    0    0 -0.48927900561E+02 -0.10177139256E+02  0.24980985521E+02  0.55870951796E+02  0.51100000000E-03 0.  1.
         22    1    1    0    0    0  0.10847270889E+02  0.16346272266E+02 -0.23377859497E+02  0.30518653597E+02  0.00000000000E+00 0.  1.
</event>
<event>
 5    1  0.1681111E-003  0.9118800E+02  0.7818608E-02  0.1130116E+00
         25   -1    0    0    0    0  0.00000000000E+00  0.00000000000E+00  0.99999998245E-14  0.12500000000E+03  0.12500000000E+03 0.  0.
        -11    1    3    3    0    0  0.38328554542E+02  0.97955116263E+01 -0.17138548151E+02  0.43113338705E+02  0.51100000000E-03 0. -1.
         23    2    1    0    0    0  0.19738865813E+02 -0.15329738868E+02  0.20953044466E+02  0.92386294449E+02  0.86438264746E+02 0.  0.
         11    1    3    3    0    0 -0.18589688728E+02 -0.25125250494E+02  0.38091592617E+02  0.49272955744E+02  0.51100000000E-03 0.  1.
         22    1    1    0    0    0 -0.19738865813E+02  0.15329738868E+02 -0.20953044466E+02  0.32613705551E+02  0.00000000000E+00 0.  1.
</event>
<event>
 5    1  0.1681111E-003  0.9118800E+02  0.7818608E-02  0.1130116E+00
         25   -1    0    0    0    0  0.00000000000E+00  0.00000000000E+00  0.99999998245E-14  0.12500000000E+03  0.12500000000E+03 0.  0.
        -11    1    3    3    0    0 -0.72262923950E+01 -0.30540616669E+02  0.17227515203E+02  0.35801338643E+02  0.51100000000E-03 0.  1.
         23    2    1    0    0    0  0.27193902736E+02  0.40994055052E+00 -0.16603267674E+02  0.93135522996E+02  0.87515031561E+02 0.  0.
         11    1    3    3    0    0  0.34420195131E+02  0.30950557220E+02 -0.33830782878E+02  0.57334184353E+02  0.51100000000E-03 0. -1.
         22    1    1    0    0    0 -0.27193902736E+02 -0.40994055052E+00  0.16603267674E+02  0.31864477004E+02  0.00000000000E+00 0. -1.
</event>
<event>
 5    1  0.1681111E-003  0.9118800E+02  0.7818608E-02  0.1130116E+00
         25   -1    0    0    0    0  0.00000000000E+00  0.00000000000E+00  0.99999998245E-14  0.12500000000E+03  0.12500000000E+03 0.  0.
        -11    1    3    3    0    0  0.17724027470E+02  0.31484470628E+02  0.16302971501E+01  0.36167262953E+02  0.51100000000E-03 0. -1.
         23    2    1    0    0    0  0.75950365018E+01 -0.26435408052E+02  0.10356210462E+02  0.95610095722E+02  0.90980898713E+02 0.  0.
         11    1    3    3    0    0 -0.10128990968E+02 -0.57919878679E+02  0.87259133120E+01  0.59442832769E+02  0.51100000000E-03 0.  1.
         22    1    1    0    0    0 -0.75950365018E+01  0.26435408052E+02 -0.10356210462E+02  0.29389904278E+02  0.00000000000E+00 0.  1.
</event>
<event>
 5    1  0.1681111E-003  0.9118800E+02  0.7818608E-02  0.1130116E+00
         25   -1    0    0    0    0  0.00000000000E+00  0.00000000000E+00  0.99999998245E-14  0.12500000000E+03  0.12500000000E+03 0.  0.
        -11    1    3    3    0    0 -0.70033616597E+01 -0.46627592971E+02  0.16315543057E+02  0.49893651363E+02  0.51100000000E-03 0. -1.
         23    2    1    0    0    0  0.17620689288E+02 -0.95769608456E+01  0.22557514037E+02  0.94816423182E+02  0.89883846132E+02 0.  0.
         11    1    3    3    0    0  0.24624050947E+02  0.37050632125E+02  0.62419709799E+01  0.44922771819E+02  0.51100000000E-03 0.  1.
         22    1    1    0    0    0 -0.17620689288E+02  0.95769608456E+01 -0.22557514037E+02  0.30183576818E+02  0.00000000000E+00 0. -1.
</event>
<event>
 5    1  0.1681111E-003  0.9118800E+02  0.7818608E-02  0.1130116E+00
         25   -1    0    0    0    0  0.00000000000E+00  0.00000000000E+00  0.99999998245E-14  0.12500000000E+03  0.12500000000E+03 0.  0.
        -11    1    3    3    0    0  0.47152464009E+02  0.12301200852E+02 -0.17421466782E+02  0.51751153703E+02  0.51100000000E-03 0.  1.
         23    2    1    0    0    0  0.54478773267E+01  0.21812136266E+02 -0.20416062033E+02  0.94631196191E+02  0.89625883805E+02 0.  0.
         11    1    3    3    0    0 -0.41704586682E+02  0.95109354142E+01 -0.29945952509E+01  0.42880042488E+02  0.51100000000E-03 0. -1.
         22    1    1    0    0    0 -0.54478773267E+01 -0.21812136266E+02  0.20416062033E+02  0.30368803809E+02  0.00000000000E+00 0.  1.
</event>
<event>
 5    1  0.1681111E-003  0.9118800E+02  0.7818608E-02  0.1130116E+00
         25   -1    0    0    0    0  0.00000000000E+00  0.00000000000E+00  0.99999998245E-14  0.12500000000E+03  0.12500000000E+03 0.  0.
        -11    1    3    3    0    0  0.38569299710E+02  0.22746310889E+02 -0.29319745934E+02  0.53522266778E+02  0.51100000000E-03 0.  1.
         23    2    1    0    0    0  0.81482199462E+01  0.60946758800E+01 -0.34898485030E+02  0.88648345020E+02  0.80852249536E+02 0.  0.
         11    1    3    3    0    0 -0.30421079764E+02 -0.16651635009E+02 -0.55787390961E+01  0.35126078242E+02  0.51100000000E-03 0. -1.
         22    1    1    0    0    0 -0.81482199462E+01 -0.60946758800E+01  0.34898485030E+02  0.36351654980E+02  0.00000000000E+00 0. -1.
</event>
<event>
 5    1  0.1681111E-003  0.9118800E+02  0.7818608E-02  0.1130116E+00
         25   -1    0    0    0    0  0.00000000000E+00  0.00000000000E+00  0.99999998245E-14  0.12500000000E+03  0.12500000000E+03 0.  0.
        -11    1    3    3    0    0 -0.25039257927E+02  0.28945095827E+02  0.36092652175E+02  0.52606677820E+02  0.51100000000E-03 0. -1.
         23    2    1    0    0    0  0.79316983765E+01  0.27709236163E+02  0.10642760594E+02  0.94275710571E+02  0.89128713907E+02 0.  0.
         11    1    3    3    0    0  0.32970956304E+02 -0.12358596637E+01 -0.25449891580E+02  0.41669032751E+02  0.51100000000E-03 0.  1.
         22    1    1    0    0    0 -0.79316983765E+01 -0.27709236163E+02 -0.10642760594E+02  0.30724289429E+02  0.00000000000E+00 0. -1.
</event>
<event>
 5    1  0.1681111E-003  0.9118800E+02  0.7818608E-02  0.1130116E+00
         25   -1    0    0    0    0  0.00000000000E+00  0.00000000000E+00  0.99999998245E-14  0.12500000000E+03  0.12500000000E+03 0.  0.
        -11    1    3    3    0    0 -0.66521274751E+01  0.27074079913E+02 -0.29890984839E+02  0.40874534591E+02  0.51100000000E-03 0. -1.
         23    2    1    0    0    0 -0.25048869137E+02 -0.85576049981E+01  0.92977152568E+01  0.96944234865E+02  0.92795790401E+02 0.  0.
         11    1    3    3    0    0 -0.18396741662E+02 -0.35631684912E+02  0.39188700095E+02  0.56069700274E+02  0.51100000000E-03 0.  1.
         22    1    1    0    0    0  0.25048869137E+02  0.85576049981E+01 -0.92977152568E+01  0.28055765135E+02  0.00000000000E+00 0.  1.
</event>
<event>
 5    1  0.1681111E-003  0.9118800E+02  0.7818608E-02  0.1130116E+00
         25   -1    0    0    0    0  0.00000000000E+00  0.00000000000E+00  0.99999998245E-14  0.12500000000E+03  0.12500000000E+03 0.  0.
        -11    1    3    3    0    0 -0.55014194980E+02  0.24599718498E+02  0.82402369457E+01  0.60824413723E+02  0.51100000000E-03 0.  1.
         23    2    1    0    0    0 -0.29817957749E+02  0.65774055304E+01 -0.41417892405E+01  0.94185599374E+02  0.89002246283E+02 0.  0.
         11    1    3    3    0    0  0.25196237231E+02 -0.18022312968E+02 -0.12382026186E+02  0.33361185651E+02  0.51100000000E-03 0. -1.
         22    1    1    0    0    0  0.29817957749E+02 -0.65774055304E+01  0.41417892405E+01  0.30814400626E+02  0.00000000000E+00 0.  1.
</event>
<event>
 5    1  0.1681111E-003  0.9118800E+02  0.7818608E-02  0.1130116E+00
         25   -1    0    0    0    0  0.00000000000E+00  0.00000000000E+00  0.99999998245E-14  0.12500000000E+03  0.12500000000E+03 0.  0.
        -11    1    3    3    0    0 -0.22752613619E+02 -0.92361578173E+01  0.28129338463E+02  0.37339626677E+02  0.51100000000E-03 0.  1.
         23    2    1    0    0    0  0.26719548283E+02  0.11416575623E+02  0.13808445767E+02  0.92829429071E+02  0.87076732069E+02 0.  0.
         11    1    3    3    0    0  0.49472161902E+02  0.20652733440E+02 -0.14320892696E+02  0.55489802394E+02  0.51100000000E-03 0. -1.
         22    1    1    0    0    0 -0.26719548283E+02 -0.11416575623E+02 -0.13808445767E+02  0.32170570929E+02  0.00000000000E+00 0. -1.
</event>
<event>
 5    1  0.1681111E-003  0.9118800E+02  0.7818608E-02  0.1130116E+00
         25   -1    0    0    0    0  0.00000000000E+00  0.00000000000E+00  0.99999998245E-14  0.12500000000E+03  0.12500000000E+03 0.  0.
        -11    1    3    3    0    0 -0.27328256140E+02  0.40197185776E+02  0.13145607647E+02  0.50353295112E+02  0.51100000000E-03 0.  1.
         23    2    1    0    0    0  0.87299385700E+00  0.23678411100E+02 -0.17801619285E+02  0.95363419232E+02  0.90641352637E+02 0.  0.
         11    1    3    3    0    0  0.28201249997E+02 -0.16518774677E+02 -0.30947226932E+02  0.45010124119E+02  0.51100000000E-03 0. -1.
         22    1    1    0    0    0 -0.87299385700E+00 -0.23678411100E+02  0.17801619285E+02  0.29636580768E+02  0.00000000000E+00 0.  1.
</event>
<event>
 5    1  0.1681111E-003  0.9118800E+02  0.7818608E-02  0.1130116E+00
         25   -1    0    0    0    0  0.00000000000E+00  0.00000000000E+00  0.99999998245E-14  0.12500000000E+03  0.12500000000E+03 0.  0.
        -11    1    3    3    0    0  0.24680134259E+02  0.41559605238E+01 -0.13927531679E+02  0.28641877973E+02  0.51100000000E-03 0. -1.
         23    2    1    0    0    0 -0.24013607299E+02 -0.13312203497E+02  0.20458295914E+02  0.90759527323E+02  0.84052851413E+02 0.  0.
         11    1    3    3    0    0 -0.48693741557E+02 -0.17468164021E+02  0.34385827593E+02  0.62117649349E+02  0.51100000000E-03 0.  1.
         22    1    1    0    0    0  0.24013607299E+02  0.13312203497E+02 -0.20458295914E+02  0.34240472677E+02  0.00000000000E+00 0.  1.
</event>
<event>
 5    1  0.1681111E-003  0.9118800E+02  0.7818608E-02  0.1130116E+00
         25   -1    0    0    0    0  0.00000000000E+00  0.00000000000E+00  0.99999998245E-14  0.12500000000E+03  0.12500000000E+03 0.  0.
        -11    1    3    3    0    0  0.11176167432E+02 -0.56186355939E+02  0.11574419923E+02  0.58444679048E+02  0.51100000000E-03 0.  1.
         23    2    1    0    0    0  0.40495482912E+01 -0.27173355197E+02 -0.10497676105E+02  0.95589265945E+02  0.90952275872E+02 0.  0.
         11    1    3    3    0    0 -0.71266191411E+01  0.29013000742E+02 -0.22072096028E+02  0.37144586897E+02  0.51100000000E-03 0. -1.
         22    1    1    0    0    0 -0.40495482912E+01  0.27173355197E+02  0.10497676105E+02  0.29410734055E+02  0.00000000000E+00 0.  1.
</event>
<event>
 5    1  0.1681111E-003  0.9118800E+02  0.7818608E-02  0.1130116E+00
         25   -1    0    0    0    0  0.00000000000E+00  0.00000000000E+00  0.99999998245E-14  0.12500000000E+03  0.12500000000E+03 0.  0.
        -11    1    3    3    0    0 -0.32022108034E+02  0.14440277773E+02 -0.60689999187E+01  0.35647858076E+02  0.51100000000E-03 0.  1.
         23    2    1    0    0    0  0.10173955465E+02 -0.26616868622E+02 -0.10363989453E+02  0.94678731187E+02  0.89692155715E+02 0.  0.
         11    1    3    3    0    0  0.42196063499E+02 -0.41057146395E+02 -0.42949895341E+01  0.59030873111E+02  0.51100000000E-03 0. -1.
         22    1    1    0    0    0 -0.10173955465E+02  0.26616868622E+02  0.10363989453E+02  0.30321268813E+02  0.00000000000E+00 0. -1.
</event>
<event>
 5    1  0.1681111E-003  0.9118800E+02  0.7818608E-02  0.1130116E+00
         25   -1    0    0    0    0  0.00000000000E+00  0.00000000000E+00  0.99999998245E-14  0.12500000000E+03  0.12500000000E+03 0.  0.
        -11    1    3    3    0    0 -0.18353885704E+02 -0.28966183651E+01 -0.30942199851E+02  0.36092592734E+02  0.51100000000E-03 0.  1.
         23    2    1    0    0    0 -0.21399883799E+01  0.17283186570E+02  0.23132917432E+02  0.96044517666E+02  0.91575812399E+02 0.  0.
         11    1    3    3    0    0  0.16213897324E+02  0.20179804935E+02  0.54075117283E+02  0.59951924932E+02  0.51100000000E-03 0. -1.
         22    1    1    0    0    0  0.21399883799E+01 -0.17283186570E+02 -0.23132917432E+02  0.28955482334E+02  0.00000000000E+00 0. -1.
</event>
<event>
 5    1  0.1681111E-003  0.9118800E+02  0.7818608E-02  0.1130116E+00
         25   -1    0    0    0    0  0.00000000000E+00  0.00000000000E+00  0.99999998245E-14  0.12500000000E+03  0.12500000000E+03 0.  0.
        -11    1    3    3    0    0  0.24938179672E+02  0.12005089376E+02  0.50984180917E+02  0.58012254570E+02  0.51100000000E-03 0. -1.
         23    2    1    0    0    0 -0.38282141106E+00 -0.53550819424E+01  0.28328341347E+02  0.96167407707E+02  0.91743402633E+02 0.  0.
         11    1    3    3    0    0 -0.25321001083E+02 -0.17360171319E+02 -0.22655839569E+02  0.38155153137E+02  0.51100000000E-03 0.  1.
         22    1    1    0    0    0  0.38282141106E+00  0.53550819424E+01 -0.28328341347E+02  0.28832592293E+02  0.00000000000E+00 0. -1.
</event>
<event>
 5    1  0.1681111E-003  0.9118800E+02  0.7818608E-02  0.1130116E+00
         25   -1    0    0    0    0  0.00000000000E+00  0.00000000000E+00  0.99999998245E-14  0.12500000000E+03  0.12500000000E+03 0.  0.
        -11    1    3    3    0    0 -0.11483047644E+02 -0.91647439139E+01 -0.59454336845E+02  0.61242722704E+02  0.51100000000E-03 0.  1.
         23    2    1    0    0    0 -0.55523438071E+00  0.50541906097E+01 -0.12456319694E+02  0.11154589177E+03  0.11073153545E+03 0.  0.
         11    1    3    3    0    0  0.10927813264E+02  0.14218934524E+02  0.46998017152E+02  0.50303169067E+02  0.51100000000E-03 0. -1.
         22    1    1    0    0    0  0.55523438071E+00 -0.50541906097E+01  0.12456319694E+02  0.13454108229E+02  0.00000000000E+00 0.  1.
</event>
<event>
 5    1  0.1681111E-003  0.9118800E+02  0.7818608E-02  0.1130116E+00
         25   -1    0    0    0    0  0.00000000000E+00  0.00000000000E+00  0.99999998245E-14  0.12500000000E+03  0.12500000000E+03 0.  0.
        -11    1    3    3    0    0  0.17380707372E+02 -0.19742453502E+02 -0.33247288986E+02  0.42393816580E+02  0.51100000000E-03 0.  1.
         23    2    1    0    0    0 -0.26278506430E+02  0.27610860919E+01 -0.13444509631E+02  0.95353105798E+02  0.90627128662E+02 0.  0.
         11    1    3    3    0    0 -0.43659213802E+02  0.22503539594E+02  0.19802779355E+02  0.52959289218E+02  0.51100000000E-03 0. -1.
         22    1    1    0    0    0  0.26278506430E+02 -0.27610860919E+01  0.13444509631E+02  0.29646894202E+02  0.00000000000E+00 0.  1.
</event>
<event>
 5    1  0.1681111E-003  0.9118800E+02  0.7818608E-02  0.1130116E+00
         25   -1    0    0    0    0  0.00000000000E+00  0.00000000000E+00  0.99999998245E-14  0.12500000000E+03  0.12500000000E+03 0.  0.
        -11    1    3    3    0    0 -0.33927130851E+02  0.56890377821E+01 -0.13629180281E+02  0.37002296064E+02  0.51100000000E-03 0. -1.
         23    2    1    0    0    0  0.12422258709E+02 -0.17601972957E+02  0.17277261239E+02  0.97383959021E+02  0.93386239647E+02 0.  0.
         11    1    3    3    0    0  0.46349389559E+02 -0.23291010739E+02  0.30906441520E+02  0.60381662957E+02  0.51100000000E-03 0.  1.
         22    1    1    0    0    0 -0.12422258709E+02  0.17601972957E+02 -0.17277261239E+02  0.27616040979E+02  0.00000000000E+00 0.  1.
</event>
<event>
 5    1  0.1681111E-003  0.9118800E+02  0.7818608E-02  0.1130116E+00
         25   -1    0    0    0    0  0.00000000000E+00  0.00000000000E+00  0.99999998245E-14  0.12500000000E+03  0.12500000000E+03 0.  0.
        -11    1    3    3    0    0  0.25241058934E+02 -0.86746468918E+01 -0.16906553425E+02  0.31594178321E+02  0.51100000000E-03 0.  1.
         23    2    1    0    0    0 -0.28540220484E+02 -0.18116372574E+02 -0.18969211269E+02  0.86236897483E+02  0.77033917016E+02 0.  0.
         11    1    3    3    0    0 -0.53781279419E+02 -0.94417256823E+01 -0.20626578443E+01  0.54642719162E+02  0.51100000000E-03 0. -1.
         22    1    1    0    0    0  0.28540220484E+02  0.18116372574E+02  0.18969211269E+02  0.38763102517E+02  0.00000000000E+00 0. -1.
</event>
<event>
 5    1  0.1681111E-003  0.9118800E+02  0.7818608E-02  0.1130116E+00
         25   -1    0    0    0    0  0.00000000000E+00  0.00000000000E+00  0.99999998245E-14  0.12500000000E+03  0.12500000000E+03 0.  0.
        -11    1    3    3    0    0 -0.26562102256E+02  0.31871254745E+02 -0.38527982739E+02  0.56619145256E+02  0.51100000000E-03 0.  1.
         23    2    1    0    0    0 -0.84893833582E+01 -0.12511996172E+01 -0.27886277547E+02  0.95823303722E+02  0.91273358274E+02 0.  0.
         11    1    3    3    0    0  0.18072718898E+02 -0.33122454363E+02  0.10641705193E+02  0.39204158466E+02  0.51100000000E-03 0. -1.
         22    1    1    0    0    0  0.84893833582E+01  0.12511996172E+01  0.27886277547E+02  0.29176696278E+02  0.00000000000E+00 0. -1.
</event>
<event>
 5    1  0.1681111E-003  0.9118800E+02  0.7818608E-02  0.1130116E+00
         25   -1    0    0    0    0  0.00000000000E+00  0.00000000000E+00  0.99999998245E-14  0.12500000000E+03  0.12500000000E+03 0.  0.
        -11    1    3    3    0    0  0.45758413862E+01  0.41531728295E+02 -0.16664818000E+02  0.44983763057E+02  0.51100000000E-03 0. -1.
         23    2    1    0    0    0  0.80929692544E+01 -0.92552053744E+01 -0.25535050488E+02  0.96659326379E+02  0.92411209248E+02 0.  0.
         11    1    3    3    0    0  0.35171278682E+01 -0.50786933669E+02 -0.88702324879E+01  0.51675563321E+02  0.51100000000E-03 0.  1.
         22    1    1    0    0    0 -0.80929692544E+01  0.92552053744E+01  0.25535050488E+02  0.28340673621E+02  0.00000000000E+00 0.  1.
</event>
<event>
 5    1  0.1681111E-003  0.9118800E+02  0.7818608E-02  0.1130116E+00
         25   -1    0    0    0    0  0.00000000000E+00  0.00000000000E+00  0.99999998245E-14  0.12500000000E+03  0.12500000000E+03 0.  0.
        -11    1    3    3    0    0 -0.66427038704E+01  0.22771338158E+02 -0.31157735582E+02  0.39159466839E+02  0.51100000000E-03 0. -1.
         23    2    1    0    0    0  0.21879289976E+01  0.14386467588E+02  0.24701613598E+02  0.96330727297E+02  0.91965655678E+02 0.  0.
         11    1    3    3    0    0  0.88306328680E+01 -0.83848705699E+01  0.55859349180E+02  0.57171260458E+02  0.51100000000E-03 0.  1.
         22    1    1    0    0    0 -0.21879289976E+01 -0.14386467588E+02 -0.24701613598E+02  0.28669272703E+02  0.00000000000E+00 0.  1.
</event>
<event>
 5    1  0.1681111E-003  0.9118800E+02  0.7818608E-02  0.1130116E+00
         25   -1    0    0    0    0  0.00000000000E+00  0.00000000000E+00  0.99999998245E-14  0.12500000000E+03  0.12500000000E+03 0.  0.
        -11    1    3    3    0    0  0.23524517655E+02  0.31596459771E+02  0.32798530829E+01  0.39528428219E+02  0.51100000000E-03 0. -1.
         23    2    1    0    0    0 -0.84952832418E+00 -0.10305844754E+02  0.28862796785E+02  0.94340691907E+02  0.89219801484E+02 0.  0.
         11    1    3    3    0    0 -0.24374045979E+02 -0.41902304525E+02  0.25582943702E+02  0.54812263688E+02  0.51100000000E-03 0.  1.
         22    1    1    0    0    0  0.84952832418E+00  0.10305844754E+02 -0.28862796785E+02  0.30659308093E+02  0.00000000000E+00 0. -1.
</event>
<event>
 5    1  0.1681111E-003  0.9118800E+02  0.7818608E-02  0.1130116E+00
         25   -1    0    0    0    0  0.00000000000E+00  0.00000000000E+00  0.99999998245E-14  0.12500000000E+03  0.12500000000E+03 0.  0.
        -11    1    3    3    0    0 -0.37060520810E+01 -0.20661342336E+02 -0.22573620705E+02  0.30825220861E+02  0.51100000000E-03 0.  1.
         23    2    1    0    0    0 -0.27507457462E+01  0.33936614952E+02  0.23924023918E+01  0.90868137675E+02  0.84214217439E+02 0.  0.
         11    1    3    3    0    0  0.95530633485E+00  0.54597957287E+02  0.24966023096E+02  0.60042916815E+02  0.51100000000E-03 0. -1.
         22    1    1    0    0    0  0.27507457462E+01 -0.33936614952E+02 -0.23924023918E+01  0.34131862325E+02  0.00000000000E+00 0. -1.
</event>
<event>
 5    1  0.1681111E-003  0.9118800E+02  0.7818608E-02  0.1130116E+00
         25   -1    0    0    0    0  0.00000000000E+00  0.00000000000E+00  0.99999998245E-14  0.12500000000E+03  0.12500000000E+03 0.  0.
        -11    1    3    3    0    0  0.61905629004E+01  0.42689634356E+02  0.25849476527E+02  0.50288402117E+02  0.51100000000E-03 0.  1.
         23    2    1    0    0    0 -0.17091426225E+02  0.24442657838E+02 -0.68663999506E+01  0.94394317180E+02  0.89294900723E+02 0.  0.
         11    1    3    3    0    0 -0.23281989125E+02 -0.18246976518E+02 -0.32715876478E+02  0.44105915064E+02  0.51100000000E-03 0. -1.
         22    1    1    0    0    0  0.17091426225E+02 -0.24442657838E+02  0.68663999506E+01  0.30605682820E+02  0.00000000000E+00 0.  1.
</event>
<event>
 5    1  0.1681111E-003  0.9118800E+02  0.7818608E-02  0.1130116E+00
         25   -1    0    0    0    0  0.00000000000E+00  0.00000000000E+00  0.99999998245E-14  0.12500000000E+03  0.12500000000E+03 0.  0.
        -11    1    3    3    0    0  0.24156065404E+02 -0.33916410666E+02  0.62470473877E+01  0.42105391692E+02  0.51100000000E-03 0. -1.
         23    2    1    0    0    0 -0.17609281210E+02 -0.15117027177E+02 -0.19535091894E+02  0.94664688715E+02  0.89672583206E+02 0.  0.
         11    1    3    3    0    0 -0.41765346614E+02  0.18799383488E+02 -0.25782139282E+02  0.52559297023E+02  0.51100000000E-03 0.  1.
         22    1    1    0    0    0  0.17609281210E+02  0.15117027177E+02  0.19535091894E+02  0.30335311285E+02  0.00000000000E+00 0.  1.
</event>
<event>
 5    1  0.1681111E-003  0.9118800E+02  0.7818608E-02  0.1130116E+00
         25   -1    0    0    0    0  0.00000000000E+00  0.00000000000E+00  0.99999998245E-14  0.12500000000E+03  0.12500000000E+03 0.  0.
        -11    1    3    3    0    0 -0.35855687932E+02 -0.99670178279E+00  0.42766940348E+02  0.55817873110E+02  0.51100000000E-03 0. -1.
         23    2    1    0    0    0 -0.23194581752E+02 -0.17581795148E+02  0.10874083342E+02  0.93929856264E+02  0.88642337886E+02 0.  0.
         11    1    3    3    0    0  0.12661106180E+02 -0.16585093365E+02 -0.31892857006E+02  0.38111983154E+02  0.51100000000E-03 0.  1.
         22    1    1    0    0    0  0.23194581752E+02  0.17581795148E+02 -0.10874083342E+02  0.31070143736E+02  0.00000000000E+00 0. -1.
</event>
<event>
 5    1  0.1681111E-003  0.9118800E+02  0.7818608E-02  0.1130116E+00
         25   -1    0    0    0    0  0.00000000000E+00  0.00000000000E+00  0.99999998245E-14  0.12500000000E+03  0.12500000000E+03 0.  0.
        -11    1    3    3    0    0 -0.41208827873E+02  0.29656610482E+02  0.88046476421E+01  0.51528670275E+02  0.51100000000E-03 0. -1.
         23    2    1    0    0    0  0.36263408717E+00  0.17038963014E+02  0.22219761317E+02  0.96996865228E+02  0.92866658748E+02 0.  0.
         11    1    3    3    0    0  0.41571461960E+02 -0.12617647468E+02  0.13415113675E+02  0.45468194953E+02  0.51100000000E-03 0.  1.
         22    1    1    0    0    0 -0.36263408717E+00 -0.17038963014E+02 -0.22219761317E+02  0.28003134772E+02  0.00000000000E+00 0. -1.
</event>
<event>
 5    1  0.1681111E-003  0.9118800E+02  0.7818608E-02  0.1130116E+00
         25   -1    0    0    0    0  0.00000000000E+00  0.00000000000E+00  0.99999998245E-14  0.12500000000E+03  0.12500000000E+03 0.  0.
        -11    1    3    3    0    0 -0.19491972920E+02  0.14607306750E+02 -0.42915735043E+02  0.49346435873E+02  0.51100000000E-03 0.  1.
         23    2    1    0    0    0 -0.25822641511E+02  0.11082276125E+02  0.38206437849E+01  0.96641174607E+02  0.92386652996E+02 0.  0.
         11    1    3    3    0    0 -0.63306685914E+01 -0.35250306250E+01  0.46736378828E+02  0.47294738734E+02  0.51100000000E-03 0. -1.
         22    1    1    0    0    0  0.25822641511E+02 -0.11082276125E+02 -0.38206437849E+01  0.28358825393E+02  0.00000000000E+00 0. -1.
</event>
<event>
 5    1  0.1681111E-003  0.9118800E+02  0.7818608E-02  0.1130116E+00
         25   -1    0    0    0    0  0.00000000000E+00  0.00000000000E+00  0.99999998245E-14  0.12500000000E+03  0.12500000000E+03 0.  0.
        -11    1    3    3    0    0 -0.31383661097E+01 -0.16718701830E+02  0.10520235745E+02  0.20000992303E+02  0.51100000000E-03 0.  1.
         23    2    1    0    0    0 -0.34992861539E+02  0.22212838952E+02 -0.20147234286E+02  0.78915060786E+02  0.64060636872E+02 0.  0.
         11    1    3    3    0    0 -0.31854495430E+02  0.38931540782E+02 -0.30667470031E+02  0.58914068482E+02  0.51100000000E-03 0. -1.
         22    1    1    0    0    0  0.34992861539E+02 -0.22212838952E+02  0.20147234286E+02  0.46084939214E+02  0.00000000000E+00 0. -1.
</event>
<event>
 5    1  0.1681111E-003  0.9118800E+02  0.7818608E-02  0.1130116E+00
         25   -1    0    0    0    0  0.00000000000E+00  0.00000000000E+00  0.99999998245E-14  0.12500000000E+03  0.12500000000E+03 0.  0.
        -11    1    3    3    0    0 -0.17624758914E+02 -0.26071620127E+02  0.23543730850E+02  0.39302274304E+02  0.51100000000E-03 0.  1.
         23    2    1    0    0    0 -0.11708383932E+01  0.25910971579E+02  0.16449197591E+02  0.94286396953E+02  0.89143699936E+02 0.  0.
         11    1    3    3    0    0  0.16453920521E+02  0.51982591707E+02 -0.70945332597E+01  0.54984122649E+02  0.51100000000E-03 0. -1.
         22    1    1    0    0    0  0.11708383932E+01 -0.25910971579E+02 -0.16449197591E+02  0.30713603047E+02  0.00000000000E+00 0. -1.
</event>
<event>
 5    1  0.1681111E-003  0.9118800E+02  0.7818608E-02  0.1130116E+00
         25   -1    0    0    0    0  0.00000000000E+00  0.00000000000E+00  0.99999998245E-14  0.12500000000E+03  0.12500000000E+03 0.  0.
        -11    1    3    3    0    0  0.48861045034E+02 -0.14562866252E+02  0.21854939829E+02  0.55471769311E+02  0.51100000000E-03 0.  1.
         23    2    1    0    0    0  0.32735551312E+02  0.11688423858E+02  0.15558945185E+02  0.86916980855E+02  0.78129669228E+02 0.  0.
         11    1    3    3    0    0 -0.16125493722E+02  0.26251290110E+02 -0.62959946446E+01  0.31445211544E+02  0.51100000000E-03 0. -1.
         22    1    1    0    0    0 -0.32735551312E+02 -0.11688423858E+02 -0.15558945185E+02  0.38083019145E+02  0.00000000000E+00 0.  1.
</event>
<event>
 5    1  0.1681111E-003  0.9118800E+02  0.7818608E-02  0.1130116E+00
         25   -1    0    0    0    0  0.00000000000E+00  0.00000000000E+00  0.99999998245E-14  0.12500000000E+03  0.12500000000E+03 0.  0.
        -11    1    3    3    0    0 -0.41577571980E+02 -0.22152633019E+02  0.21425190500E+02  0.51753960522E+02  0.51100000000E-03 0. -1.
         23    2    1    0    0    0 -0.20803133481E+02 -0.17087896478E+02 -0.15140649489E+02  0.94113015109E+02  0.88900246216E+02 0.  0.
         11    1    3    3    0    0  0.20774438499E+02  0.50647365409E+01 -0.36565839989E+02  0.42359054588E+02  0.51100000000E-03 0.  1.
         22    1    1    0    0    0  0.20803133481E+02  0.17087896478E+02  0.15140649489E+02  0.30886984891E+02  0.00000000000E+00 0. -1.
</event>
<event>
 5    1  0.1681111E-003  0.9118800E+02  0.7818608E-02  0.1130116E+00
         25   -1    0    0    0    0  0.00000000000E+00  0.00000000000E+00  0.99999998245E-14  0.12500000000E+03  0.12500000000E+03 0.  0.
        -11    1    3    3    0    0 -0.19836839147E+02 -0.30147710843E+02  0.65820258598E+01  0.36683889122E+02  0.51100000000E-03 0. -1.
         23    2    1    0    0    0 -0.12888220068E+02  0.26750781487E+02 -0.42015250003E+01  0.95010612894E+02  0.90153498121E+02 0.  0.
         11    1    3    3    0    0  0.69486190788E+01  0.56898492330E+02 -0.10783550860E+02  0.58326723772E+02  0.51100000000E-03 0.  1.
         22    1    1    0    0    0  0.12888220068E+02 -0.26750781487E+02  0.42015250003E+01  0.29989387106E+02  0.00000000000E+00 0.  1.
</event>
<event>
 5    1  0.1681111E-003  0.9118800E+02  0.7818608E-02  0.1130116E+00
         25   -1    0    0    0    0  0.00000000000E+00  0.00000000000E+00  0.99999998245E-14  0.12500000000E+03  0.12500000000E+03 0.  0.
        -11    1    3    3    0    0  0.39218050385E+02  0.18931760551E+02  0.19047732838E+02  0.47531917277E+02  0.51100000000E-03 0.  1.
         23    2    1    0    0    0 -0.86450020009E+01  0.18631601480E+02  0.21249366984E+02  0.95446519147E+02  0.90755880177E+02 0.  0.
         11    1    3    3    0    0 -0.47863052386E+02 -0.30015907147E+00  0.22016341465E+01  0.47914601870E+02  0.51100000000E-03 0. -1.
         22    1    1    0    0    0  0.86450020009E+01 -0.18631601480E+02 -0.21249366984E+02  0.29553480853E+02  0.00000000000E+00 0. -1.
</event>
<event>
 5    1  0.1681111E-003  0.9118800E+02  0.7818608E-02  0.1130116E+00
         25   -1    0    0    0    0  0.00000000000E+00  0.00000000000E+00  0.99999998245E-14  0.12500000000E+03  0.12500000000E+03 0.  0.
        -11    1    3    3    0    0  0.30237358571E+02  0.34235656940E+02 -0.30542505566E+02  0.54947454044E+02  0.51100000000E-03 0.  1.
         23    2    1    0    0    0  0.71488394113E+01  0.27045889762E+02  0.36088403510E+01  0.96793444261E+02  0.92592446049E+02 0.  0.
         11    1    3    3    0    0 -0.23088519160E+02 -0.71897671774E+01  0.34151345917E+02  0.41845990217E+02  0.51100000000E-03 0. -1.
         22    1    1    0    0    0 -0.71488394113E+01 -0.27045889762E+02 -0.36088403510E+01  0.28206555739E+02  0.00000000000E+00 0.  1.
</event>
<event>
 5    1  0.1681111E-003  0.9118800E+02  0.7818608E-02  0.1130116E+00
         25   -1    0    0    0    0  0.00000000000E+00  0.00000000000E+00  0.99999998245E-14  0.12500000000E+03  0.12500000000E+03 0.  0.
        -11    1    3    3    0    0 -0.49974112775E+02 -0.12602281827E+02 -0.27539556031E+01  0.51612147084E+02  0.51100000000E-03 0. -1.
         23    2    1    0    0    0 -0.97416279780E+01 -0.24329850057E+02 -0.14386133604E+02  0.95103482484E+02  0.90282172222E+02 0.  0.
         11    1    3    3    0    0  0.40232484797E+02 -0.11727568230E+02 -0.11632178001E+02  0.43491335400E+02  0.51100000000E-03 0.  1.
         22    1    1    0    0    0  0.97416279780E+01  0.24329850057E+02  0.14386133604E+02  0.29896517516E+02  0.00000000000E+00 0. -1.
</event>
<event>
 5    1  0.1681111E-003  0.9118800E+02  0.7818608E-02  0.1130116E+00
         25   -1    0    0    0    0  0.00000000000E+00  0.00000000000E+00  0.99999998245E-14  0.12500000000E+03  0.12500000000E+03 0.  0.
        -11    1    3    3    0    0  0.50360889790E+02 -0.23068382100E+01 -0.31440002496E+02  0.59413924969E+02  0.51100000000E-03 0.  1.
         23    2    1    0    0    0  0.10828656206E+02 -0.64195462953E+01 -0.21013461098E+02  0.10050436943E+03  0.97473546959E+02 0.  0.
         11    1    3    3    0    0 -0.39532233584E+02 -0.41127080853E+01  0.10426541398E+02  0.41090444458E+02  0.51100000000E-03 0. -1.
         22    1    1    0    0    0 -0.10828656206E+02  0.64195462953E+01  0.21013461098E+02  0.24495630573E+02  0.00000000000E+00 0.  1.
</event>
<event>
 5    1  0.1681111E-003  0.9118800E+02  0.7818608E-02  0.1130116E+00
         25   -1    0    0    0    0  0.00000000000E+00  0.00000000000E+00  0.99999998245E-14  0.12500000000E+03  0.12500000000E+03 0.  0.
        -11    1    3    3    0    0 -0.13713168488E+02 -0.21006932848E+02 -0.51875458317E+02  0.57622958910E+02  0.51100000000E-03 0. -1.
         23    2    1    0    0    0 -0.18557549034E+02  0.27396915407E+01 -0.22409951863E+02  0.95775105161E+02  0.91207325858E+02 0.  0.
         11    1    3    3    0    0 -0.48443805458E+01  0.23746624389E+02  0.29465506454E+02  0.38152146251E+02  0.51100000000E-03 0.  1.
         22    1    1    0    0    0  0.18557549034E+02 -0.27396915407E+01  0.22409951863E+02  0.29224894839E+02  0.00000000000E+00 0. -1.
</event>
<event>
 5    1  0.1681111E-003  0.9118800E+02  0.7818608E-02  0.1130116E+00
         25   -1    0    0    0    0  0.00000000000E+00  0.00000000000E+00  0.99999998245E-14  0.12500000000E+03  0.12500000000E+03 0.  0.
        -11    1    3    3    0    0  0.45226762024E+02 -0.38257022743E+02  0.15913186309E+01  0.59258687866E+02  0.51100000000E-03 0. -1.
         23    2    1    0    0    0  0.10288785423E+02 -0.27081489238E+02  0.22102882163E+01  0.95945713934E+02  0.91440846909E+02 0.  0.
         11    1    3    3    0    0 -0.34937976601E+02  0.11175533505E+02  0.61896958535E+00  0.36687026068E+02  0.51100000000E-03 0.  1.
         22    1    1    0    0    0 -0.10288785423E+02  0.27081489238E+02 -0.22102882163E+01  0.29054286066E+02  0.00000000000E+00 0. -1.
</event>
<event>
 5    1  0.1681111E-003  0.9118800E+02  0.7818608E-02  0.1130116E+00
         25   -1    0    0    0    0  0.00000000000E+00  0.00000000000E+00  0.99999998245E-14  0.12500000000E+03  0.12500000000E+03 0.  0.
        -11    1    3    3    0    0  0.33706005916E+02 -0.41816633029E+01 -0.36199869731E+00  0.33966339016E+02  0.51100000000E-03 0. -1.
         23    2    1    0    0    0 -0.24634432778E+02 -0.16666410339E+01  0.17158384533E+02  0.94932690004E+02  0.90045391337E+02 0.  0.
         11    1    3    3    0    0 -0.58340438694E+02  0.25150222690E+01  0.17520383230E+02  0.60966350988E+02  0.51100000000E-03 0.  1.
         22    1    1    0    0    0  0.24634432778E+02  0.16666410339E+01 -0.17158384533E+02  0.30067309996E+02  0.00000000000E+00 0.  1.
</event>
<event>
 5    1  0.1681111E-003  0.9118800E+02  0.7818608E-02  0.1130116E+00
         25   -1    0    0    0    0  0.00000000000E+00  0.00000000000E+00  0.99999998245E-14  0.12500000000E+03  0.12500000000E+03 0.  0.
        -11    1    3    3    0    0  0.37637787920E+02  0.34568191133E+02  0.15127241734E+02  0.53295369033E+02  0.51100000000E-03 0. -1.
         23    2    1    0    0    0  0.23933831769E+02  0.13994074168E+02 -0.15957179882E+02  0.93011033078E+02  0.87337038360E+02 0.  0.
         11    1    3    3    0    0 -0.13703956151E+02 -0.20574116964E+02 -0.31084421616E+02  0.39715664044E+02  0.51100000000E-03 0.  1.
         22    1    1    0    0    0 -0.23933831769E+02 -0.13994074168E+02  0.15957179882E+02  0.31988966922E+02  0.00000000000E+00 0.  1.
</event>
<event>
 5    1  0.1681111E-003  0.9118800E+02  0.7818608E-02  0.1130116E+00
         25   -1    0    0    0    0  0.00000000000E+00  0.00000000000E+00  0.99999998245E-14  0.12500000000E+03  0.12500000000E+03 0.  0.
        -11    1    3    3    0    0 -0.16162440376E+02  0.19338982181E+02 -0.28558930344E+02  0.38089804586E+02  0.51100000000E-03 0. -1.
         23    2    1    0    0    0  0.25537219494E+02  0.59040511849E+01  0.10481363996E+02  0.96771178007E+02  0.92562381678E+02 0.  0.
         11    1    3    3    0    0  0.41699659870E+02 -0.13434930997E+02  0.39040294340E+02  0.58681373421E+02  0.51100000000E-03 0.  1.
         22    1    1    0    0    0 -0.25537219494E+02 -0.59040511849E+01 -0.10481363996E+02  0.28228821993E+02  0.00000000000E+00 0.  1.
</event>
<event>
 5    1  0.1681111E-003  0.9118800E+02  0.7818608E-02  0.1130116E+00
         25   -1    0    0    0    0  0.00000000000E+00  0.00000000000E+00  0.99999998245E-14  0.12500000000E+03  0.12500000000E+03 0.  0.
        -11    1    3    3    0    0 -0.21435030086E+02 -0.30302969375E+02  0.71691866035E+01  0.37803805424E+02  0.51100000000E-03 0. -1.
         23    2    1    0    0    0 -0.25259984053E+01  0.26136086794E+02  0.86778134595E+01  0.97345341310E+02  0.93334534484E+02 0.  0.
         11    1    3    3    0    0  0.18909031680E+02  0.56439056169E+02  0.15086268560E+01  0.59541535886E+02  0.51100000000E-03 0.  1.
         22    1    1    0    0    0  0.25259984053E+01 -0.26136086794E+02 -0.86778134595E+01  0.27654658690E+02  0.00000000000E+00 0.  1.
</event>
<event>
 5    1  0.1681111E-003  0.9118800E+02  0.7818608E-02  0.1130116E+00
         25   -1    0    0    0    0  0.00000000000E+00  0.00000000000E+00  0.99999998245E-14  0.12500000000E+03  0.12500000000E+03 0.  0.
        -11    1    3    3    0    0  0.11377856920E+01 -0.28329475404E+02 -0.34450789436E+02  0.44617380313E+02  0.51100000000E-03 0.  1.
         23    2    1    0    0    0 -0.25038874637E+02 -0.28682053049E+00  0.48026442191E+01  0.99503080566E+02  0.96180924000E+02 0.  0.
         11    1    3    3    0    0 -0.26176660329E+02  0.28042654874E+02  0.39253433655E+02  0.54885700254E+02  0.51100000000E-03 0. -1.
         22    1    1    0    0    0  0.25038874637E+02  0.28682053049E+00 -0.48026442191E+01  0.25496919434E+02  0.00000000000E+00 0.  1.
</event>
<event>
 5    1  0.1681111E-003  0.9118800E+02  0.7818608E-02  0.1130116E+00
         25   -1    0    0    0    0  0.00000000000E+00  0.00000000000E+00  0.99999998245E-14  0.12500000000E+03  0.12500000000E+03 0.  0.
        -11    1    3    3    0    0  0.16716537731E+02  0.54304766632E+02 -0.19084681171E+02  0.59938930324E+02  0.51100000000E-03 0.  1.
         23    2    1    0    0    0  0.14251223614E+02  0.18881112770E+02 -0.17664484553E+02  0.95476656550E+02  0.90797379575E+02 0.  0.
         11    1    3    3    0    0 -0.24653141174E+01 -0.35423653863E+02  0.14201966173E+01  0.35537726227E+02  0.51100000000E-03 0. -1.
         22    1    1    0    0    0 -0.14251223614E+02 -0.18881112770E+02  0.17664484553E+02  0.29523343450E+02  0.00000000000E+00 0.  1.
</event>
<event>
 5    1  0.1681111E-003  0.9118800E+02  0.7818608E-02  0.1130116E+00
         25   -1    0    0    0    0  0.00000000000E+00  0.00000000000E+00  0.99999998245E-14  0.12500000000E+03  0.12500000000E+03 0.  0.
        -11    1    3    3    0    0 -0.23080752212E+02 -0.26487622153E+02  0.13407022365E+02  0.37604035673E+02  0.51100000000E-03 0. -1.
         23    2    1    0    0    0 -0.15986301298E+01  0.76491623141E+01 -0.28310256637E+02  0.95631037927E+02  0.91009666968E+02 0.  0.
         11    1    3    3    0    0  0.21482122082E+02  0.34136784467E+02 -0.41717279002E+02  0.58027002253E+02  0.51100000000E-03 0.  1.
         22    1    1    0    0    0  0.15986301298E+01 -0.76491623141E+01  0.28310256637E+02  0.29368962073E+02  0.00000000000E+00 0.  1.
</event>
<event>
 5    1  0.1681111E-003  0.9118800E+02  0.7818608E-02  0.1130116E+00
         25   -1    0    0    0    0  0.00000000000E+00  0.00000000000E+00  0.99999998245E-14  0.12500000000E+03  0.12500000000E+03 0.  0.
        -11    1    3    3    0    0 -0.29548381045E+02 -0.39791316364E+01 -0.19497733838E+02  0.35624456993E+02  0.51100000000E-03 0.  1.
         23    2    1    0    0    0  0.10196589553E+02  0.32115243798E+01  0.26253433597E+02  0.96653446364E+02  0.92403255306E+02 0.  0.
         11    1    3    3    0    0  0.39744970598E+02  0.71906560162E+01  0.45751167435E+02  0.61028989372E+02  0.51100000000E-03 0. -1.
         22    1    1    0    0    0 -0.10196589553E+02 -0.32115243798E+01 -0.26253433597E+02  0.28346553636E+02  0.00000000000E+00 0. -1.
</event>
<event>
 5    1  0.1681111E-003  0.9118800E+02  0.7818608E-02  0.1130116E+00
         25   -1    0    0    0    0  0.00000000000E+00  0.00000000000E+00  0.99999998245E-14  0.12500000000E+03  0.12500000000E+03 0.  0.
        -11    1    3    3    0    0 -0.28390876828E+02  0.20784877753E+02  0.18628556294E+02  0.39813014708E+02  0.51100000000E-03 0.  1.
         23    2    1    0    0    0 -0.12763744179E+02 -0.19960624662E+02 -0.16743986190E+02  0.95987920173E+02  0.91498524814E+02 0.  0.
         11    1    3    3    0    0  0.15627132649E+02 -0.40745502415E+02 -0.35372542484E+02  0.56174905465E+02  0.51100000000E-03 0. -1.
         22    1    1    0    0    0  0.12763744179E+02  0.19960624662E+02  0.16743986190E+02  0.29012079827E+02  0.00000000000E+00 0. -1.
</event>
<event>
 5    1  0.1681111E-003  0.9118800E+02  0.7818608E-02  0.1130116E+00
         25   -1    0    0    0    0  0.00000000000E+00  0.00000000000E+00  0.99999998245E-14  0.12500000000E+03  0.12500000000E+03 0.  0.
        -11    1    3    3    0    0 -0.13443792446E+02  0.29413915522E+02 -0.11707694882E+02  0.34394535923E+02  0.51100000000E-03 0.  1.
         23    2    1    0    0    0  0.13457203595E+02 -0.15044172442E+02  0.21061859209E+02  0.95827660937E+02  0.91279325339E+02 0.  0.
         11    1    3    3    0    0  0.26900996041E+02 -0.44458087964E+02  0.32769554091E+02  0.61433125014E+02  0.51100000000E-03 0. -1.
         22    1    1    0    0    0 -0.13457203595E+02  0.15044172442E+02 -0.21061859209E+02  0.29172339063E+02  0.00000000000E+00 0. -1.
</event>
<event>
 5    1  0.1681111E-003  0.9118800E+02  0.7818608E-02  0.1130116E+00
         25   -1    0    0    0    0  0.00000000000E+00  0.00000000000E+00  0.99999998245E-14  0.12500000000E+03  0.12500000000E+03 0.  0.
        -11    1    3    3    0    0 -0.54722667270E+01 -0.25811094076E+02 -0.17766397451E+02  0.31808853472E+02  0.51100000000E-03 0.  1.
         23    2    1    0    0    0 -0.34687224588E+02  0.67745742441E-01  0.19018934828E+02  0.85440828862E+02  0.75731150893E+02 0.  0.
         11    1    3    3    0    0 -0.29214957861E+02  0.25878839819E+02  0.36785332279E+02  0.53631975391E+02  0.51100000000E-03 0. -1.
         22    1    1    0    0    0  0.34687224588E+02 -0.67745742441E-01 -0.19018934828E+02  0.39559171138E+02  0.00000000000E+00 0. -1.
</event>
<event>
 5    1  0.1681111E-003  0.9118800E+02  0.7818608E-02  0.1130116E+00
         25   -1    0    0    0    0  0.00000000000E+00  0.00000000000E+00  0.99999998245E-14  0.12500000000E+03  0.12500000000E+03 0.  0.
        -11    1    3    3    0    0  0.13607150118E+02  0.57061290883E+01  0.34266748692E+02  0.37308504522E+02  0.51100000000E-03 0.  1.
         23    2    1    0    0    0 -0.22958506783E+02 -0.24172142497E+02  0.11462233142E+02  0.89747081040E+02  0.82533449341E+02 0.  0.
         11    1    3    3    0    0 -0.36565656901E+02 -0.29878271585E+02 -0.22804515550E+02  0.52438576518E+02  0.51100000000E-03 0. -1.
         22    1    1    0    0    0  0.22958506783E+02  0.24172142497E+02 -0.11462233142E+02  0.35252918960E+02  0.00000000000E+00 0. -1.
</event>
<event>
 5    1  0.1681111E-003  0.9118800E+02  0.7818608E-02  0.1130116E+00
         25   -1    0    0    0    0  0.00000000000E+00  0.00000000000E+00  0.99999998245E-14  0.12500000000E+03  0.12500000000E+03 0.  0.
        -11    1    3    3    0    0  0.33195539763E+02  0.35727416841E+00 -0.59774697779E+01  0.33731315572E+02  0.51100000000E-03 0.  1.
         23    2    1    0    0    0 -0.25103877107E+02  0.80741717088E+01  0.13098368005E+02  0.95555745229E+02  0.90906195099E+02 0.  0.
         11    1    3    3    0    0 -0.58299416870E+02  0.77168975404E+01  0.19075837783E+02  0.61824429657E+02  0.51100000000E-03 0. -1.
         22    1    1    0    0    0  0.25103877107E+02 -0.80741717088E+01 -0.13098368005E+02  0.29444254771E+02  0.00000000000E+00 0. -1.
</event>
<event>
 5    1  0.1681111E-003  0.9118800E+02  0.7818608E-02  0.1130116E+00
         25   -1    0    0    0    0  0.00000000000E+00  0.00000000000E+00  0.99999998245E-14  0.12500000000E+03  0.12500000000E+03 0.  0.
        -11    1    3    3    0    0 -0.12203737517E+02 -0.87043933604E+01 -0.54701983393E+02  0.56718644735E+02  0.51100000000E-03 0. -1.
         23    2    1    0    0    0 -0.22945193785E+02 -0.81644455435E+00 -0.17814465062E+02  0.95939654768E+02  0.91432563631E+02 0.  0.
         11    1    3    3    0    0 -0.10741456268E+02  0.78879488060E+01  0.36887518331E+02  0.39221010033E+02  0.51100000000E-03 0.  1.
         22    1    1    0    0    0  0.22945193785E+02  0.81644455435E+00  0.17814465062E+02  0.29060345232E+02  0.00000000000E+00 0. -1.
</event>
<event>
 5    1  0.1681111E-003  0.9118800E+02  0.7818608E-02  0.1130116E+00
         25   -1    0    0    0    0  0.00000000000E+00  0.00000000000E+00  0.99999998245E-14  0.12500000000E+03  0.12500000000E+03 0.  0.
        -11    1    3    3    0    0 -0.25226086715E+02 -0.17339727767E+01 -0.40813619793E+02  0.48011599363E+02  0.51100000000E-03 0.  1.
         23    2    1    0    0    0  0.17978144478E+01  0.25389555270E+02 -0.83428506090E+01  0.98214466407E+02  0.94491357286E+02 0.  0.
         11    1    3    3    0    0  0.27023901163E+02  0.27123528046E+02  0.32470769184E+02  0.50202867044E+02  0.51100000000E-03 0. -1.
         22    1    1    0    0    0 -0.17978144478E+01 -0.25389555270E+02  0.83428506090E+01  0.26785533593E+02  0.00000000000E+00 0. -1.
</event>
<event>
 5    1  0.1681111E-003  0.9118800E+02  0.7818608E-02  0.1130116E+00
         25   -1    0    0    0    0  0.00000000000E+00  0.00000000000E+00  0.99999998245E-14  0.12500000000E+03  0.12500000000E+03 0.  0.
        -11    1    3    3    0    0  0.28586639256E+02  0.39185405679E+01  0.23822333415E+02  0.37417301797E+02  0.51100000000E-03 0.  1.
         23    2    1    0    0    0 -0.26262773726E+02  0.11905668665E+02  0.73100955272E+01  0.95252466879E+02  0.90488213154E+02 0.  0.
         11    1    3    3    0    0 -0.54849412982E+02  0.79871280969E+01 -0.16512237888E+02  0.57835165082E+02  0.51100000000E-03 0. -1.
         22    1    1    0    0    0  0.26262773726E+02 -0.11905668665E+02 -0.73100955272E+01  0.29747533121E+02  0.00000000000E+00 0. -1.
</event>
<event>
 5    1  0.1681111E-003  0.9118800E+02  0.7818608E-02  0.1130116E+00
         25   -1    0    0    0    0  0.00000000000E+00  0.00000000000E+00  0.99999998245E-14  0.12500000000E+03  0.12500000000E+03 0.  0.
        -11    1    3    3    0    0 -0.44802286301E+02 -0.12756450568E+02  0.39172430404E+02  0.60864202886E+02  0.51100000000E-03 0.  1.
         23    2    1    0    0    0 -0.27571583458E+02 -0.61251028599E+01  0.10702785288E+02  0.94796379151E+02  0.89855966902E+02 0.  0.
         11    1    3    3    0    0  0.17230702843E+02  0.66313477085E+01 -0.28469645115E+02  0.33932176266E+02  0.51100000000E-03 0. -1.
         22    1    1    0    0    0  0.27571583458E+02  0.61251028599E+01 -0.10702785288E+02  0.30203620849E+02  0.00000000000E+00 0.  1.
</event>
<event>
 5    1  0.1681111E-003  0.9118800E+02  0.7818608E-02  0.1130116E+00
         25   -1    0    0    0    0  0.00000000000E+00  0.00000000000E+00  0.99999998245E-14  0.12500000000E+03  0.12500000000E+03 0.  0.
        -11    1    3    3    0    0 -0.35404122744E+02  0.44579641666E+02  0.22124540525E+02  0.61076113597E+02  0.51100000000E-03 0. -1.
         23    2    1    0    0    0 -0.10839710562E+02  0.26645019196E+02  0.55845634441E+01  0.95697376877E+02  0.91100736656E+02 0.  0.
         11    1    3    3    0    0  0.24564412183E+02 -0.17934622469E+02 -0.16539977081E+02  0.34621263280E+02  0.51100000000E-03 0.  1.
         22    1    1    0    0    0  0.10839710562E+02 -0.26645019196E+02 -0.55845634441E+01  0.29302623123E+02  0.00000000000E+00 0. -1.
</event>
<event>
 5    1  0.1681111E-003  0.9118800E+02  0.7818608E-02  0.1130116E+00
         25   -1    0    0    0    0  0.00000000000E+00  0.00000000000E+00  0.99999998245E-14  0.12500000000E+03  0.12500000000E+03 0.  0.
        -11    1    3    3    0    0 -0.40597004664E+01 -0.29740901474E+02 -0.29744839447E+02  0.42258228339E+02  0.51100000000E-03 0. -1.
         23    2    1    0    0    0 -0.27588029105E+02 -0.82164542161E+01  0.11162160391E+02  0.94126009419E+02  0.88918515253E+02 0.  0.
         11    1    3    3    0    0 -0.23528328639E+02  0.21524447258E+02  0.40906999837E+02  0.51867781081E+02  0.51100000000E-03 0.  1.
         22    1    1    0    0    0  0.27588029105E+02  0.82164542161E+01 -0.11162160391E+02  0.30873990581E+02  0.00000000000E+00 0.  1.
</event>
<event>
 5    1  0.1681111E-003  0.9118800E+02  0.7818608E-02  0.1130116E+00
         25   -1    0    0    0    0  0.00000000000E+00  0.00000000000E+00  0.99999998245E-14  0.12500000000E+03  0.12500000000E+03 0.  0.
        -11    1    3    3    0    0  0.13734118262E+02  0.39468655255E+02 -0.20632756140E+02  0.46605915700E+02  0.51100000000E-03 0.  1.
         23    2    1    0    0    0 -0.23641855817E+02  0.13942120696E+02  0.25068806429E+01  0.97439076095E+02  0.93459986217E+02 0.  0.
         11    1    3    3    0    0 -0.37375974079E+02 -0.25526534559E+02  0.23139636783E+02  0.50833160394E+02  0.51100000000E-03 0. -1.
         22    1    1    0    0    0  0.23641855817E+02 -0.13942120696E+02 -0.25068806429E+01  0.27560923905E+02  0.00000000000E+00 0.  1.
</event>
<event>
 5    1  0.1681111E-003  0.9118800E+02  0.7818608E-02  0.1130116E+00
         25   -1    0    0    0    0  0.00000000000E+00  0.00000000000E+00  0.99999998245E-14  0.12500000000E+03  0.12500000000E+03 0.  0.
        -11    1    3    3    0    0  0.40403829002E+02 -0.22174241112E+02 -0.12149334433E+02  0.47663116708E+02  0.51100000000E-03 0.  1.
         23    2    1    0    0    0  0.83891288802E+01 -0.21494861574E+02  0.21034101699E+02  0.93777572296E+02  0.88427332166E+02 0.  0.
         11    1    3    3    0    0 -0.32014700122E+02  0.67937953762E+00  0.33183436131E+02  0.46114455588E+02  0.51100000000E-03 0. -1.
         22    1    1    0    0    0 -0.83891288802E+01  0.21494861574E+02 -0.21034101699E+02  0.31222427704E+02  0.00000000000E+00 0.  1.
</event>
<event>
 5    1  0.1681111E-003  0.9118800E+02  0.7818608E-02  0.1130116E+00
         25   -1    0    0    0    0  0.00000000000E+00  0.00000000000E+00  0.99999998245E-14  0.12500000000E+03  0.12500000000E+03 0.  0.
        -11    1    3    3    0    0 -0.42861165822E+02  0.38268833209E+02 -0.14405447541E+02  0.59237657363E+02  0.51100000000E-03 0.  1.
         23    2    1    0    0    0 -0.25185823953E+02  0.46459891374E+01 -0.10112018654E+02  0.97465224451E+02  0.93494952338E+02 0.  0.
         11    1    3    3    0    0  0.17675341868E+02 -0.33622844071E+02  0.42934288867E+01  0.38227567088E+02  0.51100000000E-03 0. -1.
         22    1    1    0    0    0  0.25185823953E+02 -0.46459891374E+01  0.10112018654E+02  0.27534775549E+02  0.00000000000E+00 0.  1.
</event>
<event>
 5    1  0.1681111E-003  0.9118800E+02  0.7818608E-02  0.1130116E+00
         25   -1    0    0    0    0  0.00000000000E+00  0.00000000000E+00  0.99999998245E-14  0.12500000000E+03  0.12500000000E+03 0.  0.
        -11    1    3    3    0    0 -0.28517683706E+02  0.67636168315E+01  0.44727164963E+02  0.53474518067E+02  0.51100000000E-03 0.  1.
         23    2    1    0    0    0 -0.67561586529E+01  0.25298998137E+02  0.14539958272E+02  0.95048449572E+02  0.90205944333E+02 0.  0.
         11    1    3    3    0    0  0.21761525053E+02  0.18535381306E+02 -0.30187206690E+02  0.41573931505E+02  0.51100000000E-03 0. -1.
         22    1    1    0    0    0  0.67561586529E+01 -0.25298998137E+02 -0.14539958272E+02  0.29951550428E+02  0.00000000000E+00 0.  1.
</event>
<event>
 5    1  0.1681111E-003  0.9118800E+02  0.7818608E-02  0.1130116E+00
         25   -1    0    0    0    0  0.00000000000E+00  0.00000000000E+00  0.99999998245E-14  0.12500000000E+03  0.12500000000E+03 0.  0.
        -11    1    3    3    0    0 -0.50613348546E+01 -0.19751076259E+02 -0.48077323044E+02  0.52222132427E+02  0.51100000000E-03 0. -1.
         23    2    1    0    0    0  0.13181753991E+02  0.11203282267E+02 -0.23766348980E+02  0.95604226228E+02  0.90972834170E+02 0.  0.
         11    1    3    3    0    0  0.18243088846E+02  0.30954358526E+02  0.24310974064E+02  0.43382093801E+02  0.51100000000E-03 0.  1.
         22    1    1    0    0    0 -0.13181753991E+02 -0.11203282267E+02  0.23766348980E+02  0.29395773772E+02  0.00000000000E+00 0. -1.
</event>
<event>
 5    1  0.1681111E-003  0.9118800E+02  0.7818608E-02  0.1130116E+00
         25   -1    0    0    0    0  0.00000000000E+00  0.00000000000E+00  0.99999998245E-14  0.12500000000E+03  0.12500000000E+03 0.  0.
        -11    1    3    3    0    0  0.22038285976E+02 -0.42201728941E+02 -0.30237095602E+01  0.47705500669E+02  0.51100000000E-03 0.  1.
         23    2    1    0    0    0  0.30269943886E+02  0.36244917951E+01 -0.38443394060E+01  0.94272400206E+02  0.89124071111E+02 0.  0.
         11    1    3    3    0    0  0.82316579105E+01  0.45826220736E+02 -0.82062984581E+00  0.46566899537E+02  0.51100000000E-03 0. -1.
         22    1    1    0    0    0 -0.30269943886E+02 -0.36244917951E+01  0.38443394060E+01  0.30727599794E+02  0.00000000000E+00 0. -1.
</event>
<event>
 5    1  0.1681111E-003  0.9118800E+02  0.7818608E-02  0.1130116E+00
         25   -1    0    0    0    0  0.00000000000E+00  0.00000000000E+00  0.99999998245E-14  0.12500000000E+03  0.12500000000E+03 0.  0.
        -11    1    3    3    0    0 -0.18290197862E+02  0.21932884734E+01 -0.58573503898E+01  0.19330038955E+02  0.51100000000E-03 0.  1.
         23    2    1    0    0    0  0.16131578795E+02 -0.81701194758E+00  0.42940211328E+02  0.79122368284E+02  0.64463881912E+02 0.  0.
         11    1    3    3    0    0  0.34421776657E+02 -0.30103004210E+01  0.48797561718E+02  0.59792329330E+02  0.51100000000E-03 0. -1.
         22    1    1    0    0    0 -0.16131578795E+02  0.81701194758E+00 -0.42940211328E+02  0.45877631716E+02  0.00000000000E+00 0. -1.
</event>
<event>
 5    1  0.1681111E-003  0.9118800E+02  0.7818608E-02  0.1130116E+00
         25   -1    0    0    0    0  0.00000000000E+00  0.00000000000E+00  0.99999998245E-14  0.12500000000E+03  0.12500000000E+03 0.  0.
        -11    1    3    3    0    0 -0.33232394546E+02  0.29503744208E+02 -0.38696588973E+02  0.58926131452E+02  0.51100000000E-03 0.  1.
         23    2    1    0    0    0 -0.38494428385E+01  0.10697437379E+02 -0.26972272233E+02  0.95729590948E+02  0.91144927105E+02 0.  0.
         11    1    3    3    0    0  0.29382951707E+02 -0.18806306829E+02  0.11724316739E+02  0.36803459496E+02  0.51100000000E-03 0. -1.
         22    1    1    0    0    0  0.38494428385E+01 -0.10697437379E+02  0.26972272233E+02  0.29270409052E+02  0.00000000000E+00 0.  1.
</event>
<event>
 5    1  0.1681111E-003  0.9118800E+02  0.7818608E-02  0.1130116E+00
         25   -1    0    0    0    0  0.00000000000E+00  0.00000000000E+00  0.99999998245E-14  0.12500000000E+03  0.12500000000E+03 0.  0.
        -11    1    3    3    0    0 -0.84274778178E+01  0.32664444798E+02 -0.41812703310E+02  0.53724207716E+02  0.51100000000E-03 0.  1.
         23    2    1    0    0    0 -0.22269685585E+02  0.38669325777E+00 -0.19985249019E+02  0.95075117276E+02  0.90242890684E+02 0.  0.
         11    1    3    3    0    0 -0.13842207767E+02 -0.32277751540E+02  0.21827454291E+02  0.41350909560E+02  0.51100000000E-03 0. -1.
         22    1    1    0    0    0  0.22269685585E+02 -0.38669325777E+00  0.19985249019E+02  0.29924882724E+02  0.00000000000E+00 0.  1.
</event>
<event>
 5    1  0.1681111E-003  0.9118800E+02  0.7818608E-02  0.1130116E+00
         25   -1    0    0    0    0  0.00000000000E+00  0.00000000000E+00  0.99999998245E-14  0.12500000000E+03  0.12500000000E+03 0.  0.
        -11    1    3    3    0    0  0.54711297289E+02  0.13548075272E+02  0.13791583360E+02  0.58026581550E+02  0.51100000000E-03 0. -1.
         23    2    1    0    0    0  0.17282259702E+02  0.77306543530E+01 -0.10815417869E+02  0.10319603750E+03  0.10086629454E+03 0.  0.
         11    1    3    3    0    0 -0.37429037587E+02 -0.58174209193E+01 -0.24607001229E+02  0.45169455947E+02  0.51100000000E-03 0.  1.
         22    1    1    0    0    0 -0.17282259702E+02 -0.77306543530E+01  0.10815417869E+02  0.21803962502E+02  0.00000000000E+00 0. -1.
</event>
<event>
 5    1  0.1681111E-003  0.9118800E+02  0.7818608E-02  0.1130116E+00
         25   -1    0    0    0    0  0.00000000000E+00  0.00000000000E+00  0.99999998245E-14  0.12500000000E+03  0.12500000000E+03 0.  0.
        -11    1    3    3    0    0  0.16332821600E+02  0.56138700818E+02  0.13274202389E+02  0.59954309606E+02  0.51100000000E-03 0.  1.
         23    2    1    0    0    0  0.11348655469E+02  0.16955776571E+02 -0.57590702332E+01  0.10379959364E+03  0.10161150727E+03 0.  0.
         11    1    3    3    0    0 -0.49841661311E+01 -0.39182924248E+02 -0.19033272622E+02  0.43845284029E+02  0.51100000000E-03 0. -1.
         22    1    1    0    0    0 -0.11348655469E+02 -0.16955776571E+02  0.57590702332E+01  0.21200406365E+02  0.00000000000E+00 0.  1.
</event>
<event>
 5    1  0.1681111E-003  0.9118800E+02  0.7818608E-02  0.1130116E+00
         25   -1    0    0    0    0  0.00000000000E+00  0.00000000000E+00  0.99999998245E-14  0.12500000000E+03  0.12500000000E+03 0.  0.
        -11    1    3    3    0    0  0.14169156584E+02 -0.25521294400E+02  0.24181716131E+02  0.37905894811E+02  0.51100000000E-03 0. -1.
         23    2    1    0    0    0  0.17508096935E+02  0.23086787068E+02 -0.62601342723E+01  0.95356746527E+02  0.90632150099E+02 0.  0.
         11    1    3    3    0    0  0.33389403511E+01  0.48608081467E+02 -0.30441850404E+02  0.57450851715E+02  0.51100000000E-03 0.  1.
         22    1    1    0    0    0 -0.17508096935E+02 -0.23086787068E+02  0.62601342723E+01  0.29643253473E+02  0.00000000000E+00 0.  1.
</event>
<event>
 5    1  0.1681111E-003  0.9118800E+02  0.7818608E-02  0.1130116E+00
         25   -1    0    0    0    0  0.00000000000E+00  0.00000000000E+00  0.99999998245E-14  0.12500000000E+03  0.12500000000E+03 0.  0.
        -11    1    3    3    0    0  0.45227206445E+01  0.34064169955E+02  0.45275146593E+01  0.34660078851E+02  0.51100000000E-03 0. -1.
         23    2    1    0    0    0 -0.11921081253E+02 -0.24743837618E+02 -0.66553735171E+01  0.96739361738E+02  0.92519405719E+02 0.  0.
         11    1    3    3    0    0 -0.16443801897E+02 -0.58808007573E+02 -0.11182888176E+02  0.62079282887E+02  0.51100000000E-03 0.  1.
         22    1    1    0    0    0  0.11921081253E+02  0.24743837618E+02  0.66553735171E+01  0.28260638262E+02  0.00000000000E+00 0.  1.
</event>
<event>
 5    1  0.1681111E-003  0.9118800E+02  0.7818608E-02  0.1130116E+00
         25   -1    0    0    0    0  0.00000000000E+00  0.00000000000E+00  0.99999998245E-14  0.12500000000E+03  0.12500000000E+03 0.  0.
        -11    1    3    3    0    0 -0.53329198945E+02 -0.19348476756E+02 -0.11666900828E+01  0.56742648678E+02  0.51100000000E-03 0.  1.
         23    2    1    0    0    0 -0.16267526512E+02 -0.21793270803E+02 -0.11767480836E+02  0.95368046363E+02  0.90647733511E+02 0.  0.
         11    1    3    3    0    0  0.37061672433E+02 -0.24447940470E+01 -0.10600790754E+02  0.38625397685E+02  0.51100000000E-03 0. -1.
         22    1    1    0    0    0  0.16267526512E+02  0.21793270803E+02  0.11767480836E+02  0.29631953637E+02  0.00000000000E+00 0.  1.
</event>
<event>
 5    1  0.1681111E-003  0.9118800E+02  0.7818608E-02  0.1130116E+00
         25   -1    0    0    0    0  0.00000000000E+00  0.00000000000E+00  0.99999998245E-14  0.12500000000E+03  0.12500000000E+03 0.  0.
        -11    1    3    3    0    0  0.23415465158E+02 -0.34349495096E+02  0.71356605614E+01  0.42179254069E+02  0.51100000000E-03 0. -1.
         23    2    1    0    0    0 -0.24771371517E+02 -0.18667895246E+02 -0.29315109110E+01  0.93843862306E+02  0.88520989469E+02 0.  0.
         11    1    3    3    0    0 -0.48186836675E+02  0.15681599849E+02 -0.10067171472E+02  0.51664608237E+02  0.51100000000E-03 0.  1.
         22    1    1    0    0    0  0.24771371517E+02  0.18667895246E+02  0.29315109110E+01  0.31156137694E+02  0.00000000000E+00 0.  1.
</event>
<event>
 5    1  0.1681111E-003  0.9118800E+02  0.7818608E-02  0.1130116E+00
         25   -1    0    0    0    0  0.00000000000E+00  0.00000000000E+00  0.99999998245E-14  0.12500000000E+03  0.12500000000E+03 0.  0.
        -11    1    3    3    0    0 -0.15721687511E+02 -0.34805468043E+02 -0.26095024987E+02  0.46255187744E+02  0.51100000000E-03 0.  1.
         23    2    1    0    0    0 -0.11943542464E+01  0.11327989817E+02 -0.28116118663E+02  0.94664114254E+02  0.89671782426E+02 0.  0.
         11    1    3    3    0    0  0.14527333265E+02  0.46133457860E+02 -0.20210936751E+01  0.48408926510E+02  0.51100000000E-03 0. -1.
         22    1    1    0    0    0  0.11943542464E+01 -0.11327989817E+02  0.28116118663E+02  0.30335885746E+02  0.00000000000E+00 0. -1.
</event>
<event>
 5    1  0.1681111E-003  0.9118800E+02  0.7818608E-02  0.1130116E+00
         25   -1    0    0    0    0  0.00000000000E+00  0.00000000000E+00  0.99999998245E-14  0.12500000000E+03  0.12500000000E+03 0.  0.
        -11    1    3    3    0    0 -0.26167207744E+02 -0.30583787710E+02  0.41874388630E+02  0.58082314479E+02  0.51100000000E-03 0.  1.
         23    2    1    0    0    0  0.35202560965E+01 -0.20376345037E+02  0.18917989706E+02  0.96973620024E+02  0.92835365060E+02 0.  0.
         11    1    3    3    0    0  0.29687463840E+02  0.10207442673E+02 -0.22956398924E+02  0.38891305545E+02  0.51100000000E-03 0. -1.
         22    1    1    0    0    0 -0.35202560965E+01  0.20376345037E+02 -0.18917989706E+02  0.28026379976E+02  0.00000000000E+00 0.  1.
</event>
<event>
 5    1  0.1681111E-003  0.9118800E+02  0.7818608E-02  0.1130116E+00
         25   -1    0    0    0    0  0.00000000000E+00  0.00000000000E+00  0.99999998245E-14  0.12500000000E+03  0.12500000000E+03 0.  0.
        -11    1    3    3    0    0  0.25104133102E+02 -0.14912783612E+02 -0.51000543998E+02  0.58767883255E+02  0.51100000000E-03 0.  1.
         23    2    1    0    0    0 -0.68299899289E+00  0.15843784633E+00 -0.29310854729E+02  0.95680760666E+02  0.91077934576E+02 0.  0.
         11    1    3    3    0    0 -0.25787132095E+02  0.15071221459E+02  0.21689689269E+02  0.36912877412E+02  0.51100000000E-03 0. -1.
         22    1    1    0    0    0  0.68299899289E+00 -0.15843784633E+00  0.29310854729E+02  0.29319239334E+02  0.00000000000E+00 0.  1.
</event>
<event>
 5    1  0.1681111E-003  0.9118800E+02  0.7818608E-02  0.1130116E+00
         25   -1    0    0    0    0  0.00000000000E+00  0.00000000000E+00  0.99999998245E-14  0.12500000000E+03  0.12500000000E+03 0.  0.
        -11    1    3    3    0    0  0.10535515709E+02  0.55595653274E+02  0.17667536880E+02  0.59279133039E+02  0.51100000000E-03 0.  1.
         23    2    1    0    0    0 -0.22607201284E+01  0.22367417595E+02  0.19927883811E+02  0.94957816681E+02  0.90080265154E+02 0.  0.
         11    1    3    3    0    0 -0.12796235838E+02 -0.33228235679E+02  0.22603469316E+01  0.35678683642E+02  0.51100000000E-03 0. -1.
         22    1    1    0    0    0  0.22607201284E+01 -0.22367417595E+02 -0.19927883811E+02  0.30042183319E+02  0.00000000000E+00 0.  1.
</event>
<event>
 5    1  0.1681111E-003  0.9118800E+02  0.7818608E-02  0.1130116E+00
         25   -1    0    0    0    0  0.00000000000E+00  0.00000000000E+00  0.99999998245E-14  0.12500000000E+03  0.12500000000E+03 0.  0.
        -11    1    3    3    0    0  0.94418443443E+01  0.28999139501E+02  0.26477378457E+02  0.40387499139E+02  0.51100000000E-03 0.  1.
         23    2    1    0    0    0 -0.25228599678E+01 -0.24840305872E+02  0.52399757063E+01  0.99487983936E+02  0.96161301905E+02 0.  0.
         11    1    3    3    0    0 -0.11964704312E+02 -0.53839445374E+02 -0.21237402751E+02  0.59100484797E+02  0.51100000000E-03 0. -1.
         22    1    1    0    0    0  0.25228599678E+01  0.24840305872E+02 -0.52399757063E+01  0.25512016064E+02  0.00000000000E+00 0. -1.
</event>
<event>
 5    1  0.1681111E-003  0.9118800E+02  0.7818608E-02  0.1130116E+00
         25   -1    0    0    0    0  0.00000000000E+00  0.00000000000E+00  0.99999998245E-14  0.12500000000E+03  0.12500000000E+03 0.  0.
        -11    1    3    3    0    0  0.36848017227E+02 -0.17986278412E+02  0.34563220146E+02  0.53627406909E+02  0.51100000000E-03 0.  1.
         23    2    1    0    0    0  0.20497676871E+02  0.15058583787E+02  0.11757810307E+02  0.96979261144E+02  0.92842960348E+02 0.  0.
         11    1    3    3    0    0 -0.16350340355E+02  0.33044862199E+02 -0.22805409839E+02  0.43351854235E+02  0.51100000000E-03 0. -1.
         22    1    1    0    0    0 -0.20497676871E+02 -0.15058583787E+02 -0.11757810307E+02  0.28020738856E+02  0.00000000000E+00 0.  1.
</event>
<event>
 5    1  0.1681111E-003  0.9118800E+02  0.7818608E-02  0.1130116E+00
         25   -1    0    0    0    0  0.00000000000E+00  0.00000000000E+00  0.99999998245E-14  0.12500000000E+03  0.12500000000E+03 0.  0.
        -11    1    3    3    0    0 -0.26117327110E+02 -0.41088259601E+02  0.30351822859E+02  0.57372406290E+02  0.51100000000E-03 0.  1.
         23    2    1    0    0    0 -0.24998974958E+02 -0.65349569006E+01  0.13917133847E+02  0.95651388020E+02  0.91037613133E+02 0.  0.
         11    1    3    3    0    0  0.11183521516E+01  0.34553302700E+02 -0.16434689012E+02  0.38278981729E+02  0.51100000000E-03 0. -1.
         22    1    1    0    0    0  0.24998974958E+02  0.65349569006E+01 -0.13917133847E+02  0.29348611980E+02  0.00000000000E+00 0.  1.
</event>
<event>
 5    1  0.1681111E-003  0.9118800E+02  0.7818608E-02  0.1130116E+00
         25   -1    0    0    0    0  0.00000000000E+00  0.00000000000E+00  0.99999998245E-14  0.12500000000E+03  0.12500000000E+03 0.  0.
        -11    1    3    3    0    0  0.33246835941E+02 -0.18973741265E+02 -0.64561961979E+01  0.38820579945E+02  0.51100000000E-03 0. -1.
         23    2    1    0    0    0 -0.22809540306E+02 -0.15416328817E+02 -0.11390441818E+02  0.95206032691E+02  0.90424046430E+02 0.  0.
         11    1    3    3    0    0 -0.56056376247E+02  0.35574124484E+01 -0.49342456206E+01  0.56385452746E+02  0.51100000000E-03 0.  1.
         22    1    1    0    0    0  0.22809540306E+02  0.15416328817E+02  0.11390441818E+02  0.29793967309E+02  0.00000000000E+00 0.  1.
</event>
<event>
 5    1  0.1681111E-003  0.9118800E+02  0.7818608E-02  0.1130116E+00
         25   -1    0    0    0    0  0.00000000000E+00  0.00000000000E+00  0.99999998245E-14  0.12500000000E+03  0.12500000000E+03 0.  0.
        -11    1    3    3    0    0  0.64965645704E+01 -0.37698958297E+02 -0.53086294607E+01  0.38621216383E+02  0.51100000000E-03 0.  1.
         23    2    1    0    0    0 -0.23710184628E+02  0.13090983304E+02 -0.28555515598E+01  0.97765814247E+02  0.93895972020E+02 0.  0.
         11    1    3    3    0    0 -0.30206749198E+02  0.50789941601E+02  0.24530779009E+01  0.59144597863E+02  0.51100000000E-03 0. -1.
         22    1    1    0    0    0  0.23710184628E+02 -0.13090983304E+02  0.28555515598E+01  0.27234185753E+02  0.00000000000E+00 0. -1.
</event>
<event>
 5    1  0.1681111E-003  0.9118800E+02  0.7818608E-02  0.1130116E+00
         25   -1    0    0    0    0  0.00000000000E+00  0.00000000000E+00  0.99999998245E-14  0.12500000000E+03  0.12500000000E+03 0.  0.
        -11    1    3    3    0    0 -0.22637523222E+02  0.33536262673E+02 -0.41228313864E+01  0.40671072160E+02  0.51100000000E-03 0. -1.
         23    2    1    0    0    0 -0.64029676070E+01 -0.14864218941E+02 -0.24498816951E+02  0.95637863993E+02  0.91019041954E+02 0.  0.
         11    1    3    3    0    0  0.16234555615E+02 -0.48400481614E+02 -0.20375985564E+02  0.54966791833E+02  0.51100000000E-03 0.  1.
         22    1    1    0    0    0  0.64029676070E+01  0.14864218941E+02  0.24498816951E+02  0.29362136007E+02  0.00000000000E+00 0.  1.
</event>
<event>
 5    1  0.1681111E-003  0.9118800E+02  0.7818608E-02  0.1130116E+00
         25   -1    0    0    0    0  0.00000000000E+00  0.00000000000E+00  0.99999998245E-14  0.12500000000E+03  0.12500000000E+03 0.  0.
        -11    1    3    3    0    0  0.43884470572E+02 -0.41861647954E+01  0.54725608981E+01  0.44422062718E+02  0.51100000000E-03 0. -1.
         23    2    1    0    0    0  0.50799857680E+01  0.24185654163E+02 -0.14353933242E+02  0.96420505214E+02  0.92087601248E+02 0.  0.
         11    1    3    3    0    0 -0.38804484804E+02  0.28371818958E+02 -0.19826494140E+02  0.51998442496E+02  0.51100000000E-03 0.  1.
         22    1    1    0    0    0 -0.50799857680E+01 -0.24185654163E+02  0.14353933242E+02  0.28579494786E+02  0.00000000000E+00 0.  1.
</event>
<event>
 5    1  0.1681111E-003  0.9118800E+02  0.7818608E-02  0.1130116E+00
         25   -1    0    0    0    0  0.00000000000E+00  0.00000000000E+00  0.99999998245E-14  0.12500000000E+03  0.12500000000E+03 0.  0.
        -11    1    3    3    0    0 -0.31117723423E+02 -0.13987939249E+02 -0.41760524161E+01  0.34371711763E+02  0.51100000000E-03 0.  1.
         23    2    1    0    0    0  0.23677973970E+02  0.13546917050E+02 -0.99382359912E+01  0.95966675225E+02  0.91469496589E+02 0.  0.
         11    1    3    3    0    0  0.54795697393E+02  0.27534856299E+02 -0.57621835752E+01  0.61594963462E+02  0.51100000000E-03 0. -1.
         22    1    1    0    0    0 -0.23677973970E+02 -0.13546917050E+02  0.99382359912E+01  0.29033324775E+02  0.00000000000E+00 0. -1.
</event>
<event>
 5    1  0.1681111E-003  0.9118800E+02  0.7818608E-02  0.1130116E+00
         25   -1    0    0    0    0  0.00000000000E+00  0.00000000000E+00  0.99999998245E-14  0.12500000000E+03  0.12500000000E+03 0.  0.
        -11    1    3    3    0    0  0.37948243962E+02  0.53142405392E+01 -0.27100425271E+02  0.46933393469E+02  0.51100000000E-03 0.  1.
         23    2    1    0    0    0  0.16074093738E+02  0.21071893967E+02  0.13178328227E+02  0.95401528085E+02  0.90693891863E+02 0.  0.
         11    1    3    3    0    0 -0.21874150225E+02  0.15757653428E+02  0.40278753498E+02  0.48468134617E+02  0.51100000000E-03 0. -1.
         22    1    1    0    0    0 -0.16074093738E+02 -0.21071893967E+02 -0.13178328227E+02  0.29598471915E+02  0.00000000000E+00 0.  1.
</event>
<event>
 5    1  0.1681111E-003  0.9118800E+02  0.7818608E-02  0.1130116E+00
         25   -1    0    0    0    0  0.00000000000E+00  0.00000000000E+00  0.99999998245E-14  0.12500000000E+03  0.12500000000E+03 0.  0.
        -11    1    3    3    0    0 -0.26447060834E+02  0.39060788571E+02 -0.11032317053E+02  0.48444857833E+02  0.51100000000E-03 0.  1.
         23    2    1    0    0    0  0.17485681536E+02  0.21045677405E+02 -0.97752756287E+01  0.95944439261E+02  0.91439104410E+02 0.  0.
         11    1    3    3    0    0  0.43932742370E+02 -0.18015111166E+02  0.12570414248E+01  0.47499581429E+02  0.51100000000E-03 0. -1.
         22    1    1    0    0    0 -0.17485681536E+02 -0.21045677405E+02  0.97752756287E+01  0.29055560739E+02  0.00000000000E+00 0. -1.
</event>
<event>
 5    1  0.1681111E-003  0.9118800E+02  0.7818608E-02  0.1130116E+00
         25   -1    0    0    0    0  0.00000000000E+00  0.00000000000E+00  0.99999998245E-14  0.12500000000E+03  0.12500000000E+03 0.  0.
        -11    1    3    3    0    0  0.20284928463E+02  0.52635845588E+02  0.23302954588E+02  0.61033091485E+02  0.51100000000E-03 0.  1.
         23    2    1    0    0    0  0.96183034669E+01  0.26406179506E+02  0.13458681767E+01  0.96864445290E+02  0.92688248028E+02 0.  0.
         11    1    3    3    0    0 -0.10666624996E+02 -0.26229666081E+02 -0.21957086411E+02  0.35831353805E+02  0.51100000000E-03 0. -1.
         22    1    1    0    0    0 -0.96183034669E+01 -0.26406179506E+02 -0.13458681767E+01  0.28135554710E+02  0.00000000000E+00 0.  1.
</event>
<event>
 5    1  0.1681111E-003  0.9118800E+02  0.7818608E-02  0.1130116E+00
         25   -1    0    0    0    0  0.00000000000E+00  0.00000000000E+00  0.99999998245E-14  0.12500000000E+03  0.12500000000E+03 0.  0.
        -11    1    3    3    0    0  0.97026462039E+01  0.12191156822E+02  0.45486718906E+02  0.48081256693E+02  0.51100000000E-03 0.  1.
         23    2    1    0    0    0  0.20900461890E+02  0.15589431483E+02 -0.37213842294E+01  0.98661655676E+02  0.95081091280E+02 0.  0.
         11    1    3    3    0    0  0.11197815686E+02  0.33982746609E+01 -0.49208103136E+02  0.50580398983E+02  0.51100000000E-03 0. -1.
         22    1    1    0    0    0 -0.20900461890E+02 -0.15589431483E+02  0.37213842294E+01  0.26338344324E+02  0.00000000000E+00 0. -1.
</event>
<event>
 5    1  0.1681111E-003  0.9118800E+02  0.7818608E-02  0.1130116E+00
         25   -1    0    0    0    0  0.00000000000E+00  0.00000000000E+00  0.99999998245E-14  0.12500000000E+03  0.12500000000E+03 0.  0.
        -11    1    3    3    0    0 -0.25596769440E+02 -0.20773445928E+02  0.19058134418E+02  0.38078119035E+02  0.51100000000E-03 0. -1.
         23    2    1    0    0    0  0.26260528742E+02  0.29517657392E+01  0.13359766409E+02  0.95388994457E+02  0.90676615586E+02 0.  0.
         11    1    3    3    0    0  0.51857298182E+02  0.23725211667E+02 -0.56983680092E+01  0.57310875422E+02  0.51100000000E-03 0.  1.
         22    1    1    0    0    0 -0.26260528742E+02 -0.29517657392E+01 -0.13359766409E+02  0.29611005543E+02  0.00000000000E+00 0.  1.
</event>
<event>
 5    1  0.1681111E-003  0.9118800E+02  0.7818608E-02  0.1130116E+00
         25   -1    0    0    0    0  0.00000000000E+00  0.00000000000E+00  0.99999998245E-14  0.12500000000E+03  0.12500000000E+03 0.  0.
        -11    1    3    3    0    0 -0.32334722391E+02  0.83741211791E+01 -0.37563897187E+02  0.50266356042E+02  0.51100000000E-03 0. -1.
         23    2    1    0    0    0 -0.37379168954E+01 -0.21996313413E+02 -0.17958633308E+02  0.96358730182E+02  0.92003709411E+02 0.  0.
         11    1    3    3    0    0  0.28596805495E+02 -0.30370434592E+02  0.19605263878E+02  0.46092374140E+02  0.51100000000E-03 0.  1.
         22    1    1    0    0    0  0.37379168954E+01  0.21996313413E+02  0.17958633308E+02  0.28641269818E+02  0.00000000000E+00 0. -1.
</event>
<event>
 5    1  0.1681111E-003  0.9118800E+02  0.7818608E-02  0.1130116E+00
         25   -1    0    0    0    0  0.00000000000E+00  0.00000000000E+00  0.99999998245E-14  0.12500000000E+03  0.12500000000E+03 0.  0.
        -11    1    3    3    0    0  0.19609528857E+02  0.50362373331E+02  0.22918478801E+02  0.58703994245E+02  0.51100000000E-03 0.  1.
         23    2    1    0    0    0 -0.59235425360E+00  0.29699636514E+02  0.47935730596E+00  0.95290589436E+02  0.90540860162E+02 0.  0.
         11    1    3    3    0    0 -0.20201883110E+02 -0.20662736817E+02 -0.22439121495E+02  0.36586595191E+02  0.51100000000E-03 0. -1.
         22    1    1    0    0    0  0.59235425360E+00 -0.29699636514E+02 -0.47935730596E+00  0.29709410564E+02  0.00000000000E+00 0.  1.
</event>
<event>
 5    1  0.1681111E-003  0.9118800E+02  0.7818608E-02  0.1130116E+00
         25   -1    0    0    0    0  0.00000000000E+00  0.00000000000E+00  0.99999998245E-14  0.12500000000E+03  0.12500000000E+03 0.  0.
        -11    1    3    3    0    0 -0.38315907657E+02  0.15819572597E+02  0.19304664220E+02  0.45727865876E+02  0.51100000000E-03 0.  1.
         23    2    1    0    0    0 -0.18519655942E+02 -0.63733515793E+01 -0.21303725070E+02  0.96061341282E+02  0.91598773575E+02 0.  0.
         11    1    3    3    0    0  0.19796251715E+02 -0.22192924176E+02 -0.40608389289E+02  0.50333475405E+02  0.51100000000E-03 0. -1.
         22    1    1    0    0    0  0.18519655942E+02  0.63733515793E+01  0.21303725070E+02  0.28938658718E+02  0.00000000000E+00 0. -1.
</event>
<event>
 5    1  0.1681111E-003  0.9118800E+02  0.7818608E-02  0.1130116E+00
         25   -1    0    0    0    0  0.00000000000E+00  0.00000000000E+00  0.99999998245E-14  0.12500000000E+03  0.12500000000E+03 0.  0.
        -11    1    3    3    0    0  0.32682786928E+02 -0.24428488228E+02 -0.39279111689E+02  0.56637127521E+02  0.51100000000E-03 0.  1.
         23    2    1    0    0    0  0.33986186001E+00 -0.69149303964E+01 -0.29504517777E+02  0.94694087413E+02  0.89713554457E+02 0.  0.
         11    1    3    3    0    0 -0.32342925068E+02  0.17513557831E+02  0.97745939120E+01  0.38056959893E+02  0.51100000000E-03 0. -1.
         22    1    1    0    0    0 -0.33986186001E+00  0.69149303964E+01  0.29504517777E+02  0.30305912587E+02  0.00000000000E+00 0.  1.
</event>
<event>
 5    1  0.1681111E-003  0.9118800E+02  0.7818608E-02  0.1130116E+00
         25   -1    0    0    0    0  0.00000000000E+00  0.00000000000E+00  0.99999998245E-14  0.12500000000E+03  0.12500000000E+03 0.  0.
        -11    1    3    3    0    0  0.29452686387E+02 -0.30634138890E+02 -0.13513809711E+02  0.44592984360E+02  0.51100000000E-03 0. -1.
         23    2    1    0    0    0  0.17398702329E+02  0.18915139135E+02 -0.14291788173E+02  0.95593324900E+02  0.90957854114E+02 0.  0.
         11    1    3    3    0    0 -0.12053984058E+02  0.49549278025E+02 -0.77797846158E+00  0.51000340540E+02  0.51100000000E-03 0.  1.
         22    1    1    0    0    0 -0.17398702329E+02 -0.18915139135E+02  0.14291788173E+02  0.29406675100E+02  0.00000000000E+00 0.  1.
</event>
<event>
 5    1  0.1681111E-003  0.9118800E+02  0.7818608E-02  0.1130116E+00
         25   -1    0    0    0    0  0.00000000000E+00  0.00000000000E+00  0.99999998245E-14  0.12500000000E+03  0.12500000000E+03 0.  0.
        -11    1    3    3    0    0  0.12231459140E+02  0.27740608142E+02  0.46112282359E+02  0.55185981167E+02  0.51100000000E-03 0. -1.
         23    2    1    0    0    0 -0.52448546154E+01  0.26952087691E+01 -0.66267937707E+01  0.11612942809E+03  0.11579014217E+03 0.  0.
         11    1    3    3    0    0 -0.17476313755E+02 -0.25045399373E+02 -0.52739076129E+02  0.60943446928E+02  0.51100000000E-03 0.  1.
         22    1    1    0    0    0  0.52448546154E+01 -0.26952087691E+01  0.66267937707E+01  0.88705719052E+01  0.00000000000E+00 0.  1.
</event>
<event>
 5    1  0.1681111E-003  0.9118800E+02  0.7818608E-02  0.1130116E+00
         25   -1    0    0    0    0  0.00000000000E+00  0.00000000000E+00  0.99999998245E-14  0.12500000000E+03  0.12500000000E+03 0.  0.
        -11    1    3    3    0    0 -0.71062673213E+00  0.44722513203E+02  0.29827404036E+02  0.53761344936E+02  0.51100000000E-03 0. -1.
         23    2    1    0    0    0 -0.12829947246E+02  0.47319289544E+01  0.25874022675E+02  0.95734598117E+02  0.91151793890E+02 0.  0.
         11    1    3    3    0    0 -0.12119320513E+02 -0.39990584248E+02 -0.39533813604E+01  0.41973253182E+02  0.51100000000E-03 0.  1.
         22    1    1    0    0    0  0.12829947246E+02 -0.47319289544E+01 -0.25874022675E+02  0.29265401883E+02  0.00000000000E+00 0. -1.
</event>
<event>
 5    1  0.1681111E-003  0.9118800E+02  0.7818608E-02  0.1130116E+00
         25   -1    0    0    0    0  0.00000000000E+00  0.00000000000E+00  0.99999998245E-14  0.12500000000E+03  0.12500000000E+03 0.  0.
        -11    1    3    3    0    0 -0.21330305796E+02  0.18698764324E+02  0.28524520471E+02  0.40227776485E+02  0.51100000000E-03 0.  1.
         23    2    1    0    0    0  0.21584905590E+02  0.18894997467E+02 -0.64583706207E+01  0.95595244778E+02  0.90960492492E+02 0.  0.
         11    1    3    3    0    0  0.42915211386E+02  0.19623314275E+00 -0.34982891092E+02  0.55367468293E+02  0.51100000000E-03 0. -1.
         22    1    1    0    0    0 -0.21584905590E+02 -0.18894997467E+02  0.64583706207E+01  0.29404755222E+02  0.00000000000E+00 0. -1.
</event>
<event>
 5    1  0.1681111E-003  0.9118800E+02  0.7818608E-02  0.1130116E+00
         25   -1    0    0    0    0  0.00000000000E+00  0.00000000000E+00  0.99999998245E-14  0.12500000000E+03  0.12500000000E+03 0.  0.
        -11    1    3    3    0    0 -0.13974342478E+02  0.75956575934E+01 -0.51956183731E+02  0.54336187667E+02  0.51100000000E-03 0.  1.
         23    2    1    0    0    0 -0.16936660563E+02 -0.15925696328E+02 -0.18770076657E+02  0.95120340493E+02  0.90305509927E+02 0.  0.
         11    1    3    3    0    0 -0.29623180848E+01 -0.23521353921E+02  0.33186107074E+02  0.40784152826E+02  0.51100000000E-03 0. -1.
         22    1    1    0    0    0  0.16936660563E+02  0.15925696328E+02  0.18770076657E+02  0.29879659507E+02  0.00000000000E+00 0.  1.
</event>
<event>
 5    1  0.1681111E-003  0.9118800E+02  0.7818608E-02  0.1130116E+00
         25   -1    0    0    0    0  0.00000000000E+00  0.00000000000E+00  0.99999998245E-14  0.12500000000E+03  0.12500000000E+03 0.  0.
        -11    1    3    3    0    0  0.12116015351E+02  0.10054458565E+02 -0.44501943398E+02  0.47205009602E+02  0.51100000000E-03 0. -1.
         23    2    1    0    0    0 -0.16586596619E+02  0.22903016503E+02 -0.75415247461E+01  0.95733330428E+02  0.91150055442E+02 0.  0.
         11    1    3    3    0    0 -0.28702611970E+02  0.12848557939E+02  0.36960418652E+02  0.48528320826E+02  0.51100000000E-03 0.  1.
         22    1    1    0    0    0  0.16586596619E+02 -0.22903016503E+02  0.75415247461E+01  0.29266669572E+02  0.00000000000E+00 0.  1.
</event>
<event>
 5    1  0.1681111E-003  0.9118800E+02  0.7818608E-02  0.1130116E+00
         25   -1    0    0    0    0  0.00000000000E+00  0.00000000000E+00  0.99999998245E-14  0.12500000000E+03  0.12500000000E+03 0.  0.
        -11    1    3    3    0    0 -0.47624084516E+02  0.34190287434E+01  0.39996593911E+01  0.47913885869E+02  0.51100000000E-03 0.  1.
         23    2    1    0    0    0 -0.81410985393E+01 -0.28955310452E+01 -0.25806345772E+02  0.97785498947E+02  0.93922173829E+02 0.  0.
         11    1    3    3    0    0  0.39482985977E+02 -0.63145597886E+01 -0.29806005163E+02  0.49871613078E+02  0.51100000000E-03 0. -1.
         22    1    1    0    0    0  0.81410985393E+01  0.28955310452E+01  0.25806345772E+02  0.27214501053E+02  0.00000000000E+00 0.  1.
</event>
<event>
 5    1  0.1681111E-003  0.9118800E+02  0.7818608E-02  0.1130116E+00
         25   -1    0    0    0    0  0.00000000000E+00  0.00000000000E+00  0.99999998245E-14  0.12500000000E+03  0.12500000000E+03 0.  0.
        -11    1    3    3    0    0  0.12908603749E+02 -0.42003209607E+02  0.40123642008E+02  0.59504691548E+02  0.51100000000E-03 0.  1.
         23    2    1    0    0    0  0.14434467428E+02 -0.93330919143E+01  0.22590111231E+02  0.96613848798E+02  0.92349673521E+02 0.  0.
         11    1    3    3    0    0  0.15258636790E+01  0.32670117693E+02 -0.17533530776E+02  0.37109157250E+02  0.51100000000E-03 0. -1.
         22    1    1    0    0    0 -0.14434467428E+02  0.93330919143E+01 -0.22590111231E+02  0.28386151202E+02  0.00000000000E+00 0.  1.
</event>
<event>
 5    1  0.1681111E-003  0.9118800E+02  0.7818608E-02  0.1130116E+00
         25   -1    0    0    0    0  0.00000000000E+00  0.00000000000E+00  0.99999998245E-14  0.12500000000E+03  0.12500000000E+03 0.  0.
        -11    1    3    3    0    0 -0.45661911577E+02 -0.23475405405E+02 -0.91352516345E+01  0.52149378237E+02  0.51100000000E-03 0.  1.
         23    2    1    0    0    0 -0.11034605277E+02 -0.12040841701E+02  0.20251783606E+02  0.98983099306E+02  0.95502747743E+02 0.  0.
         11    1    3    3    0    0  0.34627306300E+02  0.11434563704E+02  0.29387035241E+02  0.46833721069E+02  0.51100000000E-03 0. -1.
         22    1    1    0    0    0  0.11034605277E+02  0.12040841701E+02 -0.20251783606E+02  0.26016900694E+02  0.00000000000E+00 0.  1.
</event>
<event>
 5    1  0.1681111E-003  0.9118800E+02  0.7818608E-02  0.1130116E+00
         25   -1    0    0    0    0  0.00000000000E+00  0.00000000000E+00  0.99999998245E-14  0.12500000000E+03  0.12500000000E+03 0.  0.
        -11    1    3    3    0    0  0.12933277197E+02 -0.44083312722E+02  0.19747914207E+02  0.50005882008E+02  0.51100000000E-03 0.  1.
         23    2    1    0    0    0  0.43860321125E+01 -0.20676527640E+02 -0.19333101400E+02  0.96355194490E+02  0.91998905551E+02 0.  0.
         11    1    3    3    0    0 -0.85472450843E+01  0.23406785082E+02 -0.39081015608E+02  0.46349312482E+02  0.51100000000E-03 0. -1.
         22    1    1    0    0    0 -0.43860321125E+01  0.20676527640E+02  0.19333101400E+02  0.28644805510E+02  0.00000000000E+00 0.  1.
</event>
<event>
 5    1  0.1681111E-003  0.9118800E+02  0.7818608E-02  0.1130116E+00
         25   -1    0    0    0    0  0.00000000000E+00  0.00000000000E+00  0.99999998245E-14  0.12500000000E+03  0.12500000000E+03 0.  0.
        -11    1    3    3    0    0  0.15612140078E+02  0.31775562534E+02 -0.16816847566E+02  0.39194791165E+02  0.51100000000E-03 0. -1.
         23    2    1    0    0    0  0.14482049934E+02 -0.54380050431E+01  0.25260792868E+02  0.95378904047E+02  0.90662704636E+02 0.  0.
         11    1    3    3    0    0 -0.11300901443E+01 -0.37213567577E+02  0.42077640434E+02  0.56184112882E+02  0.51100000000E-03 0.  1.
         22    1    1    0    0    0 -0.14482049934E+02  0.54380050431E+01 -0.25260792868E+02  0.29621095953E+02  0.00000000000E+00 0.  1.
</event>
<event>
 5    1  0.1681111E-003  0.9118800E+02  0.7818608E-02  0.1130116E+00
         25   -1    0    0    0    0  0.00000000000E+00  0.00000000000E+00  0.99999998245E-14  0.12500000000E+03  0.12500000000E+03 0.  0.
        -11    1    3    3    0    0  0.36112120704E+02  0.27414011536E+01  0.10132165916E+02  0.37606666011E+02  0.51100000000E-03 0.  1.
         23    2    1    0    0    0 -0.20133670650E+02  0.16555648255E+02  0.13544946472E+02  0.95624504125E+02  0.91000692477E+02 0.  0.
         11    1    3    3    0    0 -0.56245791354E+02  0.13814247101E+02  0.34127805568E+01  0.58017838114E+02  0.51100000000E-03 0. -1.
         22    1    1    0    0    0  0.20133670650E+02 -0.16555648255E+02 -0.13544946472E+02  0.29375495875E+02  0.00000000000E+00 0. -1.
</event>
<event>
 5    1  0.1681111E-003  0.9118800E+02  0.7818608E-02  0.1130116E+00
         25   -1    0    0    0    0  0.00000000000E+00  0.00000000000E+00  0.99999998245E-14  0.12500000000E+03  0.12500000000E+03 0.  0.
        -11    1    3    3    0    0 -0.29328332554E+02  0.49730000832E+02  0.19340335060E+02  0.60887376636E+02  0.51100000000E-03 0. -1.
         23    2    1    0    0    0 -0.13417688271E+02  0.25559162962E+02 -0.76346330208E+00  0.96122880232E+02  0.91682714064E+02 0.  0.
         11    1    3    3    0    0  0.15910644283E+02 -0.24170837870E+02 -0.20103798362E+02  0.35235503596E+02  0.51100000000E-03 0.  1.
         22    1    1    0    0    0  0.13417688271E+02 -0.25559162962E+02  0.76346330208E+00  0.28877119768E+02  0.00000000000E+00 0. -1.
</event>
<event>
 5    1  0.1681111E-003  0.9118800E+02  0.7818608E-02  0.1130116E+00
         25   -1    0    0    0    0  0.00000000000E+00  0.00000000000E+00  0.99999998245E-14  0.12500000000E+03  0.12500000000E+03 0.  0.
        -11    1    3    3    0    0  0.89328738890E+00  0.46019609308E+01 -0.37629331679E+02  0.37920213734E+02  0.51100000000E-03 0. -1.
         23    2    1    0    0    0  0.23961593873E+02  0.89279083760E+01  0.14864921859E+02  0.95422450562E+02  0.90722723947E+02 0.  0.
         11    1    3    3    0    0  0.23068306484E+02  0.43259474452E+01  0.52494253538E+02  0.57502236827E+02  0.51100000000E-03 0.  1.
         22    1    1    0    0    0 -0.23961593873E+02 -0.89279083760E+01 -0.14864921859E+02  0.29577549438E+02  0.00000000000E+00 0.  1.
</event>
<event>
 5    1  0.1681111E-003  0.9118800E+02  0.7818608E-02  0.1130116E+00
         25   -1    0    0    0    0  0.00000000000E+00  0.00000000000E+00  0.99999998245E-14  0.12500000000E+03  0.12500000000E+03 0.  0.
        -11    1    3    3    0    0 -0.34847736330E+02  0.72971562744E+01 -0.92554185162E+01  0.36786899695E+02  0.51100000000E-03 0. -1.
         23    2    1    0    0    0  0.10991988097E+02 -0.27864251568E+02 -0.30636704049E+01  0.94889762636E+02  0.89985780315E+02 0.  0.
         11    1    3    3    0    0  0.45839724427E+02 -0.35161407843E+02  0.61917481113E+01  0.58102862941E+02  0.51100000000E-03 0.  1.
         22    1    1    0    0    0 -0.10991988097E+02  0.27864251568E+02  0.30636704049E+01  0.30110237364E+02  0.00000000000E+00 0.  1.
</event>
<event>
 5    1  0.1681111E-003  0.9118800E+02  0.7818608E-02  0.1130116E+00
         25   -1    0    0    0    0  0.00000000000E+00  0.00000000000E+00  0.99999998245E-14  0.12500000000E+03  0.12500000000E+03 0.  0.
        -11    1    3    3    0    0 -0.38238997370E+02 -0.15143515001E+02  0.23055358302E+02  0.47149724423E+02  0.51100000000E-03 0.  1.
         23    2    1    0    0    0 -0.22197397091E+02  0.75122223546E+01 -0.17116856614E+02  0.95980270459E+02  0.91488073620E+02 0.  0.
         11    1    3    3    0    0  0.16041600280E+02  0.22655737355E+02 -0.40172214916E+02  0.48830546036E+02  0.51100000000E-03 0. -1.
         22    1    1    0    0    0  0.22197397091E+02 -0.75122223546E+01  0.17116856614E+02  0.29019729541E+02  0.00000000000E+00 0. -1.
</event>
<event>
 5    1  0.1681111E-003  0.9118800E+02  0.7818608E-02  0.1130116E+00
         25   -1    0    0    0    0  0.00000000000E+00  0.00000000000E+00  0.99999998245E-14  0.12500000000E+03  0.12500000000E+03 0.  0.
        -11    1    3    3    0    0 -0.95156887871E+01 -0.45142444896E+02 -0.40796530297E+02  0.61585270551E+02  0.51100000000E-03 0.  1.
         23    2    1    0    0    0 -0.63320027324E+01 -0.17815755903E+02 -0.26084879788E+02  0.92783290507E+02  0.87010474236E+02 0.  0.
         11    1    3    3    0    0  0.31836860547E+01  0.27326688993E+02  0.14711650509E+02  0.31198019956E+02  0.51100000000E-03 0. -1.
         22    1    1    0    0    0  0.63320027324E+01  0.17815755903E+02  0.26084879788E+02  0.32216709493E+02  0.00000000000E+00 0.  1.
</event>
<event>
 5    1  0.1681111E-003  0.9118800E+02  0.7818608E-02  0.1130116E+00
         25   -1    0    0    0    0  0.00000000000E+00  0.00000000000E+00  0.99999998245E-14  0.12500000000E+03  0.12500000000E+03 0.  0.
        -11    1    3    3    0    0 -0.15297905755E+02 -0.25149697603E+01  0.56420166757E+02  0.58511419489E+02  0.51100000000E-03 0.  1.
         23    2    1    0    0    0 -0.78585129124E+01 -0.16775584770E+02  0.24196996694E+02  0.94525894294E+02  0.89478900158E+02 0.  0.
         11    1    3    3    0    0  0.74393928429E+01 -0.14260615010E+02 -0.32223170063E+02  0.36014474805E+02  0.51100000000E-03 0. -1.
         22    1    1    0    0    0  0.78585129124E+01  0.16775584770E+02 -0.24196996694E+02  0.30474105706E+02  0.00000000000E+00 0.  1.
</event>
<event>
 5    1  0.1681111E-003  0.9118800E+02  0.7818608E-02  0.1130116E+00
         25   -1    0    0    0    0  0.00000000000E+00  0.00000000000E+00  0.99999998245E-14  0.12500000000E+03  0.12500000000E+03 0.  0.
        -11    1    3    3    0    0 -0.49639085218E+02  0.82333009351E+01  0.34973314235E+02  0.61277718090E+02  0.51100000000E-03 0.  1.
         23    2    1    0    0    0 -0.27543192369E+02  0.10978297283E+01  0.92651610219E+01  0.95919493045E+02  0.91404995822E+02 0.  0.
         11    1    3    3    0    0  0.22095892849E+02 -0.71354712068E+01 -0.25708153213E+02  0.34641774954E+02  0.51100000000E-03 0. -1.
         22    1    1    0    0    0  0.27543192369E+02 -0.10978297283E+01 -0.92651610219E+01  0.29080506955E+02  0.00000000000E+00 0.  1.
</event>
<event>
 5    1  0.1681111E-003  0.9118800E+02  0.7818608E-02  0.1130116E+00
         25   -1    0    0    0    0  0.00000000000E+00  0.00000000000E+00  0.99999998245E-14  0.12500000000E+03  0.12500000000E+03 0.  0.
        -11    1    3    3    0    0  0.49609649072E+02 -0.22943603248E+02 -0.30299548748E+02  0.62494710701E+02  0.51100000000E-03 0.  1.
         23    2    1    0    0    0  0.22856527694E+02 -0.11151344321E+02 -0.14354315451E+02  0.95796922928E+02  0.91237222295E+02 0.  0.
         11    1    3    3    0    0 -0.26753121378E+02  0.11792258927E+02  0.15945233296E+02  0.33302212227E+02  0.51100000000E-03 0. -1.
         22    1    1    0    0    0 -0.22856527694E+02  0.11151344321E+02  0.14354315451E+02  0.29203077072E+02  0.00000000000E+00 0.  1.
</event>
<event>
 5    1  0.1681111E-003  0.9118800E+02  0.7818608E-02  0.1130116E+00
         25   -1    0    0    0    0  0.00000000000E+00  0.00000000000E+00  0.99999998245E-14  0.12500000000E+03  0.12500000000E+03 0.  0.
        -11    1    3    3    0    0  0.12704189618E+02 -0.20749367457E+02 -0.34171281212E+02  0.41947695332E+02  0.51100000000E-03 0.  1.
         23    2    1    0    0    0 -0.25950832741E+02  0.22208711424E+01  0.84783851761E+00  0.98940513843E+02  0.95446992938E+02 0.  0.
         11    1    3    3    0    0 -0.38655022360E+02  0.22970238599E+02  0.35019119730E+02  0.56992818511E+02  0.51100000000E-03 0. -1.
         22    1    1    0    0    0  0.25950832741E+02 -0.22208711424E+01 -0.84783851761E+00  0.26059486157E+02  0.00000000000E+00 0. -1.
</event>
<event>
 5    1  0.1681111E-003  0.9118800E+02  0.7818608E-02  0.1130116E+00
         25   -1    0    0    0    0  0.00000000000E+00  0.00000000000E+00  0.99999998245E-14  0.12500000000E+03  0.12500000000E+03 0.  0.
        -11    1    3    3    0    0 -0.34416172015E+02  0.41684962692E+02  0.29997811607E+02  0.61822145808E+02  0.51100000000E-03 0.  1.
         23    2    1    0    0    0 -0.11208166105E+02  0.19810596224E+02  0.18308820192E+02  0.95788776010E+02  0.91226059887E+02 0.  0.
         11    1    3    3    0    0  0.23208005910E+02 -0.21874366469E+02 -0.11688991415E+02  0.33966630202E+02  0.51100000000E-03 0. -1.
         22    1    1    0    0    0  0.11208166105E+02 -0.19810596224E+02 -0.18308820192E+02  0.29211223990E+02  0.00000000000E+00 0.  1.
</event>
<event>
 5    1  0.1681111E-003  0.9118800E+02  0.7818608E-02  0.1130116E+00
         25   -1    0    0    0    0  0.00000000000E+00  0.00000000000E+00  0.99999998245E-14  0.12500000000E+03  0.12500000000E+03 0.  0.
        -11    1    3    3    0    0 -0.24163188679E+02  0.80092461784E+01  0.19590209083E+02  0.32121394796E+02  0.51100000000E-03 0. -1.
         23    2    1    0    0    0  0.17385147111E+02 -0.11570157784E+02 -0.22415733617E+02  0.94363795849E+02  0.89252165028E+02 0.  0.
         11    1    3    3    0    0  0.41548335790E+02 -0.19579403962E+02 -0.42005942700E+02  0.62242401053E+02  0.51100000000E-03 0.  1.
         22    1    1    0    0    0 -0.17385147111E+02  0.11570157784E+02  0.22415733617E+02  0.30636204151E+02  0.00000000000E+00 0.  1.
</event>
<event>
 5    1  0.1681111E-003  0.9118800E+02  0.7818608E-02  0.1130116E+00
         25   -1    0    0    0    0  0.00000000000E+00  0.00000000000E+00  0.99999998245E-14  0.12500000000E+03  0.12500000000E+03 0.  0.
        -11    1    3    3    0    0 -0.37030591986E+01  0.14700093057E+02 -0.51274846764E+02  0.53468825443E+02  0.51100000000E-03 0.  1.
         23    2    1    0    0    0 -0.22744033960E+02  0.13696136356E+02 -0.14857225391E+02  0.94576121579E+02  0.89549039049E+02 0.  0.
         11    1    3    3    0    0 -0.19040974762E+02 -0.10039567009E+01  0.36417621372E+02  0.41107296136E+02  0.51100000000E-03 0. -1.
         22    1    1    0    0    0  0.22744033960E+02 -0.13696136356E+02  0.14857225391E+02  0.30423878421E+02  0.00000000000E+00 0.  1.
</event>
<event>
 5    1  0.1681111E-003  0.9118800E+02  0.7818608E-02  0.1130116E+00
         25   -1    0    0    0    0  0.00000000000E+00  0.00000000000E+00  0.99999998245E-14  0.12500000000E+03  0.12500000000E+03 0.  0.
        -11    1    3    3    0    0  0.21015455947E+01 -0.17301310394E+02  0.25396181729E+02  0.30801264290E+02  0.51100000000E-03 0.  1.
         23    2    1    0    0    0 -0.35996014418E+02  0.15153056867E+02  0.24222555213E+01  0.85869506671E+02  0.76435441175E+02 0.  0.
         11    1    3    3    0    0 -0.38097560013E+02  0.32454367260E+02 -0.22973926207E+02  0.55068242380E+02  0.51100000000E-03 0. -1.
         22    1    1    0    0    0  0.35996014418E+02 -0.15153056867E+02 -0.24222555213E+01  0.39130493329E+02  0.00000000000E+00 0. -1.
</event>
<event>
 5    1  0.1681111E-003  0.9118800E+02  0.7818608E-02  0.1130116E+00
         25   -1    0    0    0    0  0.00000000000E+00  0.00000000000E+00  0.99999998245E-14  0.12500000000E+03  0.12500000000E+03 0.  0.
        -11    1    3    3    0    0  0.38037294099E+00  0.60224052840E+02  0.16186323813E+02  0.62362475119E+02  0.51100000000E-03 0.  1.
         23    2    1    0    0    0 -0.27337122371E+01  0.26937522183E+02  0.69739898587E+01  0.97040389514E+02  0.92925224662E+02 0.  0.
         11    1    3    3    0    0 -0.31140851781E+01 -0.33286530657E+02 -0.92123339544E+01  0.34677914395E+02  0.51100000000E-03 0. -1.
         22    1    1    0    0    0  0.27337122371E+01 -0.26937522183E+02 -0.69739898587E+01  0.27959610486E+02  0.00000000000E+00 0.  1.
</event>
<event>
 5    1  0.1681111E-003  0.9118800E+02  0.7818608E-02  0.1130116E+00
         25   -1    0    0    0    0  0.00000000000E+00  0.00000000000E+00  0.99999998245E-14  0.12500000000E+03  0.12500000000E+03 0.  0.
        -11    1    3    3    0    0 -0.34858444617E+02  0.45917138056E+02 -0.55040152012E+01  0.57911906478E+02  0.51100000000E-03 0. -1.
         23    2    1    0    0    0 -0.19060610385E+02  0.45274743288E+02 -0.11016945671E+02  0.74656357502E+02  0.55127936435E+02 0.  0.
         11    1    3    3    0    0  0.15797834232E+02 -0.64239476820E+00 -0.55129304700E+01  0.16744451024E+02  0.51100000000E-03 0.  1.
         22    1    1    0    0    0  0.19060610385E+02 -0.45274743288E+02  0.11016945671E+02  0.50343642498E+02  0.00000000000E+00 0. -1.
</event>
<event>
 5    1  0.1681111E-003  0.9118800E+02  0.7818608E-02  0.1130116E+00
         25   -1    0    0    0    0  0.00000000000E+00  0.00000000000E+00  0.99999998245E-14  0.12500000000E+03  0.12500000000E+03 0.  0.
        -11    1    3    3    0    0 -0.20625328186E+02 -0.15829508154E+02  0.46269344867E+02  0.53073814314E+02  0.51100000000E-03 0.  1.
         23    2    1    0    0    0 -0.29463819995E+02 -0.12131335806E+01  0.88427285371E+01  0.94213927990E+02  0.89042023773E+02 0.  0.
         11    1    3    3    0    0 -0.88384918098E+01  0.14616374574E+02 -0.37426616330E+02  0.41140113676E+02  0.51100000000E-03 0. -1.
         22    1    1    0    0    0  0.29463819995E+02  0.12131335806E+01 -0.88427285371E+01  0.30786072010E+02  0.00000000000E+00 0.  1.
</event>
<event>
 5    1  0.1681111E-003  0.9118800E+02  0.7818608E-02  0.1130116E+00
         25   -1    0    0    0    0  0.00000000000E+00  0.00000000000E+00  0.99999998245E-14  0.12500000000E+03  0.12500000000E+03 0.  0.
        -11    1    3    3    0    0  0.19916942667E+02 -0.68482626531E+01 -0.49368636319E+02  0.53673508911E+02  0.51100000000E-03 0.  1.
         23    2    1    0    0    0 -0.12954095063E+02  0.32897283220E+01 -0.27469402516E+02  0.94451694549E+02  0.89375184683E+02 0.  0.
         11    1    3    3    0    0 -0.32871037730E+02  0.10137990975E+02  0.21899233803E+02  0.40778185637E+02  0.51100000000E-03 0. -1.
         22    1    1    0    0    0  0.12954095063E+02 -0.32897283220E+01  0.27469402516E+02  0.30548305451E+02  0.00000000000E+00 0.  1.
</event>
<event>
 5    1  0.1681111E-003  0.9118800E+02  0.7818608E-02  0.1130116E+00
         25   -1    0    0    0    0  0.00000000000E+00  0.00000000000E+00  0.99999998245E-14  0.12500000000E+03  0.12500000000E+03 0.  0.
        -11    1    3    3    0    0  0.54873524438E+02  0.22808607435E+02 -0.12444765708E+02  0.60714153631E+02  0.51100000000E-03 0.  1.
         23    2    1    0    0    0  0.42975982851E+02  0.12602785352E+02 -0.85937983144E+00  0.80205984392E+02  0.66531917888E+02 0.  0.
         11    1    3    3    0    0 -0.11897541587E+02 -0.10205822083E+02  0.11585385877E+02  0.19491830760E+02  0.51100000000E-03 0. -1.
         22    1    1    0    0    0 -0.42975982851E+02 -0.12602785352E+02  0.85937983144E+00  0.44794015608E+02  0.00000000000E+00 0.  1.
</event>
<event>
 5    1  0.1681111E-003  0.9118800E+02  0.7818608E-02  0.1130116E+00
         25   -1    0    0    0    0  0.00000000000E+00  0.00000000000E+00  0.99999998245E-14  0.12500000000E+03  0.12500000000E+03 0.  0.
        -11    1    3    3    0    0  0.72226089816E+01  0.79841921018E+01 -0.34111302255E+02  0.35770020210E+02  0.51100000000E-03 0.  1.
         23    2    1    0    0    0 -0.21094661467E+02  0.17053136113E-02  0.19080515573E+02  0.96556181342E+02  0.92271584659E+02 0.  0.
         11    1    3    3    0    0 -0.28317270449E+02 -0.79824867882E+01  0.53191817828E+02  0.60786161132E+02  0.51100000000E-03 0. -1.
         22    1    1    0    0    0  0.21094661467E+02 -0.17053136113E-02 -0.19080515573E+02  0.28443818658E+02  0.00000000000E+00 0. -1.
</event>
<event>
 5    1  0.1681111E-003  0.9118800E+02  0.7818608E-02  0.1130116E+00
         25   -1    0    0    0    0  0.00000000000E+00  0.00000000000E+00  0.99999998245E-14  0.12500000000E+03  0.12500000000E+03 0.  0.
        -11    1    3    3    0    0  0.22120277837E+02 -0.17335798253E+02  0.17017931544E+02  0.32854932460E+02  0.51100000000E-03 0.  1.
         23    2    1    0    0    0 -0.23131798362E+02  0.56486415439E+01 -0.18536613769E+02  0.94823961546E+02  0.89894329001E+02 0.  0.
         11    1    3    3    0    0 -0.45252076200E+02  0.22984439797E+02 -0.35554545313E+02  0.61969029086E+02  0.51100000000E-03 0. -1.
         22    1    1    0    0    0  0.23131798362E+02 -0.56486415439E+01  0.18536613769E+02  0.30176038454E+02  0.00000000000E+00 0. -1.
</event>
<event>
 5    1  0.1681111E-003  0.9118800E+02  0.7818608E-02  0.1130116E+00
         25   -1    0    0    0    0  0.00000000000E+00  0.00000000000E+00  0.99999998245E-14  0.12500000000E+03  0.12500000000E+03 0.  0.
        -11    1    3    3    0    0  0.16683479479E+02 -0.35555258202E+02  0.98510832295E+01  0.40491464711E+02  0.51100000000E-03 0.  1.
         23    2    1    0    0    0 -0.22011994753E+02 -0.10201132214E+01  0.22108280795E+02  0.93785506192E+02  0.88438546731E+02 0.  0.
         11    1    3    3    0    0 -0.38695474233E+02  0.34535144981E+02  0.12257197565E+02  0.53294041481E+02  0.51100000000E-03 0. -1.
         22    1    1    0    0    0  0.22011994753E+02  0.10201132214E+01 -0.22108280795E+02  0.31214493808E+02  0.00000000000E+00 0.  1.
</event>
<event>
 5    1  0.1681111E-003  0.9118800E+02  0.7818608E-02  0.1130116E+00
         25   -1    0    0    0    0  0.00000000000E+00  0.00000000000E+00  0.99999998245E-14  0.12500000000E+03  0.12500000000E+03 0.  0.
        -11    1    3    3    0    0 -0.40007114266E+02  0.10098313853E+02  0.39813330534E+02  0.57338001561E+02  0.51100000000E-03 0. -1.
         23    2    1    0    0    0 -0.31428394816E+02  0.14993857544E+02  0.99617111859E+01  0.88781283091E+02  0.81057515215E+02 0.  0.
         11    1    3    3    0    0  0.85787194496E+01  0.48955436910E+01 -0.29851619348E+02  0.31443281530E+02  0.51100000000E-03 0.  1.
         22    1    1    0    0    0  0.31428394816E+02 -0.14993857544E+02 -0.99617111859E+01  0.36218716909E+02  0.00000000000E+00 0. -1.
</event>
<event>
 5    1  0.1681111E-003  0.9118800E+02  0.7818608E-02  0.1130116E+00
         25   -1    0    0    0    0  0.00000000000E+00  0.00000000000E+00  0.99999998245E-14  0.12500000000E+03  0.12500000000E+03 0.  0.
        -11    1    3    3    0    0 -0.25240573043E+02 -0.26299821238E+02  0.22030160088E+01  0.36518767839E+02  0.51100000000E-03 0.  1.
         23    2    1    0    0    0  0.24286600907E+01  0.20878343628E+02 -0.20409553255E+02  0.95702329674E+02  0.91107532172E+02 0.  0.
         11    1    3    3    0    0  0.27669233134E+02  0.47178164867E+02 -0.22612569264E+02  0.59183561834E+02  0.51100000000E-03 0. -1.
         22    1    1    0    0    0 -0.24286600907E+01 -0.20878343628E+02  0.20409553255E+02  0.29297670326E+02  0.00000000000E+00 0. -1.
</event>
<event>
 5    1  0.1681111E-003  0.9118800E+02  0.7818608E-02  0.1130116E+00
         25   -1    0    0    0    0  0.00000000000E+00  0.00000000000E+00  0.99999998245E-14  0.12500000000E+03  0.12500000000E+03 0.  0.
        -11    1    3    3    0    0  0.26631737625E+02 -0.23330721121E+02  0.10248034105E+02  0.36859112852E+02  0.51100000000E-03 0.  1.
         23    2    1    0    0    0 -0.33978212307E+01  0.25664795410E+02  0.15925961750E+02  0.94604882461E+02  0.89589176887E+02 0.  0.
         11    1    3    3    0    0 -0.30029558856E+02  0.48995516531E+02  0.56779276444E+01  0.57745769609E+02  0.51100000000E-03 0. -1.
         22    1    1    0    0    0  0.33978212307E+01 -0.25664795410E+02 -0.15925961750E+02  0.30395117539E+02  0.00000000000E+00 0. -1.
</event>
<event>
 5    1  0.1681111E-003  0.9118800E+02  0.7818608E-02  0.1130116E+00
         25   -1    0    0    0    0  0.00000000000E+00  0.00000000000E+00  0.99999998245E-14  0.12500000000E+03  0.12500000000E+03 0.  0.
        -11    1    3    3    0    0  0.38689144913E+02  0.26913509011E+02  0.15110631260E+02  0.49492606303E+02  0.51100000000E-03 0. -1.
         23    2    1    0    0    0  0.65032691218E+01 -0.29193470915E+01  0.28695328989E+02  0.95432500909E+02  0.90736570506E+02 0.  0.
         11    1    3    3    0    0 -0.32185875791E+02 -0.29832856102E+02  0.13584697729E+02  0.45939894605E+02  0.51100000000E-03 0.  1.
         22    1    1    0    0    0 -0.65032691218E+01  0.29193470915E+01 -0.28695328989E+02  0.29567499091E+02  0.00000000000E+00 0.  1.
</event>
<event>
 5    1  0.1681111E-003  0.9118800E+02  0.7818608E-02  0.1130116E+00
         25   -1    0    0    0    0  0.00000000000E+00  0.00000000000E+00  0.99999998245E-14  0.12500000000E+03  0.12500000000E+03 0.  0.
        -11    1    3    3    0    0  0.39763045637E+02 -0.38333019321E+02  0.18068779970E+02  0.58111969322E+02  0.51100000000E-03 0.  1.
         23    2    1    0    0    0  0.15515464352E+02 -0.25547492505E+02 -0.59097150015E+01  0.94531512366E+02  0.89486748133E+02 0.  0.
         11    1    3    3    0    0 -0.24247581285E+02  0.12785526816E+02 -0.23978494972E+02  0.36419543044E+02  0.51100000000E-03 0. -1.
         22    1    1    0    0    0 -0.15515464352E+02  0.25547492505E+02  0.59097150015E+01  0.30468487634E+02  0.00000000000E+00 0.  1.
</event>
<event>
 5    1  0.1681111E-003  0.9118800E+02  0.7818608E-02  0.1130116E+00
         25   -1    0    0    0    0  0.00000000000E+00  0.00000000000E+00  0.99999998245E-14  0.12500000000E+03  0.12500000000E+03 0.  0.
        -11    1    3    3    0    0  0.17889504905E+02  0.15618834239E+02 -0.32934537828E+02  0.40603770157E+02  0.51100000000E-03 0. -1.
         23    2    1    0    0    0  0.10153243313E+02  0.13957518627E+02  0.22523700488E+02  0.96623640831E+02  0.92362926588E+02 0.  0.
         11    1    3    3    0    0 -0.77362615927E+01 -0.16613156120E+01  0.55458238316E+02  0.56019870675E+02  0.51100000000E-03 0.  1.
         22    1    1    0    0    0 -0.10153243313E+02 -0.13957518627E+02 -0.22523700488E+02  0.28376359169E+02  0.00000000000E+00 0.  1.
</event>
<event>
 5    1  0.1681111E-003  0.9118800E+02  0.7818608E-02  0.1130116E+00
         25   -1    0    0    0    0  0.00000000000E+00  0.00000000000E+00  0.99999998245E-14  0.12500000000E+03  0.12500000000E+03 0.  0.
        -11    1    3    3    0    0  0.37668555392E+02 -0.15359694731E+02 -0.16843060444E+02  0.44028728950E+02  0.51100000000E-03 0. -1.
         23    2    1    0    0    0  0.18593268663E+02 -0.49458891719E+00  0.25884770542E+02  0.93125627790E+02  0.87500896838E+02 0.  0.
         11    1    3    3    0    0 -0.19075286730E+02  0.14865105814E+02  0.42727830986E+02  0.49096898840E+02  0.51100000000E-03 0.  1.
         22    1    1    0    0    0 -0.18593268663E+02  0.49458891719E+00 -0.25884770542E+02  0.31874372210E+02  0.00000000000E+00 0. -1.
</event>
<event>
 5    1  0.1681111E-003  0.9118800E+02  0.7818608E-02  0.1130116E+00
         25   -1    0    0    0    0  0.00000000000E+00  0.00000000000E+00  0.99999998245E-14  0.12500000000E+03  0.12500000000E+03 0.  0.
        -11    1    3    3    0    0  0.54294345115E+02  0.18079806753E+02 -0.21844222993E+02  0.61252962394E+02  0.51100000000E-03 0.  1.
         23    2    1    0    0    0  0.26546867892E+02  0.10910945416E+02 -0.17680276609E+01  0.96243942437E+02  0.91847621685E+02 0.  0.
         11    1    3    3    0    0 -0.27747477222E+02 -0.71688613371E+01  0.20076195332E+02  0.34990980043E+02  0.51100000000E-03 0. -1.
         22    1    1    0    0    0 -0.26546867892E+02 -0.10910945416E+02  0.17680276609E+01  0.28756057563E+02  0.00000000000E+00 0.  1.
</event>
<event>
 5    1  0.1681111E-003  0.9118800E+02  0.7818608E-02  0.1130116E+00
         25   -1    0    0    0    0  0.00000000000E+00  0.00000000000E+00  0.99999998245E-14  0.12500000000E+03  0.12500000000E+03 0.  0.
        -11    1    3    3    0    0  0.88580283425E+01 -0.53347531444E+02 -0.82310926879E+01  0.54700773892E+02  0.51100000000E-03 0. -1.
         23    2    1    0    0    0  0.24496201361E+02 -0.16053564894E+02 -0.17192672636E+01  0.95661685344E+02  0.91051750868E+02 0.  0.
         11    1    3    3    0    0  0.15638173018E+02  0.37293966550E+02  0.65118254243E+01  0.40960911452E+02  0.51100000000E-03 0.  1.
         22    1    1    0    0    0 -0.24496201361E+02  0.16053564894E+02  0.17192672636E+01  0.29338314656E+02  0.00000000000E+00 0. -1.
</event>
<event>
 5    1  0.1681111E-003  0.9118800E+02  0.7818608E-02  0.1130116E+00
         25   -1    0    0    0    0  0.00000000000E+00  0.00000000000E+00  0.99999998245E-14  0.12500000000E+03  0.12500000000E+03 0.  0.
        -11    1    3    3    0    0 -0.19931290927E+02  0.27688132068E+02  0.51997054740E+02  0.62189892405E+02  0.51100000000E-03 0. -1.
         23    2    1    0    0    0 -0.16887789484E+02  0.21992974852E+02  0.35168448362E+02  0.80214867013E+02  0.66548604442E+02 0.  0.
         11    1    3    3    0    0  0.30435014428E+01 -0.56951572157E+01 -0.16828606378E+02  0.18024974608E+02  0.51100000000E-03 0.  1.
         22    1    1    0    0    0  0.16887789484E+02 -0.21992974852E+02 -0.35168448362E+02  0.44785132987E+02  0.00000000000E+00 0. -1.
</event>
<event>
 5    1  0.1681111E-003  0.9118800E+02  0.7818608E-02  0.1130116E+00
         25   -1    0    0    0    0  0.00000000000E+00  0.00000000000E+00  0.99999998245E-14  0.12500000000E+03  0.12500000000E+03 0.  0.
        -11    1    3    3    0    0 -0.76240818430E+01  0.87542617281E+01  0.26139406422E+02  0.28601263796E+02  0.51100000000E-03 0.  1.
         23    2    1    0    0    0 -0.26985671665E+01 -0.23930496583E+02 -0.25507865754E+02  0.89920060622E+02  0.82795018905E+02 0.  0.
         11    1    3    3    0    0  0.49255146765E+01 -0.32684758311E+02 -0.51647272176E+02  0.61318796826E+02  0.51100000000E-03 0. -1.
         22    1    1    0    0    0  0.26985671665E+01  0.23930496583E+02  0.25507865754E+02  0.35079939378E+02  0.00000000000E+00 0. -1.
</event>
<event>
 5    1  0.1681111E-003  0.9118800E+02  0.7818608E-02  0.1130116E+00
         25   -1    0    0    0    0  0.00000000000E+00  0.00000000000E+00  0.99999998245E-14  0.12500000000E+03  0.12500000000E+03 0.  0.
        -11    1    3    3    0    0 -0.21896000397E+02 -0.54063471696E+02  0.20546438298E+02  0.61842137189E+02  0.51100000000E-03 0. -1.
         23    2    1    0    0    0 -0.89425757708E+01 -0.37346444053E+02  0.10940512010E+02  0.85069794042E+02  0.75116233335E+02 0.  0.
         11    1    3    3    0    0  0.12953424626E+02  0.16717027643E+02 -0.96059262878E+01  0.23227656853E+02  0.51100000000E-03 0.  1.
         22    1    1    0    0    0  0.89425757708E+01  0.37346444053E+02 -0.10940512010E+02  0.39930205958E+02  0.00000000000E+00 0. -1.
</event>
<event>
 5    1  0.1681111E-003  0.9118800E+02  0.7818608E-02  0.1130116E+00
         25   -1    0    0    0    0  0.00000000000E+00  0.00000000000E+00  0.99999998245E-14  0.12500000000E+03  0.12500000000E+03 0.  0.
        -11    1    3    3    0    0  0.45579466196E+02  0.42913041332E+01 -0.11525223872E+02  0.47209467435E+02  0.51100000000E-03 0.  1.
         23    2    1    0    0    0  0.14199223800E+02 -0.82771848849E+01  0.23782969288E+02  0.96090496817E+02  0.91638551954E+02 0.  0.
         11    1    3    3    0    0 -0.31380242396E+02 -0.12568489018E+02  0.35308193159E+02  0.48881029383E+02  0.51100000000E-03 0. -1.
         22    1    1    0    0    0 -0.14199223800E+02  0.82771848849E+01 -0.23782969288E+02  0.28909503183E+02  0.00000000000E+00 0.  1.
</event>
<event>
 5    1  0.1681111E-003  0.9118800E+02  0.7818608E-02  0.1130116E+00
         25   -1    0    0    0    0  0.00000000000E+00  0.00000000000E+00  0.99999998245E-14  0.12500000000E+03  0.12500000000E+03 0.  0.
        -11    1    3    3    0    0 -0.32357758112E+02  0.42411890772E+02  0.15762366775E+02  0.55625939952E+02  0.51100000000E-03 0.  1.
         23    2    1    0    0    0 -0.26492644119E+02  0.21628542243E+01  0.94630863396E+01  0.96784966173E+02  0.92580999904E+02 0.  0.
         11    1    3    3    0    0  0.58651139928E+01 -0.40249036548E+02 -0.62992804357E+01  0.41159026221E+02  0.51100000000E-03 0. -1.
         22    1    1    0    0    0  0.26492644119E+02 -0.21628542243E+01 -0.94630863396E+01  0.28215033827E+02  0.00000000000E+00 0.  1.
</event>
<event>
 5    1  0.1681111E-003  0.9118800E+02  0.7818608E-02  0.1130116E+00
         25   -1    0    0    0    0  0.00000000000E+00  0.00000000000E+00  0.99999998245E-14  0.12500000000E+03  0.12500000000E+03 0.  0.
        -11    1    3    3    0    0 -0.40294929415E+01  0.11736532962E+02  0.26301201681E+02  0.29081544482E+02  0.51100000000E-03 0.  1.
         23    2    1    0    0    0  0.23134955391E+02 -0.25918092498E+02 -0.10912652932E+02  0.88584897725E+02  0.80754098542E+02 0.  0.
         11    1    3    3    0    0  0.27164448332E+02 -0.37654625460E+02 -0.37213854613E+02  0.59503353243E+02  0.51100000000E-03 0. -1.
         22    1    1    0    0    0 -0.23134955391E+02  0.25918092498E+02  0.10912652932E+02  0.36415102275E+02  0.00000000000E+00 0. -1.
</event>
<event>
 5    1  0.1681111E-003  0.9118800E+02  0.7818608E-02  0.1130116E+00
         25   -1    0    0    0    0  0.00000000000E+00  0.00000000000E+00  0.99999998245E-14  0.12500000000E+03  0.12500000000E+03 0.  0.
        -11    1    3    3    0    0 -0.31028146249E+02 -0.75689176695E+00  0.23725418862E+02  0.39066792104E+02  0.51100000000E-03 0. -1.
         23    2    1    0    0    0  0.22092995081E+02  0.13406341366E+02  0.16055741032E+02  0.94576041669E+02  0.89548927504E+02 0.  0.
         11    1    3    3    0    0  0.53121141330E+02  0.14163233133E+02 -0.76696778306E+01  0.55509249565E+02  0.51100000000E-03 0.  1.
         22    1    1    0    0    0 -0.22092995081E+02 -0.13406341366E+02 -0.16055741032E+02  0.30423958331E+02  0.00000000000E+00 0.  1.
</event>
<event>
 5    1  0.1681111E-003  0.9118800E+02  0.7818608E-02  0.1130116E+00
         25   -1    0    0    0    0  0.00000000000E+00  0.00000000000E+00  0.99999998245E-14  0.12500000000E+03  0.12500000000E+03 0.  0.
        -11    1    3    3    0    0  0.34799999658E+02  0.18156398303E+02 -0.33025030257E+02  0.51296660703E+02  0.51100000000E-03 0.  1.
         23    2    1    0    0    0 -0.82579129480E+01  0.13431352495E+02 -0.25139977940E+02  0.95324878316E+02  0.90588186752E+02 0.  0.
         11    1    3    3    0    0 -0.43057912606E+02 -0.47250458073E+01  0.78850523169E+01  0.44028217613E+02  0.51100000000E-03 0. -1.
         22    1    1    0    0    0  0.82579129480E+01 -0.13431352495E+02  0.25139977940E+02  0.29675121684E+02  0.00000000000E+00 0. -1.
</event>
<event>
 5    1  0.1681111E-003  0.9118800E+02  0.7818608E-02  0.1130116E+00
         25   -1    0    0    0    0  0.00000000000E+00  0.00000000000E+00  0.99999998245E-14  0.12500000000E+03  0.12500000000E+03 0.  0.
        -11    1    3    3    0    0  0.30029751330E+02  0.22980001284E+02 -0.12218268912E+02  0.39738552055E+02  0.51100000000E-03 0. -1.
         23    2    1    0    0    0  0.14192381831E+02 -0.25820358071E+02  0.73228471136E+01  0.94639850415E+02  0.89637952920E+02 0.  0.
         11    1    3    3    0    0 -0.15837369499E+02 -0.48800359355E+02  0.19541116025E+02  0.54901298360E+02  0.51100000000E-03 0.  1.
         22    1    1    0    0    0 -0.14192381831E+02  0.25820358071E+02 -0.73228471136E+01  0.30360149585E+02  0.00000000000E+00 0.  1.
</event>
<event>
 5    1  0.1681111E-003  0.9118800E+02  0.7818608E-02  0.1130116E+00
         25   -1    0    0    0    0  0.00000000000E+00  0.00000000000E+00  0.99999998245E-14  0.12500000000E+03  0.12500000000E+03 0.  0.
        -11    1    3    3    0    0 -0.24196358323E+02  0.14065932710E+02 -0.38128502103E+02  0.47297958645E+02  0.51100000000E-03 0. -1.
         23    2    1    0    0    0  0.18175295484E+02 -0.29813610158E+01 -0.23262646320E+02  0.95328791847E+02  0.90593586759E+02 0.  0.
         11    1    3    3    0    0  0.42371653807E+02 -0.17047293726E+02  0.14865855783E+02  0.48030833203E+02  0.51100000000E-03 0.  1.
         22    1    1    0    0    0 -0.18175295484E+02  0.29813610158E+01  0.23262646320E+02  0.29671208153E+02  0.00000000000E+00 0. -1.
</event>
<event>
 5    1  0.1681111E-003  0.9118800E+02  0.7818608E-02  0.1130116E+00
         25   -1    0    0    0    0  0.00000000000E+00  0.00000000000E+00  0.99999998245E-14  0.12500000000E+03  0.12500000000E+03 0.  0.
        -11    1    3    3    0    0  0.19825811131E+02 -0.28689229099E+02  0.18590827156E+01  0.34922640824E+02  0.51100000000E-03 0.  1.
         23    2    1    0    0    0 -0.85882982618E+01  0.20492111277E+02 -0.19333836571E+02  0.95546940258E+02  0.90894087072E+02 0.  0.
         11    1    3    3    0    0 -0.28414109393E+02  0.49181340376E+02 -0.21192919286E+02  0.60624299434E+02  0.51100000000E-03 0. -1.
         22    1    1    0    0    0  0.85882982618E+01 -0.20492111277E+02  0.19333836571E+02  0.29453059742E+02  0.00000000000E+00 0. -1.
</event>
<event>
 5    1  0.1681111E-003  0.9118800E+02  0.7818608E-02  0.1130116E+00
         25   -1    0    0    0    0  0.00000000000E+00  0.00000000000E+00  0.99999998245E-14  0.12500000000E+03  0.12500000000E+03 0.  0.
        -11    1    3    3    0    0  0.15431790989E+00  0.40991640085E+01 -0.35548519971E+02  0.35784413254E+02  0.51100000000E-03 0.  1.
         23    2    1    0    0    0 -0.63283923056E+01  0.16237278262E+02  0.23121481709E+02  0.96046577560E+02  0.91578624089E+02 0.  0.
         11    1    3    3    0    0 -0.64827102155E+01  0.12138114254E+02  0.58670001680E+02  0.60262164306E+02  0.51100000000E-03 0. -1.
         22    1    1    0    0    0  0.63283923056E+01 -0.16237278262E+02 -0.23121481709E+02  0.28953422440E+02  0.00000000000E+00 0. -1.
</event>
<event>
 5    1  0.1681111E-003  0.9118800E+02  0.7818608E-02  0.1130116E+00
         25   -1    0    0    0    0  0.00000000000E+00  0.00000000000E+00  0.99999998245E-14  0.12500000000E+03  0.12500000000E+03 0.  0.
        -11    1    3    3    0    0  0.26589523919E+02  0.10254845407E+02 -0.20593473531E+02  0.35160429305E+02  0.51100000000E-03 0.  1.
         23    2    1    0    0    0 -0.19426622035E+02 -0.19958218038E+02  0.63268056965E+01  0.96438617309E+02  0.92112183381E+02 0.  0.
         11    1    3    3    0    0 -0.46016145954E+02 -0.30213063444E+02  0.26920279228E+02  0.61278188004E+02  0.51100000000E-03 0. -1.
         22    1    1    0    0    0  0.19426622035E+02  0.19958218038E+02 -0.63268056965E+01  0.28561382691E+02  0.00000000000E+00 0. -1.
</event>
<event>
 5    1  0.1681111E-003  0.9118800E+02  0.7818608E-02  0.1130116E+00
         25   -1    0    0    0    0  0.00000000000E+00  0.00000000000E+00  0.99999998245E-14  0.12500000000E+03  0.12500000000E+03 0.  0.
        -11    1    3    3    0    0 -0.15282874608E+02  0.29117264328E+02 -0.14238048971E+02  0.35834388191E+02  0.51100000000E-03 0.  1.
         23    2    1    0    0    0 -0.84718722963E+01 -0.23240616371E+02  0.14882527913E+02  0.96131530928E+02  0.91694507643E+02 0.  0.
         11    1    3    3    0    0  0.68110023122E+01 -0.52357880699E+02  0.29120576885E+02  0.60297142736E+02  0.51100000000E-03 0. -1.
         22    1    1    0    0    0  0.84718722963E+01  0.23240616371E+02 -0.14882527913E+02  0.28868469072E+02  0.00000000000E+00 0. -1.
</event>
<event>
 5    1  0.1681111E-003  0.9118800E+02  0.7818608E-02  0.1130116E+00
         25   -1    0    0    0    0  0.00000000000E+00  0.00000000000E+00  0.99999998245E-14  0.12500000000E+03  0.12500000000E+03 0.  0.
        -11    1    3    3    0    0  0.30922606696E+02  0.15317758058E+02  0.32303872850E+02  0.47269244950E+02  0.51100000000E-03 0. -1.
         23    2    1    0    0    0 -0.10209054171E+02  0.26203322733E+02  0.13978786508E+02  0.93595456037E+02  0.88169518595E+02 0.  0.
         11    1    3    3    0    0 -0.41131660867E+02  0.10885564675E+02 -0.18325086342E+02  0.46326211087E+02  0.51100000000E-03 0.  1.
         22    1    1    0    0    0  0.10209054171E+02 -0.26203322733E+02 -0.13978786508E+02  0.31404543963E+02  0.00000000000E+00 0. -1.
</event>
<event>
 5    1  0.1681111E-003  0.9118800E+02  0.7818608E-02  0.1130116E+00
         25   -1    0    0    0    0  0.00000000000E+00  0.00000000000E+00  0.99999998245E-14  0.12500000000E+03  0.12500000000E+03 0.  0.
        -11    1    3    3    0    0 -0.16775883603E+02 -0.23407303735E+02  0.16617164705E+02  0.33248493228E+02  0.51100000000E-03 0.  1.
         23    2    1    0    0    0  0.10289583973E+02  0.22080920361E+02 -0.16400102552E+02  0.95633251013E+02  0.91012706548E+02 0.  0.
         11    1    3    3    0    0  0.27065467576E+02  0.45488224096E+02 -0.33017267257E+02  0.62384757785E+02  0.51100000000E-03 0. -1.
         22    1    1    0    0    0 -0.10289583973E+02 -0.22080920361E+02  0.16400102552E+02  0.29366748987E+02  0.00000000000E+00 0. -1.
</event>
<event>
 5    1  0.1681111E-003  0.9118800E+02  0.7818608E-02  0.1130116E+00
         25   -1    0    0    0    0  0.00000000000E+00  0.00000000000E+00  0.99999998245E-14  0.12500000000E+03  0.12500000000E+03 0.  0.
        -11    1    3    3    0    0 -0.24894644965E+02 -0.55929431163E+02  0.33882085972E+01  0.61313331144E+02  0.51100000000E-03 0.  1.
         23    2    1    0    0    0 -0.17352475120E+02 -0.23250104241E+02  0.73137559374E+01  0.95080662342E+02  0.90250571108E+02 0.  0.
         11    1    3    3    0    0  0.75421698455E+01  0.32679326922E+02  0.39255473402E+01  0.33767331198E+02  0.51100000000E-03 0. -1.
         22    1    1    0    0    0  0.17352475120E+02  0.23250104241E+02 -0.73137559374E+01  0.29919337658E+02  0.00000000000E+00 0.  1.
</event>
<event>
 5    1  0.1681111E-003  0.9118800E+02  0.7818608E-02  0.1130116E+00
         25   -1    0    0    0    0  0.00000000000E+00  0.00000000000E+00  0.99999998245E-14  0.12500000000E+03  0.12500000000E+03 0.  0.
        -11    1    3    3    0    0  0.25493505954E+02  0.38714975314E+02  0.69894202565E+01  0.46878781503E+02  0.51100000000E-03 0.  1.
         23    2    1    0    0    0  0.28593192040E+02 -0.49466651236E+01 -0.10675790646E+02  0.94080546046E+02  0.88854580701E+02 0.  0.
         11    1    3    3    0    0  0.30996860857E+01 -0.43661640438E+02 -0.17665210902E+02  0.47201764543E+02  0.51100000000E-03 0. -1.
         22    1    1    0    0    0 -0.28593192040E+02  0.49466651236E+01  0.10675790646E+02  0.30919453954E+02  0.00000000000E+00 0.  1.
</event>
<event>
 5    1  0.1681111E-003  0.9118800E+02  0.7818608E-02  0.1130116E+00
         25   -1    0    0    0    0  0.00000000000E+00  0.00000000000E+00  0.99999998245E-14  0.12500000000E+03  0.12500000000E+03 0.  0.
        -11    1    3    3    0    0 -0.13998475296E+02 -0.28645618954E+02 -0.20211849224E+02  0.37749803247E+02  0.51100000000E-03 0.  1.
         23    2    1    0    0    0 -0.66348679953E+01  0.47996811363E+01  0.27402104617E+02  0.96400458924E+02  0.92060386328E+02 0.  0.
         11    1    3    3    0    0  0.73636073004E+01  0.33445300090E+02  0.47613953842E+02  0.58650655677E+02  0.51100000000E-03 0. -1.
         22    1    1    0    0    0  0.66348679953E+01 -0.47996811363E+01 -0.27402104617E+02  0.28599541076E+02  0.00000000000E+00 0.  1.
</event>
<event>
 5    1  0.1681111E-003  0.9118800E+02  0.7818608E-02  0.1130116E+00
         25   -1    0    0    0    0  0.00000000000E+00  0.00000000000E+00  0.99999998245E-14  0.12500000000E+03  0.12500000000E+03 0.  0.
        -11    1    3    3    0    0 -0.29670353534E+02 -0.27715455527E+02 -0.15708394097E+02  0.43534239390E+02  0.51100000000E-03 0. -1.
         23    2    1    0    0    0 -0.98988916523E+01 -0.60093919475E+01  0.27149010284E+02  0.95484417557E+02  0.90808063460E+02 0.  0.
         11    1    3    3    0    0  0.19771461882E+02  0.21706063580E+02  0.42857404381E+02  0.51950178167E+02  0.51100000000E-03 0.  1.
         22    1    1    0    0    0  0.98988916523E+01  0.60093919475E+01 -0.27149010284E+02  0.29515582443E+02  0.00000000000E+00 0.  1.
</event>
<event>
 5    1  0.1681111E-003  0.9118800E+02  0.7818608E-02  0.1130116E+00
         25   -1    0    0    0    0  0.00000000000E+00  0.00000000000E+00  0.99999998245E-14  0.12500000000E+03  0.12500000000E+03 0.  0.
        -11    1    3    3    0    0  0.26851764761E+02  0.23552680855E+02 -0.51006804909E+02  0.62269095011E+02  0.51100000000E-03 0.  1.
         23    2    1    0    0    0  0.13771581895E+02  0.14310745821E+02 -0.22327193152E+02  0.95117606055E+02  0.90301724866E+02 0.  0.
         11    1    3    3    0    0 -0.13080182866E+02 -0.92419350343E+01  0.28679611757E+02  0.32848511043E+02  0.51100000000E-03 0. -1.
         22    1    1    0    0    0 -0.13771581895E+02 -0.14310745821E+02  0.22327193152E+02  0.29882393945E+02  0.00000000000E+00 0.  1.
</event>
<event>
 5    1  0.1681111E-003  0.9118800E+02  0.7818608E-02  0.1130116E+00
         25   -1    0    0    0    0  0.00000000000E+00  0.00000000000E+00  0.99999998245E-14  0.12500000000E+03  0.12500000000E+03 0.  0.
        -11    1    3    3    0    0  0.41314897706E+02 -0.13568364905E+02 -0.24764325365E+02  0.50042912682E+02  0.51100000000E-03 0. -1.
         23    2    1    0    0    0  0.83779125062E+01 -0.31930561619E+02 -0.10524969675E+02  0.90351404503E+02  0.83443700336E+02 0.  0.
         11    1    3    3    0    0 -0.32936985199E+02 -0.18362196714E+02  0.14239355690E+02  0.40308491821E+02  0.51100000000E-03 0.  1.
         22    1    1    0    0    0 -0.83779125062E+01  0.31930561619E+02  0.10524969675E+02  0.34648595497E+02  0.00000000000E+00 0. -1.
</event>
<event>
 5    1  0.1681111E-003  0.9118800E+02  0.7818608E-02  0.1130116E+00
         25   -1    0    0    0    0  0.00000000000E+00  0.00000000000E+00  0.99999998245E-14  0.12500000000E+03  0.12500000000E+03 0.  0.
        -11    1    3    3    0    0  0.35720122316E+02  0.30600920607E+02  0.10019796896E+02  0.48090953519E+02  0.51100000000E-03 0.  1.
         23    2    1    0    0    0  0.19834311401E+02  0.60625858689E+00 -0.22432425576E+02  0.95050356005E+02  0.90208586073E+02 0.  0.
         11    1    3    3    0    0 -0.15885810916E+02 -0.29994662020E+02 -0.32452222472E+02  0.46959402486E+02  0.51100000000E-03 0. -1.
         22    1    1    0    0    0 -0.19834311401E+02 -0.60625858689E+00  0.22432425576E+02  0.29949643995E+02  0.00000000000E+00 0.  1.
</event>
<event>
 5    1  0.1681111E-003  0.9118800E+02  0.7818608E-02  0.1130116E+00
         25   -1    0    0    0    0  0.00000000000E+00  0.00000000000E+00  0.99999998245E-14  0.12500000000E+03  0.12500000000E+03 0.  0.
        -11    1    3    3    0    0 -0.13766754259E+01  0.59758306762E+02 -0.48631246065E+01  0.59971663672E+02  0.51100000000E-03 0. -1.
         23    2    1    0    0    0  0.11113870851E+02  0.26182195529E+02 -0.64633181049E+01  0.95831524398E+02  0.91284615898E+02 0.  0.
         11    1    3    3    0    0  0.12490546276E+02 -0.33576111234E+02 -0.16001934984E+01  0.35859860727E+02  0.51100000000E-03 0.  1.
         22    1    1    0    0    0 -0.11113870851E+02 -0.26182195529E+02  0.64633181049E+01  0.29168475602E+02  0.00000000000E+00 0. -1.
</event>
<event>
 5    1  0.1681111E-003  0.9118800E+02  0.7818608E-02  0.1130116E+00
         25   -1    0    0    0    0  0.00000000000E+00  0.00000000000E+00  0.99999998245E-14  0.12500000000E+03  0.12500000000E+03 0.  0.
        -11    1    3    3    0    0 -0.37887830060E+02 -0.33113823839E+02 -0.29159228821E+02  0.58157317868E+02  0.51100000000E-03 0. -1.
         23    2    1    0    0    0 -0.24412701504E+02 -0.10931605473E+01 -0.18010599115E+02  0.94642848039E+02  0.89642133005E+02 0.  0.
         11    1    3    3    0    0  0.13475128556E+02  0.32020663292E+02  0.11148629706E+02  0.36485530171E+02  0.51100000000E-03 0.  1.
         22    1    1    0    0    0  0.24412701504E+02  0.10931605473E+01  0.18010599115E+02  0.30357151961E+02  0.00000000000E+00 0. -1.
</event>
<event>
 5    1  0.1681111E-003  0.9118800E+02  0.7818608E-02  0.1130116E+00
         25   -1    0    0    0    0  0.00000000000E+00  0.00000000000E+00  0.99999998245E-14  0.12500000000E+03  0.12500000000E+03 0.  0.
        -11    1    3    3    0    0 -0.11646917867E+01  0.22956486467E+02  0.30673582967E+02  0.38330477040E+02  0.51100000000E-03 0. -1.
         23    2    1    0    0    0 -0.17218393562E+02  0.19300826641E+02 -0.20441976159E+02  0.92032298000E+02  0.85924818883E+02 0.  0.
         11    1    3    3    0    0 -0.16053701775E+02 -0.36556598259E+01 -0.51115559125E+02  0.53701820960E+02  0.51100000000E-03 0.  1.
         22    1    1    0    0    0  0.17218393562E+02 -0.19300826641E+02  0.20441976159E+02  0.32967702000E+02  0.00000000000E+00 0.  1.
</event>
<event>
 5    1  0.1681111E-003  0.9118800E+02  0.7818608E-02  0.1130116E+00
         25   -1    0    0    0    0  0.00000000000E+00  0.00000000000E+00  0.99999998245E-14  0.12500000000E+03  0.12500000000E+03 0.  0.
        -11    1    3    3    0    0  0.23529607610E+02 -0.91575572848E+01  0.24971342639E+02  0.35511564922E+02  0.51100000000E-03 0.  1.
         23    2    1    0    0    0 -0.43513542143E+01 -0.60491696153E+01 -0.28309256555E+02  0.95726449767E+02  0.91140619055E+02 0.  0.
         11    1    3    3    0    0 -0.27880961824E+02  0.31083876695E+01 -0.53280599195E+02  0.60214884845E+02  0.51100000000E-03 0. -1.
         22    1    1    0    0    0  0.43513542143E+01  0.60491696153E+01  0.28309256555E+02  0.29273550233E+02  0.00000000000E+00 0. -1.
</event>
<event>
 5    1  0.1681111E-003  0.9118800E+02  0.7818608E-02  0.1130116E+00
         25   -1    0    0    0    0  0.00000000000E+00  0.00000000000E+00  0.99999998245E-14  0.12500000000E+03  0.12500000000E+03 0.  0.
        -11    1    3    3    0    0  0.13613759285E+02  0.50203661570E+02  0.10654537684E+02  0.53096716004E+02  0.51100000000E-03 0. -1.
         23    2    1    0    0    0 -0.80366604054E+01  0.21310560591E+02  0.24300991006E+02  0.91694353827E+02  0.85431776621E+02 0.  0.
         11    1    3    3    0    0 -0.21650419691E+02 -0.28893100979E+02  0.13646453322E+02  0.38597637823E+02  0.51100000000E-03 0.  1.
         22    1    1    0    0    0  0.80366604054E+01 -0.21310560591E+02 -0.24300991006E+02  0.33305646173E+02  0.00000000000E+00 0. -1.
</event>
<event>
 5    1  0.1681111E-003  0.9118800E+02  0.7818608E-02  0.1130116E+00
         25   -1    0    0    0    0  0.00000000000E+00  0.00000000000E+00  0.99999998245E-14  0.12500000000E+03  0.12500000000E+03 0.  0.
        -11    1    3    3    0    0 -0.32011180450E+02 -0.47393307626E+02 -0.18593178377E+02  0.60137738267E+02  0.51100000000E-03 0.  1.
         23    2    1    0    0    0 -0.62810281107E+01 -0.28993476465E+02 -0.36883097247E+01  0.95105575431E+02  0.90285069961E+02 0.  0.
         11    1    3    3    0    0  0.25730152339E+02  0.18399831161E+02  0.14904868653E+02  0.34967837164E+02  0.51100000000E-03 0. -1.
         22    1    1    0    0    0  0.62810281107E+01  0.28993476465E+02  0.36883097247E+01  0.29894424569E+02  0.00000000000E+00 0.  1.
</event>
<event>
 5    1  0.1681111E-003  0.9118800E+02  0.7818608E-02  0.1130116E+00
         25   -1    0    0    0    0  0.00000000000E+00  0.00000000000E+00  0.99999998245E-14  0.12500000000E+03  0.12500000000E+03 0.  0.
        -11    1    3    3    0    0 -0.54965265725E+01 -0.77437368548E+01  0.38966590412E+02  0.40107012272E+02  0.51100000000E-03 0.  1.
         23    2    1    0    0    0 -0.95153814311E+01  0.25828465572E+02 -0.64511011263E+01  0.96728657207E+02  0.92504942039E+02 0.  0.
         11    1    3    3    0    0 -0.40188548586E+01  0.33572202427E+02 -0.45417691538E+02  0.56621644934E+02  0.51100000000E-03 0. -1.
         22    1    1    0    0    0  0.95153814311E+01 -0.25828465572E+02  0.64511011263E+01  0.28271342793E+02  0.00000000000E+00 0. -1.
</event>
<event>
 5    1  0.1681111E-003  0.9118800E+02  0.7818608E-02  0.1130116E+00
         25   -1    0    0    0    0  0.00000000000E+00  0.00000000000E+00  0.99999998245E-14  0.12500000000E+03  0.12500000000E+03 0.  0.
        -11    1    3    3    0    0  0.14000926322E+02  0.63844568802E+01 -0.38117775546E+02  0.41106593636E+02  0.51100000000E-03 0.  1.
         23    2    1    0    0    0  0.18467145817E+01  0.28382372149E+02  0.95526262555E+01  0.94996299029E+02  0.90133649417E+02 0.  0.
         11    1    3    3    0    0 -0.12154211740E+02  0.21997915269E+02  0.47670401801E+02  0.53889705393E+02  0.51100000000E-03 0. -1.
         22    1    1    0    0    0 -0.18467145817E+01 -0.28382372149E+02 -0.95526262555E+01  0.30003700971E+02  0.00000000000E+00 0. -1.
</event>
<event>
 5    1  0.1681111E-003  0.9118800E+02  0.7818608E-02  0.1130116E+00
         25   -1    0    0    0    0  0.00000000000E+00  0.00000000000E+00  0.99999998245E-14  0.12500000000E+03  0.12500000000E+03 0.  0.
        -11    1    3    3    0    0  0.10489460012E+02 -0.59796849175E+02 -0.13618451250E+02  0.62218599770E+02  0.51100000000E-03 0. -1.
         23    2    1    0    0    0  0.62162710764E+01 -0.29441969540E+02 -0.25844576786E+01  0.94798162010E+02  0.89858447029E+02 0.  0.
         11    1    3    3    0    0 -0.42731889357E+01  0.30354879635E+02  0.11033993572E+02  0.32579562240E+02  0.51100000000E-03 0.  1.
         22    1    1    0    0    0 -0.62162710764E+01  0.29441969540E+02  0.25844576786E+01  0.30201837990E+02  0.00000000000E+00 0. -1.
</event>
<event>
 5    1  0.1681111E-003  0.9118800E+02  0.7818608E-02  0.1130116E+00
         25   -1    0    0    0    0  0.00000000000E+00  0.00000000000E+00  0.99999998245E-14  0.12500000000E+03  0.12500000000E+03 0.  0.
        -11    1    3    3    0    0 -0.22539296615E+02 -0.35785723734E+02  0.91824303800E+01  0.43277649463E+02  0.51100000000E-03 0. -1.
         23    2    1    0    0    0  0.19474116209E+02 -0.59108406101E+01  0.20560436527E+02  0.96070589549E+02  0.91611393327E+02 0.  0.
         11    1    3    3    0    0  0.42013412825E+02  0.29874883124E+02  0.11378006147E+02  0.52792940087E+02  0.51100000000E-03 0.  1.
         22    1    1    0    0    0 -0.19474116209E+02  0.59108406101E+01 -0.20560436527E+02  0.28929410451E+02  0.00000000000E+00 0. -1.
</event>
<event>
 5    1  0.1681111E-003  0.9118800E+02  0.7818608E-02  0.1130116E+00
         25   -1    0    0    0    0  0.00000000000E+00  0.00000000000E+00  0.99999998245E-14  0.12500000000E+03  0.12500000000E+03 0.  0.
        -11    1    3    3    0    0  0.15919188435E+02  0.18050569220E+02 -0.28114805594E+02  0.37009267805E+02  0.51100000000E-03 0.  1.
         23    2    1    0    0    0  0.87856353807E+01  0.14503225129E+01  0.27819900577E+02  0.95789767331E+02  0.91227418208E+02 0.  0.
         11    1    3    3    0    0 -0.71335530543E+01 -0.16600246707E+02  0.55934706171E+02  0.58780499527E+02  0.51100000000E-03 0. -1.
         22    1    1    0    0    0 -0.87856353807E+01 -0.14503225129E+01 -0.27819900577E+02  0.29210232669E+02  0.00000000000E+00 0. -1.
</event>
<event>
 5    1  0.1681111E-003  0.9118800E+02  0.7818608E-02  0.1130116E+00
         25   -1    0    0    0    0  0.00000000000E+00  0.00000000000E+00  0.99999998245E-14  0.12500000000E+03  0.12500000000E+03 0.  0.
        -11    1    3    3    0    0  0.24856647116E+02  0.27274176270E+02  0.34859698314E+02  0.50763492432E+02  0.51100000000E-03 0. -1.
         23    2    1    0    0    0  0.16864511582E+02  0.11315469871E+02 -0.12347552661E+02  0.10123208747E+03  0.98402346860E+02 0.  0.
         11    1    3    3    0    0 -0.79921355347E+01 -0.15958706399E+02 -0.47207250975E+02  0.50468595039E+02  0.51100000000E-03 0.  1.
         22    1    1    0    0    0 -0.16864511582E+02 -0.11315469871E+02  0.12347552661E+02  0.23767912529E+02  0.00000000000E+00 0.  1.
</event>
<event>
 5    1  0.1681111E-003  0.9118800E+02  0.7818608E-02  0.1130116E+00
         25   -1    0    0    0    0  0.00000000000E+00  0.00000000000E+00  0.99999998245E-14  0.12500000000E+03  0.12500000000E+03 0.  0.
        -11    1    3    3    0    0 -0.49980597973E+02  0.11178352563E+02 -0.19844407083E+02  0.54925551727E+02  0.51100000000E-03 0.  1.
         23    2    1    0    0    0 -0.23531032588E+02  0.27123295687E+02 -0.67876744216E+01  0.88456119696E+02  0.80554515231E+02 0.  0.
         11    1    3    3    0    0  0.26449565385E+02  0.15944943124E+02  0.13056732661E+02  0.33530567969E+02  0.51100000000E-03 0. -1.
         22    1    1    0    0    0  0.23531032588E+02 -0.27123295687E+02  0.67876744216E+01  0.36543880304E+02  0.00000000000E+00 0.  1.
</event>
<event>
 5    1  0.1681111E-003  0.9118800E+02  0.7818608E-02  0.1130116E+00
         25   -1    0    0    0    0  0.00000000000E+00  0.00000000000E+00  0.99999998245E-14  0.12500000000E+03  0.12500000000E+03 0.  0.
        -11    1    3    3    0    0 -0.72418616133E+01 -0.45821099859E+02  0.24878963794E+02  0.52640104403E+02  0.51100000000E-03 0. -1.
         23    2    1    0    0    0 -0.37045823150E+01 -0.23575721289E+02 -0.13823791957E+02  0.97420373670E+02  0.93434968922E+02 0.  0.
         11    1    3    3    0    0  0.35372792983E+01  0.22245378569E+02 -0.38702755752E+02  0.44780269266E+02  0.51100000000E-03 0.  1.
         22    1    1    0    0    0  0.37045823150E+01  0.23575721289E+02  0.13823791957E+02  0.27579626330E+02  0.00000000000E+00 0. -1.
</event>
<event>
 5    1  0.1681111E-003  0.9118800E+02  0.7818608E-02  0.1130116E+00
         25   -1    0    0    0    0  0.00000000000E+00  0.00000000000E+00  0.99999998245E-14  0.12500000000E+03  0.12500000000E+03 0.  0.
        -11    1    3    3    0    0 -0.46865393066E+02  0.11758555665E+02 -0.14597560172E+02  0.50474919137E+02  0.51100000000E-03 0. -1.
         23    2    1    0    0    0 -0.98975197254E+01  0.75754503569E+01 -0.31340106675E+02  0.91272405493E+02  0.84812153453E+02 0.  0.
         11    1    3    3    0    0  0.36967873341E+02 -0.41831053086E+01 -0.16742546502E+02  0.40797486357E+02  0.51100000000E-03 0.  1.
         22    1    1    0    0    0  0.98975197254E+01 -0.75754503569E+01  0.31340106675E+02  0.33727594507E+02  0.00000000000E+00 0. -1.
</event>
<event>
 5    1  0.1681111E-003  0.9118800E+02  0.7818608E-02  0.1130116E+00
         25   -1    0    0    0    0  0.00000000000E+00  0.00000000000E+00  0.99999998245E-14  0.12500000000E+03  0.12500000000E+03 0.  0.
        -11    1    3    3    0    0  0.27637321434E+02 -0.38198588738E+02 -0.33028521109E+02  0.57565935453E+02  0.51100000000E-03 0.  1.
         23    2    1    0    0    0  0.18446115963E+02 -0.27650474288E+01 -0.22736826886E+02  0.95591362183E+02  0.90955156785E+02 0.  0.
         11    1    3    3    0    0 -0.91912054712E+01  0.35433541310E+02  0.10291694223E+02  0.38025426730E+02  0.51100000000E-03 0. -1.
         22    1    1    0    0    0 -0.18446115963E+02  0.27650474288E+01  0.22736826886E+02  0.29408637817E+02  0.00000000000E+00 0.  1.
</event>
<event>
 5    1  0.1681111E-003  0.9118800E+02  0.7818608E-02  0.1130116E+00
         25   -1    0    0    0    0  0.00000000000E+00  0.00000000000E+00  0.99999998245E-14  0.12500000000E+03  0.12500000000E+03 0.  0.
        -11    1    3    3    0    0 -0.31555962260E+02  0.24703166358E+02 -0.15268773910E+02  0.42885436214E+02  0.51100000000E-03 0.  1.
         23    2    1    0    0    0  0.12043862045E+02 -0.46816862662E+01 -0.25466328097E+02  0.96442922664E+02  0.92118025739E+02 0.  0.
         11    1    3    3    0    0  0.43599824305E+02 -0.29384852624E+02 -0.10197554186E+02  0.53557486450E+02  0.51100000000E-03 0. -1.
         22    1    1    0    0    0 -0.12043862045E+02  0.46816862662E+01  0.25466328097E+02  0.28557077336E+02  0.00000000000E+00 0. -1.
</event>
<event>
 5    1  0.1681111E-003  0.9118800E+02  0.7818608E-02  0.1130116E+00
         25   -1    0    0    0    0  0.00000000000E+00  0.00000000000E+00  0.99999998245E-14  0.12500000000E+03  0.12500000000E+03 0.  0.
        -11    1    3    3    0    0 -0.99895463184E+00 -0.24246306908E+02 -0.24512651886E+02  0.34492773327E+02  0.51100000000E-03 0.  1.
         23    2    1    0    0    0 -0.45396871528E+01  0.41005449717E+01  0.29112103898E+02  0.95252095504E+02  0.90487700137E+02 0.  0.
         11    1    3    3    0    0 -0.35407325210E+01  0.28346851880E+02  0.53624755784E+02  0.60759322177E+02  0.51100000000E-03 0. -1.
         22    1    1    0    0    0  0.45396871528E+01 -0.41005449717E+01 -0.29112103898E+02  0.29747904496E+02  0.00000000000E+00 0. -1.
</event>
<event>
 5    1  0.1681111E-003  0.9118800E+02  0.7818608E-02  0.1130116E+00
         25   -1    0    0    0    0  0.00000000000E+00  0.00000000000E+00  0.99999998245E-14  0.12500000000E+03  0.12500000000E+03 0.  0.
        -11    1    3    3    0    0  0.19523284135E+02 -0.27010855772E+02 -0.19883906970E+02  0.38808693737E+02  0.51100000000E-03 0.  1.
         23    2    1    0    0    0 -0.29013383292E+02 -0.19862929508E+01 -0.42561394905E+01  0.95608904527E+02  0.90979262098E+02 0.  0.
         11    1    3    3    0    0 -0.48536667426E+02  0.25024562821E+02  0.15627767480E+02  0.56800210791E+02  0.51100000000E-03 0. -1.
         22    1    1    0    0    0  0.29013383292E+02  0.19862929508E+01  0.42561394905E+01  0.29391095473E+02  0.00000000000E+00 0. -1.
</event>
<event>
 5    1  0.1681111E-003  0.9118800E+02  0.7818608E-02  0.1130116E+00
         25   -1    0    0    0    0  0.00000000000E+00  0.00000000000E+00  0.99999998245E-14  0.12500000000E+03  0.12500000000E+03 0.  0.
        -11    1    3    3    0    0  0.35478344069E+02 -0.24643717878E+02  0.26057673470E+02  0.50448271285E+02  0.51100000000E-03 0. -1.
         23    2    1    0    0    0  0.20014301059E+02  0.15066426669E+02  0.18804915213E+02  0.93675978936E+02  0.88283603993E+02 0.  0.
         11    1    3    3    0    0 -0.15464043010E+02  0.39710144547E+02 -0.72527582572E+01  0.43227707651E+02  0.51100000000E-03 0.  1.
         22    1    1    0    0    0 -0.20014301059E+02 -0.15066426669E+02 -0.18804915213E+02  0.31324021064E+02  0.00000000000E+00 0. -1.
</event>
<event>
 5    1  0.1681111E-003  0.9118800E+02  0.7818608E-02  0.1130116E+00
         25   -1    0    0    0    0  0.00000000000E+00  0.00000000000E+00  0.99999998245E-14  0.12500000000E+03  0.12500000000E+03 0.  0.
        -11    1    3    3    0    0 -0.34440475932E+01  0.21760072298E+02  0.35427294989E+02  0.41718766050E+02  0.51100000000E-03 0. -1.
         23    2    1    0    0    0  0.24238279080E+02 -0.13654489354E+02  0.32666332171E+01  0.96989106675E+02  0.92856215025E+02 0.  0.
         11    1    3    3    0    0  0.27682326673E+02 -0.35414561652E+02 -0.32160661771E+02  0.55270340626E+02  0.51100000000E-03 0.  1.
         22    1    1    0    0    0 -0.24238279080E+02  0.13654489354E+02 -0.32666332171E+01  0.28010893325E+02  0.00000000000E+00 0.  1.
</event>
<event>
 5    1  0.1681111E-003  0.9118800E+02  0.7818608E-02  0.1130116E+00
         25   -1    0    0    0    0  0.00000000000E+00  0.00000000000E+00  0.99999998245E-14  0.12500000000E+03  0.12500000000E+03 0.  0.
        -11    1    3    3    0    0  0.27541310702E+02  0.40637527990E+02 -0.27287118845E+02  0.56165107775E+02  0.51100000000E-03 0. -1.
         23    2    1    0    0    0  0.18623364444E+01  0.33685491817E+02 -0.49513142207E+01  0.90901669125E+02  0.84263973803E+02 0.  0.
         11    1    3    3    0    0 -0.25678974258E+02 -0.69520361729E+01  0.22335804624E+02  0.34736561349E+02  0.51100000000E-03 0.  1.
         22    1    1    0    0    0 -0.18623364444E+01 -0.33685491817E+02  0.49513142207E+01  0.34098330875E+02  0.00000000000E+00 0. -1.
</event>
<event>
 5    1  0.1681111E-003  0.9118800E+02  0.7818608E-02  0.1130116E+00
         25   -1    0    0    0    0  0.00000000000E+00  0.00000000000E+00  0.99999998245E-14  0.12500000000E+03  0.12500000000E+03 0.  0.
        -11    1    3    3    0    0  0.25430470812E+02  0.47478447876E+02  0.19116200344E+02  0.57151911380E+02  0.51100000000E-03 0.  1.
         23    2    1    0    0    0 -0.37847451777E+01  0.20803698640E+02  0.18787364350E+02  0.96714257436E+02  0.92485481882E+02 0.  0.
         11    1    3    3    0    0 -0.29215215990E+02 -0.26674749236E+02 -0.32883599452E+00  0.39562346057E+02  0.51100000000E-03 0. -1.
         22    1    1    0    0    0  0.37847451777E+01 -0.20803698640E+02 -0.18787364350E+02  0.28285742564E+02  0.00000000000E+00 0.  1.
</event>
<event>
 5    1  0.1681111E-003  0.9118800E+02  0.7818608E-02  0.1130116E+00
         25   -1    0    0    0    0  0.00000000000E+00  0.00000000000E+00  0.99999998245E-14  0.12500000000E+03  0.12500000000E+03 0.  0.
        -11    1    3    3    0    0 -0.32075533186E+02  0.95891980559E+00 -0.51026069809E+02  0.60277849636E+02  0.51100000000E-03 0.  1.
         23    2    1    0    0    0 -0.21143718906E+02  0.98198685593E+01 -0.20242352647E+02  0.94125422944E+02  0.88917690793E+02 0.  0.
         11    1    3    3    0    0  0.10931814280E+02  0.88609487537E+01  0.30783717162E+02  0.33847573308E+02  0.51100000000E-03 0. -1.
         22    1    1    0    0    0  0.21143718906E+02 -0.98198685593E+01  0.20242352647E+02  0.30874577056E+02  0.00000000000E+00 0.  1.
</event>
<event>
 5    1  0.1681111E-003  0.9118800E+02  0.7818608E-02  0.1130116E+00
         25   -1    0    0    0    0  0.00000000000E+00  0.00000000000E+00  0.99999998245E-14  0.12500000000E+03  0.12500000000E+03 0.  0.
        -11    1    3    3    0    0  0.46364674219E+02  0.12377100338E+02  0.22465231619E+02  0.52986434681E+02  0.51100000000E-03 0. -1.
         23    2    1    0    0    0  0.25250561449E+02  0.86908758199E+01 -0.13670028896E+02  0.95000135566E+02  0.90138969883E+02 0.  0.
         11    1    3    3    0    0 -0.21114112770E+02 -0.36862245185E+01 -0.36135260516E+02  0.42013700885E+02  0.51100000000E-03 0.  1.
         22    1    1    0    0    0 -0.25250561449E+02 -0.86908758199E+01  0.13670028896E+02  0.29999864434E+02  0.00000000000E+00 0. -1.
</event>
<event>
 5    1  0.1681111E-003  0.9118800E+02  0.7818608E-02  0.1130116E+00
         25   -1    0    0    0    0  0.00000000000E+00  0.00000000000E+00  0.99999998245E-14  0.12500000000E+03  0.12500000000E+03 0.  0.
        -11    1    3    3    0    0  0.47632916442E+01 -0.27616714227E+02  0.45728623960E+02  0.53632815529E+02  0.51100000000E-03 0. -1.
         23    2    1    0    0    0 -0.10616988597E+02 -0.28865256204E+02  0.98234544604E+01  0.92713412690E+02  0.86910029182E+02 0.  0.
         11    1    3    3    0    0 -0.15380280241E+02 -0.12485419773E+01 -0.35905169500E+02  0.39080597161E+02  0.51100000000E-03 0.  1.
         22    1    1    0    0    0  0.10616988597E+02  0.28865256204E+02 -0.98234544604E+01  0.32286587310E+02  0.00000000000E+00 0. -1.
</event>
<event>
 5    1  0.1681111E-003  0.9118800E+02  0.7818608E-02  0.1130116E+00
         25   -1    0    0    0    0  0.00000000000E+00  0.00000000000E+00  0.99999998245E-14  0.12500000000E+03  0.12500000000E+03 0.  0.
        -11    1    3    3    0    0  0.30518159352E+02  0.38264092588E+01  0.14443556227E+02  0.33979637650E+02  0.51100000000E-03 0.  1.
         23    2    1    0    0    0 -0.13447633443E+02 -0.62198151689E+01 -0.26336389661E+02  0.94781952970E+02  0.89835896180E+02 0.  0.
         11    1    3    3    0    0 -0.43965792795E+02 -0.10046224428E+02 -0.40779945888E+02  0.60802315320E+02  0.51100000000E-03 0. -1.
         22    1    1    0    0    0  0.13447633443E+02  0.62198151689E+01  0.26336389661E+02  0.30218047030E+02  0.00000000000E+00 0. -1.
</event>
<event>
 5    1  0.1681111E-003  0.9118800E+02  0.7818608E-02  0.1130116E+00
         25   -1    0    0    0    0  0.00000000000E+00  0.00000000000E+00  0.99999998245E-14  0.12500000000E+03  0.12500000000E+03 0.  0.
        -11    1    3    3    0    0  0.23891026097E+02 -0.58838300518E+01  0.11744131261E+01  0.24632901382E+02  0.51100000000E-03 0. -1.
         23    2    1    0    0    0 -0.37603827450E+02  0.49779433975E+00  0.70543354035E+01  0.86736972335E+02  0.77841140047E+02 0.  0.
         11    1    3    3    0    0 -0.61494853547E+02  0.63816243916E+01  0.58799222774E+01  0.62104070953E+02  0.51100000000E-03 0.  1.
         22    1    1    0    0    0  0.37603827450E+02 -0.49779433975E+00 -0.70543354035E+01  0.38263027665E+02  0.00000000000E+00 0.  1.
</event>
<event>
 5    1  0.1681111E-003  0.9118800E+02  0.7818608E-02  0.1130116E+00
         25   -1    0    0    0    0  0.00000000000E+00  0.00000000000E+00  0.99999998245E-14  0.12500000000E+03  0.12500000000E+03 0.  0.
        -11    1    3    3    0    0  0.18796740033E-01 -0.38715158378E+02 -0.31946006749E+02  0.50193736551E+02  0.51100000000E-03 0.  1.
         23    2    1    0    0    0 -0.23704918484E+02 -0.22722300651E+02 -0.12732764173E+01  0.92138969279E+02  0.86079860128E+02 0.  0.
         11    1    3    3    0    0 -0.23723715224E+02  0.15992857727E+02  0.30672730331E+02  0.41945232728E+02  0.51100000000E-03 0. -1.
         22    1    1    0    0    0  0.23704918484E+02  0.22722300651E+02  0.12732764173E+01  0.32861030721E+02  0.00000000000E+00 0.  1.
</event>
<event>
 5    1  0.1681111E-003  0.9118800E+02  0.7818608E-02  0.1130116E+00
         25   -1    0    0    0    0  0.00000000000E+00  0.00000000000E+00  0.99999998245E-14  0.12500000000E+03  0.12500000000E+03 0.  0.
        -11    1    3    3    0    0 -0.65140984531E+01 -0.27244966753E+02  0.17933755851E+02  0.33261709084E+02  0.51100000000E-03 0. -1.
         23    2    1    0    0    0  0.16894226269E+02  0.23458463411E+02 -0.82439614553E+01  0.94938774354E+02  0.90053837168E+02 0.  0.
         11    1    3    3    0    0  0.23408324722E+02  0.50703430165E+02 -0.26177717306E+02  0.61677065270E+02  0.51100000000E-03 0.  1.
         22    1    1    0    0    0 -0.16894226269E+02 -0.23458463411E+02  0.82439614553E+01  0.30061225646E+02  0.00000000000E+00 0.  1.
</event>
<event>
 5    1  0.1681111E-003  0.9118800E+02  0.7818608E-02  0.1130116E+00
         25   -1    0    0    0    0  0.00000000000E+00  0.00000000000E+00  0.99999998245E-14  0.12500000000E+03  0.12500000000E+03 0.  0.
        -11    1    3    3    0    0 -0.10286934674E+02  0.34191061304E+02  0.33441963804E+02  0.48920493062E+02  0.51100000000E-03 0.  1.
         23    2    1    0    0    0 -0.25962446817E+02 -0.47055792204E+01  0.12181398478E+02  0.95938382884E+02  0.91430824785E+02 0.  0.
         11    1    3    3    0    0 -0.15675512143E+02 -0.38896640525E+02 -0.21260565326E+02  0.47017889822E+02  0.51100000000E-03 0. -1.
         22    1    1    0    0    0  0.25962446817E+02  0.47055792204E+01 -0.12181398478E+02  0.29061617116E+02  0.00000000000E+00 0. -1.
</event>
<event>
 5    1  0.1681111E-003  0.9118800E+02  0.7818608E-02  0.1130116E+00
         25   -1    0    0    0    0  0.00000000000E+00  0.00000000000E+00  0.99999998245E-14  0.12500000000E+03  0.12500000000E+03 0.  0.
        -11    1    3    3    0    0  0.36502250404E+02 -0.24972725644E+02 -0.14856456942E+02  0.46655820899E+02  0.51100000000E-03 0. -1.
         23    2    1    0    0    0  0.20910025526E+02  0.51585570048E+01  0.20222567947E+02  0.95456944433E+02  0.90770238009E+02 0.  0.
         11    1    3    3    0    0 -0.15592224878E+02  0.30131282648E+02  0.35079024889E+02  0.48801123534E+02  0.51100000000E-03 0.  1.
         22    1    1    0    0    0 -0.20910025526E+02 -0.51585570048E+01 -0.20222567947E+02  0.29543055567E+02  0.00000000000E+00 0.  1.
</event>
<event>
 5    1  0.1681111E-003  0.9118800E+02  0.7818608E-02  0.1130116E+00
         25   -1    0    0    0    0  0.00000000000E+00  0.00000000000E+00  0.99999998245E-14  0.12500000000E+03  0.12500000000E+03 0.  0.
        -11    1    3    3    0    0 -0.45318734255E+01 -0.36406300694E+02  0.32958933443E+02  0.49317825387E+02  0.51100000000E-03 0.  1.
         23    2    1    0    0    0 -0.24318490152E+02 -0.15337268824E+02 -0.37122382901E+01  0.96010320951E+02  0.91529122348E+02 0.  0.
         11    1    3    3    0    0 -0.19786616727E+02  0.21069031871E+02 -0.36671171733E+02  0.46692495564E+02  0.51100000000E-03 0. -1.
         22    1    1    0    0    0  0.24318490152E+02  0.15337268824E+02  0.37122382901E+01  0.28989679049E+02  0.00000000000E+00 0. -1.
</event>
<event>
 5    1  0.1681111E-003  0.9118800E+02  0.7818608E-02  0.1130116E+00
         25   -1    0    0    0    0  0.00000000000E+00  0.00000000000E+00  0.99999998245E-14  0.12500000000E+03  0.12500000000E+03 0.  0.
        -11    1    3    3    0    0  0.26340168543E+02  0.27535179610E+02 -0.66412467109E+01  0.38679409938E+02  0.51100000000E-03 0. -1.
         23    2    1    0    0    0 -0.20108275440E+02 -0.58956400539E+01  0.14313292260E+02  0.99623403535E+02  0.96337172907E+02 0.  0.
         11    1    3    3    0    0 -0.46448443983E+02 -0.33430819664E+02  0.20954538971E+02  0.60943993597E+02  0.51100000000E-03 0.  1.
         22    1    1    0    0    0  0.20108275440E+02  0.58956400539E+01 -0.14313292260E+02  0.25376596465E+02  0.00000000000E+00 0.  1.
</event>
<event>
 5    1  0.1681111E-003  0.9118800E+02  0.7818608E-02  0.1130116E+00
         25   -1    0    0    0    0  0.00000000000E+00  0.00000000000E+00  0.99999998245E-14  0.12500000000E+03  0.12500000000E+03 0.  0.
        -11    1    3    3    0    0 -0.84911373657E+01 -0.49797806272E+02  0.17687406124E+02  0.53523501931E+02  0.51100000000E-03 0. -1.
         23    2    1    0    0    0 -0.16495518683E+02 -0.20637510146E+02 -0.12074391641E+02  0.95951766058E+02  0.91449119813E+02 0.  0.
         11    1    3    3    0    0 -0.80043813170E+01  0.29160296126E+02 -0.29761797764E+02  0.42428264127E+02  0.51100000000E-03 0.  1.
         22    1    1    0    0    0  0.16495518683E+02  0.20637510146E+02  0.12074391641E+02  0.29048233942E+02  0.00000000000E+00 0.  1.
</event>
<event>
 5    1  0.1681111E-003  0.9118800E+02  0.7818608E-02  0.1130116E+00
         25   -1    0    0    0    0  0.00000000000E+00  0.00000000000E+00  0.99999998245E-14  0.12500000000E+03  0.12500000000E+03 0.  0.
        -11    1    3    3    0    0  0.23961634609E+02  0.28262578206E+02  0.24701548881E+02  0.44532008458E+02  0.51100000000E-03 0.  1.
         23    2    1    0    0    0 -0.22954421174E+02  0.98064620399E+01  0.15017279097E+02  0.95869417777E+02  0.91336490213E+02 0.  0.
         11    1    3    3    0    0 -0.46916055782E+02 -0.18456116166E+02 -0.96842697840E+01  0.51337409319E+02  0.51100000000E-03 0. -1.
         22    1    1    0    0    0  0.22954421174E+02 -0.98064620399E+01 -0.15017279097E+02  0.29130582223E+02  0.00000000000E+00 0. -1.
</event>
<event>
 5    1  0.1681111E-003  0.9118800E+02  0.7818608E-02  0.1130116E+00
         25   -1    0    0    0    0  0.00000000000E+00  0.00000000000E+00  0.99999998245E-14  0.12500000000E+03  0.12500000000E+03 0.  0.
        -11    1    3    3    0    0 -0.79397533577E+01  0.24361563664E+02  0.28755125491E+02  0.38514707707E+02  0.51100000000E-03 0. -1.
         23    2    1    0    0    0  0.28042750701E+02 -0.10103773740E+02  0.18628864527E+01  0.95134426900E+02  0.90325006089E+02 0.  0.
         11    1    3    3    0    0  0.35982504058E+02 -0.34465337404E+02 -0.26892239038E+02  0.56619719193E+02  0.51100000000E-03 0.  1.
         22    1    1    0    0    0 -0.28042750701E+02  0.10103773740E+02 -0.18628864527E+01  0.29865573100E+02  0.00000000000E+00 0.  1.
</event>
<event>
 5    1  0.1681111E-003  0.9118800E+02  0.7818608E-02  0.1130116E+00
         25   -1    0    0    0    0  0.00000000000E+00  0.00000000000E+00  0.99999998245E-14  0.12500000000E+03  0.12500000000E+03 0.  0.
        -11    1    3    3    0    0 -0.94238318793E+01 -0.54876698580E+02  0.10916083250E+02  0.56739946494E+02  0.51100000000E-03 0. -1.
         23    2    1    0    0    0 -0.15347478306E+02 -0.17768859997E+02  0.18540114769E+02  0.95083226584E+02  0.90254122599E+02 0.  0.
         11    1    3    3    0    0 -0.59236464268E+01  0.37107838583E+02  0.76240315188E+01  0.38343280091E+02  0.51100000000E-03 0.  1.
         22    1    1    0    0    0  0.15347478306E+02  0.17768859997E+02 -0.18540114769E+02  0.29916773416E+02  0.00000000000E+00 0. -1.
</event>
<event>
 5    1  0.1681111E-003  0.9118800E+02  0.7818608E-02  0.1130116E+00
         25   -1    0    0    0    0  0.00000000000E+00  0.00000000000E+00  0.99999998245E-14  0.12500000000E+03  0.12500000000E+03 0.  0.
        -11    1    3    3    0    0  0.38887024634E+02 -0.36030008919E+02 -0.13895503326E+02  0.54803715573E+02  0.51100000000E-03 0.  1.
         23    2    1    0    0    0  0.20261147092E+02 -0.26504829151E+02  0.13274126291E+02  0.89094255633E+02  0.81538726432E+02 0.  0.
         11    1    3    3    0    0 -0.18625877542E+02  0.95251797685E+01  0.27169629617E+02  0.34290540060E+02  0.51100000000E-03 0. -1.
         22    1    1    0    0    0 -0.20261147092E+02  0.26504829151E+02 -0.13274126291E+02  0.35905744367E+02  0.00000000000E+00 0.  1.
</event>
<event>
 5    1  0.1681111E-003  0.9118800E+02  0.7818608E-02  0.1130116E+00
         25   -1    0    0    0    0  0.00000000000E+00  0.00000000000E+00  0.99999998245E-14  0.12500000000E+03  0.12500000000E+03 0.  0.
        -11    1    3    3    0    0 -0.52962455381E+02 -0.13275353437E+02 -0.29516154252E+02  0.62068188720E+02  0.51100000000E-03 0.  1.
         23    2    1    0    0    0 -0.20908884531E+02 -0.92127203173E+01 -0.16079044330E+02  0.97060935332E+02  0.92952858122E+02 0.  0.
         11    1    3    3    0    0  0.32053570850E+02  0.40626331192E+01  0.13437109923E+02  0.34992746612E+02  0.51100000000E-03 0. -1.
         22    1    1    0    0    0  0.20908884531E+02  0.92127203173E+01  0.16079044330E+02  0.27939064668E+02  0.00000000000E+00 0.  1.
</event>
<event>
 5    1  0.1681111E-003  0.9118800E+02  0.7818608E-02  0.1130116E+00
         25   -1    0    0    0    0  0.00000000000E+00  0.00000000000E+00  0.99999998245E-14  0.12500000000E+03  0.12500000000E+03 0.  0.
        -11    1    3    3    0    0 -0.23017229556E+02 -0.74924136976E+01  0.30645998388E+02  0.39052609860E+02  0.51100000000E-03 0. -1.
         23    2    1    0    0    0  0.10573568988E+02 -0.22019850670E+02 -0.14050164188E+02  0.96820551844E+02  0.92629034115E+02 0.  0.
         11    1    3    3    0    0  0.33590798544E+02 -0.14527436972E+02 -0.44696162576E+02  0.57767941984E+02  0.51100000000E-03 0.  1.
         22    1    1    0    0    0 -0.10573568988E+02  0.22019850670E+02  0.14050164188E+02  0.28179448156E+02  0.00000000000E+00 0.  1.
</event>
<event>
 5    1  0.1681111E-003  0.9118800E+02  0.7818608E-02  0.1130116E+00
         25   -1    0    0    0    0  0.00000000000E+00  0.00000000000E+00  0.99999998245E-14  0.12500000000E+03  0.12500000000E+03 0.  0.
        -11    1    3    3    0    0 -0.18295806865E+02 -0.22181241085E+02  0.36006841270E+02  0.46078591813E+02  0.51100000000E-03 0.  1.
         23    2    1    0    0    0  0.21526779699E+02  0.14328138454E+01  0.21366609404E+02  0.94635757919E+02  0.89632245759E+02 0.  0.
         11    1    3    3    0    0  0.39822586564E+02  0.23614054930E+02 -0.14640231866E+02  0.48557166106E+02  0.51100000000E-03 0. -1.
         22    1    1    0    0    0 -0.21526779699E+02 -0.14328138454E+01 -0.21366609404E+02  0.30364242081E+02  0.00000000000E+00 0. -1.
</event>
<event>
 5    1  0.1681111E-003  0.9118800E+02  0.7818608E-02  0.1130116E+00
         25   -1    0    0    0    0  0.00000000000E+00  0.00000000000E+00  0.99999998245E-14  0.12500000000E+03  0.12500000000E+03 0.  0.
        -11    1    3    3    0    0 -0.54397326742E+01 -0.97816023553E+01  0.37442047192E+02  0.39079116346E+02  0.51100000000E-03 0.  1.
         23    2    1    0    0    0  0.26731050677E+02  0.83045171198E+01 -0.62979117988E+01  0.96308925291E+02  0.91936017550E+02 0.  0.
         11    1    3    3    0    0  0.32170783351E+02  0.18086119475E+02 -0.43739958991E+02  0.57229808945E+02  0.51100000000E-03 0. -1.
         22    1    1    0    0    0 -0.26731050677E+02 -0.83045171198E+01  0.62979117988E+01  0.28691074709E+02  0.00000000000E+00 0. -1.
</event>
<event>
 5    1  0.1681111E-003  0.9118800E+02  0.7818608E-02  0.1130116E+00
         25   -1    0    0    0    0  0.00000000000E+00  0.00000000000E+00  0.99999998245E-14  0.12500000000E+03  0.12500000000E+03 0.  0.
        -11    1    3    3    0    0  0.23021026523E+02  0.27561507304E+02  0.21796176235E+02  0.42008066437E+02  0.51100000000E-03 0. -1.
         23    2    1    0    0    0  0.21307652496E+02 -0.10503445525E+00 -0.22340455612E+02  0.94127309089E+02  0.88920342285E+02 0.  0.
         11    1    3    3    0    0 -0.17133740268E+01 -0.27666541759E+02 -0.44136631848E+02  0.52119242652E+02  0.51100000000E-03 0.  1.
         22    1    1    0    0    0 -0.21307652496E+02  0.10503445525E+00  0.22340455612E+02  0.30872690911E+02  0.00000000000E+00 0.  1.
</event>
<event>
 5    1  0.1681111E-003  0.9118800E+02  0.7818608E-02  0.1130116E+00
         25   -1    0    0    0    0  0.00000000000E+00  0.00000000000E+00  0.99999998245E-14  0.12500000000E+03  0.12500000000E+03 0.  0.
        -11    1    3    3    0    0 -0.55620246137E+01 -0.32416970488E+02  0.49086702300E+02  0.59087227354E+02  0.51100000000E-03 0.  1.
         23    2    1    0    0    0 -0.15288588948E+02 -0.71539848833E+01  0.20197857335E+02  0.98677502158E+02  0.95101921850E+02 0.  0.
         11    1    3    3    0    0 -0.97265643345E+01  0.25262985605E+02 -0.28888844965E+02  0.39590274804E+02  0.51100000000E-03 0. -1.
         22    1    1    0    0    0  0.15288588948E+02  0.71539848833E+01 -0.20197857335E+02  0.26322497842E+02  0.00000000000E+00 0.  1.
</event>
<event>
 5    1  0.1681111E-003  0.9118800E+02  0.7818608E-02  0.1130116E+00
         25   -1    0    0    0    0  0.00000000000E+00  0.00000000000E+00  0.99999998245E-14  0.12500000000E+03  0.12500000000E+03 0.  0.
        -11    1    3    3    0    0  0.18850800837E+02 -0.40628033532E+02  0.26688757232E+02  0.52137122703E+02  0.51100000000E-03 0. -1.
         23    2    1    0    0    0  0.10744677335E+02 -0.26671461752E+02 -0.11835029258E+02  0.93905259600E+02  0.88607645832E+02 0.  0.
         11    1    3    3    0    0 -0.81061235014E+01  0.13956571780E+02 -0.38523786490E+02  0.41768136897E+02  0.51100000000E-03 0.  1.
         22    1    1    0    0    0 -0.10744677335E+02  0.26671461752E+02  0.11835029258E+02  0.31094740400E+02  0.00000000000E+00 0. -1.
</event>
<event>
 5    1  0.1681111E-003  0.9118800E+02  0.7818608E-02  0.1130116E+00
         25   -1    0    0    0    0  0.00000000000E+00  0.00000000000E+00  0.99999998245E-14  0.12500000000E+03  0.12500000000E+03 0.  0.
        -11    1    3    3    0    0  0.38009769630E+02 -0.39460140508E+01 -0.85952836749E+01  0.39168769650E+02  0.51100000000E-03 0.  1.
         23    2    1    0    0    0 -0.19767471645E+01  0.18356958537E+02  0.23522915365E+02  0.95096605488E+02  0.90272650188E+02 0.  0.
         11    1    3    3    0    0 -0.39986516795E+02  0.22302972588E+02  0.32118199040E+02  0.55927835837E+02  0.51100000000E-03 0. -1.
         22    1    1    0    0    0  0.19767471645E+01 -0.18356958537E+02 -0.23522915365E+02  0.29903394512E+02  0.00000000000E+00 0. -1.
</event>
<event>
 5    1  0.1681111E-003  0.9118800E+02  0.7818608E-02  0.1130116E+00
         25   -1    0    0    0    0  0.00000000000E+00  0.00000000000E+00  0.99999998245E-14  0.12500000000E+03  0.12500000000E+03 0.  0.
        -11    1    3    3    0    0  0.20745765053E+02  0.17214827673E+02 -0.24982276587E+02  0.36753927725E+02  0.51100000000E-03 0.  1.
         23    2    1    0    0    0 -0.24871965907E+02  0.96611869298E+01  0.11786772647E+02  0.95830131464E+02  0.91282708472E+02 0.  0.
         11    1    3    3    0    0 -0.45617730960E+02 -0.75536407434E+01  0.36769049234E+02  0.59076203739E+02  0.51100000000E-03 0. -1.
         22    1    1    0    0    0  0.24871965907E+02 -0.96611869298E+01 -0.11786772647E+02  0.29169868536E+02  0.00000000000E+00 0. -1.
</event>
<event>
 5    1  0.1681111E-003  0.9118800E+02  0.7818608E-02  0.1130116E+00
         25   -1    0    0    0    0  0.00000000000E+00  0.00000000000E+00  0.99999998245E-14  0.12500000000E+03  0.12500000000E+03 0.  0.
        -11    1    3    3    0    0 -0.12520436604E+02  0.32643988864E+02 -0.38402236825E+02  0.51933834204E+02  0.51100000000E-03 0.  1.
         23    2    1    0    0    0 -0.17309905595E+02  0.24946713088E+02  0.31588201773E+01  0.94472152541E+02  0.89403792622E+02 0.  0.
         11    1    3    3    0    0 -0.47894689902E+01 -0.76972757757E+01  0.41561057002E+02  0.42538318337E+02  0.51100000000E-03 0. -1.
         22    1    1    0    0    0  0.17309905595E+02 -0.24946713088E+02 -0.31588201773E+01  0.30527847459E+02  0.00000000000E+00 0.  1.
</event>
<event>
 5    1  0.1681111E-003  0.9118800E+02  0.7818608E-02  0.1130116E+00
         25   -1    0    0    0    0  0.00000000000E+00  0.00000000000E+00  0.99999998245E-14  0.12500000000E+03  0.12500000000E+03 0.  0.
        -11    1    3    3    0    0  0.11003688779E+02 -0.51766246649E+02  0.23916303012E+01  0.52976837907E+02  0.51100000000E-03 0. -1.
         23    2    1    0    0    0  0.61373863251E+01 -0.15495898216E+02  0.24228613211E+02  0.95592244721E+02  0.90956369652E+02 0.  0.
         11    1    3    3    0    0 -0.48663024540E+01  0.36270348433E+02  0.21836982910E+02  0.42615406814E+02  0.51100000000E-03 0.  1.
         22    1    1    0    0    0 -0.61373863251E+01  0.15495898216E+02 -0.24228613211E+02  0.29407755279E+02  0.00000000000E+00 0.  1.
</event>
<event>
 5    1  0.1681111E-003  0.9118800E+02  0.7818608E-02  0.1130116E+00
         25   -1    0    0    0    0  0.00000000000E+00  0.00000000000E+00  0.99999998245E-14  0.12500000000E+03  0.12500000000E+03 0.  0.
        -11    1    3    3    0    0 -0.52879114219E+02 -0.26140431879E+01  0.96067312689E+01  0.53808207816E+02  0.51100000000E-03 0.  1.
         23    2    1    0    0    0 -0.17887724812E+02  0.20160549502E+02  0.11715680030E+02  0.95611641526E+02  0.90983022491E+02 0.  0.
         11    1    3    3    0    0  0.34991389407E+02  0.22774592690E+02  0.21089487615E+01  0.41803433711E+02  0.51100000000E-03 0. -1.
         22    1    1    0    0    0  0.17887724812E+02 -0.20160549502E+02 -0.11715680030E+02  0.29388358474E+02  0.00000000000E+00 0.  1.
</event>
<event>
 5    1  0.1681111E-003  0.9118800E+02  0.7818608E-02  0.1130116E+00
         25   -1    0    0    0    0  0.00000000000E+00  0.00000000000E+00  0.99999998245E-14  0.12500000000E+03  0.12500000000E+03 0.  0.
        -11    1    3    3    0    0 -0.30332758721E+02 -0.19900329672E+02  0.22903891950E+02  0.42903235769E+02  0.51100000000E-03 0.  1.
         23    2    1    0    0    0  0.81415775352E+01  0.97871659961E+01  0.30369690504E+02  0.92069892130E+02  0.85979491930E+02 0.  0.
         11    1    3    3    0    0  0.38474336257E+02  0.29687495668E+02  0.74657985543E+01  0.49166656361E+02  0.51100000000E-03 0. -1.
         22    1    1    0    0    0 -0.81415775352E+01 -0.97871659961E+01 -0.30369690504E+02  0.32930107870E+02  0.00000000000E+00 0. -1.
</event>
<event>
 5    1  0.1681111E-003  0.9118800E+02  0.7818608E-02  0.1130116E+00
         25   -1    0    0    0    0  0.00000000000E+00  0.00000000000E+00  0.99999998245E-14  0.12500000000E+03  0.12500000000E+03 0.  0.
        -11    1    3    3    0    0 -0.12572278317E+02 -0.43680821792E+02 -0.38901300911E+02  0.59827983314E+02  0.51100000000E-03 0.  1.
         23    2    1    0    0    0  0.16410565615E+01 -0.78566145399E+01 -0.21377143480E+02  0.10216577739E+03  0.99581345384E+02 0.  0.
         11    1    3    3    0    0  0.14213334879E+02  0.35824207252E+02  0.17524157432E+02  0.42337794080E+02  0.51100000000E-03 0. -1.
         22    1    1    0    0    0 -0.16410565615E+01  0.78566145399E+01  0.21377143480E+02  0.22834222606E+02  0.00000000000E+00 0.  1.
</event>
<event>
 5    1  0.1681111E-003  0.9118800E+02  0.7818608E-02  0.1130116E+00
         25   -1    0    0    0    0  0.00000000000E+00  0.00000000000E+00  0.99999998245E-14  0.12500000000E+03  0.12500000000E+03 0.  0.
        -11    1    3    3    0    0 -0.30838467095E+02  0.91722480246E+01  0.78207438022E+01  0.33110500155E+02  0.51100000000E-03 0. -1.
         23    2    1    0    0    0  0.66446241777E+01 -0.59510852071E+01 -0.33154646910E+02  0.90666385898E+02  0.83914220931E+02 0.  0.
         11    1    3    3    0    0  0.37483091273E+02 -0.15123333232E+02 -0.40975390712E+02  0.57555885743E+02  0.51100000000E-03 0.  1.
         22    1    1    0    0    0 -0.66446241777E+01  0.59510852071E+01  0.33154646910E+02  0.34333614102E+02  0.00000000000E+00 0.  1.
</event>
<event>
 5    1  0.1681111E-003  0.9118800E+02  0.7818608E-02  0.1130116E+00
         25   -1    0    0    0    0  0.00000000000E+00  0.00000000000E+00  0.99999998245E-14  0.12500000000E+03  0.12500000000E+03 0.  0.
        -11    1    3    3    0    0  0.12467600932E+02  0.20339255720E+02  0.38371022477E+02  0.45182538247E+02  0.51100000000E-03 0. -1.
         23    2    1    0    0    0 -0.25508059040E+02  0.17132280335E+01  0.52592046731E+01  0.98899129132E+02  0.95392778987E+02 0.  0.
         11    1    3    3    0    0 -0.37975659973E+02 -0.18626027686E+02 -0.33111817804E+02  0.53716590885E+02  0.51100000000E-03 0.  1.
         22    1    1    0    0    0  0.25508059040E+02 -0.17132280335E+01 -0.52592046731E+01  0.26100870868E+02  0.00000000000E+00 0. -1.
</event>
<event>
 5    1  0.1681111E-003  0.9118800E+02  0.7818608E-02  0.1130116E+00
         25   -1    0    0    0    0  0.00000000000E+00  0.00000000000E+00  0.99999998245E-14  0.12500000000E+03  0.12500000000E+03 0.  0.
        -11    1    3    3    0    0  0.32922849364E+02  0.14212135527E+02  0.17623235104E+02  0.39955941013E+02  0.51100000000E-03 0. -1.
         23    2    1    0    0    0 -0.11794296003E+02  0.20471778332E+02 -0.16183511471E+02  0.96362521588E+02  0.92008860426E+02 0.  0.
         11    1    3    3    0    0 -0.44717145367E+02  0.62596428052E+01 -0.33806746575E+02  0.56406580574E+02  0.51100000000E-03 0.  1.
         22    1    1    0    0    0  0.11794296003E+02 -0.20471778332E+02  0.16183511471E+02  0.28637478412E+02  0.00000000000E+00 0.  1.
</event>
<event>
 5    1  0.1681111E-003  0.9118800E+02  0.7818608E-02  0.1130116E+00
         25   -1    0    0    0    0  0.00000000000E+00  0.00000000000E+00  0.99999998245E-14  0.12500000000E+03  0.12500000000E+03 0.  0.
        -11    1    3    3    0    0 -0.13360189108E+02  0.32345297897E+02 -0.16175296040E+02  0.38553250853E+02  0.51100000000E-03 0.  1.
         23    2    1    0    0    0 -0.94744182518E+01 -0.23846164952E+02 -0.15773060862E+02  0.94880344739E+02  0.89972696884E+02 0.  0.
         11    1    3    3    0    0  0.38857708565E+01 -0.56191462849E+02  0.40223517870E+00  0.56327093886E+02  0.51100000000E-03 0. -1.
         22    1    1    0    0    0  0.94744182518E+01  0.23846164952E+02  0.15773060862E+02  0.30119655261E+02  0.00000000000E+00 0. -1.
</event>
<event>
 5    1  0.1681111E-003  0.9118800E+02  0.7818608E-02  0.1130116E+00
         25   -1    0    0    0    0  0.00000000000E+00  0.00000000000E+00  0.99999998245E-14  0.12500000000E+03  0.12500000000E+03 0.  0.
        -11    1    3    3    0    0 -0.29087196578E+02  0.26400695548E+02  0.23736132073E+02  0.45896249260E+02  0.51100000000E-03 0. -1.
         23    2    1    0    0    0  0.25316281660E+01  0.24298874246E+02 -0.15299023054E+02  0.96174585221E+02  0.91753181445E+02 0.  0.
         11    1    3    3    0    0  0.31618824744E+02 -0.21018213017E+01 -0.39035155126E+02  0.50278335960E+02  0.51100000000E-03 0.  1.
         22    1    1    0    0    0 -0.25316281660E+01 -0.24298874246E+02  0.15299023054E+02  0.28825414779E+02  0.00000000000E+00 0.  1.
</event>
<event>
 5    1  0.1681111E-003  0.9118800E+02  0.7818608E-02  0.1130116E+00
         25   -1    0    0    0    0  0.00000000000E+00  0.00000000000E+00  0.99999998245E-14  0.12500000000E+03  0.12500000000E+03 0.  0.
        -11    1    3    3    0    0  0.15866392250E+02  0.38172970766E+02  0.45079867591E+01  0.41584132131E+02  0.51100000000E-03 0. -1.
         23    2    1    0    0    0  0.20267282660E+02 -0.14335946224E+02 -0.12829074490E+02  0.97055997909E+02  0.92946218198E+02 0.  0.
         11    1    3    3    0    0  0.44008904098E+01 -0.52508916991E+02 -0.17337061249E+02  0.55471865779E+02  0.51100000000E-03 0.  1.
         22    1    1    0    0    0 -0.20267282660E+02  0.14335946224E+02  0.12829074490E+02  0.27944002091E+02  0.00000000000E+00 0.  1.
</event>
<event>
 5    1  0.1681111E-003  0.9118800E+02  0.7818608E-02  0.1130116E+00
         25   -1    0    0    0    0  0.00000000000E+00  0.00000000000E+00  0.99999998245E-14  0.12500000000E+03  0.12500000000E+03 0.  0.
        -11    1    3    3    0    0  0.17066844863E+02  0.24082486759E+02  0.12432034170E+02  0.32028094479E+02  0.51100000000E-03 0. -1.
         23    2    1    0    0    0 -0.23289101504E+02 -0.20763800310E+02  0.93094651317E+01  0.92439536348E+02  0.86515224596E+02 0.  0.
         11    1    3    3    0    0 -0.40355946367E+02 -0.44846287069E+02 -0.31225690385E+01  0.60411441869E+02  0.51100000000E-03 0.  1.
         22    1    1    0    0    0  0.23289101504E+02  0.20763800310E+02 -0.93094651317E+01  0.32560463652E+02  0.00000000000E+00 0.  1.
</event>
<event>
 5    1  0.1681111E-003  0.9118800E+02  0.7818608E-02  0.1130116E+00
         25   -1    0    0    0    0  0.00000000000E+00  0.00000000000E+00  0.99999998245E-14  0.12500000000E+03  0.12500000000E+03 0.  0.
        -11    1    3    3    0    0  0.26256945369E+02 -0.44424500783E+01  0.27207991421E+02  0.38071476728E+02  0.51100000000E-03 0.  1.
         23    2    1    0    0    0 -0.25487532501E+02 -0.73054511794E+01  0.22709614429E+02  0.90089965376E+02  0.83051136922E+02 0.  0.
         11    1    3    3    0    0 -0.51744477870E+02 -0.28630011011E+01 -0.44983769925E+01  0.52018488648E+02  0.51100000000E-03 0. -1.
         22    1    1    0    0    0  0.25487532501E+02  0.73054511794E+01 -0.22709614429E+02  0.34910034624E+02  0.00000000000E+00 0. -1.
</event>
<event>
 5    1  0.1681111E-003  0.9118800E+02  0.7818608E-02  0.1130116E+00
         25   -1    0    0    0    0  0.00000000000E+00  0.00000000000E+00  0.99999998245E-14  0.12500000000E+03  0.12500000000E+03 0.  0.
        -11    1    3    3    0    0  0.36263691956E+02  0.44985427337E+01 -0.35298674060E+02  0.50806383769E+02  0.51100000000E-03 0.  1.
         23    2    1    0    0    0  0.25796716456E+02 -0.13501789644E+02  0.43211527009E+01  0.95564625632E+02  0.90918405222E+02 0.  0.
         11    1    3    3    0    0 -0.10466975500E+02 -0.18000332378E+02  0.39619826761E+02  0.44758241863E+02  0.51100000000E-03 0. -1.
         22    1    1    0    0    0 -0.25796716456E+02  0.13501789644E+02 -0.43211527009E+01  0.29435374368E+02  0.00000000000E+00 0.  1.
</event>
<event>
 5    1  0.1681111E-003  0.9118800E+02  0.7818608E-02  0.1130116E+00
         25   -1    0    0    0    0  0.00000000000E+00  0.00000000000E+00  0.99999998245E-14  0.12500000000E+03  0.12500000000E+03 0.  0.
        -11    1    3    3    0    0  0.19127481283E+02 -0.31484976919E+02  0.41054743597E+02  0.55160278135E+02  0.51100000000E-03 0.  1.
         23    2    1    0    0    0  0.23345621481E+02 -0.18575100144E+02  0.36629535290E+01  0.94942228688E+02  0.90058631857E+02 0.  0.
         11    1    3    3    0    0  0.42181401986E+01  0.12909876775E+02 -0.37391790068E+02  0.39781950554E+02  0.51100000000E-03 0. -1.
         22    1    1    0    0    0 -0.23345621481E+02  0.18575100144E+02 -0.36629535290E+01  0.30057771312E+02  0.00000000000E+00 0.  1.
</event>
<event>
 5    1  0.1681111E-003  0.9118800E+02  0.7818608E-02  0.1130116E+00
         25   -1    0    0    0    0  0.00000000000E+00  0.00000000000E+00  0.99999998245E-14  0.12500000000E+03  0.12500000000E+03 0.  0.
        -11    1    3    3    0    0 -0.43475748082E+02  0.27080088446E+02 -0.15232948188E+02  0.53437015002E+02  0.51100000000E-03 0. -1.
         23    2    1    0    0    0 -0.22178217676E+02 -0.69706559182E+01  0.86857907206E+01  0.10018253954E+03  0.97059955106E+02 0.  0.
         11    1    3    3    0    0  0.21297530406E+02 -0.34050744364E+02  0.23918738909E+02  0.46745524539E+02  0.51100000000E-03 0.  1.
         22    1    1    0    0    0  0.22178217676E+02  0.69706559182E+01 -0.86857907206E+01  0.24817460459E+02  0.00000000000E+00 0. -1.
</event>
<event>
 5    1  0.1681111E-003  0.9118800E+02  0.7818608E-02  0.1130116E+00
         25   -1    0    0    0    0  0.00000000000E+00  0.00000000000E+00  0.99999998245E-14  0.12500000000E+03  0.12500000000E+03 0.  0.
        -11    1    3    3    0    0 -0.26630499620E+01  0.36921830947E+02 -0.36615562181E+02  0.52067387390E+02  0.51100000000E-03 0.  1.
         23    2    1    0    0    0 -0.25177004136E+02  0.11668419890E+02 -0.87323927871E+01  0.95908966265E+02  0.91390598894E+02 0.  0.
         11    1    3    3    0    0 -0.22513954174E+02 -0.25253411056E+02  0.27883169394E+02  0.43841578875E+02  0.51100000000E-03 0. -1.
         22    1    1    0    0    0  0.25177004136E+02 -0.11668419890E+02  0.87323927871E+01  0.29091033735E+02  0.00000000000E+00 0. -1.
</event>
<event>
 5    1  0.1681111E-003  0.9118800E+02  0.7818608E-02  0.1130116E+00
         25   -1    0    0    0    0  0.00000000000E+00  0.00000000000E+00  0.99999998245E-14  0.12500000000E+03  0.12500000000E+03 0.  0.
        -11    1    3    3    0    0  0.57504636220E+02 -0.15386841729E+02  0.17297967149E+01  0.59552752096E+02  0.51100000000E-03 0.  1.
         23    2    1    0    0    0  0.25804819370E+02 -0.91599434085E+00  0.12886687123E+02  0.96141821725E+02  0.91708535215E+02 0.  0.
         11    1    3    3    0    0 -0.31699816850E+02  0.14470847388E+02  0.11156890408E+02  0.36589069629E+02  0.51100000000E-03 0. -1.
         22    1    1    0    0    0 -0.25804819370E+02  0.91599434085E+00 -0.12886687123E+02  0.28858178275E+02  0.00000000000E+00 0.  1.
</event>
<event>
 5    1  0.1681111E-003  0.9118800E+02  0.7818608E-02  0.1130116E+00
         25   -1    0    0    0    0  0.00000000000E+00  0.00000000000E+00  0.99999998245E-14  0.12500000000E+03  0.12500000000E+03 0.  0.
        -11    1    3    3    0    0 -0.17412824123E+02  0.44790194011E+02 -0.22752714372E+02  0.53170047348E+02  0.51100000000E-03 0.  1.
         23    2    1    0    0    0  0.13345806655E+02  0.25934966141E+02  0.17575542421E-01  0.95832666681E+02  0.91286180062E+02 0.  0.
         11    1    3    3    0    0  0.30758630777E+02 -0.18855227870E+02  0.22770289914E+02  0.42662619333E+02  0.51100000000E-03 0. -1.
         22    1    1    0    0    0 -0.13345806655E+02 -0.25934966141E+02 -0.17575542421E-01  0.29167333319E+02  0.00000000000E+00 0.  1.
</event>
<event>
 5    1  0.1681111E-003  0.9118800E+02  0.7818608E-02  0.1130116E+00
         25   -1    0    0    0    0  0.00000000000E+00  0.00000000000E+00  0.99999998245E-14  0.12500000000E+03  0.12500000000E+03 0.  0.
        -11    1    3    3    0    0  0.59265718883E+02 -0.13053266847E+01  0.99332834065E+01  0.60106567294E+02  0.51100000000E-03 0. -1.
         23    2    1    0    0    0  0.26418333458E+02  0.10928958817E+02  0.49835932460E+00  0.96405964861E+02  0.92067862011E+02 0.  0.
         11    1    3    3    0    0 -0.32847385425E+02  0.12234285502E+02 -0.94349240819E+01  0.36299397566E+02  0.51100000000E-03 0.  1.
         22    1    1    0    0    0 -0.26418333458E+02 -0.10928958817E+02 -0.49835932460E+00  0.28594035139E+02  0.00000000000E+00 0. -1.
</event>
<event>
 5    1  0.1681111E-003  0.9118800E+02  0.7818608E-02  0.1130116E+00
         25   -1    0    0    0    0  0.00000000000E+00  0.00000000000E+00  0.99999998245E-14  0.12500000000E+03  0.12500000000E+03 0.  0.
        -11    1    3    3    0    0 -0.14003906416E+02  0.24788966422E+02 -0.24606880513E+02  0.37631115052E+02  0.51100000000E-03 0. -1.
         23    2    1    0    0    0  0.52019400873E+01  0.69267971163E+01  0.27608866438E+02  0.96064032677E+02  0.91602446305E+02 0.  0.
         11    1    3    3    0    0  0.19205846503E+02 -0.17862169306E+02  0.52215746951E+02  0.58432917625E+02  0.51100000000E-03 0.  1.
         22    1    1    0    0    0 -0.52019400873E+01 -0.69267971163E+01 -0.27608866438E+02  0.28935967323E+02  0.00000000000E+00 0.  1.
</event>
<event>
 5    1  0.1681111E-003  0.9118800E+02  0.7818608E-02  0.1130116E+00
         25   -1    0    0    0    0  0.00000000000E+00  0.00000000000E+00  0.99999998245E-14  0.12500000000E+03  0.12500000000E+03 0.  0.
        -11    1    3    3    0    0  0.99001547357E+01  0.37210032858E+02  0.30791265708E+02  0.49302146538E+02  0.51100000000E-03 0. -1.
         23    2    1    0    0    0 -0.21178517630E+02  0.30652032647E+01  0.17523006045E+02  0.97341713341E+02  0.93329675534E+02 0.  0.
         11    1    3    3    0    0 -0.31078672365E+02 -0.34144829593E+02 -0.13268259663E+02  0.48039566804E+02  0.51100000000E-03 0.  1.
         22    1    1    0    0    0  0.21178517630E+02 -0.30652032647E+01 -0.17523006045E+02  0.27658286659E+02  0.00000000000E+00 0. -1.
</event>
<event>
 5    1  0.1681111E-003  0.9118800E+02  0.7818608E-02  0.1130116E+00
         25   -1    0    0    0    0  0.00000000000E+00  0.00000000000E+00  0.99999998245E-14  0.12500000000E+03  0.12500000000E+03 0.  0.
        -11    1    3    3    0    0 -0.32139526458E+02  0.27003885576E+02  0.13707409423E+02  0.44159393910E+02  0.51100000000E-03 0.  1.
         23    2    1    0    0    0  0.11979153702E+02  0.50868745555E+00  0.25380628644E+02  0.96929816589E+02  0.92776366319E+02 0.  0.
         11    1    3    3    0    0  0.44118680160E+02 -0.26495198120E+02  0.11673219221E+02  0.52770422679E+02  0.51100000000E-03 0. -1.
         22    1    1    0    0    0 -0.11979153702E+02 -0.50868745555E+00 -0.25380628644E+02  0.28070183411E+02  0.00000000000E+00 0. -1.
</event>
<event>
 5    1  0.1681111E-003  0.9118800E+02  0.7818608E-02  0.1130116E+00
         25   -1    0    0    0    0  0.00000000000E+00  0.00000000000E+00  0.99999998245E-14  0.12500000000E+03  0.12500000000E+03 0.  0.
        -11    1    3    3    0    0 -0.39122682125E+01  0.55881160839E+02  0.27512013786E+02  0.62409301247E+02  0.51100000000E-03 0. -1.
         23    2    1    0    0    0  0.30297666020E+00  0.27059511136E+02  0.12220567278E+02  0.95307388084E+02  0.90564049275E+02 0.  0.
         11    1    3    3    0    0  0.42152448727E+01 -0.28821649703E+02 -0.15291446508E+02  0.32898086837E+02  0.51100000000E-03 0.  1.
         22    1    1    0    0    0 -0.30297666020E+00 -0.27059511136E+02 -0.12220567278E+02  0.29692611916E+02  0.00000000000E+00 0. -1.
</event>
<event>
 5    1  0.1681111E-003  0.9118800E+02  0.7818608E-02  0.1130116E+00
         25   -1    0    0    0    0  0.00000000000E+00  0.00000000000E+00  0.99999998245E-14  0.12500000000E+03  0.12500000000E+03 0.  0.
        -11    1    3    3    0    0 -0.81814509849E+01  0.39800590365E+02  0.47893631702E+01  0.40914070116E+02  0.51100000000E-03 0.  1.
         23    2    1    0    0    0  0.29387273453E+02  0.98446607351E+00  0.61903545290E+01  0.94951680519E+02  0.90071749898E+02 0.  0.
         11    1    3    3    0    0  0.37568724438E+02 -0.38816124292E+02  0.14009913588E+01  0.54037610402E+02  0.51100000000E-03 0. -1.
         22    1    1    0    0    0 -0.29387273453E+02 -0.98446607351E+00 -0.61903545290E+01  0.30048319481E+02  0.00000000000E+00 0. -1.
</event>
<event>
 5    1  0.1681111E-003  0.9118800E+02  0.7818608E-02  0.1130116E+00
         25   -1    0    0    0    0  0.00000000000E+00  0.00000000000E+00  0.99999998245E-14  0.12500000000E+03  0.12500000000E+03 0.  0.
        -11    1    3    3    0    0  0.14310086095E+02 -0.30407950741E+02 -0.39401489210E+01  0.33837062610E+02  0.51100000000E-03 0. -1.
         23    2    1    0    0    0 -0.12344690180E+02  0.25904489064E+02  0.53127119345E+00  0.96299543934E+02  0.91923261385E+02 0.  0.
         11    1    3    3    0    0 -0.26654776275E+02  0.56312439805E+02  0.44714201145E+01  0.62462481324E+02  0.51100000000E-03 0.  1.
         22    1    1    0    0    0  0.12344690180E+02 -0.25904489064E+02 -0.53127119345E+00  0.28700456066E+02  0.00000000000E+00 0.  1.
</event>
<event>
 5    1  0.1681111E-003  0.9118800E+02  0.7818608E-02  0.1130116E+00
         25   -1    0    0    0    0  0.00000000000E+00  0.00000000000E+00  0.99999998245E-14  0.12500000000E+03  0.12500000000E+03 0.  0.
        -11    1    3    3    0    0  0.24266203154E+02 -0.13359040748E+02  0.19987231960E+02  0.34158483967E+02  0.51100000000E-03 0. -1.
         23    2    1    0    0    0 -0.20437690168E+02  0.21425192398E+02 -0.28963817153E+01  0.95248914713E+02  0.90483306075E+02 0.  0.
         11    1    3    3    0    0 -0.44703893322E+02  0.34784233146E+02 -0.22883613676E+02  0.61090430747E+02  0.51100000000E-03 0.  1.
         22    1    1    0    0    0  0.20437690168E+02 -0.21425192398E+02  0.28963817153E+01  0.29751085287E+02  0.00000000000E+00 0.  1.
</event>
<event>
 5    1  0.1681111E-003  0.9118800E+02  0.7818608E-02  0.1130116E+00
         25   -1    0    0    0    0  0.00000000000E+00  0.00000000000E+00  0.99999998245E-14  0.12500000000E+03  0.12500000000E+03 0.  0.
        -11    1    3    3    0    0 -0.31831115191E+01 -0.13234642333E+02 -0.38793742583E+02  0.41112557941E+02  0.51100000000E-03 0.  1.
         23    2    1    0    0    0 -0.24824690781E+02 -0.11819186847E+02  0.10970567138E+02  0.95397436033E+02  0.90688251765E+02 0.  0.
         11    1    3    3    0    0 -0.21641579262E+02  0.14154554867E+01  0.49764309721E+02  0.54284878092E+02  0.51100000000E-03 0. -1.
         22    1    1    0    0    0  0.24824690781E+02  0.11819186847E+02 -0.10970567138E+02  0.29602563967E+02  0.00000000000E+00 0. -1.
</event>
<event>
 5    1  0.1681111E-003  0.9118800E+02  0.7818608E-02  0.1130116E+00
         25   -1    0    0    0    0  0.00000000000E+00  0.00000000000E+00  0.99999998245E-14  0.12500000000E+03  0.12500000000E+03 0.  0.
        -11    1    3    3    0    0  0.58793068000E+02 -0.45151401305E+01 -0.16643699619E+02  0.61270091174E+02  0.51100000000E-03 0. -1.
         23    2    1    0    0    0  0.25116605135E+02 -0.93397036479E+01 -0.12119382788E+02  0.95589910627E+02  0.90953161885E+02 0.  0.
         11    1    3    3    0    0 -0.33676462865E+02 -0.48245635174E+01  0.45243168305E+01  0.34319819453E+02  0.51100000000E-03 0.  1.
         22    1    1    0    0    0 -0.25116605135E+02  0.93397036479E+01  0.12119382788E+02  0.29410089373E+02  0.00000000000E+00 0. -1.
</event>
<event>
 5    1  0.1681111E-003  0.9118800E+02  0.7818608E-02  0.1130116E+00
         25   -1    0    0    0    0  0.00000000000E+00  0.00000000000E+00  0.99999998245E-14  0.12500000000E+03  0.12500000000E+03 0.  0.
        -11    1    3    3    0    0  0.17739847872E+02 -0.20139552342E+02 -0.47440325545E+02  0.54505855274E+02  0.51100000000E-03 0.  1.
         23    2    1    0    0    0 -0.13953923736E+02 -0.13214520204E+02 -0.22389785945E+02  0.95493423674E+02  0.90820459801E+02 0.  0.
         11    1    3    3    0    0 -0.31693771608E+02  0.69250321378E+01  0.25050539600E+02  0.40987568400E+02  0.51100000000E-03 0. -1.
         22    1    1    0    0    0  0.13953923736E+02  0.13214520204E+02  0.22389785945E+02  0.29506576326E+02  0.00000000000E+00 0.  1.
</event>
<event>
 5    1  0.1681111E-003  0.9118800E+02  0.7818608E-02  0.1130116E+00
         25   -1    0    0    0    0  0.00000000000E+00  0.00000000000E+00  0.99999998245E-14  0.12500000000E+03  0.12500000000E+03 0.  0.
        -11    1    3    3    0    0  0.38751044606E+02 -0.43617001743E+02 -0.63339337993E+01  0.58687349717E+02  0.51100000000E-03 0.  1.
         23    2    1    0    0    0  0.18410714339E+02 -0.13937082798E+02 -0.17125148904E+02  0.96251653885E+02  0.91858115979E+02 0.  0.
         11    1    3    3    0    0 -0.20340330268E+02  0.29679918945E+02 -0.10791215104E+02  0.37564304168E+02  0.51100000000E-03 0. -1.
         22    1    1    0    0    0 -0.18410714339E+02  0.13937082798E+02  0.17125148904E+02  0.28748346115E+02  0.00000000000E+00 0. -1.
</event>
<event>
 5    1  0.1681111E-003  0.9118800E+02  0.7818608E-02  0.1130116E+00
         25   -1    0    0    0    0  0.00000000000E+00  0.00000000000E+00  0.99999998245E-14  0.12500000000E+03  0.12500000000E+03 0.  0.
        -11    1    3    3    0    0 -0.88968543976E+01 -0.43052818908E+02  0.38956813427E+02  0.58739531380E+02  0.51100000000E-03 0.  1.
         23    2    1    0    0    0 -0.10723063147E+02 -0.80229676434E+01  0.25285377632E+02  0.96387023660E+02  0.92042142060E+02 0.  0.
         11    1    3    3    0    0 -0.18262087491E+01  0.35029851265E+02 -0.13671435795E+02  0.37647492280E+02  0.51100000000E-03 0. -1.
         22    1    1    0    0    0  0.10723063147E+02  0.80229676434E+01 -0.25285377632E+02  0.28612976340E+02  0.00000000000E+00 0.  1.
</event>
<event>
 5    1  0.1681111E-003  0.9118800E+02  0.7818608E-02  0.1130116E+00
         25   -1    0    0    0    0  0.00000000000E+00  0.00000000000E+00  0.99999998245E-14  0.12500000000E+03  0.12500000000E+03 0.  0.
        -11    1    3    3    0    0 -0.22586762511E+01  0.17807747720E+02 -0.57212620594E+02  0.59962500388E+02  0.51100000000E-03 0. -1.
         23    2    1    0    0    0  0.84630931843E+01  0.16145921046E+02 -0.24267014867E+02  0.94648678394E+02  0.89650262679E+02 0.  0.
         11    1    3    3    0    0  0.10721769435E+02 -0.16618266740E+01  0.32945605726E+02  0.34686178006E+02  0.51100000000E-03 0.  1.
         22    1    1    0    0    0 -0.84630931843E+01 -0.16145921046E+02  0.24267014867E+02  0.30351321606E+02  0.00000000000E+00 0. -1.
</event>
<event>
 5    1  0.1681111E-003  0.9118800E+02  0.7818608E-02  0.1130116E+00
         25   -1    0    0    0    0  0.00000000000E+00  0.00000000000E+00  0.99999998245E-14  0.12500000000E+03  0.12500000000E+03 0.  0.
        -11    1    3    3    0    0  0.18033311447E+01  0.21310779238E+01  0.33567297812E+02  0.33683185404E+02  0.51100000000E-03 0. -1.
         23    2    1    0    0    0 -0.20959125755E+02  0.10197286377E+02 -0.21171199644E+02  0.93512076978E+02  0.88051230795E+02 0.  0.
         11    1    3    3    0    0 -0.22762456900E+02  0.80662084532E+01 -0.54738497456E+02  0.59828891574E+02  0.51100000000E-03 0.  1.
         22    1    1    0    0    0  0.20959125755E+02 -0.10197286377E+02  0.21171199644E+02  0.31487923022E+02  0.00000000000E+00 0.  1.
</event>
<event>
 5    1  0.1681111E-003  0.9118800E+02  0.7818608E-02  0.1130116E+00
         25   -1    0    0    0    0  0.00000000000E+00  0.00000000000E+00  0.99999998245E-14  0.12500000000E+03  0.12500000000E+03 0.  0.
        -11    1    3    3    0    0  0.95954601681E+01 -0.30787950986E+02  0.46787757624E+02  0.56824862917E+02  0.51100000000E-03 0.  1.
         23    2    1    0    0    0  0.22233264432E+02 -0.81905631877E+01  0.22183108111E+02  0.92542432961E+02  0.86663765440E+02 0.  0.
         11    1    3    3    0    0  0.12637804264E+02  0.22597387798E+02 -0.24604649513E+02  0.35717570044E+02  0.51100000000E-03 0. -1.
         22    1    1    0    0    0 -0.22233264432E+02  0.81905631877E+01 -0.22183108111E+02  0.32457567039E+02  0.00000000000E+00 0.  1.
</event>
<event>
 5    1  0.1681111E-003  0.9118800E+02  0.7818608E-02  0.1130116E+00
         25   -1    0    0    0    0  0.00000000000E+00  0.00000000000E+00  0.99999998245E-14  0.12500000000E+03  0.12500000000E+03 0.  0.
        -11    1    3    3    0    0  0.16014392948E+02 -0.11167147984E+02  0.58116192797E+02  0.61307893790E+02  0.51100000000E-03 0. -1.
         23    2    1    0    0    0  0.79402096309E+01 -0.13544961534E+02  0.24987009941E+02  0.95489602210E+02  0.90815200008E+02 0.  0.
         11    1    3    3    0    0 -0.80741833169E+01 -0.23778135504E+01 -0.33129182856E+02  0.34181708420E+02  0.51100000000E-03 0.  1.
         22    1    1    0    0    0 -0.79402096309E+01  0.13544961534E+02 -0.24987009941E+02  0.29510397790E+02  0.00000000000E+00 0. -1.
</event>
<event>
 5    1  0.1681111E-003  0.9118800E+02  0.7818608E-02  0.1130116E+00
         25   -1    0    0    0    0  0.00000000000E+00  0.00000000000E+00  0.99999998245E-14  0.12500000000E+03  0.12500000000E+03 0.  0.
        -11    1    3    3    0    0 -0.13588708886E+02 -0.72312547213E+01  0.29588732007E+02  0.33353217477E+02  0.51100000000E-03 0.  1.
         23    2    1    0    0    0  0.18558433644E+02 -0.27996351910E+01 -0.23101813870E+02  0.95235134460E+02  0.90464267062E+02 0.  0.
         11    1    3    3    0    0  0.32147142530E+02  0.44316195303E+01 -0.52690545877E+02  0.61881916983E+02  0.51100000000E-03 0. -1.
         22    1    1    0    0    0 -0.18558433644E+02  0.27996351910E+01  0.23101813870E+02  0.29764865540E+02  0.00000000000E+00 0. -1.
</event>
<event>
 5    1  0.1681111E-003  0.9118800E+02  0.7818608E-02  0.1130116E+00
         25   -1    0    0    0    0  0.00000000000E+00  0.00000000000E+00  0.99999998245E-14  0.12500000000E+03  0.12500000000E+03 0.  0.
        -11    1    3    3    0    0 -0.23117141445E+02  0.43199507034E+02 -0.30908877246E+02  0.57930633774E+02  0.51100000000E-03 0.  1.
         23    2    1    0    0    0 -0.22672556282E+02  0.20271676012E+02 -0.24374098356E+01  0.94488909829E+02  0.89427218772E+02 0.  0.
         11    1    3    3    0    0  0.44458516374E+00 -0.22927831022E+02  0.28471467411E+02  0.36558276055E+02  0.51100000000E-03 0. -1.
         22    1    1    0    0    0  0.22672556282E+02 -0.20271676012E+02  0.24374098356E+01  0.30511090171E+02  0.00000000000E+00 0.  1.
</event>
<event>
 5    1  0.1681111E-003  0.9118800E+02  0.7818608E-02  0.1130116E+00
         25   -1    0    0    0    0  0.00000000000E+00  0.00000000000E+00  0.99999998245E-14  0.12500000000E+03  0.12500000000E+03 0.  0.
        -11    1    3    3    0    0  0.16442220561E+02 -0.41532489708E+02  0.12433168291E+02  0.46366776816E+02  0.51100000000E-03 0.  1.
         23    2    1    0    0    0 -0.12185838423E+02 -0.45322278446E+01 -0.18454216631E+02  0.10242581433E+03  0.99907224873E+02 0.  0.
         11    1    3    3    0    0 -0.28628058984E+02  0.37000261863E+02 -0.30887384922E+02  0.56059037511E+02  0.51100000000E-03 0. -1.
         22    1    1    0    0    0  0.12185838423E+02  0.45322278446E+01  0.18454216631E+02  0.22574185673E+02  0.00000000000E+00 0. -1.
</event>
<event>
 5    1  0.1681111E-003  0.9118800E+02  0.7818608E-02  0.1130116E+00
         25   -1    0    0    0    0  0.00000000000E+00  0.00000000000E+00  0.99999998245E-14  0.12500000000E+03  0.12500000000E+03 0.  0.
        -11    1    3    3    0    0  0.18407239469E+02 -0.44591189470E+02 -0.35978204416E+02  0.60179995318E+02  0.51100000000E-03 0. -1.
         23    2    1    0    0    0  0.55611281835E+00 -0.25392282889E+02 -0.83553152591E+01  0.98262599512E+02  0.94555009798E+02 0.  0.
         11    1    3    3    0    0 -0.17851126651E+02  0.19198906580E+02  0.27622889156E+02  0.38082604194E+02  0.51100000000E-03 0.  1.
         22    1    1    0    0    0 -0.55611281835E+00  0.25392282889E+02  0.83553152591E+01  0.26737400488E+02  0.00000000000E+00 0. -1.
</event>
<event>
 5    1  0.1681111E-003  0.9118800E+02  0.7818608E-02  0.1130116E+00
         25   -1    0    0    0    0  0.00000000000E+00  0.00000000000E+00  0.99999998245E-14  0.12500000000E+03  0.12500000000E+03 0.  0.
        -11    1    3    3    0    0  0.39713139387E+02  0.28208079880E+02  0.34002166803E+02  0.59405189656E+02  0.51100000000E-03 0.  1.
         23    2    1    0    0    0  0.81161674980E+01  0.12477776031E+02  0.25118912017E+02  0.95801938241E+02  0.91244093290E+02 0.  0.
         11    1    3    3    0    0 -0.31596971889E+02 -0.15730303849E+02 -0.88832547856E+01  0.36396748585E+02  0.51100000000E-03 0. -1.
         22    1    1    0    0    0 -0.81161674980E+01 -0.12477776031E+02 -0.25118912017E+02  0.29198061759E+02  0.00000000000E+00 0.  1.
</event>
<event>
 5    1  0.1681111E-003  0.9118800E+02  0.7818608E-02  0.1130116E+00
         25   -1    0    0    0    0  0.00000000000E+00  0.00000000000E+00  0.99999998245E-14  0.12500000000E+03  0.12500000000E+03 0.  0.
        -11    1    3    3    0    0  0.40047047550E+02 -0.33598741081E+02  0.15087705697E+02  0.54408457828E+02  0.51100000000E-03 0.  1.
         23    2    1    0    0    0  0.20444183144E+02  0.68871468483E+01  0.13764271853E+02  0.99409912158E+02  0.96059762853E+02 0.  0.
         11    1    3    3    0    0 -0.19602864406E+02  0.40485887930E+02 -0.13234338446E+01  0.45001454330E+02  0.51100000000E-03 0. -1.
         22    1    1    0    0    0 -0.20444183144E+02 -0.68871468483E+01 -0.13764271853E+02  0.25590087842E+02  0.00000000000E+00 0.  1.
</event>
<event>
 5    1  0.1681111E-003  0.9118800E+02  0.7818608E-02  0.1130116E+00
         25   -1    0    0    0    0  0.00000000000E+00  0.00000000000E+00  0.99999998245E-14  0.12500000000E+03  0.12500000000E+03 0.  0.
        -11    1    3    3    0    0  0.25595403626E+01 -0.12018936713E+02 -0.54684198976E+02  0.56047905442E+02  0.51100000000E-03 0. -1.
         23    2    1    0    0    0 -0.10141579996E+02 -0.20767415752E+02 -0.18451213076E+02  0.95426625729E+02  0.90728476413E+02 0.  0.
         11    1    3    3    0    0 -0.12701120359E+02 -0.87484790392E+01  0.36232985900E+02  0.39378720286E+02  0.51100000000E-03 0.  1.
         22    1    1    0    0    0  0.10141579996E+02  0.20767415752E+02  0.18451213076E+02  0.29573374271E+02  0.00000000000E+00 0. -1.
</event>
<event>
 5    1  0.1681111E-003  0.9118800E+02  0.7818608E-02  0.1130116E+00
         25   -1    0    0    0    0  0.00000000000E+00  0.00000000000E+00  0.99999998245E-14  0.12500000000E+03  0.12500000000E+03 0.  0.
        -11    1    3    3    0    0 -0.29990564564E+02 -0.28839017059E+02 -0.45553825780E+02  0.61695007183E+02  0.51100000000E-03 0. -1.
         23    2    1    0    0    0 -0.11873692494E+02 -0.19728697175E+02 -0.18750426188E+02  0.95305142737E+02  0.90560950106E+02 0.  0.
         11    1    3    3    0    0  0.18116872070E+02  0.91103198845E+01  0.26803399592E+02  0.33610135554E+02  0.51100000000E-03 0.  1.
         22    1    1    0    0    0  0.11873692494E+02  0.19728697175E+02  0.18750426188E+02  0.29694857263E+02  0.00000000000E+00 0. -1.
</event>
<event>
 5    1  0.1681111E-003  0.9118800E+02  0.7818608E-02  0.1130116E+00
         25   -1    0    0    0    0  0.00000000000E+00  0.00000000000E+00  0.99999998245E-14  0.12500000000E+03  0.12500000000E+03 0.  0.
        -11    1    3    3    0    0  0.15288191094E+02 -0.30519248896E+02  0.23226090435E+02  0.41286857682E+02  0.51100000000E-03 0.  1.
         23    2    1    0    0    0 -0.27075478217E+02 -0.83942770413E+01 -0.41274829302E+01  0.96354205840E+02  0.91997562250E+02 0.  0.
         11    1    3    3    0    0 -0.42363669310E+02  0.22124971855E+02 -0.27353573366E+02  0.55067348158E+02  0.51100000000E-03 0. -1.
         22    1    1    0    0    0  0.27075478217E+02  0.83942770413E+01  0.41274829302E+01  0.28645794160E+02  0.00000000000E+00 0. -1.
</event>
<event>
 5    1  0.1681111E-003  0.9118800E+02  0.7818608E-02  0.1130116E+00
         25   -1    0    0    0    0  0.00000000000E+00  0.00000000000E+00  0.99999998245E-14  0.12500000000E+03  0.12500000000E+03 0.  0.
        -11    1    3    3    0    0 -0.24608136361E+02  0.27189634324E+02 -0.35488578518E+00  0.36673730844E+02  0.51100000000E-03 0. -1.
         23    2    1    0    0    0  0.19403351149E+02  0.11160075531E+02  0.26218346647E+02  0.90526256041E+02  0.83705220926E+02 0.  0.
         11    1    3    3    0    0  0.44011487510E+02 -0.16029558792E+02  0.26573232432E+02  0.53852525197E+02  0.51100000000E-03 0.  1.
         22    1    1    0    0    0 -0.19403351149E+02 -0.11160075531E+02 -0.26218346647E+02  0.34473743959E+02  0.00000000000E+00 0.  1.
</event>
<event>
 5    1  0.1681111E-003  0.9118800E+02  0.7818608E-02  0.1130116E+00
         25   -1    0    0    0    0  0.00000000000E+00  0.00000000000E+00  0.99999998245E-14  0.12500000000E+03  0.12500000000E+03 0.  0.
        -11    1    3    3    0    0 -0.32256440034E+02  0.22663957906E+02  0.14948253314E+02  0.42161394534E+02  0.51100000000E-03 0.  1.
         23    2    1    0    0    0 -0.48133019327E+02 -0.58768990950E+01  0.12566408938E+02  0.74907683961E+02  0.55694891959E+02 0.  0.
         11    1    3    3    0    0 -0.15876579293E+02 -0.28540857001E+02 -0.23818443756E+01  0.32746289428E+02  0.51100000000E-03 0. -1.
         22    1    1    0    0    0  0.48133019327E+02  0.58768990950E+01 -0.12566408938E+02  0.50092316039E+02  0.00000000000E+00 0.  1.
</event>
<event>
 5    1  0.1681111E-003  0.9118800E+02  0.7818608E-02  0.1130116E+00
         25   -1    0    0    0    0  0.00000000000E+00  0.00000000000E+00  0.99999998245E-14  0.12500000000E+03  0.12500000000E+03 0.  0.
        -11    1    3    3    0    0 -0.14456261783E+02 -0.26741559666E+02 -0.45606718653E+02  0.54809372416E+02  0.51100000000E-03 0. -1.
         23    2    1    0    0    0 -0.26340227718E+02 -0.16774143489E+02 -0.12511410542E+02  0.91359029744E+02  0.84939728255E+02 0.  0.
         11    1    3    3    0    0 -0.11883965934E+02  0.99674161774E+01  0.33095308111E+02  0.36549657328E+02  0.51100000000E-03 0.  1.
         22    1    1    0    0    0  0.26340227718E+02  0.16774143489E+02  0.12511410542E+02  0.33640970256E+02  0.00000000000E+00 0.  1.
</event>
<event>
 5    1  0.1681111E-003  0.9118800E+02  0.7818608E-02  0.1130116E+00
         25   -1    0    0    0    0  0.00000000000E+00  0.00000000000E+00  0.99999998245E-14  0.12500000000E+03  0.12500000000E+03 0.  0.
        -11    1    3    3    0    0  0.31949268823E+02 -0.70129634999E+00  0.78315805975E+01  0.32902602478E+02  0.51100000000E-03 0. -1.
         23    2    1    0    0    0 -0.28727680437E+02 -0.42856587975E+01 -0.62372061282E+01  0.95292269778E+02  0.90543180000E+02 0.  0.
         11    1    3    3    0    0 -0.60676949260E+02 -0.35843624475E+01 -0.14068786726E+02  0.62389667301E+02  0.51100000000E-03 0.  1.
         22    1    1    0    0    0  0.28727680437E+02  0.42856587975E+01  0.62372061282E+01  0.29707730222E+02  0.00000000000E+00 0.  1.
</event>
<event>
 5    1  0.1681111E-003  0.9118800E+02  0.7818608E-02  0.1130116E+00
         25   -1    0    0    0    0  0.00000000000E+00  0.00000000000E+00  0.99999998245E-14  0.12500000000E+03  0.12500000000E+03 0.  0.
        -11    1    3    3    0    0  0.26853322683E+02  0.45096708262E+02 -0.20396501366E+02  0.56310134997E+02  0.51100000000E-03 0.  1.
         23    2    1    0    0    0 -0.64513688800E+01  0.26489206860E+02 -0.11003786620E+02  0.95599633328E+02  0.90966523139E+02 0.  0.
         11    1    3    3    0    0 -0.33304691563E+02 -0.18607501402E+02  0.93927147460E+01  0.39289498331E+02  0.51100000000E-03 0. -1.
         22    1    1    0    0    0  0.64513688800E+01 -0.26489206860E+02  0.11003786620E+02  0.29400366672E+02  0.00000000000E+00 0.  1.
</event>
<event>
 5    1  0.1681111E-003  0.9118800E+02  0.7818608E-02  0.1130116E+00
         25   -1    0    0    0    0  0.00000000000E+00  0.00000000000E+00  0.99999998245E-14  0.12500000000E+03  0.12500000000E+03 0.  0.
        -11    1    3    3    0    0  0.32604995603E+02  0.68929008453E+01  0.13042979121E+02  0.35787108362E+02  0.51100000000E-03 0.  1.
         23    2    1    0    0    0 -0.17944544589E+02 -0.22046531340E+02 -0.35528288605E+01  0.96352507657E+02  0.91995254846E+02 0.  0.
         11    1    3    3    0    0 -0.50549540192E+02 -0.28939432186E+02 -0.16595807982E+02  0.60565399294E+02  0.51100000000E-03 0. -1.
         22    1    1    0    0    0  0.17944544589E+02  0.22046531340E+02  0.35528288605E+01  0.28647492343E+02  0.00000000000E+00 0. -1.
</event>
<event>
 5    1  0.1681111E-003  0.9118800E+02  0.7818608E-02  0.1130116E+00
         25   -1    0    0    0    0  0.00000000000E+00  0.00000000000E+00  0.99999998245E-14  0.12500000000E+03  0.12500000000E+03 0.  0.
        -11    1    3    3    0    0 -0.10785971343E+02  0.45657355858E+02 -0.24204004972E+02  0.52789820787E+02  0.51100000000E-03 0. -1.
         23    2    1    0    0    0  0.11125705313E+02  0.86876636381E+01 -0.25576143426E+02  0.95787058848E+02  0.91223706963E+02 0.  0.
         11    1    3    3    0    0  0.21911676656E+02 -0.36969692220E+02 -0.13721384535E+01  0.42997238061E+02  0.51100000000E-03 0.  1.
         22    1    1    0    0    0 -0.11125705313E+02 -0.86876636381E+01  0.25576143426E+02  0.29212941152E+02  0.00000000000E+00 0. -1.
</event>
<event>
 5    1  0.1681111E-003  0.9118800E+02  0.7818608E-02  0.1130116E+00
         25   -1    0    0    0    0  0.00000000000E+00  0.00000000000E+00  0.99999998245E-14  0.12500000000E+03  0.12500000000E+03 0.  0.
        -11    1    3    3    0    0  0.25541509282E+02  0.26586955341E+02  0.50643424531E+01  0.37214008860E+02  0.51100000000E-03 0.  1.
         23    2    1    0    0    0 -0.47348664098E+01 -0.15097709639E+02 -0.23914821435E+02  0.96324601476E+02  0.91957329066E+02 0.  0.
         11    1    3    3    0    0 -0.30276375692E+02 -0.41684664980E+02 -0.28979163888E+02  0.59110592616E+02  0.51100000000E-03 0. -1.
         22    1    1    0    0    0  0.47348664098E+01  0.15097709639E+02  0.23914821435E+02  0.28675398524E+02  0.00000000000E+00 0. -1.
</event>
<event>
 5    1  0.1681111E-003  0.9118800E+02  0.7818608E-02  0.1130116E+00
         25   -1    0    0    0    0  0.00000000000E+00  0.00000000000E+00  0.99999998245E-14  0.12500000000E+03  0.12500000000E+03 0.  0.
        -11    1    3    3    0    0 -0.21877741000E+02 -0.15126273541E+02  0.27754021101E+02  0.38441193920E+02  0.51100000000E-03 0. -1.
         23    2    1    0    0    0  0.27407235604E+02 -0.88967228616E+01 -0.15960079720E+01  0.96140764345E+02  0.91707093981E+02 0.  0.
         11    1    3    3    0    0  0.49284976603E+02  0.62295506791E+01 -0.29350029073E+02  0.57699570426E+02  0.51100000000E-03 0.  1.
         22    1    1    0    0    0 -0.27407235604E+02  0.88967228616E+01  0.15960079720E+01  0.28859235655E+02  0.00000000000E+00 0.  1.
</event>
<event>
 5    1  0.1681111E-003  0.9118800E+02  0.7818608E-02  0.1130116E+00
         25   -1    0    0    0    0  0.00000000000E+00  0.00000000000E+00  0.99999998245E-14  0.12500000000E+03  0.12500000000E+03 0.  0.
        -11    1    3    3    0    0  0.52370512407E+02 -0.12587483196E+02  0.23309001085E+02  0.58689222476E+02  0.51100000000E-03 0. -1.
         23    2    1    0    0    0  0.19777179784E+02 -0.20093691528E+02  0.67547370518E+01  0.96008281320E+02  0.91526336810E+02 0.  0.
         11    1    3    3    0    0 -0.32593332624E+02 -0.75062083316E+01 -0.16554264033E+02  0.37319058844E+02  0.51100000000E-03 0.  1.
         22    1    1    0    0    0 -0.19777179784E+02  0.20093691528E+02 -0.67547370518E+01  0.28991718680E+02  0.00000000000E+00 0. -1.
</event>
<event>
 5    1  0.1681111E-003  0.9118800E+02  0.7818608E-02  0.1130116E+00
         25   -1    0    0    0    0  0.00000000000E+00  0.00000000000E+00  0.99999998245E-14  0.12500000000E+03  0.12500000000E+03 0.  0.
        -11    1    3    3    0    0 -0.39363032213E+02 -0.49980462078E+01  0.37114623328E+02  0.54331611756E+02  0.51100000000E-03 0. -1.
         23    2    1    0    0    0 -0.27267648133E+02 -0.22865158729E+01 -0.40649602549E+01  0.97336365180E+02  0.93322512263E+02 0.  0.
         11    1    3    3    0    0  0.12095384080E+02  0.27115303348E+01 -0.41179583583E+02  0.43004753425E+02  0.51100000000E-03 0.  1.
         22    1    1    0    0    0  0.27267648133E+02  0.22865158729E+01  0.40649602549E+01  0.27663634820E+02  0.00000000000E+00 0. -1.
</event>
<event>
 5    1  0.1681111E-003  0.9118800E+02  0.7818608E-02  0.1130116E+00
         25   -1    0    0    0    0  0.00000000000E+00  0.00000000000E+00  0.99999998245E-14  0.12500000000E+03  0.12500000000E+03 0.  0.
        -11    1    3    3    0    0  0.16489150084E+02 -0.28316092797E+01  0.41034679100E+02  0.44314275022E+02  0.51100000000E-03 0.  1.
         23    2    1    0    0    0 -0.78493047170E+01  0.21673839794E+02 -0.45482901014E+01  0.10150417359E+03  0.98747371595E+02 0.  0.
         11    1    3    3    0    0 -0.24338454801E+02  0.24505449074E+02 -0.45582969202E+02  0.57189898565E+02  0.51100000000E-03 0. -1.
         22    1    1    0    0    0  0.78493047170E+01 -0.21673839794E+02  0.45482901014E+01  0.23495826413E+02  0.00000000000E+00 0. -1.
</event>
<event>
 5    1  0.1681111E-003  0.9118800E+02  0.7818608E-02  0.1130116E+00
         25   -1    0    0    0    0  0.00000000000E+00  0.00000000000E+00  0.99999998245E-14  0.12500000000E+03  0.12500000000E+03 0.  0.
        -11    1    3    3    0    0  0.30268951151E+02 -0.32952452455E+01 -0.13959363961E+01  0.30479774994E+02  0.51100000000E-03 0.  1.
         23    2    1    0    0    0 -0.31621716179E+02  0.48281970316E+01 -0.25333615000E+01  0.92911647889E+02  0.87194678578E+02 0.  0.
         11    1    3    3    0    0 -0.61890667330E+02  0.81234422771E+01 -0.11374251039E+01  0.62431872895E+02  0.51100000000E-03 0. -1.
         22    1    1    0    0    0  0.31621716179E+02 -0.48281970316E+01  0.25333615000E+01  0.32088352111E+02  0.00000000000E+00 0. -1.
</event>
<event>
 5    1  0.1681111E-003  0.9118800E+02  0.7818608E-02  0.1130116E+00
         25   -1    0    0    0    0  0.00000000000E+00  0.00000000000E+00  0.99999998245E-14  0.12500000000E+03  0.12500000000E+03 0.  0.
        -11    1    3    3    0    0 -0.37102444997E+01  0.28937203321E+02  0.24715176557E+02  0.38235684940E+02  0.51100000000E-03 0. -1.
         23    2    1    0    0    0  0.23251538995E+02 -0.13203386861E+02 -0.68610090426E+01  0.97394983511E+02  0.93400995058E+02 0.  0.
         11    1    3    3    0    0  0.26961783495E+02 -0.42140590183E+02 -0.31576185600E+02  0.59159298571E+02  0.51100000000E-03 0.  1.
         22    1    1    0    0    0 -0.23251538995E+02  0.13203386861E+02  0.68610090426E+01  0.27605016489E+02  0.00000000000E+00 0.  1.
</event>
<event>
 5    1  0.1681111E-003  0.9118800E+02  0.7818608E-02  0.1130116E+00
         25   -1    0    0    0    0  0.00000000000E+00  0.00000000000E+00  0.99999998245E-14  0.12500000000E+03  0.12500000000E+03 0.  0.
        -11    1    3    3    0    0  0.80397899554E+00  0.33987092021E+02  0.36127440307E+02  0.49608071416E+02  0.51100000000E-03 0.  1.
         23    2    1    0    0    0  0.23568516276E+02  0.18417107565E+02 -0.37030318891E-01  0.95089029074E+02  0.90262158563E+02 0.  0.
         11    1    3    3    0    0  0.22764537280E+02 -0.15569984455E+02 -0.36164470626E+02  0.45480957657E+02  0.51100000000E-03 0. -1.
         22    1    1    0    0    0 -0.23568516276E+02 -0.18417107565E+02  0.37030318891E-01  0.29910970926E+02  0.00000000000E+00 0. -1.
</event>
<event>
 5    1  0.1681111E-003  0.9118800E+02  0.7818608E-02  0.1130116E+00
         25   -1    0    0    0    0  0.00000000000E+00  0.00000000000E+00  0.99999998245E-14  0.12500000000E+03  0.12500000000E+03 0.  0.
        -11    1    3    3    0    0  0.24409052959E+02  0.41079112528E+02 -0.54749123970E+00  0.47786976253E+02  0.51100000000E-03 0.  1.
         23    2    1    0    0    0 -0.18450806678E+02  0.19987376911E+02  0.86972432109E+01  0.96441821796E+02  0.92116531898E+02 0.  0.
         11    1    3    3    0    0 -0.42859859637E+02 -0.21091735617E+02  0.92447344506E+01  0.48654845543E+02  0.51100000000E-03 0. -1.
         22    1    1    0    0    0  0.18450806678E+02 -0.19987376911E+02 -0.86972432109E+01  0.28558178204E+02  0.00000000000E+00 0. -1.
</event>
<event>
 5    1  0.1681111E-003  0.9118800E+02  0.7818608E-02  0.1130116E+00
         25   -1    0    0    0    0  0.00000000000E+00  0.00000000000E+00  0.99999998245E-14  0.12500000000E+03  0.12500000000E+03 0.  0.
        -11    1    3    3    0    0 -0.38445462481E+02 -0.45038762844E+02 -0.88137497135E+01  0.59868405091E+02  0.51100000000E-03 0.  1.
         23    2    1    0    0    0 -0.20249026149E+02 -0.17126767786E+02 -0.16099422540E+02  0.93975160905E+02  0.88706201735E+02 0.  0.
         11    1    3    3    0    0  0.18196436332E+02  0.27911995058E+02 -0.72856728267E+01  0.34106755814E+02  0.51100000000E-03 0. -1.
         22    1    1    0    0    0  0.20249026149E+02  0.17126767786E+02  0.16099422540E+02  0.31024839095E+02  0.00000000000E+00 0.  1.
</event>
<event>
 5    1  0.1681111E-003  0.9118800E+02  0.7818608E-02  0.1130116E+00
         25   -1    0    0    0    0  0.00000000000E+00  0.00000000000E+00  0.99999998245E-14  0.12500000000E+03  0.12500000000E+03 0.  0.
        -11    1    3    3    0    0  0.23565782212E+02 -0.24942612810E+02 -0.41810612347E+01  0.34568212253E+02  0.51100000000E-03 0. -1.
         23    2    1    0    0    0 -0.29912023025E+02  0.28669005124E+01 -0.20116830888E+01  0.94883640511E+02  0.89977275619E+02 0.  0.
         11    1    3    3    0    0 -0.53477805237E+02  0.27809513323E+02  0.21693781458E+01  0.60315428258E+02  0.51100000000E-03 0.  1.
         22    1    1    0    0    0  0.29912023025E+02 -0.28669005124E+01  0.20116830888E+01  0.30116359489E+02  0.00000000000E+00 0.  1.
</event>
<event>
 5    1  0.1681111E-003  0.9118800E+02  0.7818608E-02  0.1130116E+00
         25   -1    0    0    0    0  0.00000000000E+00  0.00000000000E+00  0.99999998245E-14  0.12500000000E+03  0.12500000000E+03 0.  0.
        -11    1    3    3    0    0 -0.24645647267E+02  0.21670387475E+02  0.29028214565E+02  0.43813820463E+02  0.51100000000E-03 0.  1.
         23    2    1    0    0    0 -0.16068008557E+01  0.24365061686E+02 -0.16925218160E+02  0.95289714749E+02  0.90539652568E+02 0.  0.
         11    1    3    3    0    0  0.23038846412E+02  0.26946742117E+01 -0.45953432724E+02  0.51475894285E+02  0.51100000000E-03 0. -1.
         22    1    1    0    0    0  0.16068008557E+01 -0.24365061686E+02  0.16925218160E+02  0.29710285251E+02  0.00000000000E+00 0.  1.
</event>
<event>
 5    1  0.1681111E-003  0.9118800E+02  0.7818608E-02  0.1130116E+00
         25   -1    0    0    0    0  0.00000000000E+00  0.00000000000E+00  0.99999998245E-14  0.12500000000E+03  0.12500000000E+03 0.  0.
        -11    1    3    3    0    0 -0.35401738179E+02 -0.73230700902E+00  0.33218408281E+01  0.35564785482E+02  0.51100000000E-03 0.  1.
         23    2    1    0    0    0  0.22215544145E+02 -0.17730900411E+02 -0.47662376467E+01  0.96179308608E+02  0.91759616128E+02 0.  0.
         11    1    3    3    0    0  0.57617282324E+02 -0.16998593402E+02 -0.80880784748E+01  0.60614523125E+02  0.51100000000E-03 0. -1.
         22    1    1    0    0    0 -0.22215544145E+02  0.17730900411E+02  0.47662376467E+01  0.28820691392E+02  0.00000000000E+00 0. -1.
</event>
<event>
 5    1  0.1681111E-003  0.9118800E+02  0.7818608E-02  0.1130116E+00
         25   -1    0    0    0    0  0.00000000000E+00  0.00000000000E+00  0.99999998245E-14  0.12500000000E+03  0.12500000000E+03 0.  0.
        -11    1    3    3    0    0  0.20072388256E+02 -0.12073290378E+02  0.32319216850E+02  0.39914870523E+02  0.51100000000E-03 0.  1.
         23    2    1    0    0    0  0.19404360345E+01  0.28267667894E+02 -0.29892214365E+01  0.96508566463E+02  0.92207058384E+02 0.  0.
         11    1    3    3    0    0 -0.18131952221E+02  0.40340958273E+02 -0.35308438286E+02  0.56593695940E+02  0.51100000000E-03 0. -1.
         22    1    1    0    0    0 -0.19404360345E+01 -0.28267667894E+02  0.29892214365E+01  0.28491433537E+02  0.00000000000E+00 0. -1.
</event>
<event>
 5    1  0.1681111E-003  0.9118800E+02  0.7818608E-02  0.1130116E+00
         25   -1    0    0    0    0  0.00000000000E+00  0.00000000000E+00  0.99999998245E-14  0.12500000000E+03  0.12500000000E+03 0.  0.
        -11    1    3    3    0    0  0.33682899472E+02 -0.36063104079E+02  0.36744232907E+02  0.61524172850E+02  0.51100000000E-03 0. -1.
         23    2    1    0    0    0  0.12351061253E+02 -0.23272907342E+02  0.14320196733E+02  0.95012586562E+02  0.90156234618E+02 0.  0.
         11    1    3    3    0    0 -0.21331838219E+02  0.12790196737E+02 -0.22424036174E+02  0.33488413712E+02  0.51100000000E-03 0.  1.
         22    1    1    0    0    0 -0.12351061253E+02  0.23272907342E+02 -0.14320196733E+02  0.29987413438E+02  0.00000000000E+00 0. -1.
</event>
<event>
 5    1  0.1681111E-003  0.9118800E+02  0.7818608E-02  0.1130116E+00
         25   -1    0    0    0    0  0.00000000000E+00  0.00000000000E+00  0.99999998245E-14  0.12500000000E+03  0.12500000000E+03 0.  0.
        -11    1    3    3    0    0 -0.12312582056E+02  0.40101110264E+02 -0.17389594352E+02  0.45410315053E+02  0.51100000000E-03 0.  1.
         23    2    1    0    0    0 -0.27539135063E+02  0.29029897212E-01  0.93300784970E+01  0.95923288227E+02  0.91410185738E+02 0.  0.
         11    1    3    3    0    0 -0.15226553008E+02 -0.40072080367E+02  0.26719672849E+02  0.50512973173E+02  0.51100000000E-03 0. -1.
         22    1    1    0    0    0  0.27539135063E+02 -0.29029897212E-01 -0.93300784970E+01  0.29076711773E+02  0.00000000000E+00 0.  1.
</event>
<event>
 5    1  0.1681111E-003  0.9118800E+02  0.7818608E-02  0.1130116E+00
         25   -1    0    0    0    0  0.00000000000E+00  0.00000000000E+00  0.99999998245E-14  0.12500000000E+03  0.12500000000E+03 0.  0.
        -11    1    3    3    0    0 -0.42593982259E+02  0.17457592547E+01  0.18503276984E+02  0.46472209539E+02  0.51100000000E-03 0.  1.
         23    2    1    0    0    0 -0.14148515030E+02 -0.37024595990E+01 -0.23397074147E+02  0.97408121426E+02  0.93418576078E+02 0.  0.
         11    1    3    3    0    0  0.28445467229E+02 -0.54482188537E+01 -0.41900351131E+02  0.50935911887E+02  0.51100000000E-03 0. -1.
         22    1    1    0    0    0  0.14148515030E+02  0.37024595990E+01  0.23397074147E+02  0.27591878574E+02  0.00000000000E+00 0. -1.
</event>
<event>
 5    1  0.1681111E-003  0.9118800E+02  0.7818608E-02  0.1130116E+00
         25   -1    0    0    0    0  0.00000000000E+00  0.00000000000E+00  0.99999998245E-14  0.12500000000E+03  0.12500000000E+03 0.  0.
        -11    1    3    3    0    0  0.38091979721E+02  0.18450937944E+02  0.18806308143E+01  0.42367119357E+02  0.51100000000E-03 0.  1.
         23    2    1    0    0    0 -0.24288244469E+01  0.19448864272E+01 -0.28944435489E+02  0.95888797394E+02  0.91363008644E+02 0.  0.
         11    1    3    3    0    0 -0.40520804168E+02 -0.16506051516E+02 -0.30825066303E+02  0.53521678037E+02  0.51100000000E-03 0. -1.
         22    1    1    0    0    0  0.24288244469E+01 -0.19448864272E+01  0.28944435489E+02  0.29111202606E+02  0.00000000000E+00 0. -1.
</event>
<event>
 5    1  0.1681111E-003  0.9118800E+02  0.7818608E-02  0.1130116E+00
         25   -1    0    0    0    0  0.00000000000E+00  0.00000000000E+00  0.99999998245E-14  0.12500000000E+03  0.12500000000E+03 0.  0.
        -11    1    3    3    0    0 -0.44861912834E+02 -0.41447720719E+02  0.77793647732E+01  0.61571286266E+02  0.51100000000E-03 0. -1.
         23    2    1    0    0    0 -0.17811362032E+02 -0.25839671169E+02  0.71700553344E+01  0.92807719605E+02  0.87045562214E+02 0.  0.
         11    1    3    3    0    0  0.27050550803E+02  0.15608049550E+02 -0.60930943878E+00  0.31236433339E+02  0.51100000000E-03 0.  1.
         22    1    1    0    0    0  0.17811362032E+02  0.25839671169E+02 -0.71700553344E+01  0.32192280395E+02  0.00000000000E+00 0. -1.
</event>
<event>
 5    1  0.1681111E-003  0.9118800E+02  0.7818608E-02  0.1130116E+00
         25   -1    0    0    0    0  0.00000000000E+00  0.00000000000E+00  0.99999998245E-14  0.12500000000E+03  0.12500000000E+03 0.  0.
        -11    1    3    3    0    0  0.83290087205E+01  0.41210870687E+02  0.14764380020E+02  0.44561139648E+02  0.51100000000E-03 0.  1.
         23    2    1    0    0    0  0.66602468289E+01 -0.89331109688E+01  0.26643775501E+02  0.96120073886E+02  0.91678887818E+02 0.  0.
         11    1    3    3    0    0 -0.16687618915E+01 -0.50143981656E+02  0.11879395480E+02  0.51558934239E+02  0.51100000000E-03 0. -1.
         22    1    1    0    0    0 -0.66602468289E+01  0.89331109688E+01 -0.26643775501E+02  0.28879926114E+02  0.00000000000E+00 0. -1.
</event>
<event>
 5    1  0.1681111E-003  0.9118800E+02  0.7818608E-02  0.1130116E+00
         25   -1    0    0    0    0  0.00000000000E+00  0.00000000000E+00  0.99999998245E-14  0.12500000000E+03  0.12500000000E+03 0.  0.
        -11    1    3    3    0    0 -0.30708347529E+02  0.41126536451E+02  0.15135502078E+02  0.53511475702E+02  0.51100000000E-03 0.  1.
         23    2    1    0    0    0 -0.14208203141E+02  0.19362512432E+02 -0.16918351361E+02  0.95622959017E+02  0.90998570066E+02 0.  0.
         11    1    3    3    0    0  0.16500144388E+02 -0.21764024019E+02 -0.32053853439E+02  0.42111483314E+02  0.51100000000E-03 0. -1.
         22    1    1    0    0    0  0.14208203141E+02 -0.19362512432E+02  0.16918351361E+02  0.29377040983E+02  0.00000000000E+00 0.  1.
</event>
<event>
 5    1  0.1681111E-003  0.9118800E+02  0.7818608E-02  0.1130116E+00
         25   -1    0    0    0    0  0.00000000000E+00  0.00000000000E+00  0.99999998245E-14  0.12500000000E+03  0.12500000000E+03 0.  0.
        -11    1    3    3    0    0 -0.21559156402E+02 -0.39910550295E+02 -0.32155768866E+01  0.45475149088E+02  0.51100000000E-03 0. -1.
         23    2    1    0    0    0 -0.20804658184E+02  0.50968628812E+01  0.19622324587E+02  0.95950947768E+02  0.91448001301E+02 0.  0.
         11    1    3    3    0    0  0.75449821744E+00  0.45007413176E+02  0.22837901474E+02  0.50475798680E+02  0.51100000000E-03 0.  1.
         22    1    1    0    0    0  0.20804658184E+02 -0.50968628812E+01 -0.19622324587E+02  0.29049052232E+02  0.00000000000E+00 0. -1.
</event>
<event>
 5    1  0.1681111E-003  0.9118800E+02  0.7818608E-02  0.1130116E+00
         25   -1    0    0    0    0  0.00000000000E+00  0.00000000000E+00  0.99999998245E-14  0.12500000000E+03  0.12500000000E+03 0.  0.
        -11    1    3    3    0    0  0.42940456814E+02 -0.22618263520E+02  0.32585810569E+02  0.58457708874E+02  0.51100000000E-03 0. -1.
         23    2    1    0    0    0  0.12986748346E+02 -0.24083671826E+02  0.10541620498E+02  0.95677574385E+02  0.91073561455E+02 0.  0.
         11    1    3    3    0    0 -0.29953708468E+02 -0.14654083065E+01 -0.22044190071E+02  0.37219865511E+02  0.51100000000E-03 0.  1.
         22    1    1    0    0    0 -0.12986748346E+02  0.24083671826E+02 -0.10541620498E+02  0.29322425615E+02  0.00000000000E+00 0. -1.
</event>
<event>
 5    1  0.1681111E-003  0.9118800E+02  0.7818608E-02  0.1130116E+00
         25   -1    0    0    0    0  0.00000000000E+00  0.00000000000E+00  0.99999998245E-14  0.12500000000E+03  0.12500000000E+03 0.  0.
        -11    1    3    3    0    0 -0.18347791435E+02  0.97999475648E+01  0.31286586159E+02  0.37570345973E+02  0.51100000000E-03 0.  1.
         23    2    1    0    0    0 -0.65705037057E+01  0.16919367268E+02 -0.24206591068E+02  0.94744495396E+02  0.89783761611E+02 0.  0.
         11    1    3    3    0    0  0.11777287730E+02  0.71194197033E+01 -0.55493177227E+02  0.57174149423E+02  0.51100000000E-03 0. -1.
         22    1    1    0    0    0  0.65705037057E+01 -0.16919367268E+02  0.24206591068E+02  0.30255504604E+02  0.00000000000E+00 0. -1.
</event>
<event>
 5    1  0.1681111E-003  0.9118800E+02  0.7818608E-02  0.1130116E+00
         25   -1    0    0    0    0  0.00000000000E+00  0.00000000000E+00  0.99999998245E-14  0.12500000000E+03  0.12500000000E+03 0.  0.
        -11    1    3    3    0    0  0.22969623837E+02 -0.34252929114E+01 -0.37779571607E+02  0.44346727972E+02  0.51100000000E-03 0. -1.
         23    2    1    0    0    0 -0.15086400090E+02  0.19866699341E+02 -0.22199559125E+02  0.91606802553E+02  0.85303579282E+02 0.  0.
         11    1    3    3    0    0 -0.38056023927E+02  0.23291992252E+02  0.15580012482E+02  0.47260074581E+02  0.51100000000E-03 0.  1.
         22    1    1    0    0    0  0.15086400090E+02 -0.19866699341E+02  0.22199559125E+02  0.33393197447E+02  0.00000000000E+00 0. -1.
</event>
<event>
 5    1  0.1681111E-003  0.9118800E+02  0.7818608E-02  0.1130116E+00
         25   -1    0    0    0    0  0.00000000000E+00  0.00000000000E+00  0.99999998245E-14  0.12500000000E+03  0.12500000000E+03 0.  0.
        -11    1    3    3    0    0  0.54585041299E+01  0.50953371203E+02 -0.28329437516E+02  0.58554234130E+02  0.51100000000E-03 0. -1.
         23    2    1    0    0    0 -0.56891171978E+01  0.28855703599E+02 -0.79418749988E+00  0.95578096281E+02  0.90936923580E+02 0.  0.
         11    1    3    3    0    0 -0.11147621328E+02 -0.22097667604E+02  0.27535250017E+02  0.37023862151E+02  0.51100000000E-03 0.  1.
         22    1    1    0    0    0  0.56891171978E+01 -0.28855703599E+02  0.79418749988E+00  0.29421903719E+02  0.00000000000E+00 0. -1.
</event>
<event>
 5    1  0.1681111E-003  0.9118800E+02  0.7818608E-02  0.1130116E+00
         25   -1    0    0    0    0  0.00000000000E+00  0.00000000000E+00  0.99999998245E-14  0.12500000000E+03  0.12500000000E+03 0.  0.
        -11    1    3    3    0    0  0.20775863899E-01 -0.52627267869E+02 -0.94704865242E+01  0.53472608598E+02  0.51100000000E-03 0. -1.
         23    2    1    0    0    0 -0.21761530200E+02 -0.19351629799E+02  0.43058666185E+01  0.95562094847E+02  0.90914925681E+02 0.  0.
         11    1    3    3    0    0 -0.21782306064E+02  0.33275638071E+02  0.13776353143E+02  0.42089486248E+02  0.51100000000E-03 0.  1.
         22    1    1    0    0    0  0.21761530200E+02  0.19351629799E+02 -0.43058666185E+01  0.29437905153E+02  0.00000000000E+00 0. -1.
</event>
<event>
 5    1  0.1681111E-003  0.9118800E+02  0.7818608E-02  0.1130116E+00
         25   -1    0    0    0    0  0.00000000000E+00  0.00000000000E+00  0.99999998245E-14  0.12500000000E+03  0.12500000000E+03 0.  0.
        -11    1    3    3    0    0 -0.37217257588E+02  0.44789455482E+02 -0.17294488789E+02  0.60747995254E+02  0.51100000000E-03 0. -1.
         23    2    1    0    0    0 -0.84881050929E+01  0.26411593748E+02 -0.66952952855E+01  0.96461478816E+02  0.92143202159E+02 0.  0.
         11    1    3    3    0    0  0.28729152495E+02 -0.18377861734E+02  0.10599193503E+02  0.35713483562E+02  0.51100000000E-03 0.  1.
         22    1    1    0    0    0  0.84881050929E+01 -0.26411593748E+02  0.66952952855E+01  0.28538521184E+02  0.00000000000E+00 0. -1.
</event>
<event>
 5    1  0.1681111E-003  0.9118800E+02  0.7818608E-02  0.1130116E+00
         25   -1    0    0    0    0  0.00000000000E+00  0.00000000000E+00  0.99999998245E-14  0.12500000000E+03  0.12500000000E+03 0.  0.
        -11    1    3    3    0    0 -0.28660385087E+02 -0.18766639834E+02  0.20254518882E+02  0.39797612735E+02  0.51100000000E-03 0. -1.
         23    2    1    0    0    0  0.20201948844E+02  0.75720780618E+01  0.20401642202E+02  0.95306867666E+02  0.90563330971E+02 0.  0.
         11    1    3    3    0    0  0.48862333930E+02  0.26338717896E+02  0.14712332010E+00  0.55509254931E+02  0.51100000000E-03 0.  1.
         22    1    1    0    0    0 -0.20201948844E+02 -0.75720780618E+01 -0.20401642202E+02  0.29693132334E+02  0.00000000000E+00 0.  1.
</event>
<event>
 5    1  0.1681111E-003  0.9118800E+02  0.7818608E-02  0.1130116E+00
         25   -1    0    0    0    0  0.00000000000E+00  0.00000000000E+00  0.99999998245E-14  0.12500000000E+03  0.12500000000E+03 0.  0.
        -11    1    3    3    0    0 -0.22021902292E+02 -0.38440820153E+02  0.16594014692E+02  0.47307738886E+02  0.51100000000E-03 0. -1.
         23    2    1    0    0    0 -0.59331908213E+01  0.10668868733E+02 -0.13249573988E+02  0.10698393150E+03  0.10545607083E+03 0.  0.
         11    1    3    3    0    0  0.16088711470E+02  0.49109688886E+02 -0.29843588680E+02  0.59676192614E+02  0.51100000000E-03 0.  1.
         22    1    1    0    0    0  0.59331908213E+01 -0.10668868733E+02  0.13249573988E+02  0.18016068501E+02  0.00000000000E+00 0.  1.
</event>
<event>
 5    1  0.1681111E-003  0.9118800E+02  0.7818608E-02  0.1130116E+00
         25   -1    0    0    0    0  0.00000000000E+00  0.00000000000E+00  0.99999998245E-14  0.12500000000E+03  0.12500000000E+03 0.  0.
        -11    1    3    3    0    0  0.11673638615E+02  0.57950238947E+02  0.56010908428E+01  0.59379089345E+02  0.51100000000E-03 0.  1.
         23    2    1    0    0    0  0.15628374125E+02  0.25458539051E+02 -0.67686920213E+01  0.94369974207E+02  0.89260817562E+02 0.  0.
         11    1    3    3    0    0  0.39547355094E+01 -0.32491699896E+02 -0.12369782864E+02  0.34990884862E+02  0.51100000000E-03 0. -1.
         22    1    1    0    0    0 -0.15628374125E+02 -0.25458539051E+02  0.67686920213E+01  0.30630025793E+02  0.00000000000E+00 0.  1.
</event>
<event>
 5    1  0.1681111E-003  0.9118800E+02  0.7818608E-02  0.1130116E+00
         25   -1    0    0    0    0  0.00000000000E+00  0.00000000000E+00  0.99999998245E-14  0.12500000000E+03  0.12500000000E+03 0.  0.
        -11    1    3    3    0    0 -0.40973511737E+02  0.39860360828E+02  0.24690932534E+02  0.62268123298E+02  0.51100000000E-03 0. -1.
         23    2    1    0    0    0 -0.16824578377E+02  0.21448665915E+02  0.12864915570E+02  0.94856712858E+02  0.89939858875E+02 0.  0.
         11    1    3    3    0    0  0.24148933360E+02 -0.18411694913E+02 -0.11826016964E+02  0.32588589559E+02  0.51100000000E-03 0.  1.
         22    1    1    0    0    0  0.16824578377E+02 -0.21448665915E+02 -0.12864915570E+02  0.30143287142E+02  0.00000000000E+00 0. -1.
</event>
<event>
 5    1  0.1681111E-003  0.9118800E+02  0.7818608E-02  0.1130116E+00
         25   -1    0    0    0    0  0.00000000000E+00  0.00000000000E+00  0.99999998245E-14  0.12500000000E+03  0.12500000000E+03 0.  0.
        -11    1    3    3    0    0 -0.54852590471E+01 -0.40646679737E+02 -0.41981777727E+01  0.41229423199E+02  0.51100000000E-03 0.  1.
         23    2    1    0    0    0 -0.21869675685E+02  0.14428910484E+02 -0.95461275600E+00  0.98781924979E+02  0.95239074148E+02 0.  0.
         11    1    3    3    0    0 -0.16384416638E+02  0.55075590221E+02  0.32435650167E+01  0.57552501779E+02  0.51100000000E-03 0. -1.
         22    1    1    0    0    0  0.21869675685E+02 -0.14428910484E+02  0.95461275600E+00  0.26218075021E+02  0.00000000000E+00 0. -1.
</event>
<event>
 5    1  0.1681111E-003  0.9118800E+02  0.7818608E-02  0.1130116E+00
         25   -1    0    0    0    0  0.00000000000E+00  0.00000000000E+00  0.99999998245E-14  0.12500000000E+03  0.12500000000E+03 0.  0.
        -11    1    3    3    0    0 -0.13629505386E+02 -0.76649844463E+01 -0.56816380308E+02  0.58928910351E+02  0.51100000000E-03 0.  1.
         23    2    1    0    0    0 -0.20631776856E+02 -0.10469543821E+02 -0.28195111913E+02  0.88527463759E+02  0.80665146995E+02 0.  0.
         11    1    3    3    0    0 -0.70022714705E+01 -0.28045593747E+01  0.28621268395E+02  0.29598553408E+02  0.51100000000E-03 0. -1.
         22    1    1    0    0    0  0.20631776856E+02  0.10469543821E+02  0.28195111913E+02  0.36472536241E+02  0.00000000000E+00 0.  1.
</event>
<event>
 5    1  0.1681111E-003  0.9118800E+02  0.7818608E-02  0.1130116E+00
         25   -1    0    0    0    0  0.00000000000E+00  0.00000000000E+00  0.99999998245E-14  0.12500000000E+03  0.12500000000E+03 0.  0.
        -11    1    3    3    0    0  0.12311925148E+02 -0.30264925002E+02 -0.22590186306E+02  0.39722357732E+02  0.51100000000E-03 0.  1.
         23    2    1    0    0    0  0.16739127110E+02 -0.85427595498E+01  0.25876953776E+02  0.93018851586E+02  0.87348227782E+02 0.  0.
         11    1    3    3    0    0  0.44272019622E+01  0.21722165452E+02  0.48467140082E+02  0.53296493854E+02  0.51100000000E-03 0. -1.
         22    1    1    0    0    0 -0.16739127110E+02  0.85427595498E+01 -0.25876953776E+02  0.31981148414E+02  0.00000000000E+00 0. -1.
</event>
<event>
 5    1  0.1681111E-003  0.9118800E+02  0.7818608E-02  0.1130116E+00
         25   -1    0    0    0    0  0.00000000000E+00  0.00000000000E+00  0.99999998245E-14  0.12500000000E+03  0.12500000000E+03 0.  0.
        -11    1    3    3    0    0  0.38303830331E+02 -0.18454309722E+02 -0.18530527260E+02  0.46380226457E+02  0.51100000000E-03 0.  1.
         23    2    1    0    0    0 -0.11992145077E+02 -0.21925220358E+02 -0.12196196460E+02  0.97192194632E+02  0.93129204109E+02 0.  0.
         11    1    3    3    0    0 -0.50295975408E+02 -0.34709106364E+01  0.63343307995E+01  0.50811968175E+02  0.51100000000E-03 0. -1.
         22    1    1    0    0    0  0.11992145077E+02  0.21925220358E+02  0.12196196460E+02  0.27807805368E+02  0.00000000000E+00 0. -1.
</event>
<event>
 5    1  0.1681111E-003  0.9118800E+02  0.7818608E-02  0.1130116E+00
         25   -1    0    0    0    0  0.00000000000E+00  0.00000000000E+00  0.99999998245E-14  0.12500000000E+03  0.12500000000E+03 0.  0.
        -11    1    3    3    0    0  0.11156645438E+02  0.20219624297E+02  0.28165761850E+02  0.36422713861E+02  0.51100000000E-03 0.  1.
         23    2    1    0    0    0 -0.21730130689E+01 -0.24523647444E+02 -0.11632557406E+02  0.97770463435E+02  0.93902161098E+02 0.  0.
         11    1    3    3    0    0 -0.13329658507E+02 -0.44743271741E+02 -0.39798319256E+02  0.61347749574E+02  0.51100000000E-03 0. -1.
         22    1    1    0    0    0  0.21730130689E+01  0.24523647444E+02  0.11632557406E+02  0.27229536565E+02  0.00000000000E+00 0. -1.
</event>
<event>
 5    1  0.1681111E-003  0.9118800E+02  0.7818608E-02  0.1130116E+00
         25   -1    0    0    0    0  0.00000000000E+00  0.00000000000E+00  0.99999998245E-14  0.12500000000E+03  0.12500000000E+03 0.  0.
        -11    1    3    3    0    0  0.26659414509E+02 -0.35690308582E+02  0.22391085674E+02  0.49858632418E+02  0.51100000000E-03 0.  1.
         23    2    1    0    0    0  0.21897556309E+02  0.98340894513E+01  0.16181907687E+02  0.96050623080E+02  0.91584145845E+02 0.  0.
         11    1    3    3    0    0 -0.47618582006E+01  0.45524398034E+02 -0.62091779863E+01  0.46191990663E+02  0.51100000000E-03 0. -1.
         22    1    1    0    0    0 -0.21897556309E+02 -0.98340894513E+01 -0.16181907687E+02  0.28949376920E+02  0.00000000000E+00 0. -1.
</event>
<event>
 5    1  0.1681111E-003  0.9118800E+02  0.7818608E-02  0.1130116E+00
         25   -1    0    0    0    0  0.00000000000E+00  0.00000000000E+00  0.99999998245E-14  0.12500000000E+03  0.12500000000E+03 0.  0.
        -11    1    3    3    0    0  0.28815642916E+02  0.40363345417E+01 -0.23733180615E+02  0.37548596985E+02  0.51100000000E-03 0.  1.
         23    2    1    0    0    0  0.79846500925E+01 -0.31361928407E+01  0.29031273246E+02  0.94727815260E+02  0.89760535956E+02 0.  0.
         11    1    3    3    0    0 -0.20830992824E+02 -0.71725273824E+01  0.52764453861E+02  0.57179218275E+02  0.51100000000E-03 0. -1.
         22    1    1    0    0    0 -0.79846500925E+01  0.31361928407E+01 -0.29031273246E+02  0.30272184740E+02  0.00000000000E+00 0. -1.
</event>
<event>
 5    1  0.1681111E-003  0.9118800E+02  0.7818608E-02  0.1130116E+00
         25   -1    0    0    0    0  0.00000000000E+00  0.00000000000E+00  0.99999998245E-14  0.12500000000E+03  0.12500000000E+03 0.  0.
        -11    1    3    3    0    0  0.30030646983E+02 -0.34057002216E+02  0.81860880528E+01  0.46138175040E+02  0.51100000000E-03 0.  1.
         23    2    1    0    0    0  0.11854187934E+02  0.84796252562E+01  0.25581149077E+02  0.95558175937E+02  0.90909537366E+02 0.  0.
         11    1    3    3    0    0 -0.18176459049E+02  0.42536627472E+02  0.17395061024E+02  0.49420000896E+02  0.51100000000E-03 0. -1.
         22    1    1    0    0    0 -0.11854187934E+02 -0.84796252562E+01 -0.25581149077E+02  0.29441824063E+02  0.00000000000E+00 0. -1.
</event>
<event>
 5    1  0.1681111E-003  0.9118800E+02  0.7818608E-02  0.1130116E+00
         25   -1    0    0    0    0  0.00000000000E+00  0.00000000000E+00  0.99999998245E-14  0.12500000000E+03  0.12500000000E+03 0.  0.
        -11    1    3    3    0    0  0.19572964621E+02  0.45447131352E+01  0.49240478209E+02  0.53182516451E+02  0.51100000000E-03 0. -1.
         23    2    1    0    0    0  0.53038424739E+01 -0.21726280899E+02  0.20117351280E+02  0.94918945345E+02  0.90026309133E+02 0.  0.
         11    1    3    3    0    0 -0.14269122148E+02 -0.26270994034E+02 -0.29123126929E+02  0.41736428894E+02  0.51100000000E-03 0.  1.
         22    1    1    0    0    0 -0.53038424739E+01  0.21726280899E+02 -0.20117351280E+02  0.30081054655E+02  0.00000000000E+00 0. -1.
</event>
<event>
 5    1  0.1681111E-003  0.9118800E+02  0.7818608E-02  0.1130116E+00
         25   -1    0    0    0    0  0.00000000000E+00  0.00000000000E+00  0.99999998245E-14  0.12500000000E+03  0.12500000000E+03 0.  0.
        -11    1    3    3    0    0 -0.82211184825E+00 -0.26172893994E+02 -0.22373377057E+02  0.34442187055E+02  0.51100000000E-03 0.  1.
         23    2    1    0    0    0 -0.20762111814E+01  0.29830499048E+02 -0.16709981017E+02  0.90745178560E+02  0.84031509804E+02 0.  0.
         11    1    3    3    0    0 -0.12540993331E+01  0.56003393042E+02  0.56633960403E+01  0.56302991505E+02  0.51100000000E-03 0. -1.
         22    1    1    0    0    0  0.20762111814E+01 -0.29830499048E+02  0.16709981017E+02  0.34254821440E+02  0.00000000000E+00 0. -1.
</event>
<event>
 5    1  0.1681111E-003  0.9118800E+02  0.7818608E-02  0.1130116E+00
         25   -1    0    0    0    0  0.00000000000E+00  0.00000000000E+00  0.99999998245E-14  0.12500000000E+03  0.12500000000E+03 0.  0.
        -11    1    3    3    0    0  0.23286412177E+01  0.15640297412E+01  0.28642094806E+02  0.28779130531E+02  0.51100000000E-03 0. -1.
         23    2    1    0    0    0 -0.61814224141E+01 -0.16420645008E+02 -0.29746433587E+02  0.90464541748E+02  0.83613009974E+02 0.  0.
         11    1    3    3    0    0 -0.85100636318E+01 -0.17984674749E+02 -0.58388528393E+02  0.61685411217E+02  0.51100000000E-03 0.  1.
         22    1    1    0    0    0  0.61814224141E+01  0.16420645008E+02  0.29746433587E+02  0.34535458252E+02  0.00000000000E+00 0.  1.
</event>
<event>
 5    1  0.1681111E-003  0.9118800E+02  0.7818608E-02  0.1130116E+00
         25   -1    0    0    0    0  0.00000000000E+00  0.00000000000E+00  0.99999998245E-14  0.12500000000E+03  0.12500000000E+03 0.  0.
        -11    1    3    3    0    0 -0.15638775823E+02  0.25447757951E+02  0.12056413363E+02  0.32210507563E+02  0.51100000000E-03 0.  1.
         23    2    1    0    0    0  0.25881455854E+02 -0.18288035904E+02  0.46857662603E+01  0.92964731626E+02  0.87270744849E+02 0.  0.
         11    1    3    3    0    0  0.41520231677E+02 -0.43735793855E+02 -0.73706471030E+01  0.60754224064E+02  0.51100000000E-03 0. -1.
         22    1    1    0    0    0 -0.25881455854E+02  0.18288035904E+02 -0.46857662603E+01  0.32035268374E+02  0.00000000000E+00 0. -1.
</event>
<event>
 5    1  0.1681111E-003  0.9118800E+02  0.7818608E-02  0.1130116E+00
         25   -1    0    0    0    0  0.00000000000E+00  0.00000000000E+00  0.99999998245E-14  0.12500000000E+03  0.12500000000E+03 0.  0.
        -11    1    3    3    0    0 -0.10630946065E+02 -0.48848790268E+02  0.29264742363E+01  0.50077795245E+02  0.51100000000E-03 0. -1.
         23    2    1    0    0    0 -0.12822087417E+02 -0.78294627631E+01  0.24336107567E+02  0.96400130343E+02  0.92059940179E+02 0.  0.
         11    1    3    3    0    0 -0.21911413515E+01  0.41019327505E+02  0.21409633331E+02  0.46322335098E+02  0.51100000000E-03 0.  1.
         22    1    1    0    0    0  0.12822087417E+02  0.78294627631E+01 -0.24336107567E+02  0.28599869657E+02  0.00000000000E+00 0. -1.
</event>
<event>
 5    1  0.1681111E-003  0.9118800E+02  0.7818608E-02  0.1130116E+00
         25   -1    0    0    0    0  0.00000000000E+00  0.00000000000E+00  0.99999998245E-14  0.12500000000E+03  0.12500000000E+03 0.  0.
        -11    1    3    3    0    0 -0.46982188874E+02 -0.24925127716E+02 -0.27727946210E+02  0.59978555037E+02  0.51100000000E-03 0. -1.
         23    2    1    0    0    0 -0.14088689089E+02 -0.21283910475E+02 -0.14701814184E+02  0.95544281613E+02  0.90890430758E+02 0.  0.
         11    1    3    3    0    0  0.32893499785E+02  0.36412172405E+01  0.13026132026E+02  0.35565726576E+02  0.51100000000E-03 0.  1.
         22    1    1    0    0    0  0.14088689089E+02  0.21283910475E+02  0.14701814184E+02  0.29455718387E+02  0.00000000000E+00 0. -1.
</event>
<event>
 5    1  0.1681111E-003  0.9118800E+02  0.7818608E-02  0.1130116E+00
         25   -1    0    0    0    0  0.00000000000E+00  0.00000000000E+00  0.99999998245E-14  0.12500000000E+03  0.12500000000E+03 0.  0.
        -11    1    3    3    0    0 -0.35438221510E+02  0.73341145605E+01  0.27807866745E+02  0.45639174328E+02  0.51100000000E-03 0.  1.
         23    2    1    0    0    0 -0.29223025294E+02 -0.14578988940E+02 -0.10916764717E+02  0.90565890780E+02  0.83764387989E+02 0.  0.
         11    1    3    3    0    0  0.62151962159E+01 -0.21913103500E+02 -0.38724631462E+02  0.44926716452E+02  0.51100000000E-03 0. -1.
         22    1    1    0    0    0  0.29223025294E+02  0.14578988940E+02  0.10916764717E+02  0.34434109220E+02  0.00000000000E+00 0.  1.
</event>
<event>
 5    1  0.1681111E-003  0.9118800E+02  0.7818608E-02  0.1130116E+00
         25   -1    0    0    0    0  0.00000000000E+00  0.00000000000E+00  0.99999998245E-14  0.12500000000E+03  0.12500000000E+03 0.  0.
        -11    1    3    3    0    0 -0.35789594589E+02 -0.24714496801E+02 -0.19817802201E+01  0.43538820449E+02  0.51100000000E-03 0. -1.
         23    2    1    0    0    0  0.15455714701E+02 -0.24233148120E+02  0.66246966162E+01  0.95504047906E+02  0.90835081199E+02 0.  0.
         11    1    3    3    0    0  0.51245309290E+02  0.48134868110E+00  0.86064768363E+01  0.51965227457E+02  0.51100000000E-03 0.  1.
         22    1    1    0    0    0 -0.15455714701E+02  0.24233148120E+02 -0.66246966162E+01  0.29495952094E+02  0.00000000000E+00 0.  1.
</event>
<event>
 5    1  0.1681111E-003  0.9118800E+02  0.7818608E-02  0.1130116E+00
         25   -1    0    0    0    0  0.00000000000E+00  0.00000000000E+00  0.99999998245E-14  0.12500000000E+03  0.12500000000E+03 0.  0.
        -11    1    3    3    0    0 -0.12723973308E+02 -0.31365591298E+02  0.25358811731E+02  0.42293842896E+02  0.51100000000E-03 0. -1.
         23    2    1    0    0    0 -0.26792313950E+02  0.10955412971E+02 -0.41324989339E+01  0.95760870266E+02  0.91187814792E+02 0.  0.
         11    1    3    3    0    0 -0.14068340642E+02  0.42321004269E+02 -0.29491310665E+02  0.53467027370E+02  0.51100000000E-03 0.  1.
         22    1    1    0    0    0  0.26792313950E+02 -0.10955412971E+02  0.41324989339E+01  0.29239129734E+02  0.00000000000E+00 0.  1.
</event>
<event>
 5    1  0.1681111E-003  0.9118800E+02  0.7818608E-02  0.1130116E+00
         25   -1    0    0    0    0  0.00000000000E+00  0.00000000000E+00  0.99999998245E-14  0.12500000000E+03  0.12500000000E+03 0.  0.
        -11    1    3    3    0    0  0.13553662614E+02 -0.28809227881E+02  0.15403036004E+02  0.35368444972E+02  0.51100000000E-03 0. -1.
         23    2    1    0    0    0 -0.25289361845E+02  0.11682136283E+02 -0.77764301105E+01  0.96077742206E+02  0.91621152315E+02 0.  0.
         11    1    3    3    0    0 -0.38843024459E+02  0.40491364164E+02 -0.23179466115E+02  0.60709297234E+02  0.51100000000E-03 0.  1.
         22    1    1    0    0    0  0.25289361845E+02 -0.11682136283E+02  0.77764301105E+01  0.28922257794E+02  0.00000000000E+00 0.  1.
</event>
<event>
 5    1  0.1681111E-003  0.9118800E+02  0.7818608E-02  0.1130116E+00
         25   -1    0    0    0    0  0.00000000000E+00  0.00000000000E+00  0.99999998245E-14  0.12500000000E+03  0.12500000000E+03 0.  0.
        -11    1    3    3    0    0  0.12364126463E+02  0.37652470438E+02 -0.40258538968E+02  0.56491858824E+02  0.51100000000E-03 0.  1.
         23    2    1    0    0    0  0.11424588314E+02  0.14221847226E+02 -0.41180934243E+02  0.79959446032E+02  0.66067098528E+02 0.  0.
         11    1    3    3    0    0 -0.93953814938E+00 -0.23430623212E+02 -0.92239527479E+00  0.23467587208E+02  0.51100000000E-03 0. -1.
         22    1    1    0    0    0 -0.11424588314E+02 -0.14221847226E+02  0.41180934243E+02  0.45040553968E+02  0.00000000000E+00 0.  1.
</event>
<event>
 5    1  0.1681111E-003  0.9118800E+02  0.7818608E-02  0.1130116E+00
         25   -1    0    0    0    0  0.00000000000E+00  0.00000000000E+00  0.99999998245E-14  0.12500000000E+03  0.12500000000E+03 0.  0.
        -11    1    3    3    0    0 -0.32375032711E+02  0.41521098913E+02  0.16840538372E+02  0.55278821721E+02  0.51100000000E-03 0.  1.
         23    2    1    0    0    0 -0.26249326236E+02  0.20618199870E+01  0.13660311341E+02  0.95337189354E+02  0.90605172801E+02 0.  0.
         11    1    3    3    0    0  0.61257064749E+01 -0.39459278926E+02 -0.31802270306E+01  0.40058367632E+02  0.51100000000E-03 0. -1.
         22    1    1    0    0    0  0.26249326236E+02 -0.20618199870E+01 -0.13660311341E+02  0.29662810646E+02  0.00000000000E+00 0.  1.
</event>
<event>
 5    1  0.1681111E-003  0.9118800E+02  0.7818608E-02  0.1130116E+00
         25   -1    0    0    0    0  0.00000000000E+00  0.00000000000E+00  0.99999998245E-14  0.12500000000E+03  0.12500000000E+03 0.  0.
        -11    1    3    3    0    0  0.16234314934E+02  0.29908165260E+01  0.40383624087E+02  0.43627228419E+02  0.51100000000E-03 0. -1.
         23    2    1    0    0    0 -0.53717660055E+01 -0.27546823745E+02  0.25715376873E+01  0.96816739462E+02  0.92623889281E+02 0.  0.
         11    1    3    3    0    0 -0.21606080940E+02 -0.30537640271E+02 -0.37812086400E+02  0.53189511043E+02  0.51100000000E-03 0.  1.
         22    1    1    0    0    0  0.53717660055E+01  0.27546823745E+02 -0.25715376873E+01  0.28183260538E+02  0.00000000000E+00 0.  1.
</event>
<event>
 5    1  0.1681111E-003  0.9118800E+02  0.7818608E-02  0.1130116E+00
         25   -1    0    0    0    0  0.00000000000E+00  0.00000000000E+00  0.99999998245E-14  0.12500000000E+03  0.12500000000E+03 0.  0.
        -11    1    3    3    0    0 -0.38008389047E+02 -0.23500622297E+02  0.11773344143E+02  0.46211779005E+02  0.51100000000E-03 0. -1.
         23    2    1    0    0    0 -0.17539753223E+02  0.21745922868E+02  0.75942180187E+01  0.96048311762E+02  0.91580991153E+02 0.  0.
         11    1    3    3    0    0  0.20468635823E+02  0.45246545165E+02 -0.41791261243E+01  0.49836532757E+02  0.51100000000E-03 0.  1.
         22    1    1    0    0    0  0.17539753223E+02 -0.21745922868E+02 -0.75942180187E+01  0.28951688238E+02  0.00000000000E+00 0. -1.
</event>
<event>
 5    1  0.1681111E-003  0.9118800E+02  0.7818608E-02  0.1130116E+00
         25   -1    0    0    0    0  0.00000000000E+00  0.00000000000E+00  0.99999998245E-14  0.12500000000E+03  0.12500000000E+03 0.  0.
        -11    1    3    3    0    0 -0.22269716455E+02 -0.46632291845E+02 -0.20714028641E+02  0.55673888821E+02  0.51100000000E-03 0. -1.
         23    2    1    0    0    0  0.82332540156E+01 -0.26071245712E+02 -0.17363639382E+02  0.92611849432E+02  0.86763830931E+02 0.  0.
         11    1    3    3    0    0  0.30502970470E+02  0.20561046133E+02  0.33503892591E+01  0.36937960610E+02  0.51100000000E-03 0.  1.
         22    1    1    0    0    0 -0.82332540156E+01  0.26071245712E+02  0.17363639382E+02  0.32388150568E+02  0.00000000000E+00 0. -1.
</event>
<event>
 5    1  0.1681111E-003  0.9118800E+02  0.7818608E-02  0.1130116E+00
         25   -1    0    0    0    0  0.00000000000E+00  0.00000000000E+00  0.99999998245E-14  0.12500000000E+03  0.12500000000E+03 0.  0.
        -11    1    3    3    0    0  0.62535496862E+01 -0.22573279741E+02  0.67993768256E+01  0.24390394983E+02  0.51100000000E-03 0.  1.
         23    2    1    0    0    0 -0.57912405200E+01  0.35298175958E+02 -0.13317332680E+02  0.86831281887E+02  0.77992438555E+02 0.  0.
         11    1    3    3    0    0 -0.12044790206E+02  0.57871455699E+02 -0.20116709505E+02  0.62440886904E+02  0.51100000000E-03 0. -1.
         22    1    1    0    0    0  0.57912405200E+01 -0.35298175958E+02  0.13317332680E+02  0.38168718113E+02  0.00000000000E+00 0. -1.
</event>
<event>
 5    1  0.1681111E-003  0.9118800E+02  0.7818608E-02  0.1130116E+00
         25   -1    0    0    0    0  0.00000000000E+00  0.00000000000E+00  0.99999998245E-14  0.12500000000E+03  0.12500000000E+03 0.  0.
        -11    1    3    3    0    0  0.37751645271E+02  0.22382804482E+02 -0.64976641162E+01  0.44366612406E+02  0.51100000000E-03 0. -1.
         23    2    1    0    0    0 -0.12269215466E+02  0.18699566198E+02  0.14070909337E+02  0.98576565066E+02  0.94969159555E+02 0.  0.
         11    1    3    3    0    0 -0.50020860738E+02 -0.36832382847E+01  0.20568573453E+02  0.54209952660E+02  0.51100000000E-03 0.  1.
         22    1    1    0    0    0  0.12269215466E+02 -0.18699566198E+02 -0.14070909337E+02  0.26423434934E+02  0.00000000000E+00 0.  1.
</event>
<event>
 5    1  0.1681111E-003  0.9118800E+02  0.7818608E-02  0.1130116E+00
         25   -1    0    0    0    0  0.00000000000E+00  0.00000000000E+00  0.99999998245E-14  0.12500000000E+03  0.12500000000E+03 0.  0.
        -11    1    3    3    0    0 -0.69193091536E+01  0.34416471310E+02  0.11510962878E+02  0.36944182265E+02  0.51100000000E-03 0.  1.
         23    2    1    0    0    0 -0.20229437895E+02 -0.21468149717E+02  0.16394785076E+00  0.95501890082E+02  0.90832111726E+02 0.  0.
         11    1    3    3    0    0 -0.13310128741E+02 -0.55884621027E+02 -0.11347015028E+02  0.58557707817E+02  0.51100000000E-03 0. -1.
         22    1    1    0    0    0  0.20229437895E+02  0.21468149717E+02 -0.16394785076E+00  0.29498109918E+02  0.00000000000E+00 0. -1.
</event>
<event>
 5    1  0.1681111E-003  0.9118800E+02  0.7818608E-02  0.1130116E+00
         25   -1    0    0    0    0  0.00000000000E+00  0.00000000000E+00  0.99999998245E-14  0.12500000000E+03  0.12500000000E+03 0.  0.
        -11    1    3    3    0    0 -0.30324488955E+01 -0.25762109060E+02  0.56190249662E+02  0.61888821017E+02  0.51100000000E-03 0. -1.
         23    2    1    0    0    0 -0.73783019143E+01 -0.10461609237E+02  0.26426126759E+02  0.95636335677E+02  0.91016943034E+02 0.  0.
         11    1    3    3    0    0 -0.43458530188E+01  0.15300499823E+02 -0.29764122903E+02  0.33747514660E+02  0.51100000000E-03 0.  1.
         22    1    1    0    0    0  0.73783019143E+01  0.10461609237E+02 -0.26426126759E+02  0.29363664323E+02  0.00000000000E+00 0. -1.
</event>
<event>
 5    1  0.1681111E-003  0.9118800E+02  0.7818608E-02  0.1130116E+00
         25   -1    0    0    0    0  0.00000000000E+00  0.00000000000E+00  0.99999998245E-14  0.12500000000E+03  0.12500000000E+03 0.  0.
        -11    1    3    3    0    0  0.32882946519E+02  0.69279521561E+01 -0.12840290715E+02  0.35974404217E+02  0.51100000000E-03 0.  1.
         23    2    1    0    0    0 -0.12116441292E+02 -0.28165471002E+02 -0.62651854681E+00  0.94332518333E+02  0.89208349291E+02 0.  0.
         11    1    3    3    0    0 -0.44999387811E+02 -0.35093423158E+02  0.12213772168E+02  0.58358114116E+02  0.51100000000E-03 0. -1.
         22    1    1    0    0    0  0.12116441292E+02  0.28165471002E+02  0.62651854681E+00  0.30667481667E+02  0.00000000000E+00 0. -1.
</event>
<event>
 5    1  0.1681111E-003  0.9118800E+02  0.7818608E-02  0.1130116E+00
         25   -1    0    0    0    0  0.00000000000E+00  0.00000000000E+00  0.99999998245E-14  0.12500000000E+03  0.12500000000E+03 0.  0.
        -11    1    3    3    0    0  0.55507390696E+02  0.17150655319E+02  0.17763885986E+02  0.60751716398E+02  0.51100000000E-03 0.  1.
         23    2    1    0    0    0  0.23142042939E+02  0.18048144342E+02  0.76674485894E+01  0.94667188830E+02  0.89676068199E+02 0.  0.
         11    1    3    3    0    0 -0.32365347756E+02  0.89748902273E+00 -0.10096437397E+02  0.33915472432E+02  0.51100000000E-03 0. -1.
         22    1    1    0    0    0 -0.23142042939E+02 -0.18048144342E+02 -0.76674485894E+01  0.30332811170E+02  0.00000000000E+00 0.  1.
</event>
<event>
 5    1  0.1681111E-003  0.9118800E+02  0.7818608E-02  0.1130116E+00
         25   -1    0    0    0    0  0.00000000000E+00  0.00000000000E+00  0.99999998245E-14  0.12500000000E+03  0.12500000000E+03 0.  0.
        -11    1    3    3    0    0  0.36450354049E+02  0.15430046680E+02  0.44184478034E+02  0.59321014406E+02  0.51100000000E-03 0. -1.
         23    2    1    0    0    0  0.65926355673E+01  0.14456221995E+02  0.26685882423E+02  0.93942287290E+02  0.88659865906E+02 0.  0.
         11    1    3    3    0    0 -0.29857718482E+02 -0.97382468429E+00 -0.17498595611E+02  0.34621272883E+02  0.51100000000E-03 0.  1.
         22    1    1    0    0    0 -0.65926355673E+01 -0.14456221995E+02 -0.26685882423E+02  0.31057712710E+02  0.00000000000E+00 0. -1.
</event>
<event>
 5    1  0.1681111E-003  0.9118800E+02  0.7818608E-02  0.1130116E+00
         25   -1    0    0    0    0  0.00000000000E+00  0.00000000000E+00  0.99999998245E-14  0.12500000000E+03  0.12500000000E+03 0.  0.
        -11    1    3    3    0    0 -0.16322178423E+01  0.26705075870E+02  0.25054398741E+02  0.36654441871E+02  0.51100000000E-03 0. -1.
         23    2    1    0    0    0 -0.16296373655E+02 -0.41160519713E+01 -0.23562838229E+02  0.96056589290E+02  0.91592288553E+02 0.  0.
         11    1    3    3    0    0 -0.14664155813E+02 -0.30821127842E+02 -0.48617236970E+02  0.59402147419E+02  0.51100000000E-03 0.  1.
         22    1    1    0    0    0  0.16296373655E+02  0.41160519713E+01  0.23562838229E+02  0.28943410710E+02  0.00000000000E+00 0.  1.
</event>
<event>
 5    1  0.1681111E-003  0.9118800E+02  0.7818608E-02  0.1130116E+00
         25   -1    0    0    0    0  0.00000000000E+00  0.00000000000E+00  0.99999998245E-14  0.12500000000E+03  0.12500000000E+03 0.  0.
        -11    1    3    3    0    0 -0.22262411721E+02 -0.49179431762E+01 -0.38825468756E+02  0.45024639533E+02  0.51100000000E-03 0. -1.
         23    2    1    0    0    0  0.64135490849E+01  0.26337188343E+02 -0.11044105266E+02  0.95729650450E+02  0.91145008708E+02 0.  0.
         11    1    3    3    0    0  0.28675960806E+02  0.31255131519E+02  0.27781363490E+02  0.50705010917E+02  0.51100000000E-03 0.  1.
         22    1    1    0    0    0 -0.64135490849E+01 -0.26337188343E+02  0.11044105266E+02  0.29270349550E+02  0.00000000000E+00 0.  1.
</event>
<event>
 5    1  0.1681111E-003  0.9118800E+02  0.7818608E-02  0.1130116E+00
         25   -1    0    0    0    0  0.00000000000E+00  0.00000000000E+00  0.99999998245E-14  0.12500000000E+03  0.12500000000E+03 0.  0.
        -11    1    3    3    0    0  0.32943127655E+02  0.28385951095E+02 -0.35720754433E+02  0.56275964468E+02  0.51100000000E-03 0.  1.
         23    2    1    0    0    0  0.12193235969E+02  0.15666906767E+02  0.57242056917E+01  0.10433859874E+03  0.10227242877E+03 0.  0.
         11    1    3    3    0    0 -0.20749891686E+02 -0.12719044328E+02  0.41444960125E+02  0.48062634276E+02  0.51100000000E-03 0. -1.
         22    1    1    0    0    0 -0.12193235969E+02 -0.15666906767E+02 -0.57242056917E+01  0.20661401256E+02  0.00000000000E+00 0.  1.
</event>
<event>
 5    1  0.1681111E-003  0.9118800E+02  0.7818608E-02  0.1130116E+00
         25   -1    0    0    0    0  0.00000000000E+00  0.00000000000E+00  0.99999998245E-14  0.12500000000E+03  0.12500000000E+03 0.  0.
        -11    1    3    3    0    0  0.33922803283E+02  0.23430249073E+02  0.20998412128E+02  0.46267336927E+02  0.51100000000E-03 0. -1.
         23    2    1    0    0    0 -0.25917242153E+01 -0.10626456452E+02  0.26335474361E+02  0.96483411477E+02  0.92172950855E+02 0.  0.
         11    1    3    3    0    0 -0.36514527499E+02 -0.34056705525E+02  0.53370622333E+01  0.50216074550E+02  0.51100000000E-03 0.  1.
         22    1    1    0    0    0  0.25917242153E+01  0.10626456452E+02 -0.26335474361E+02  0.28516588523E+02  0.00000000000E+00 0.  1.
</event>
<event>
 5    1  0.1681111E-003  0.9118800E+02  0.7818608E-02  0.1130116E+00
         25   -1    0    0    0    0  0.00000000000E+00  0.00000000000E+00  0.99999998245E-14  0.12500000000E+03  0.12500000000E+03 0.  0.
        -11    1    3    3    0    0  0.23757899985E+02 -0.19676721216E+02 -0.21164757688E+02  0.37410668769E+02  0.51100000000E-03 0.  1.
         23    2    1    0    0    0 -0.17015509509E+02  0.20721644670E+02 -0.12344705119E+02  0.95482109389E+02  0.90804886142E+02 0.  0.
         11    1    3    3    0    0 -0.40773409494E+02  0.40398365885E+02  0.88200525696E+01  0.58071440619E+02  0.51100000000E-03 0. -1.
         22    1    1    0    0    0  0.17015509509E+02 -0.20721644670E+02  0.12344705119E+02  0.29517890611E+02  0.00000000000E+00 0. -1.
</event>
<event>
 5    1  0.1681111E-003  0.9118800E+02  0.7818608E-02  0.1130116E+00
         25   -1    0    0    0    0  0.00000000000E+00  0.00000000000E+00  0.99999998245E-14  0.12500000000E+03  0.12500000000E+03 0.  0.
        -11    1    3    3    0    0  0.20532203143E+02  0.44765944297E+02 -0.21659940498E+02  0.53802547871E+02  0.51100000000E-03 0.  1.
         23    2    1    0    0    0  0.16582799412E+02  0.20393992745E+02  0.12454075515E+02  0.95913780352E+02  0.91397183152E+02 0.  0.
         11    1    3    3    0    0 -0.39494037303E+01 -0.24371951552E+02  0.34114016014E+02  0.42111232482E+02  0.51100000000E-03 0. -1.
         22    1    1    0    0    0 -0.16582799412E+02 -0.20393992745E+02 -0.12454075515E+02  0.29086219648E+02  0.00000000000E+00 0.  1.
</event>
<event>
 5    1  0.1681111E-003  0.9118800E+02  0.7818608E-02  0.1130116E+00
         25   -1    0    0    0    0  0.00000000000E+00  0.00000000000E+00  0.99999998245E-14  0.12500000000E+03  0.12500000000E+03 0.  0.
        -11    1    3    3    0    0  0.67487188085E+01 -0.58412630933E+02  0.18684156397E+02  0.61698284892E+02  0.51100000000E-03 0. -1.
         23    2    1    0    0    0 -0.20833351416E+01 -0.26973776888E+02  0.13505420492E+02  0.94762253596E+02  0.89808481777E+02 0.  0.
         11    1    3    3    0    0 -0.88320539502E+01  0.31438854045E+02 -0.51787359054E+01  0.33063968704E+02  0.51100000000E-03 0.  1.
         22    1    1    0    0    0  0.20833351416E+01  0.26973776888E+02 -0.13505420492E+02  0.30237746404E+02  0.00000000000E+00 0. -1.
</event>
<event>
 5    1  0.1681111E-003  0.9118800E+02  0.7818608E-02  0.1130116E+00
         25   -1    0    0    0    0  0.00000000000E+00  0.00000000000E+00  0.99999998245E-14  0.12500000000E+03  0.12500000000E+03 0.  0.
        -11    1    3    3    0    0 -0.19909519118E+02  0.54391714658E+02 -0.16936394231E+02  0.60346408549E+02  0.51100000000E-03 0. -1.
         23    2    1    0    0    0  0.22253973403E+01  0.26974682649E+02 -0.56162762690E+01  0.97357126480E+02  0.93350316657E+02 0.  0.
         11    1    3    3    0    0  0.22134916459E+02 -0.27417032009E+02  0.11320117962E+02  0.37010717931E+02  0.51100000000E-03 0.  1.
         22    1    1    0    0    0 -0.22253973403E+01 -0.26974682649E+02  0.56162762690E+01  0.27642873520E+02  0.00000000000E+00 0. -1.
</event>
<event>
 5    1  0.1681111E-003  0.9118800E+02  0.7818608E-02  0.1130116E+00
         25   -1    0    0    0    0  0.00000000000E+00  0.00000000000E+00  0.99999998245E-14  0.12500000000E+03  0.12500000000E+03 0.  0.
        -11    1    3    3    0    0 -0.13024828385E+02  0.65772125782E+01  0.60573213160E+02  0.62305858734E+02  0.51100000000E-03 0. -1.
         23    2    1    0    0    0 -0.97564935716E+01  0.39504559328E+01  0.29146403266E+02  0.94011161812E+02  0.88756917776E+02 0.  0.
         11    1    3    3    0    0  0.32683348135E+01 -0.26267566454E+01 -0.31426809894E+02  0.31705303079E+02  0.51100000000E-03 0.  1.
         22    1    1    0    0    0  0.97564935716E+01 -0.39504559328E+01 -0.29146403266E+02  0.30988838188E+02  0.00000000000E+00 0. -1.
</event>
<event>
 5    1  0.1681111E-003  0.9118800E+02  0.7818608E-02  0.1130116E+00
         25   -1    0    0    0    0  0.00000000000E+00  0.00000000000E+00  0.99999998245E-14  0.12500000000E+03  0.12500000000E+03 0.  0.
        -11    1    3    3    0    0 -0.43879206089E+02 -0.34445819889E+02  0.13427416009E+02  0.57377650141E+02  0.51100000000E-03 0.  1.
         23    2    1    0    0    0 -0.57834634716E+01 -0.23778099668E+02 -0.32564914941E+01  0.10031293435E+03  0.97227740833E+02 0.  0.
         11    1    3    3    0    0  0.38095742617E+02  0.10667720220E+02 -0.16683907503E+02  0.42935284209E+02  0.51100000000E-03 0. -1.
         22    1    1    0    0    0  0.57834634716E+01  0.23778099668E+02  0.32564914941E+01  0.24687065650E+02  0.00000000000E+00 0.  1.
</event>
<event>
 5    1  0.1681111E-003  0.9118800E+02  0.7818608E-02  0.1130116E+00
         25   -1    0    0    0    0  0.00000000000E+00  0.00000000000E+00  0.99999998245E-14  0.12500000000E+03  0.12500000000E+03 0.  0.
        -11    1    3    3    0    0  0.34246357348E+02 -0.44231877632E+02  0.24864725450E+02  0.61217044705E+02  0.51100000000E-03 0.  1.
         23    2    1    0    0    0  0.10705508277E+02 -0.24757389756E+02  0.52575734988E+01  0.97519491743E+02  0.93567477981E+02 0.  0.
         11    1    3    3    0    0 -0.23540849071E+02  0.19474487876E+02 -0.19607151951E+02  0.36302447038E+02  0.51100000000E-03 0. -1.
         22    1    1    0    0    0 -0.10705508277E+02  0.24757389756E+02 -0.52575734988E+01  0.27480508257E+02  0.00000000000E+00 0.  1.
</event>
<event>
 5    1  0.1681111E-003  0.9118800E+02  0.7818608E-02  0.1130116E+00
         25   -1    0    0    0    0  0.00000000000E+00  0.00000000000E+00  0.99999998245E-14  0.12500000000E+03  0.12500000000E+03 0.  0.
        -11    1    3    3    0    0 -0.51037138165E+01  0.47089188373E+02  0.24802728690E+01  0.47429856737E+02  0.51100000000E-03 0.  1.
         23    2    1    0    0    0  0.20110475846E+02  0.10019062893E+02  0.19366826545E+02  0.95337113586E+02  0.90605068271E+02 0.  0.
         11    1    3    3    0    0  0.25214189663E+02 -0.37070125480E+02  0.16886553676E+02  0.47907256848E+02  0.51100000000E-03 0. -1.
         22    1    1    0    0    0 -0.20110475846E+02 -0.10019062893E+02 -0.19366826545E+02  0.29662886414E+02  0.00000000000E+00 0. -1.
</event>
<event>
 5    1  0.1681111E-003  0.9118800E+02  0.7818608E-02  0.1130116E+00
         25   -1    0    0    0    0  0.00000000000E+00  0.00000000000E+00  0.99999998245E-14  0.12500000000E+03  0.12500000000E+03 0.  0.
        -11    1    3    3    0    0 -0.17683478446E+02  0.18393668574E+02  0.39601707562E+02  0.47109740984E+02  0.51100000000E-03 0.  1.
         23    2    1    0    0    0 -0.18441516392E+02  0.25666638165E+02 -0.56032471572E+01  0.92902301948E+02  0.87181279453E+02 0.  0.
         11    1    3    3    0    0 -0.75803794516E+00  0.72729695916E+01 -0.45204954719E+02  0.45792560964E+02  0.51100000000E-03 0. -1.
         22    1    1    0    0    0  0.18441516392E+02 -0.25666638165E+02  0.56032471572E+01  0.32097698052E+02  0.00000000000E+00 0.  1.
</event>
<event>
 5    1  0.1681111E-003  0.9118800E+02  0.7818608E-02  0.1130116E+00
         25   -1    0    0    0    0  0.00000000000E+00  0.00000000000E+00  0.99999998245E-14  0.12500000000E+03  0.12500000000E+03 0.  0.
        -11    1    3    3    0    0  0.42460847933E+02 -0.39468790145E+02 -0.67262340290E+01  0.58360527989E+02  0.51100000000E-03 0. -1.
         23    2    1    0    0    0  0.26392995992E+02 -0.13659684087E+02  0.10713569355E+02  0.93409530312E+02  0.87905532123E+02 0.  0.
         11    1    3    3    0    0 -0.16067851941E+02  0.25809106057E+02  0.17439803384E+02  0.35049002322E+02  0.51100000000E-03 0.  1.
         22    1    1    0    0    0 -0.26392995992E+02  0.13659684087E+02 -0.10713569355E+02  0.31590469688E+02  0.00000000000E+00 0. -1.
</event>
<event>
 5    1  0.1681111E-003  0.9118800E+02  0.7818608E-02  0.1130116E+00
         25   -1    0    0    0    0  0.00000000000E+00  0.00000000000E+00  0.99999998245E-14  0.12500000000E+03  0.12500000000E+03 0.  0.
        -11    1    3    3    0    0  0.80799405918E+01  0.70712764089E+01  0.36464182701E+02  0.38012169240E+02  0.51100000000E-03 0. -1.
         23    2    1    0    0    0  0.18825634077E+02 -0.89446474298E+01 -0.19038890017E+02  0.96770750114E+02  0.92561803831E+02 0.  0.
         11    1    3    3    0    0  0.10745693485E+02 -0.16015923839E+02 -0.55503072718E+02  0.58758580874E+02  0.51100000000E-03 0.  1.
         22    1    1    0    0    0 -0.18825634077E+02  0.89446474298E+01  0.19038890017E+02  0.28229249886E+02  0.00000000000E+00 0.  1.
</event>
<event>
 5    1  0.1681111E-003  0.9118800E+02  0.7818608E-02  0.1130116E+00
         25   -1    0    0    0    0  0.00000000000E+00  0.00000000000E+00  0.99999998245E-14  0.12500000000E+03  0.12500000000E+03 0.  0.
        -11    1    3    3    0    0 -0.37617298525E+02 -0.18238751786E+02 -0.26548833920E+02  0.49523265218E+02  0.51100000000E-03 0. -1.
         23    2    1    0    0    0 -0.13247274176E+02  0.19600576594E+02 -0.17849628256E+02  0.95364175314E+02  0.90642395316E+02 0.  0.
         11    1    3    3    0    0  0.24370024349E+02  0.37839328380E+02  0.86992056643E+01  0.45840910097E+02  0.51100000000E-03 0.  1.
         22    1    1    0    0    0  0.13247274176E+02 -0.19600576594E+02  0.17849628256E+02  0.29635824686E+02  0.00000000000E+00 0. -1.
</event>
<event>
 5    1  0.1681111E-003  0.9118800E+02  0.7818608E-02  0.1130116E+00
         25   -1    0    0    0    0  0.00000000000E+00  0.00000000000E+00  0.99999998245E-14  0.12500000000E+03  0.12500000000E+03 0.  0.
        -11    1    3    3    0    0  0.22386675845E+02 -0.34850738780E+02  0.29723194454E+02  0.50982404197E+02  0.51100000000E-03 0. -1.
         23    2    1    0    0    0  0.40205992683E+01 -0.26420843253E+02 -0.10729312223E+02  0.96201661203E+02  0.91790061013E+02 0.  0.
         11    1    3    3    0    0 -0.18366076576E+02  0.84298955270E+01 -0.40452506677E+02  0.45219257006E+02  0.51100000000E-03 0.  1.
         22    1    1    0    0    0 -0.40205992683E+01  0.26420843253E+02  0.10729312223E+02  0.28798338797E+02  0.00000000000E+00 0. -1.
</event>
<event>
 5    1  0.1681111E-003  0.9118800E+02  0.7818608E-02  0.1130116E+00
         25   -1    0    0    0    0  0.00000000000E+00  0.00000000000E+00  0.99999998245E-14  0.12500000000E+03  0.12500000000E+03 0.  0.
        -11    1    3    3    0    0  0.10626196211E+02  0.47898210939E+02 -0.25003493680E+02  0.55066590175E+02  0.51100000000E-03 0. -1.
         23    2    1    0    0    0  0.13859357678E+02  0.29435999561E+02  0.65921453667E+01  0.91803369961E+02  0.85591135582E+02 0.  0.
         11    1    3    3    0    0  0.32331614665E+01 -0.18462211377E+02  0.31595639046E+02  0.36736779786E+02  0.51100000000E-03 0.  1.
         22    1    1    0    0    0 -0.13859357678E+02 -0.29435999561E+02 -0.65921453667E+01  0.33196630039E+02  0.00000000000E+00 0. -1.
</event>
<event>
 5    1  0.1681111E-003  0.9118800E+02  0.7818608E-02  0.1130116E+00
         25   -1    0    0    0    0  0.00000000000E+00  0.00000000000E+00  0.99999998245E-14  0.12500000000E+03  0.12500000000E+03 0.  0.
        -11    1    3    3    0    0 -0.23149623584E+02 -0.37737786612E+02 -0.40180316295E+02  0.59787151030E+02  0.51100000000E-03 0. -1.
         23    2    1    0    0    0 -0.32478820995E+01 -0.95423815837E+01 -0.26028679821E+02  0.97087673733E+02  0.92988808107E+02 0.  0.
         11    1    3    3    0    0  0.19901741484E+02  0.28195405028E+02  0.14151636474E+02  0.37300522703E+02  0.51100000000E-03 0.  1.
         22    1    1    0    0    0  0.32478820995E+01  0.95423815837E+01  0.26028679821E+02  0.27912326267E+02  0.00000000000E+00 0. -1.
</event>
<event>
 5    1  0.1681111E-003  0.9118800E+02  0.7818608E-02  0.1130116E+00
         25   -1    0    0    0    0  0.00000000000E+00  0.00000000000E+00  0.99999998245E-14  0.12500000000E+03  0.12500000000E+03 0.  0.
        -11    1    3    3    0    0 -0.82586607507E+01 -0.59246277020E+01  0.54776197687E+02  0.55711206450E+02  0.51100000000E-03 0.  1.
         23    2    1    0    0    0 -0.22002328787E+02  0.49354473422E+01  0.19127134942E+02  0.95431293508E+02  0.90734907158E+02 0.  0.
         11    1    3    3    0    0 -0.13743668037E+02  0.10860075044E+02 -0.35649062745E+02  0.39720087058E+02  0.51100000000E-03 0. -1.
         22    1    1    0    0    0  0.22002328787E+02 -0.49354473422E+01 -0.19127134942E+02  0.29568706492E+02  0.00000000000E+00 0.  1.
</event>
<event>
 5    1  0.1681111E-003  0.9118800E+02  0.7818608E-02  0.1130116E+00
         25   -1    0    0    0    0  0.00000000000E+00  0.00000000000E+00  0.99999998245E-14  0.12500000000E+03  0.12500000000E+03 0.  0.
        -11    1    3    3    0    0  0.37347324388E+02 -0.22774912712E+02  0.67745394095E+01  0.44265264852E+02  0.51100000000E-03 0. -1.
         23    2    1    0    0    0  0.21231163844E+01  0.68068811528E+01  0.28846834466E+02  0.95285001886E+02  0.90533145707E+02 0.  0.
         11    1    3    3    0    0 -0.35224208004E+02  0.29581793865E+02  0.22072295056E+02  0.51019737034E+02  0.51100000000E-03 0.  1.
         22    1    1    0    0    0 -0.21231163844E+01 -0.68068811528E+01 -0.28846834466E+02  0.29714998114E+02  0.00000000000E+00 0.  1.
</event>
<event>
 5    1  0.1681111E-003  0.9118800E+02  0.7818608E-02  0.1130116E+00
         25   -1    0    0    0    0  0.00000000000E+00  0.00000000000E+00  0.99999998245E-14  0.12500000000E+03  0.12500000000E+03 0.  0.
        -11    1    3    3    0    0 -0.38042605351E+00 -0.17152150185E+02 -0.27052199956E+02  0.32033771284E+02  0.51100000000E-03 0.  1.
         23    2    1    0    0    0  0.21415232453E+02  0.10954555232E+01  0.25439899362E+02  0.91728380211E+02  0.85481548025E+02 0.  0.
         11    1    3    3    0    0  0.21795658507E+02  0.18247605708E+02  0.52492099318E+02  0.59694608927E+02  0.51100000000E-03 0. -1.
         22    1    1    0    0    0 -0.21415232453E+02 -0.10954555232E+01 -0.25439899362E+02  0.33271619789E+02  0.00000000000E+00 0. -1.
</event>
<event>
 5    1  0.1681111E-003  0.9118800E+02  0.7818608E-02  0.1130116E+00
         25   -1    0    0    0    0  0.00000000000E+00  0.00000000000E+00  0.99999998245E-14  0.12500000000E+03  0.12500000000E+03 0.  0.
        -11    1    3    3    0    0  0.27496811436E+02  0.29881531454E+01  0.52230858110E+02  0.59102167790E+02  0.51100000000E-03 0. -1.
         23    2    1    0    0    0  0.18851195081E+01  0.32266657927E+01  0.34605131766E+02  0.90193675973E+02  0.83207084995E+02 0.  0.
         11    1    3    3    0    0 -0.25611691928E+02  0.23851264729E+00 -0.17625726344E+02  0.31091508183E+02  0.51100000000E-03 0.  1.
         22    1    1    0    0    0 -0.18851195081E+01 -0.32266657927E+01 -0.34605131766E+02  0.34806324027E+02  0.00000000000E+00 0. -1.
</event>
<event>
 5    1  0.1681111E-003  0.9118800E+02  0.7818608E-02  0.1130116E+00
         25   -1    0    0    0    0  0.00000000000E+00  0.00000000000E+00  0.99999998245E-14  0.12500000000E+03  0.12500000000E+03 0.  0.
        -11    1    3    3    0    0  0.38023896278E+02  0.18239384436E+02 -0.45152839556E+02  0.61784065526E+02  0.51100000000E-03 0.  1.
         23    2    1    0    0    0  0.25028353282E+02  0.86437440763E+01 -0.19436786144E+02  0.92153060489E+02  0.86100320105E+02 0.  0.
         11    1    3    3    0    0 -0.12995542996E+02 -0.95956403597E+01  0.25716053412E+02  0.30368994962E+02  0.51100000000E-03 0. -1.
         22    1    1    0    0    0 -0.25028353282E+02 -0.86437440763E+01  0.19436786144E+02  0.32846939511E+02  0.00000000000E+00 0.  1.
</event>
<event>
 5    1  0.1681111E-003  0.9118800E+02  0.7818608E-02  0.1130116E+00
         25   -1    0    0    0    0  0.00000000000E+00  0.00000000000E+00  0.99999998245E-14  0.12500000000E+03  0.12500000000E+03 0.  0.
        -11    1    3    3    0    0 -0.40660021321E+02  0.38225639650E+02 -0.15520704134E+02  0.57925202784E+02  0.51100000000E-03 0.  1.
         23    2    1    0    0    0 -0.20901012247E+02  0.18086102289E+02  0.96389449576E+01  0.95727680843E+02  0.91142307469E+02 0.  0.
         11    1    3    3    0    0  0.19759009075E+02 -0.20139537361E+02  0.25159649092E+02  0.37802478059E+02  0.51100000000E-03 0. -1.
         22    1    1    0    0    0  0.20901012247E+02 -0.18086102289E+02 -0.96389449576E+01  0.29272319157E+02  0.00000000000E+00 0.  1.
</event>
<event>
 5    1  0.1681111E-003  0.9118800E+02  0.7818608E-02  0.1130116E+00
         25   -1    0    0    0    0  0.00000000000E+00  0.00000000000E+00  0.99999998245E-14  0.12500000000E+03  0.12500000000E+03 0.  0.
        -11    1    3    3    0    0  0.45787710145E+01 -0.23989171056E+02  0.36131017111E+02  0.43610731130E+02  0.51100000000E-03 0.  1.
         23    2    1    0    0    0 -0.25913417621E+02 -0.14693049831E+02 -0.40888587452E+01  0.94931583148E+02  0.90043854799E+02 0.  0.
         11    1    3    3    0    0 -0.30492188636E+02  0.92961212250E+01 -0.40219875857E+02  0.51320852018E+02  0.51100000000E-03 0. -1.
         22    1    1    0    0    0  0.25913417621E+02  0.14693049831E+02  0.40888587452E+01  0.30068416852E+02  0.00000000000E+00 0. -1.
</event>
<event>
 5    1  0.1681111E-003  0.9118800E+02  0.7818608E-02  0.1130116E+00
         25   -1    0    0    0    0  0.00000000000E+00  0.00000000000E+00  0.99999998245E-14  0.12500000000E+03  0.12500000000E+03 0.  0.
        -11    1    3    3    0    0  0.21603029395E+02 -0.51251000500E+02 -0.21877139234E+02  0.59765919659E+02  0.51100000000E-03 0. -1.
         23    2    1    0    0    0  0.16130304192E+02 -0.22451229601E+02  0.15787627404E+01  0.97309985270E+02  0.93287171238E+02 0.  0.
         11    1    3    3    0    0 -0.54727252028E+01  0.28799770899E+02  0.23455901974E+02  0.37544065612E+02  0.51100000000E-03 0.  1.
         22    1    1    0    0    0 -0.16130304192E+02  0.22451229601E+02 -0.15787627404E+01  0.27690014730E+02  0.00000000000E+00 0. -1.
</event>
<event>
 5    1  0.1681111E-003  0.9118800E+02  0.7818608E-02  0.1130116E+00
         25   -1    0    0    0    0  0.00000000000E+00  0.00000000000E+00  0.99999998245E-14  0.12500000000E+03  0.12500000000E+03 0.  0.
        -11    1    3    3    0    0  0.22036381055E+02  0.47170092807E-01 -0.56456424631E+02  0.60604720917E+02  0.51100000000E-03 0. -1.
         23    2    1    0    0    0  0.19192223611E+02 -0.34205978658E+01 -0.20990367216E+02  0.96353229628E+02  0.91996235830E+02 0.  0.
         11    1    3    3    0    0 -0.28441574435E+01 -0.34677679586E+01  0.35466057416E+02  0.35748508711E+02  0.51100000000E-03 0.  1.
         22    1    1    0    0    0 -0.19192223611E+02  0.34205978658E+01  0.20990367216E+02  0.28646770372E+02  0.00000000000E+00 0. -1.
</event>
<event>
 5    1  0.1681111E-003  0.9118800E+02  0.7818608E-02  0.1130116E+00
         25   -1    0    0    0    0  0.00000000000E+00  0.00000000000E+00  0.99999998245E-14  0.12500000000E+03  0.12500000000E+03 0.  0.
        -11    1    3    3    0    0  0.22869907961E+02 -0.23293820281E+02  0.35578689897E+02  0.48285380069E+02  0.51100000000E-03 0.  1.
         23    2    1    0    0    0  0.26878580146E+02 -0.73443786233E+01 -0.89339918429E+01  0.95738862321E+02  0.91157641370E+02 0.  0.
         11    1    3    3    0    0  0.40086721852E+01  0.15949441657E+02 -0.44512681740E+02  0.47453482251E+02  0.51100000000E-03 0. -1.
         22    1    1    0    0    0 -0.26878580146E+02  0.73443786233E+01  0.89339918429E+01  0.29261137679E+02  0.00000000000E+00 0. -1.
</event>
<event>
 5    1  0.1681111E-003  0.9118800E+02  0.7818608E-02  0.1130116E+00
         25   -1    0    0    0    0  0.00000000000E+00  0.00000000000E+00  0.99999998245E-14  0.12500000000E+03  0.12500000000E+03 0.  0.
        -11    1    3    3    0    0 -0.15011978431E+02 -0.44316559433E+02  0.38974050794E+02  0.60895759885E+02  0.51100000000E-03 0. -1.
         23    2    1    0    0    0  0.13203436877E+01 -0.25345523650E+02  0.15213571563E+02  0.95409602296E+02  0.90705019564E+02 0.  0.
         11    1    3    3    0    0  0.16332322119E+02  0.18971035783E+02 -0.23760479231E+02  0.34513842411E+02  0.51100000000E-03 0.  1.
         22    1    1    0    0    0 -0.13203436877E+01  0.25345523650E+02 -0.15213571563E+02  0.29590397704E+02  0.00000000000E+00 0. -1.
</event>
<event>
 5    1  0.1681111E-003  0.9118800E+02  0.7818608E-02  0.1130116E+00
         25   -1    0    0    0    0  0.00000000000E+00  0.00000000000E+00  0.99999998245E-14  0.12500000000E+03  0.12500000000E+03 0.  0.
        -11    1    3    3    0    0  0.11672715898E+02 -0.27532223274E+02  0.35524432732E+02  0.46435556808E+02  0.51100000000E-03 0. -1.
         23    2    1    0    0    0 -0.24350649056E+02 -0.66792305835E+00  0.18180120201E+02  0.94603996954E+02  0.89587941368E+02 0.  0.
         11    1    3    3    0    0 -0.36023364954E+02  0.26864300216E+02 -0.17344312531E+02  0.48168440146E+02  0.51100000000E-03 0.  1.
         22    1    1    0    0    0  0.24350649056E+02  0.66792305835E+00 -0.18180120201E+02  0.30396003046E+02  0.00000000000E+00 0. -1.
</event>
