<event>
 5    1  0.6650580E-004  0.9118800E+02  0.7818608E-02  0.1130116E+00
         25   -1    0    0    0    0  0.00000000000E+00  0.00000000000E+00  0.99999998245E-14  0.12500000000E+03  0.12500000000E+03 0.  0.
        -11    1    3    3    0    0 -0.41353700786E+02  0.12175061694E+01 -0.38091637829E+02  0.56236854132E+02  0.51100000000E-03 0. -1.
         23    2    1    0    0    0 -0.18937897738E+02 -0.18733721887E+02 -0.12973456908E+02  0.95370506406E+02  0.90651125760E+02 0.  0.
         11    1    3    3    0    0  0.22415803047E+02 -0.19951228056E+02  0.25118180921E+02  0.39133652274E+02  0.51100000000E-03 0.  1.
         22    1    1    0    0    0  0.18937897738E+02  0.18733721887E+02  0.12973456908E+02  0.29629493594E+02  0.00000000000E+00 0. -1.
</event>
<event>
 5    1  0.6650580E-004  0.9118800E+02  0.7818608E-02  0.1130116E+00
         25   -1    0    0    0    0  0.00000000000E+00  0.00000000000E+00  0.99999998245E-14  0.12500000000E+03  0.12500000000E+03 0.  0.
        -11    1    3    3    0    0 -0.23956774806E+02 -0.75125426549E+01  0.28964462007E+02  0.38331519874E+02  0.51100000000E-03 0. -1.
         23    2    1    0    0    0  0.46215689495E+00  0.30793088348E+02 -0.32659425598E+01  0.94030752999E+02  0.88784504559E+02 0.  0.
         11    1    3    3    0    0  0.24418931701E+02  0.38305631003E+02 -0.32230404566E+02  0.55699233125E+02  0.51100000000E-03 0.  1.
         22    1    1    0    0    0 -0.46215689495E+00 -0.30793088348E+02  0.32659425598E+01  0.30969247001E+02  0.00000000000E+00 0.  1.
</event>
<event>
 5    1  0.6650580E-004  0.9118800E+02  0.7818608E-02  0.1130116E+00
         25   -1    0    0    0    0  0.00000000000E+00  0.00000000000E+00  0.99999998245E-14  0.12500000000E+03  0.12500000000E+03 0.  0.
        -11    1    3    3    0    0 -0.81308613807E+01  0.32856562460E+02 -0.51535555558E+02  0.61656938705E+02  0.51100000000E-03 0.  1.
         23    2    1    0    0    0 -0.86768551931E+01  0.19816873187E+02 -0.21063920310E+02  0.94805877761E+02  0.89869179590E+02 0.  0.
         11    1    3    3    0    0 -0.54599381234E+00 -0.13039689273E+02  0.30471635248E+02  0.33148939056E+02  0.51100000000E-03 0. -1.
         22    1    1    0    0    0  0.86768551931E+01 -0.19816873187E+02  0.21063920310E+02  0.30194122239E+02  0.00000000000E+00 0.  1.
</event>
<event>
 5    1  0.6650580E-004  0.9118800E+02  0.7818608E-02  0.1130116E+00
         25   -1    0    0    0    0  0.00000000000E+00  0.00000000000E+00  0.99999998245E-14  0.12500000000E+03  0.12500000000E+03 0.  0.
        -11    1    3    3    0    0  0.12572679473E+02  0.31009782522E+02 -0.30569455259E+01  0.33600949353E+02  0.51100000000E-03 0.  1.
         23    2    1    0    0    0 -0.30429637596E+02  0.13509691568E+02 -0.23416852077E+02  0.84295902274E+02  0.73817176650E+02 0.  0.
         11    1    3    3    0    0 -0.43002317069E+02 -0.17500090954E+02 -0.20359906551E+02  0.50694952921E+02  0.51100000000E-03 0. -1.
         22    1    1    0    0    0  0.30429637596E+02 -0.13509691568E+02  0.23416852077E+02  0.40704097726E+02  0.00000000000E+00 0. -1.
</event>
<event>
 5    1  0.6650580E-004  0.9118800E+02  0.7818608E-02  0.1130116E+00
         25   -1    0    0    0    0  0.00000000000E+00  0.00000000000E+00  0.99999998245E-14  0.12500000000E+03  0.12500000000E+03 0.  0.
        -11    1    3    3    0    0  0.32134979379E+02  0.64491270679E+00  0.15058026386E+01  0.32176703590E+02  0.51100000000E-03 0.  1.
         23    2    1    0    0    0 -0.25796910985E+02 -0.18557036864E+02  0.78545493899E+00  0.93212248067E+02  0.87624551449E+02 0.  0.
         11    1    3    3    0    0 -0.57931890364E+02 -0.19201949570E+02 -0.72034769959E+00  0.61035544476E+02  0.51100000000E-03 0. -1.
         22    1    1    0    0    0  0.25796910985E+02  0.18557036864E+02 -0.78545493899E+00  0.31787751933E+02  0.00000000000E+00 0. -1.
</event>
<event>
 5    1  0.6650580E-004  0.9118800E+02  0.7818608E-02  0.1130116E+00
         25   -1    0    0    0    0  0.00000000000E+00  0.00000000000E+00  0.99999998245E-14  0.12500000000E+03  0.12500000000E+03 0.  0.
        -11    1    3    3    0    0 -0.72148398493E+01  0.22451029842E+02 -0.57726349054E+02  0.62357309358E+02  0.51100000000E-03 0.  1.
         23    2    1    0    0    0 -0.47366912903E+01  0.12719182752E+02 -0.25489086734E+02  0.96122545182E+02  0.91682257256E+02 0.  0.
         11    1    3    3    0    0  0.24781485590E+01 -0.97318470904E+01  0.32237262320E+02  0.33765235824E+02  0.51100000000E-03 0. -1.
         22    1    1    0    0    0  0.47366912903E+01 -0.12719182752E+02  0.25489086734E+02  0.28877454818E+02  0.00000000000E+00 0.  1.
</event>
<event>
 5    1  0.6650580E-004  0.9118800E+02  0.7818608E-02  0.1130116E+00
         25   -1    0    0    0    0  0.00000000000E+00  0.00000000000E+00  0.99999998245E-14  0.12500000000E+03  0.12500000000E+03 0.  0.
        -11    1    3    3    0    0  0.20847604754E+02 -0.17355206228E+02 -0.23993378702E+02  0.36214748778E+02  0.51100000000E-03 0. -1.
         23    2    1    0    0    0 -0.26267184362E+02  0.12461831728E+02 -0.30842789546E+01  0.95763464620E+02  0.91191371056E+02 0.  0.
         11    1    3    3    0    0 -0.47114789117E+02  0.29817037956E+02  0.20909099748E+02  0.59548715843E+02  0.51100000000E-03 0.  1.
         22    1    1    0    0    0  0.26267184362E+02 -0.12461831728E+02  0.30842789546E+01  0.29236535380E+02  0.00000000000E+00 0.  1.
</event>
<event>
 5    1  0.6650580E-004  0.9118800E+02  0.7818608E-02  0.1130116E+00
         25   -1    0    0    0    0  0.00000000000E+00  0.00000000000E+00  0.99999998245E-14  0.12500000000E+03  0.12500000000E+03 0.  0.
        -11    1    3    3    0    0 -0.24289551454E+02  0.22671541694E+02  0.69562134437E+01  0.33946575945E+02  0.51100000000E-03 0. -1.
         23    2    1    0    0    0  0.46645894111E+01 -0.29889125982E+02 -0.22888440792E+01  0.94662612941E+02  0.89669689613E+02 0.  0.
         11    1    3    3    0    0  0.28954140865E+02 -0.52560667676E+02 -0.92450575229E+01  0.60716036997E+02  0.51100000000E-03 0.  1.
         22    1    1    0    0    0 -0.46645894111E+01  0.29889125982E+02  0.22888440792E+01  0.30337387059E+02  0.00000000000E+00 0.  1.
</event>
<event>
 5    1  0.6650580E-004  0.9118800E+02  0.7818608E-02  0.1130116E+00
         25   -1    0    0    0    0  0.00000000000E+00  0.00000000000E+00  0.99999998245E-14  0.12500000000E+03  0.12500000000E+03 0.  0.
        -11    1    3    3    0    0  0.18297120951E+02  0.42050113225E+02 -0.14131905828E+02  0.47986533735E+02  0.51100000000E-03 0.  1.
         23    2    1    0    0    0 -0.22143783641E+02  0.17780205014E+02 -0.30293633319E+01  0.96440240084E+02  0.92114385527E+02 0.  0.
         11    1    3    3    0    0 -0.40440904592E+02 -0.24269908211E+02  0.11102542496E+02  0.48453706349E+02  0.51100000000E-03 0. -1.
         22    1    1    0    0    0  0.22143783641E+02 -0.17780205014E+02  0.30293633319E+01  0.28559759916E+02  0.00000000000E+00 0.  1.
</event>
<event>
 5    1  0.6650580E-004  0.9118800E+02  0.7818608E-02  0.1130116E+00
         25   -1    0    0    0    0  0.00000000000E+00  0.00000000000E+00  0.99999998245E-14  0.12500000000E+03  0.12500000000E+03 0.  0.
        -11    1    3    3    0    0 -0.39084407763E+02 -0.27391281135E+02 -0.27793744550E+02  0.55230113604E+02  0.51100000000E-03 0. -1.
         23    2    1    0    0    0 -0.25381204476E+02  0.74694423574E+01 -0.97920433596E+01  0.96788615367E+02  0.92585926801E+02 0.  0.
         11    1    3    3    0    0  0.13703203287E+02  0.34860723492E+02  0.18001701190E+02  0.41558501762E+02  0.51100000000E-03 0.  1.
         22    1    1    0    0    0  0.25381204476E+02 -0.74694423574E+01  0.97920433596E+01  0.28211384633E+02  0.00000000000E+00 0. -1.
</event>
<event>
 5    1  0.6650580E-004  0.9118800E+02  0.7818608E-02  0.1130116E+00
         25   -1    0    0    0    0  0.00000000000E+00  0.00000000000E+00  0.99999998245E-14  0.12500000000E+03  0.12500000000E+03 0.  0.
        -11    1    3    3    0    0  0.98950738686E+01 -0.18903011770E+02 -0.31811784246E+02  0.38304385624E+02  0.51100000000E-03 0. -1.
         23    2    1    0    0    0 -0.81216493111E+00 -0.13213297809E+02  0.25169471945E+02  0.96561414085E+02  0.92278673165E+02 0.  0.
         11    1    3    3    0    0 -0.10707238800E+02  0.56897139617E+01  0.56981256191E+02  0.58257028461E+02  0.51100000000E-03 0.  1.
         22    1    1    0    0    0  0.81216493111E+00  0.13213297809E+02 -0.25169471945E+02  0.28438585915E+02  0.00000000000E+00 0.  1.
</event>
<event>
 5    1  0.6650580E-004  0.9118800E+02  0.7818608E-02  0.1130116E+00
         25   -1    0    0    0    0  0.00000000000E+00  0.00000000000E+00  0.99999998245E-14  0.12500000000E+03  0.12500000000E+03 0.  0.
        -11    1    3    3    0    0  0.32425974315E+02 -0.18295606448E+02  0.22549858877E+01  0.37299570871E+02  0.51100000000E-03 0. -1.
         23    2    1    0    0    0 -0.20031793598E+02  0.42780094954E+01  0.19257597229E+02  0.96885427782E+02  0.92716540841E+02 0.  0.
         11    1    3    3    0    0 -0.52457767912E+02  0.22573615944E+02  0.17002611341E+02  0.59585856911E+02  0.51100000000E-03 0.  1.
         22    1    1    0    0    0  0.20031793598E+02 -0.42780094954E+01 -0.19257597229E+02  0.28114572218E+02  0.00000000000E+00 0.  1.
</event>
<event>
 5    1  0.6650580E-004  0.9118800E+02  0.7818608E-02  0.1130116E+00
         25   -1    0    0    0    0  0.00000000000E+00  0.00000000000E+00  0.99999998245E-14  0.12500000000E+03  0.12500000000E+03 0.  0.
        -11    1    3    3    0    0 -0.31049986094E+02  0.42050962192E+02  0.16820938730E+02  0.54912011780E+02  0.51100000000E-03 0.  1.
         23    2    1    0    0    0 -0.15680522553E+01  0.28395485738E+02 -0.76069329983E+01  0.95561456764E+02  0.90914048370E+02 0.  0.
         11    1    3    3    0    0  0.29481933839E+02 -0.13655476454E+02 -0.24427871729E+02  0.40649444984E+02  0.51100000000E-03 0. -1.
         22    1    1    0    0    0  0.15680522553E+01 -0.28395485738E+02  0.76069329983E+01  0.29438543236E+02  0.00000000000E+00 0. -1.
</event>
<event>
 5    1  0.6650580E-004  0.9118800E+02  0.7818608E-02  0.1130116E+00
         25   -1    0    0    0    0  0.00000000000E+00  0.00000000000E+00  0.99999998245E-14  0.12500000000E+03  0.12500000000E+03 0.  0.
        -11    1    3    3    0    0  0.46221123848E+02  0.34900698548E+02 -0.46125559496E+01  0.58101004480E+02  0.51100000000E-03 0. -1.
         23    2    1    0    0    0  0.18001902592E+02  0.20362330895E+02 -0.17838243681E+02  0.92490063765E+02  0.86588197470E+02 0.  0.
         11    1    3    3    0    0 -0.28219221255E+02 -0.14538367654E+02 -0.13225687731E+02  0.34389059285E+02  0.51100000000E-03 0.  1.
         22    1    1    0    0    0 -0.18001902592E+02 -0.20362330895E+02  0.17838243681E+02  0.32509936235E+02  0.00000000000E+00 0. -1.
</event>
<event>
 5    1  0.6650580E-004  0.9118800E+02  0.7818608E-02  0.1130116E+00
         25   -1    0    0    0    0  0.00000000000E+00  0.00000000000E+00  0.99999998245E-14  0.12500000000E+03  0.12500000000E+03 0.  0.
        -11    1    3    3    0    0 -0.31905847031E+02  0.20236419754E+01  0.23671706162E+02  0.39779742011E+02  0.51100000000E-03 0.  1.
         23    2    1    0    0    0  0.20135360941E+02  0.18358733666E+02  0.95951690567E+01  0.96111539825E+02  0.91667251274E+02 0.  0.
         11    1    3    3    0    0  0.52041207972E+02  0.16335091691E+02 -0.14076537105E+02  0.56331797813E+02  0.51100000000E-03 0. -1.
         22    1    1    0    0    0 -0.20135360941E+02 -0.18358733666E+02 -0.95951690567E+01  0.28888460175E+02  0.00000000000E+00 0. -1.
</event>
<event>
 5    1  0.6650580E-004  0.9118800E+02  0.7818608E-02  0.1130116E+00
         25   -1    0    0    0    0  0.00000000000E+00  0.00000000000E+00  0.99999998245E-14  0.12500000000E+03  0.12500000000E+03 0.  0.
        -11    1    3    3    0    0 -0.50920623505E+01 -0.13378677594E+02 -0.55793861664E+02  0.57600981873E+02  0.51100000000E-03 0. -1.
         23    2    1    0    0    0 -0.18432959194E+02  0.16977090109E-01 -0.22242563508E+02  0.96112184155E+02  0.91668129897E+02 0.  0.
         11    1    3    3    0    0 -0.13340896844E+02  0.13395654684E+02  0.33551298156E+02  0.38511202282E+02  0.51100000000E-03 0.  1.
         22    1    1    0    0    0  0.18432959194E+02 -0.16977090109E-01  0.22242563508E+02  0.28887815845E+02  0.00000000000E+00 0. -1.
</event>
<event>
 5    1  0.6650580E-004  0.9118800E+02  0.7818608E-02  0.1130116E+00
         25   -1    0    0    0    0  0.00000000000E+00  0.00000000000E+00  0.99999998245E-14  0.12500000000E+03  0.12500000000E+03 0.  0.
        -11    1    3    3    0    0  0.15289171997E+02 -0.15636876032E+02  0.23471339148E+02  0.32080748652E+02  0.51100000000E-03 0.  1.
         23    2    1    0    0    0 -0.30242686170E+02  0.16194000049E+02  0.75269185626E+01  0.89878493662E+02  0.82732239276E+02 0.  0.
         11    1    3    3    0    0 -0.45531858167E+02  0.31830876081E+02 -0.15944420585E+02  0.57797745011E+02  0.51100000000E-03 0. -1.
         22    1    1    0    0    0  0.30242686170E+02 -0.16194000049E+02 -0.75269185626E+01  0.35121506338E+02  0.00000000000E+00 0. -1.
</event>
<event>
 5    1  0.6650580E-004  0.9118800E+02  0.7818608E-02  0.1130116E+00
         25   -1    0    0    0    0  0.00000000000E+00  0.00000000000E+00  0.99999998245E-14  0.12500000000E+03  0.12500000000E+03 0.  0.
        -11    1    3    3    0    0 -0.20653446611E+02  0.47091648499E+02 -0.33218098858E+02  0.61217892051E+02  0.51100000000E-03 0.  1.
         23    2    1    0    0    0 -0.68577264149E+01  0.26568640169E+02 -0.26523660626E+02  0.86836855148E+02  0.78001370418E+02 0.  0.
         11    1    3    3    0    0  0.13795720196E+02 -0.20523008330E+02  0.66944382322E+01  0.25618963097E+02  0.51100000000E-03 0. -1.
         22    1    1    0    0    0  0.68577264149E+01 -0.26568640169E+02  0.26523660626E+02  0.38163144852E+02  0.00000000000E+00 0.  1.
</event>
<event>
 5    1  0.6650580E-004  0.9118800E+02  0.7818608E-02  0.1130116E+00
         25   -1    0    0    0    0  0.00000000000E+00  0.00000000000E+00  0.99999998245E-14  0.12500000000E+03  0.12500000000E+03 0.  0.
        -11    1    3    3    0    0 -0.37603513179E+02 -0.18483729599E+02 -0.11310743239E+02  0.43400522764E+02  0.51100000000E-03 0.  1.
         23    2    1    0    0    0  0.10852651594E+02 -0.82488689947E+01 -0.26497233838E+02  0.95201891211E+02  0.90418321168E+02 0.  0.
         11    1    3    3    0    0  0.48456164773E+02  0.10234860604E+02 -0.15186490599E+02  0.51801368448E+02  0.51100000000E-03 0. -1.
         22    1    1    0    0    0 -0.10852651594E+02  0.82488689947E+01  0.26497233838E+02  0.29798108789E+02  0.00000000000E+00 0.  1.
</event>
<event>
 5    1  0.6650580E-004  0.9118800E+02  0.7818608E-02  0.1130116E+00
         25   -1    0    0    0    0  0.00000000000E+00  0.00000000000E+00  0.99999998245E-14  0.12500000000E+03  0.12500000000E+03 0.  0.
        -11    1    3    3    0    0  0.40618957469E+02  0.13720947412E+02  0.13078138644E+02  0.44824120900E+02  0.51100000000E-03 0. -1.
         23    2    1    0    0    0 -0.74278505050E+00 -0.12818866880E+02  0.26314644921E+02  0.95719706029E+02  0.91131369501E+02 0.  0.
         11    1    3    3    0    0 -0.41361742520E+02 -0.26539814292E+02  0.13236506278E+02  0.50895585129E+02  0.51100000000E-03 0.  1.
         22    1    1    0    0    0  0.74278505050E+00  0.12818866880E+02 -0.26314644921E+02  0.29280293971E+02  0.00000000000E+00 0.  1.
</event>
<event>
 5    1  0.6650580E-004  0.9118800E+02  0.7818608E-02  0.1130116E+00
         25   -1    0    0    0    0  0.00000000000E+00  0.00000000000E+00  0.99999998245E-14  0.12500000000E+03  0.12500000000E+03 0.  0.
        -11    1    3    3    0    0 -0.11756021985E+02  0.28656207663E+02  0.19825285636E+02  0.36775321091E+02  0.51100000000E-03 0.  1.
         23    2    1    0    0    0  0.33274872363E+01 -0.38996412101E+00 -0.29137956993E+02  0.95670070218E+02  0.91063261277E+02 0.  0.
         11    1    3    3    0    0  0.15083509221E+02 -0.29046171784E+02 -0.48963242629E+02  0.58894749127E+02  0.51100000000E-03 0. -1.
         22    1    1    0    0    0 -0.33274872363E+01  0.38996412101E+00  0.29137956993E+02  0.29329929782E+02  0.00000000000E+00 0. -1.
</event>
<event>
 5    1  0.6650580E-004  0.9118800E+02  0.7818608E-02  0.1130116E+00
         25   -1    0    0    0    0  0.00000000000E+00  0.00000000000E+00  0.99999998245E-14  0.12500000000E+03  0.12500000000E+03 0.  0.
        -11    1    3    3    0    0  0.55292325590E+01 -0.17558949891E+02  0.27507877551E+02  0.33099432950E+02  0.51100000000E-03 0. -1.
         23    2    1    0    0    0  0.11270881436E+01  0.15486003726E+02 -0.25161992304E+02  0.95432915331E+02  0.90737141419E+02 0.  0.
         11    1    3    3    0    0 -0.44021444154E+01  0.33044953617E+02 -0.52669869855E+02  0.62333482382E+02  0.51100000000E-03 0.  1.
         22    1    1    0    0    0 -0.11270881436E+01 -0.15486003726E+02  0.25161992304E+02  0.29567084669E+02  0.00000000000E+00 0.  1.
</event>
<event>
 5    1  0.6650580E-004  0.9118800E+02  0.7818608E-02  0.1130116E+00
         25   -1    0    0    0    0  0.00000000000E+00  0.00000000000E+00  0.99999998245E-14  0.12500000000E+03  0.12500000000E+03 0.  0.
        -11    1    3    3    0    0  0.85486720208E+01  0.90633559108E+01 -0.34087679568E+02  0.36293168948E+02  0.51100000000E-03 0.  1.
         23    2    1    0    0    0 -0.14927650376E+02  0.14803049463E+02  0.20279514906E+02  0.95790006095E+02  0.91227745361E+02 0.  0.
         11    1    3    3    0    0 -0.23476322397E+02  0.57396935523E+01  0.54367194473E+02  0.59496837147E+02  0.51100000000E-03 0. -1.
         22    1    1    0    0    0  0.14927650376E+02 -0.14803049463E+02 -0.20279514906E+02  0.29209993905E+02  0.00000000000E+00 0. -1.
</event>
<event>
 5    1  0.6650580E-004  0.9118800E+02  0.7818608E-02  0.1130116E+00
         25   -1    0    0    0    0  0.00000000000E+00  0.00000000000E+00  0.99999998245E-14  0.12500000000E+03  0.12500000000E+03 0.  0.
        -11    1    3    3    0    0 -0.36372832053E+02 -0.35975948857E+02 -0.21744426720E+02  0.55588415172E+02  0.51100000000E-03 0. -1.
         23    2    1    0    0    0 -0.25679424492E+02 -0.13192430544E+02  0.84711080842E+01  0.94912914098E+02  0.90017934461E+02 0.  0.
         11    1    3    3    0    0  0.10693407562E+02  0.22783518313E+02  0.30215534805E+02  0.39324498926E+02  0.51100000000E-03 0.  1.
         22    1    1    0    0    0  0.25679424492E+02  0.13192430544E+02 -0.84711080842E+01  0.30087085902E+02  0.00000000000E+00 0. -1.
</event>
<event>
 5    1  0.6650580E-004  0.9118800E+02  0.7818608E-02  0.1130116E+00
         25   -1    0    0    0    0  0.00000000000E+00  0.00000000000E+00  0.99999998245E-14  0.12500000000E+03  0.12500000000E+03 0.  0.
        -11    1    3    3    0    0 -0.28410324780E-01 -0.73885166311E+01  0.39739641653E+02  0.40420664321E+02  0.51100000000E-03 0.  1.
         23    2    1    0    0    0 -0.11835677604E+02 -0.24114906973E+02 -0.11635738602E+02  0.95725396408E+02  0.91139174354E+02 0.  0.
         11    1    3    3    0    0 -0.11807267280E+02 -0.16726390342E+02 -0.51375380256E+02  0.55304732087E+02  0.51100000000E-03 0. -1.
         22    1    1    0    0    0  0.11835677604E+02  0.24114906973E+02  0.11635738602E+02  0.29274603592E+02  0.00000000000E+00 0. -1.
</event>
<event>
 5    1  0.6650580E-004  0.9118800E+02  0.7818608E-02  0.1130116E+00
         25   -1    0    0    0    0  0.00000000000E+00  0.00000000000E+00  0.99999998245E-14  0.12500000000E+03  0.12500000000E+03 0.  0.
        -11    1    3    3    0    0 -0.13149929756E+01 -0.36759803000E+02 -0.29201944913E+02  0.46965582186E+02  0.51100000000E-03 0.  1.
         23    2    1    0    0    0 -0.20660493788E+02 -0.15603610697E+02  0.11434756303E+02  0.96696602288E+02  0.92461616750E+02 0.  0.
         11    1    3    3    0    0 -0.19345500812E+02  0.21156192303E+02  0.40636701216E+02  0.49731020102E+02  0.51100000000E-03 0. -1.
         22    1    1    0    0    0  0.20660493788E+02  0.15603610697E+02 -0.11434756303E+02  0.28303397712E+02  0.00000000000E+00 0.  1.
</event>
<event>
 5    1  0.6650580E-004  0.9118800E+02  0.7818608E-02  0.1130116E+00
         25   -1    0    0    0    0  0.00000000000E+00  0.00000000000E+00  0.99999998245E-14  0.12500000000E+03  0.12500000000E+03 0.  0.
        -11    1    3    3    0    0 -0.11772823256E+02  0.49924764793E+01  0.36563164633E+02  0.38734857649E+02  0.51100000000E-03 0.  1.
         23    2    1    0    0    0  0.27551140690E+02 -0.12909500193E+02  0.29696273742E+02  0.82484247358E+02  0.70682825633E+02 0.  0.
         11    1    3    3    0    0  0.39323963946E+02 -0.17901976672E+02 -0.68668908911E+01  0.43749389710E+02  0.51100000000E-03 0. -1.
         22    1    1    0    0    0 -0.27551140690E+02  0.12909500193E+02 -0.29696273742E+02  0.42515752642E+02  0.00000000000E+00 0. -1.
</event>
<event>
 5    1  0.6650580E-004  0.9118800E+02  0.7818608E-02  0.1130116E+00
         25   -1    0    0    0    0  0.00000000000E+00  0.00000000000E+00  0.99999998245E-14  0.12500000000E+03  0.12500000000E+03 0.  0.
        -11    1    3    3    0    0  0.26373182872E+02  0.59498051884E+01 -0.24234896010E+02  0.36308058905E+02  0.51100000000E-03 0. -1.
         23    2    1    0    0    0 -0.27732710841E+02  0.58088731546E+01  0.23032775805E+01  0.96571997159E+02  0.92293007806E+02 0.  0.
         11    1    3    3    0    0 -0.54105893712E+02 -0.14093203383E+00  0.26538173590E+02  0.60263938255E+02  0.51100000000E-03 0.  1.
         22    1    1    0    0    0  0.27732710841E+02 -0.58088731546E+01 -0.23032775805E+01  0.28428002841E+02  0.00000000000E+00 0.  1.
</event>
<event>
 5    1  0.6650580E-004  0.9118800E+02  0.7818608E-02  0.1130116E+00
         25   -1    0    0    0    0  0.00000000000E+00  0.00000000000E+00  0.99999998245E-14  0.12500000000E+03  0.12500000000E+03 0.  0.
        -11    1    3    3    0    0  0.16723424735E+02 -0.54406682591E+02 -0.10018327798E+02  0.57793831311E+02  0.51100000000E-03 0.  1.
         23    2    1    0    0    0 -0.50259116429E+01 -0.22091616621E+02 -0.16083235966E+02  0.97215655633E+02  0.93160688642E+02 0.  0.
         11    1    3    3    0    0 -0.21749336377E+02  0.32315065971E+02 -0.60649081682E+01  0.39421824322E+02  0.51100000000E-03 0. -1.
         22    1    1    0    0    0  0.50259116429E+01  0.22091616621E+02  0.16083235966E+02  0.27784344367E+02  0.00000000000E+00 0.  1.
</event>
<event>
 5    1  0.6650580E-004  0.9118800E+02  0.7818608E-02  0.1130116E+00
         25   -1    0    0    0    0  0.00000000000E+00  0.00000000000E+00  0.99999998245E-14  0.12500000000E+03  0.12500000000E+03 0.  0.
        -11    1    3    3    0    0  0.49600248977E+02 -0.26421663337E+02 -0.11876781347E+02  0.57439941918E+02  0.51100000000E-03 0.  1.
         23    2    1    0    0    0  0.31339944856E+02  0.33153457777E+01 -0.74596266510E+01  0.92614359803E+02  0.86767447529E+02 0.  0.
         11    1    3    3    0    0 -0.18260304121E+02  0.29737009115E+02  0.44171546956E+01  0.35174417885E+02  0.51100000000E-03 0. -1.
         22    1    1    0    0    0 -0.31339944856E+02 -0.33153457777E+01  0.74596266510E+01  0.32385640197E+02  0.00000000000E+00 0.  1.
</event>
<event>
 5    1  0.6650580E-004  0.9118800E+02  0.7818608E-02  0.1130116E+00
         25   -1    0    0    0    0  0.00000000000E+00  0.00000000000E+00  0.99999998245E-14  0.12500000000E+03  0.12500000000E+03 0.  0.
        -11    1    3    3    0    0  0.27024899589E+02 -0.28773246422E+02 -0.90764910886E+01  0.40504661438E+02  0.51100000000E-03 0.  1.
         23    2    1    0    0    0  0.16647168944E+02  0.18052045682E+02  0.17035200272E+02  0.95113504128E+02  0.90296046603E+02 0.  0.
         11    1    3    3    0    0 -0.10377730645E+02  0.46825292104E+02  0.26111691361E+02  0.54608842690E+02  0.51100000000E-03 0. -1.
         22    1    1    0    0    0 -0.16647168944E+02 -0.18052045682E+02 -0.17035200272E+02  0.29886495872E+02  0.00000000000E+00 0. -1.
</event>
<event>
 5    1  0.6650580E-004  0.9118800E+02  0.7818608E-02  0.1130116E+00
         25   -1    0    0    0    0  0.00000000000E+00  0.00000000000E+00  0.99999998245E-14  0.12500000000E+03  0.12500000000E+03 0.  0.
        -11    1    3    3    0    0  0.28836281525E+02  0.30499607939E+02 -0.10378297272E+02  0.43237324977E+02  0.51100000000E-03 0. -1.
         23    2    1    0    0    0  0.71130293563E+01 -0.11922565030E+02 -0.27754612418E+02  0.93966771776E+02  0.88694379439E+02 0.  0.
         11    1    3    3    0    0 -0.21723252169E+02 -0.42422172969E+02 -0.17376315146E+02  0.50729446799E+02  0.51100000000E-03 0.  1.
         22    1    1    0    0    0 -0.71130293563E+01  0.11922565030E+02  0.27754612418E+02  0.31033228224E+02  0.00000000000E+00 0.  1.
</event>
<event>
 5    1  0.6650580E-004  0.9118800E+02  0.7818608E-02  0.1130116E+00
         25   -1    0    0    0    0  0.00000000000E+00  0.00000000000E+00  0.99999998245E-14  0.12500000000E+03  0.12500000000E+03 0.  0.
        -11    1    3    3    0    0  0.43741131738E+01  0.87177775050E+01  0.35458031365E+02  0.36775052674E+02  0.51100000000E-03 0.  1.
         23    2    1    0    0    0 -0.14253787875E+02 -0.27794708687E+02 -0.38015146242E+01  0.93533067941E+02  0.88081025114E+02 0.  0.
         11    1    3    3    0    0 -0.18627901049E+02 -0.36512486192E+02 -0.39259545989E+02  0.56758015266E+02  0.51100000000E-03 0. -1.
         22    1    1    0    0    0  0.14253787875E+02  0.27794708687E+02  0.38015146242E+01  0.31466932059E+02  0.00000000000E+00 0. -1.
</event>
<event>
 5    1  0.6650580E-004  0.9118800E+02  0.7818608E-02  0.1130116E+00
         25   -1    0    0    0    0  0.00000000000E+00  0.00000000000E+00  0.99999998245E-14  0.12500000000E+03  0.12500000000E+03 0.  0.
        -11    1    3    3    0    0  0.69931464425E+01 -0.48337560142E+02  0.71329998529E+01  0.49358925280E+02  0.51100000000E-03 0.  1.
         23    2    1    0    0    0  0.20380397341E+02 -0.18563427919E+02  0.26035216595E+02  0.87081746414E+02  0.78392835153E+02 0.  0.
         11    1    3    3    0    0  0.13387250899E+02  0.29774132223E+02  0.18902216742E+02  0.37722821133E+02  0.51100000000E-03 0. -1.
         22    1    1    0    0    0 -0.20380397341E+02  0.18563427919E+02 -0.26035216595E+02  0.37918253586E+02  0.00000000000E+00 0.  1.
</event>
<event>
 4    1  0.6650580E-004  0.9118800E+02  0.7818608E-02  0.1130116E+00
         25   -1    0    0    0    0  0.00000000000E+00  0.00000000000E+00  0.99999998245E-14  0.12500000000E+03  0.12500000000E+03 0.  0.
        -11    1    1    0    0    0  0.25199400634E+02 -0.28050390130E+02 -0.48506348244E+02  0.61438587215E+02  0.51100000000E-03 0. -1.
         11    1    1    0    0    0 -0.33996086591E+01  0.64192849759E+01  0.15078262088E+01  0.74187666612E+01  0.51100000000E-03 0.  1.
         22    1    1    0    0    0 -0.21799791975E+02  0.21631105154E+02  0.46998522035E+02  0.56142646124E+02  0.00000000000E+00 0. -1.
</event>
<event>
 5    1  0.6650580E-004  0.9118800E+02  0.7818608E-02  0.1130116E+00
         25   -1    0    0    0    0  0.00000000000E+00  0.00000000000E+00  0.99999998245E-14  0.12500000000E+03  0.12500000000E+03 0.  0.
        -11    1    3    3    0    0 -0.35644253018E+02 -0.15742857066E+02  0.16894583754E+02  0.42470899241E+02  0.51100000000E-03 0.  1.
         23    2    1    0    0    0 -0.25262911681E+02  0.13841945920E+02 -0.19276160855E+02  0.90339005340E+02  0.83425124124E+02 0.  0.
         11    1    3    3    0    0  0.10381341337E+02  0.29584802986E+02 -0.36170744610E+02  0.47868106100E+02  0.51100000000E-03 0. -1.
         22    1    1    0    0    0  0.25262911681E+02 -0.13841945920E+02  0.19276160855E+02  0.34660994660E+02  0.00000000000E+00 0. -1.
</event>
<event>
 5    1  0.6650580E-004  0.9118800E+02  0.7818608E-02  0.1130116E+00
         25   -1    0    0    0    0  0.00000000000E+00  0.00000000000E+00  0.99999998245E-14  0.12500000000E+03  0.12500000000E+03 0.  0.
        -11    1    3    3    0    0 -0.41623035571E+01 -0.37344126020E+02  0.14377783125E+02  0.40232190681E+02  0.51100000000E-03 0.  1.
         23    2    1    0    0    0 -0.22871069828E+02  0.15395094481E+02  0.41154092483E+01  0.97124717715E+02  0.93038591073E+02 0.  0.
         11    1    3    3    0    0 -0.18708766271E+02  0.52739220501E+02 -0.10262373877E+02  0.56892527034E+02  0.51100000000E-03 0. -1.
         22    1    1    0    0    0  0.22871069828E+02 -0.15395094481E+02 -0.41154092483E+01  0.27875282285E+02  0.00000000000E+00 0. -1.
</event>
<event>
 5    1  0.6650580E-004  0.9118800E+02  0.7818608E-02  0.1130116E+00
         25   -1    0    0    0    0  0.00000000000E+00  0.00000000000E+00  0.99999998245E-14  0.12500000000E+03  0.12500000000E+03 0.  0.
        -11    1    3    3    0    0  0.40940335131E+01  0.28741027031E+02  0.16593513657E+02  0.33438786475E+02  0.51100000000E-03 0.  1.
         23    2    1    0    0    0 -0.55875894419E+01 -0.29741696345E+02  0.10576185670E+01  0.94719507694E+02  0.89748966142E+02 0.  0.
         11    1    3    3    0    0 -0.96816229550E+01 -0.58482723376E+02 -0.15535895090E+02  0.61280721219E+02  0.51100000000E-03 0. -1.
         22    1    1    0    0    0  0.55875894419E+01  0.29741696345E+02 -0.10576185670E+01  0.30280492306E+02  0.00000000000E+00 0. -1.
</event>
<event>
 5    1  0.6650580E-004  0.9118800E+02  0.7818608E-02  0.1130116E+00
         25   -1    0    0    0    0  0.00000000000E+00  0.00000000000E+00  0.99999998245E-14  0.12500000000E+03  0.12500000000E+03 0.  0.
        -11    1    3    3    0    0  0.73496151636E+01  0.59740426217E+02  0.64119422784E+00  0.60194239741E+02  0.51100000000E-03 0.  1.
         23    2    1    0    0    0 -0.43627738135E+01  0.31162741708E+02  0.91507500344E+01  0.92229792612E+02  0.86211647432E+02 0.  0.
         11    1    3    3    0    0 -0.11712388977E+02 -0.28577684509E+02  0.85095558066E+01  0.32035552871E+02  0.51100000000E-03 0. -1.
         22    1    1    0    0    0  0.43627738135E+01 -0.31162741708E+02 -0.91507500344E+01  0.32770207388E+02  0.00000000000E+00 0.  1.
</event>
<event>
 5    1  0.6650580E-004  0.9118800E+02  0.7818608E-02  0.1130116E+00
         25   -1    0    0    0    0  0.00000000000E+00  0.00000000000E+00  0.99999998245E-14  0.12500000000E+03  0.12500000000E+03 0.  0.
        -11    1    3    3    0    0  0.18689520335E+01  0.32691549625E+02  0.46235742087E+02  0.56656634608E+02  0.51100000000E-03 0. -1.
         23    2    1    0    0    0  0.17234078997E+02  0.19115796395E+02  0.11908717851E+02  0.96640791415E+02  0.92386134532E+02 0.  0.
         11    1    3    3    0    0  0.15365126964E+02 -0.13575753230E+02 -0.34327024236E+02  0.39984156807E+02  0.51100000000E-03 0.  1.
         22    1    1    0    0    0 -0.17234078997E+02 -0.19115796395E+02 -0.11908717851E+02  0.28359208585E+02  0.00000000000E+00 0. -1.
</event>
<event>
 5    1  0.6650580E-004  0.9118800E+02  0.7818608E-02  0.1130116E+00
         25   -1    0    0    0    0  0.00000000000E+00  0.00000000000E+00  0.99999998245E-14  0.12500000000E+03  0.12500000000E+03 0.  0.
        -11    1    3    3    0    0 -0.14386905517E+02 -0.47015798250E+02 -0.15810478670E+02  0.51647261026E+02  0.51100000000E-03 0.  1.
         23    2    1    0    0    0 -0.12015338814E+01 -0.26315850508E+02 -0.33850513287E+02  0.82106819640E+02  0.70012176869E+02 0.  0.
         11    1    3    3    0    0  0.13185371636E+02  0.20699947742E+02 -0.18040034616E+02  0.30459558613E+02  0.51100000000E-03 0. -1.
         22    1    1    0    0    0  0.12015338814E+01  0.26315850508E+02  0.33850513287E+02  0.42893180360E+02  0.00000000000E+00 0.  1.
</event>
<event>
 5    1  0.6650580E-004  0.9118800E+02  0.7818608E-02  0.1130116E+00
         25   -1    0    0    0    0  0.00000000000E+00  0.00000000000E+00  0.99999998245E-14  0.12500000000E+03  0.12500000000E+03 0.  0.
        -11    1    3    3    0    0  0.25785752244E+02  0.24926025386E+02  0.11883314652E+01  0.35883476591E+02  0.51100000000E-03 0. -1.
         23    2    1    0    0    0 -0.11078399961E+02 -0.16406516303E+02 -0.21535783168E+02  0.95747740608E+02  0.91169814917E+02 0.  0.
         11    1    3    3    0    0 -0.36864152205E+02 -0.41332541688E+02 -0.22724114633E+02  0.59864264017E+02  0.51100000000E-03 0.  1.
         22    1    1    0    0    0  0.11078399961E+02  0.16406516303E+02  0.21535783168E+02  0.29252259392E+02  0.00000000000E+00 0.  1.
</event>
<event>
 5    1  0.6650580E-004  0.9118800E+02  0.7818608E-02  0.1130116E+00
         25   -1    0    0    0    0  0.00000000000E+00  0.00000000000E+00  0.99999998245E-14  0.12500000000E+03  0.12500000000E+03 0.  0.
        -11    1    3    3    0    0 -0.21591428460E+02 -0.18075016113E+02  0.19786161250E+02  0.34414941054E+02  0.51100000000E-03 0.  1.
         23    2    1    0    0    0  0.69780933758E+01  0.22859920626E+02 -0.16350911000E+02  0.96041028183E+02  0.91571049168E+02 0.  0.
         11    1    3    3    0    0  0.28569521836E+02  0.40934936739E+02 -0.36137072250E+02  0.61626087129E+02  0.51100000000E-03 0. -1.
         22    1    1    0    0    0 -0.69780933758E+01 -0.22859920626E+02  0.16350911000E+02  0.28958971817E+02  0.00000000000E+00 0. -1.
</event>
<event>
 5    1  0.6650580E-004  0.9118800E+02  0.7818608E-02  0.1130116E+00
         25   -1    0    0    0    0  0.00000000000E+00  0.00000000000E+00  0.99999998245E-14  0.12500000000E+03  0.12500000000E+03 0.  0.
        -11    1    3    3    0    0  0.28239853230E+02  0.26885724612E+02  0.37115279829E+01  0.39167677217E+02  0.51100000000E-03 0.  1.
         23    2    1    0    0    0 -0.19069206039E+02 -0.47760391510E+01  0.18523518682E+02  0.97989522157E+02  0.94193314727E+02 0.  0.
         11    1    3    3    0    0 -0.47309059269E+02 -0.31661763763E+02  0.14811990699E+02  0.58821844941E+02  0.51100000000E-03 0. -1.
         22    1    1    0    0    0  0.19069206039E+02  0.47760391510E+01 -0.18523518682E+02  0.27010477843E+02  0.00000000000E+00 0. -1.
</event>
<event>
 5    1  0.6650580E-004  0.9118800E+02  0.7818608E-02  0.1130116E+00
         25   -1    0    0    0    0  0.00000000000E+00  0.00000000000E+00  0.99999998245E-14  0.12500000000E+03  0.12500000000E+03 0.  0.
        -11    1    3    3    0    0  0.22354064827E+02  0.21957734714E+02 -0.83840728211E+01  0.32436692270E+02  0.51100000000E-03 0. -1.
         23    2    1    0    0    0  0.47474946051E+01 -0.33213919056E+02 -0.86547426810E+01  0.90350213637E+02  0.83441916381E+02 0.  0.
         11    1    3    3    0    0 -0.17606570222E+02 -0.55171653771E+02 -0.27066985992E+00  0.57913521368E+02  0.51100000000E-03 0.  1.
         22    1    1    0    0    0 -0.47474946051E+01  0.33213919056E+02  0.86547426810E+01  0.34649786363E+02  0.00000000000E+00 0.  1.
</event>
<event>
 5    1  0.6650580E-004  0.9118800E+02  0.7818608E-02  0.1130116E+00
         25   -1    0    0    0    0  0.00000000000E+00  0.00000000000E+00  0.99999998245E-14  0.12500000000E+03  0.12500000000E+03 0.  0.
        -11    1    3    3    0    0  0.38731197261E+01 -0.20160547354E+02  0.49365680118E+02  0.53464185206E+02  0.51100000000E-03 0. -1.
         23    2    1    0    0    0  0.21937384559E+02 -0.14742394100E+02  0.10697243427E+02  0.96486528762E+02  0.92177178253E+02 0.  0.
         11    1    3    3    0    0  0.18064264833E+02  0.54181532540E+01 -0.38668436691E+02  0.43022343556E+02  0.51100000000E-03 0.  1.
         22    1    1    0    0    0 -0.21937384559E+02  0.14742394100E+02 -0.10697243427E+02  0.28513471238E+02  0.00000000000E+00 0. -1.
</event>
<event>
 5    1  0.6650580E-004  0.9118800E+02  0.7818608E-02  0.1130116E+00
         25   -1    0    0    0    0  0.00000000000E+00  0.00000000000E+00  0.99999998245E-14  0.12500000000E+03  0.12500000000E+03 0.  0.
        -11    1    3    3    0    0  0.24115180366E+02 -0.40705946006E+02  0.40818619837E+02  0.62487404250E+02  0.51100000000E-03 0. -1.
         23    2    1    0    0    0  0.13008981033E+02 -0.23334142361E+02  0.22334595546E+02  0.90178312140E+02  0.83184001075E+02 0.  0.
         11    1    3    3    0    0 -0.11106199334E+02  0.17371803644E+02 -0.18484024291E+02  0.27690907889E+02  0.51100000000E-03 0.  1.
         22    1    1    0    0    0 -0.13008981033E+02  0.23334142361E+02 -0.22334595546E+02  0.34821687860E+02  0.00000000000E+00 0. -1.
</event>
<event>
 5    1  0.6650580E-004  0.9118800E+02  0.7818608E-02  0.1130116E+00
         25   -1    0    0    0    0  0.00000000000E+00  0.00000000000E+00  0.99999998245E-14  0.12500000000E+03  0.12500000000E+03 0.  0.
        -11    1    3    3    0    0 -0.22429964892E+02 -0.47291551508E+02 -0.18129758865E+02  0.55392078187E+02  0.51100000000E-03 0.  1.
         23    2    1    0    0    0  0.95062604653E+01 -0.23848437013E+02  0.83246278690E+00  0.99313234336E+02  0.95933876102E+02 0.  0.
         11    1    3    3    0    0  0.31936225357E+02  0.23443114495E+02  0.18962221652E+02  0.43921156150E+02  0.51100000000E-03 0. -1.
         22    1    1    0    0    0 -0.95062604653E+01  0.23848437013E+02 -0.83246278690E+00  0.25686765664E+02  0.00000000000E+00 0. -1.
</event>
<event>
 5    1  0.6650580E-004  0.9118800E+02  0.7818608E-02  0.1130116E+00
         25   -1    0    0    0    0  0.00000000000E+00  0.00000000000E+00  0.99999998245E-14  0.12500000000E+03  0.12500000000E+03 0.  0.
        -11    1    3    3    0    0  0.35444708454E+02 -0.37830671297E+02  0.29206512794E+02  0.59502163306E+02  0.51100000000E-03 0.  1.
         23    2    1    0    0    0  0.11556423661E+02 -0.10364310835E+02  0.24204371795E+02  0.96245496337E+02  0.91849736441E+02 0.  0.
         11    1    3    3    0    0 -0.23888284793E+02  0.27466360462E+02 -0.50021409986E+01  0.36743333031E+02  0.51100000000E-03 0. -1.
         22    1    1    0    0    0 -0.11556423661E+02  0.10364310835E+02 -0.24204371795E+02  0.28754503663E+02  0.00000000000E+00 0.  1.
</event>
<event>
 5    1  0.6650580E-004  0.9118800E+02  0.7818608E-02  0.1130116E+00
         25   -1    0    0    0    0  0.00000000000E+00  0.00000000000E+00  0.99999998245E-14  0.12500000000E+03  0.12500000000E+03 0.  0.
        -11    1    3    3    0    0  0.15276107530E+02 -0.40378612167E+02  0.44844597632E+01  0.43403941773E+02  0.51100000000E-03 0.  1.
         23    2    1    0    0    0 -0.27260452229E+02 -0.10752110082E+02 -0.19076808937E+01  0.95633703446E+02  0.91013327933E+02 0.  0.
         11    1    3    3    0    0 -0.42536559758E+02  0.29626502086E+02 -0.63921406569E+01  0.52229761673E+02  0.51100000000E-03 0. -1.
         22    1    1    0    0    0  0.27260452229E+02  0.10752110082E+02  0.19076808937E+01  0.29366296554E+02  0.00000000000E+00 0. -1.
</event>
<event>
 5    1  0.6650580E-004  0.9118800E+02  0.7818608E-02  0.1130116E+00
         25   -1    0    0    0    0  0.00000000000E+00  0.00000000000E+00  0.99999998245E-14  0.12500000000E+03  0.12500000000E+03 0.  0.
        -11    1    3    3    0    0  0.46560845316E+02 -0.32710737836E+02  0.21691483017E+02  0.60896840001E+02  0.51100000000E-03 0. -1.
         23    2    1    0    0    0  0.27637556919E+02 -0.88468592101E+01  0.52418161717E+01  0.95511390214E+02  0.90845184536E+02 0.  0.
         11    1    3    3    0    0 -0.18923288397E+02  0.23863878626E+02 -0.16449666846E+02  0.34614550213E+02  0.51100000000E-03 0.  1.
         22    1    1    0    0    0 -0.27637556919E+02  0.88468592101E+01 -0.52418161717E+01  0.29488609786E+02  0.00000000000E+00 0. -1.
</event>
<event>
 5    1  0.6650580E-004  0.9118800E+02  0.7818608E-02  0.1130116E+00
         25   -1    0    0    0    0  0.00000000000E+00  0.00000000000E+00  0.99999998245E-14  0.12500000000E+03  0.12500000000E+03 0.  0.
        -11    1    3    3    0    0 -0.31885350623E+02  0.39627132943E+02  0.35930768415E+02  0.62273633014E+02  0.51100000000E-03 0. -1.
         23    2    1    0    0    0 -0.16079628274E+02  0.17931325908E+02  0.21315899957E+02  0.92837063486E+02  0.87087690700E+02 0.  0.
         11    1    3    3    0    0  0.15805722349E+02 -0.21695807035E+02 -0.14614868458E+02  0.30563430471E+02  0.51100000000E-03 0.  1.
         22    1    1    0    0    0  0.16079628274E+02 -0.17931325908E+02 -0.21315899957E+02  0.32162936514E+02  0.00000000000E+00 0. -1.
</event>
<event>
 5    1  0.6650580E-004  0.9118800E+02  0.7818608E-02  0.1130116E+00
         25   -1    0    0    0    0  0.00000000000E+00  0.00000000000E+00  0.99999998245E-14  0.12500000000E+03  0.12500000000E+03 0.  0.
        -11    1    3    3    0    0  0.18349726870E+02 -0.51529818761E+02  0.21097743780E+02  0.58627207768E+02  0.51100000000E-03 0. -1.
         23    2    1    0    0    0 -0.65208193945E+01 -0.23375984262E+02  0.14386748987E+02  0.96787657450E+02  0.92584633511E+02 0.  0.
         11    1    3    3    0    0 -0.24870546265E+02  0.28153834500E+02 -0.67109947932E+01  0.38160449682E+02  0.51100000000E-03 0.  1.
         22    1    1    0    0    0  0.65208193945E+01  0.23375984262E+02 -0.14386748987E+02  0.28212342550E+02  0.00000000000E+00 0. -1.
</event>
<event>
 5    1  0.6650580E-004  0.9118800E+02  0.7818608E-02  0.1130116E+00
         25   -1    0    0    0    0  0.00000000000E+00  0.00000000000E+00  0.99999998245E-14  0.12500000000E+03  0.12500000000E+03 0.  0.
        -11    1    3    3    0    0  0.10904647898E+02  0.14741668986E+02  0.30330918073E+02  0.35442809450E+02  0.51100000000E-03 0. -1.
         23    2    1    0    0    0 -0.17646686032E+02 -0.20767137517E+02 -0.96792434008E+01  0.96079984762E+02  0.91624211814E+02 0.  0.
         11    1    3    3    0    0 -0.28551333930E+02 -0.35508806503E+02 -0.40010161474E+02  0.60637175312E+02  0.51100000000E-03 0.  1.
         22    1    1    0    0    0  0.17646686032E+02  0.20767137517E+02  0.96792434008E+01  0.28920015238E+02  0.00000000000E+00 0.  1.
</event>
<event>
 5    1  0.6650580E-004  0.9118800E+02  0.7818608E-02  0.1130116E+00
         25   -1    0    0    0    0  0.00000000000E+00  0.00000000000E+00  0.99999998245E-14  0.12500000000E+03  0.12500000000E+03 0.  0.
        -11    1    3    3    0    0 -0.48247163192E+01  0.46257603390E+02  0.39147071864E+02  0.60790928556E+02  0.51100000000E-03 0.  1.
         23    2    1    0    0    0  0.67153856265E+01  0.23763074097E+02  0.25425736265E+02  0.89556408770E+02  0.82244162057E+02 0.  0.
         11    1    3    3    0    0  0.11540101946E+02 -0.22494529293E+02 -0.13721335599E+02  0.28765480214E+02  0.51100000000E-03 0. -1.
         22    1    1    0    0    0 -0.67153856265E+01 -0.23763074097E+02 -0.25425736265E+02  0.35443591230E+02  0.00000000000E+00 0.  1.
</event>
<event>
 5    1  0.6650580E-004  0.9118800E+02  0.7818608E-02  0.1130116E+00
         25   -1    0    0    0    0  0.00000000000E+00  0.00000000000E+00  0.99999998245E-14  0.12500000000E+03  0.12500000000E+03 0.  0.
        -11    1    3    3    0    0  0.66533387356E+01 -0.33354381157E+02 -0.41206617964E+02  0.53430019867E+02  0.51100000000E-03 0.  1.
         23    2    1    0    0    0 -0.13710420473E+02  0.59527571288E+00 -0.25541236203E+02  0.96005436208E+02  0.91522451082E+02 0.  0.
         11    1    3    3    0    0 -0.20363759208E+02  0.33949656870E+02  0.15665381761E+02  0.42575416341E+02  0.51100000000E-03 0. -1.
         22    1    1    0    0    0  0.13710420473E+02 -0.59527571288E+00  0.25541236203E+02  0.28994563792E+02  0.00000000000E+00 0.  1.
</event>
<event>
 5    1  0.6650580E-004  0.9118800E+02  0.7818608E-02  0.1130116E+00
         25   -1    0    0    0    0  0.00000000000E+00  0.00000000000E+00  0.99999998245E-14  0.12500000000E+03  0.12500000000E+03 0.  0.
        -11    1    3    3    0    0 -0.67154515411E+01  0.54083240807E+02 -0.25209203964E+02  0.60046633464E+02  0.51100000000E-03 0.  1.
         23    2    1    0    0    0 -0.65014792497E+01  0.30932777891E+02 -0.12457897003E+01  0.93366821651E+02  0.87844780225E+02 0.  0.
         11    1    3    3    0    0  0.21397229138E+00 -0.23150462916E+02  0.23963414263E+02  0.33320188187E+02  0.51100000000E-03 0. -1.
         22    1    1    0    0    0  0.65014792497E+01 -0.30932777891E+02  0.12457897003E+01  0.31633178349E+02  0.00000000000E+00 0.  1.
</event>
<event>
 5    1  0.6650580E-004  0.9118800E+02  0.7818608E-02  0.1130116E+00
         25   -1    0    0    0    0  0.00000000000E+00  0.00000000000E+00  0.99999998245E-14  0.12500000000E+03  0.12500000000E+03 0.  0.
        -11    1    3    3    0    0  0.33832787045E+01 -0.15548672779E+02  0.33212941246E+02  0.36828077148E+02  0.51100000000E-03 0. -1.
         23    2    1    0    0    0 -0.24317258124E+01  0.28943524038E+02 -0.47067551749E+01  0.95575615242E+02  0.90933513131E+02 0.  0.
         11    1    3    3    0    0 -0.58150045169E+01  0.44492196817E+02 -0.37919696420E+02  0.58747538093E+02  0.51100000000E-03 0.  1.
         22    1    1    0    0    0  0.24317258124E+01 -0.28943524038E+02  0.47067551749E+01  0.29424384758E+02  0.00000000000E+00 0.  1.
</event>
<event>
 5    1  0.6650580E-004  0.9118800E+02  0.7818608E-02  0.1130116E+00
         25   -1    0    0    0    0  0.00000000000E+00  0.00000000000E+00  0.99999998245E-14  0.12500000000E+03  0.12500000000E+03 0.  0.
        -11    1    3    3    0    0  0.21316196405E+02  0.54387141533E+02 -0.19065779222E+02  0.61447907457E+02  0.51100000000E-03 0.  1.
         23    2    1    0    0    0  0.16761218278E+02  0.20723605924E+02 -0.85666435112E+01  0.97003684855E+02  0.92875837621E+02 0.  0.
         11    1    3    3    0    0 -0.45549781271E+01 -0.33663535609E+02  0.10499135710E+02  0.35555777398E+02  0.51100000000E-03 0. -1.
         22    1    1    0    0    0 -0.16761218278E+02 -0.20723605924E+02  0.85666435112E+01  0.27996315145E+02  0.00000000000E+00 0.  1.
</event>
<event>
 5    1  0.6650580E-004  0.9118800E+02  0.7818608E-02  0.1130116E+00
         25   -1    0    0    0    0  0.00000000000E+00  0.00000000000E+00  0.99999998245E-14  0.12500000000E+03  0.12500000000E+03 0.  0.
        -11    1    3    3    0    0  0.69734272810E+00  0.57148122102E+02 -0.24559008077E+02  0.62205618916E+02  0.51100000000E-03 0.  1.
         23    2    1    0    0    0 -0.38225920464E+01  0.27050324716E+02 -0.10477163430E+02  0.95740758200E+02  0.91160241059E+02 0.  0.
         11    1    3    3    0    0 -0.45199347745E+01 -0.30097797387E+02  0.14081844647E+02  0.33535139284E+02  0.51100000000E-03 0. -1.
         22    1    1    0    0    0  0.38225920464E+01 -0.27050324716E+02  0.10477163430E+02  0.29259241800E+02  0.00000000000E+00 0.  1.
</event>
<event>
 5    1  0.6650580E-004  0.9118800E+02  0.7818608E-02  0.1130116E+00
         25   -1    0    0    0    0  0.00000000000E+00  0.00000000000E+00  0.99999998245E-14  0.12500000000E+03  0.12500000000E+03 0.  0.
        -11    1    3    3    0    0  0.26397620322E+02  0.36152430538E+02  0.25713674017E+01  0.44837980809E+02  0.51100000000E-03 0.  1.
         23    2    1    0    0    0  0.16922568218E+02 -0.89609901987E+01 -0.20973077841E+02  0.96600305379E+02  0.92331339993E+02 0.  0.
         11    1    3    3    0    0 -0.94750521037E+01 -0.45113420737E+02 -0.23544445242E+02  0.51762324571E+02  0.51100000000E-03 0. -1.
         22    1    1    0    0    0 -0.16922568218E+02  0.89609901987E+01  0.20973077841E+02  0.28399694621E+02  0.00000000000E+00 0.  1.
</event>
<event>
 5    1  0.6650580E-004  0.9118800E+02  0.7818608E-02  0.1130116E+00
         25   -1    0    0    0    0  0.00000000000E+00  0.00000000000E+00  0.99999998245E-14  0.12500000000E+03  0.12500000000E+03 0.  0.
        -11    1    3    3    0    0  0.17157531698E+02 -0.11121904141E+02  0.33806050487E+02  0.39508564837E+02  0.51100000000E-03 0. -1.
         23    2    1    0    0    0 -0.26190569877E+02  0.12332249214E+02  0.90067103484E+01  0.94682494290E+02  0.89697400032E+02 0.  0.
         11    1    3    3    0    0 -0.43348101575E+02  0.23454153356E+02 -0.24799340139E+02  0.55173929453E+02  0.51100000000E-03 0.  1.
         22    1    1    0    0    0  0.26190569877E+02 -0.12332249214E+02 -0.90067103484E+01  0.30317505710E+02  0.00000000000E+00 0.  1.
</event>
<event>
 5    1  0.6650580E-004  0.9118800E+02  0.7818608E-02  0.1130116E+00
         25   -1    0    0    0    0  0.00000000000E+00  0.00000000000E+00  0.99999998245E-14  0.12500000000E+03  0.12500000000E+03 0.  0.
        -11    1    3    3    0    0  0.39285134583E+02 -0.38990997701E+02 -0.13256337212E+02  0.56915289487E+02  0.51100000000E-03 0.  1.
         23    2    1    0    0    0  0.14911683307E+02 -0.94519371427E+01 -0.22586664548E+02  0.96331989428E+02  0.91967371154E+02 0.  0.
         11    1    3    3    0    0 -0.24373451276E+02  0.29539060558E+02 -0.93303273360E+01  0.39416699941E+02  0.51100000000E-03 0. -1.
         22    1    1    0    0    0 -0.14911683307E+02  0.94519371427E+01  0.22586664548E+02  0.28668010572E+02  0.00000000000E+00 0.  1.
</event>
<event>
 5    1  0.6650580E-004  0.9118800E+02  0.7818608E-02  0.1130116E+00
         25   -1    0    0    0    0  0.00000000000E+00  0.00000000000E+00  0.99999998245E-14  0.12500000000E+03  0.12500000000E+03 0.  0.
        -11    1    3    3    0    0 -0.29534558630E+02 -0.11218440631E+02  0.18379645092E+02  0.36550717061E+02  0.51100000000E-03 0.  1.
         23    2    1    0    0    0  0.15453517935E+02  0.21853490832E+02 -0.61494813743E+01  0.97537254338E+02  0.93591204633E+02 0.  0.
         11    1    3    3    0    0  0.44988076565E+02  0.33071931463E+02 -0.24529126466E+02  0.60986537278E+02  0.51100000000E-03 0. -1.
         22    1    1    0    0    0 -0.15453517935E+02 -0.21853490832E+02  0.61494813743E+01  0.27462745662E+02  0.00000000000E+00 0. -1.
</event>
<event>
 5    1  0.6650580E-004  0.9118800E+02  0.7818608E-02  0.1130116E+00
         25   -1    0    0    0    0  0.00000000000E+00  0.00000000000E+00  0.99999998245E-14  0.12500000000E+03  0.12500000000E+03 0.  0.
        -11    1    3    3    0    0 -0.73713463723E+00 -0.45111219954E+01  0.42803849717E+02  0.43047219887E+02  0.51100000000E-03 0. -1.
         23    2    1    0    0    0  0.22990603953E+02 -0.17893134334E+02 -0.23397424506E+01  0.95773188317E+02  0.91204698779E+02 0.  0.
         11    1    3    3    0    0  0.23727738590E+02 -0.13382012338E+02 -0.45143592168E+02  0.52725968430E+02  0.51100000000E-03 0.  1.
         22    1    1    0    0    0 -0.22990603953E+02  0.17893134334E+02  0.23397424506E+01  0.29226811683E+02  0.00000000000E+00 0.  1.
</event>
<event>
 5    1  0.6650580E-004  0.9118800E+02  0.7818608E-02  0.1130116E+00
         25   -1    0    0    0    0  0.00000000000E+00  0.00000000000E+00  0.99999998245E-14  0.12500000000E+03  0.12500000000E+03 0.  0.
        -11    1    3    3    0    0 -0.11122719353E+02  0.26975035415E+02  0.32669095267E+02  0.43802251167E+02  0.51100000000E-03 0. -1.
         23    2    1    0    0    0 -0.14441177645E+02  0.18870565576E+02 -0.17979383598E+02  0.95202280432E+02  0.90418859249E+02 0.  0.
         11    1    3    3    0    0 -0.33184582914E+01 -0.81044698394E+01 -0.50648478865E+02  0.51400029265E+02  0.51100000000E-03 0.  1.
         22    1    1    0    0    0  0.14441177645E+02 -0.18870565576E+02  0.17979383598E+02  0.29797719568E+02  0.00000000000E+00 0.  1.
</event>
<event>
 5    1  0.6650580E-004  0.9118800E+02  0.7818608E-02  0.1130116E+00
         25   -1    0    0    0    0  0.00000000000E+00  0.00000000000E+00  0.99999998245E-14  0.12500000000E+03  0.12500000000E+03 0.  0.
        -11    1    3    3    0    0 -0.46026545357E+02 -0.10847963502E+02  0.33748733264E+02  0.58095595244E+02  0.51100000000E-03 0.  1.
         23    2    1    0    0    0 -0.82265053891E+01 -0.11278088097E+02  0.24162881123E+02  0.97094525874E+02  0.92998018627E+02 0.  0.
         11    1    3    3    0    0  0.37800039968E+02 -0.43012459415E+00 -0.95858521406E+01  0.38998930630E+02  0.51100000000E-03 0. -1.
         22    1    1    0    0    0  0.82265053891E+01  0.11278088097E+02 -0.24162881123E+02  0.27905474126E+02  0.00000000000E+00 0.  1.
</event>
<event>
 5    1  0.6650580E-004  0.9118800E+02  0.7818608E-02  0.1130116E+00
         25   -1    0    0    0    0  0.00000000000E+00  0.00000000000E+00  0.99999998245E-14  0.12500000000E+03  0.12500000000E+03 0.  0.
        -11    1    3    3    0    0 -0.52248766486E+02  0.26435736445E+01  0.28583163623E+02  0.59614757601E+02  0.51100000000E-03 0.  1.
         23    2    1    0    0    0 -0.16169045948E+02  0.57227372509E+01  0.23084845595E+02  0.96240690817E+02  0.91843196287E+02 0.  0.
         11    1    3    3    0    0  0.36079720537E+02  0.30791636063E+01 -0.54983180272E+01  0.36625933216E+02  0.51100000000E-03 0. -1.
         22    1    1    0    0    0  0.16169045948E+02 -0.57227372509E+01 -0.23084845595E+02  0.28759309183E+02  0.00000000000E+00 0.  1.
</event>
<event>
 5    1  0.6650580E-004  0.9118800E+02  0.7818608E-02  0.1130116E+00
         25   -1    0    0    0    0  0.00000000000E+00  0.00000000000E+00  0.99999998245E-14  0.12500000000E+03  0.12500000000E+03 0.  0.
        -11    1    3    3    0    0  0.27645101488E+02 -0.23140474761E+02  0.47903764546E+02  0.59954181392E+02  0.51100000000E-03 0. -1.
         23    2    1    0    0    0  0.19921197934E+02 -0.43254731572E+00  0.19668969481E+02  0.97001614605E+02  0.92873051264E+02 0.  0.
         11    1    3    3    0    0 -0.77239035547E+01  0.22707927445E+02 -0.28234795065E+02  0.37047433212E+02  0.51100000000E-03 0.  1.
         22    1    1    0    0    0 -0.19921197934E+02  0.43254731572E+00 -0.19668969481E+02  0.27998385395E+02  0.00000000000E+00 0. -1.
</event>
<event>
 5    1  0.6650580E-004  0.9118800E+02  0.7818608E-02  0.1130116E+00
         25   -1    0    0    0    0  0.00000000000E+00  0.00000000000E+00  0.99999998245E-14  0.12500000000E+03  0.12500000000E+03 0.  0.
        -11    1    3    3    0    0 -0.10699966796E+02  0.45186793742E+02 -0.15634661618E+02  0.48997737318E+02  0.51100000000E-03 0. -1.
         23    2    1    0    0    0  0.23712250896E+02  0.20790862792E+02 -0.17162507567E+01  0.93417151255E+02  0.87916368293E+02 0.  0.
         11    1    3    3    0    0  0.34412217692E+02 -0.24395930950E+02  0.13918410861E+02  0.44419413938E+02  0.51100000000E-03 0.  1.
         22    1    1    0    0    0 -0.23712250896E+02 -0.20790862792E+02  0.17162507567E+01  0.31582848745E+02  0.00000000000E+00 0. -1.
</event>
<event>
 5    1  0.6650580E-004  0.9118800E+02  0.7818608E-02  0.1130116E+00
         25   -1    0    0    0    0  0.00000000000E+00  0.00000000000E+00  0.99999998245E-14  0.12500000000E+03  0.12500000000E+03 0.  0.
        -11    1    3    3    0    0  0.33805670641E+02  0.26872455791E+02  0.15649264606E+02  0.45933122370E+02  0.51100000000E-03 0.  1.
         23    2    1    0    0    0 -0.53468253287E+01 -0.16490899054E+01  0.28425268158E+02  0.96029257716E+02  0.91554980362E+02 0.  0.
         11    1    3    3    0    0 -0.39152495970E+02 -0.28521545696E+02  0.12776003553E+02  0.50096135346E+02  0.51100000000E-03 0. -1.
         22    1    1    0    0    0  0.53468253287E+01  0.16490899054E+01 -0.28425268158E+02  0.28970742284E+02  0.00000000000E+00 0.  1.
</event>
<event>
 5    1  0.6650580E-004  0.9118800E+02  0.7818608E-02  0.1130116E+00
         25   -1    0    0    0    0  0.00000000000E+00  0.00000000000E+00  0.99999998245E-14  0.12500000000E+03  0.12500000000E+03 0.  0.
        -11    1    3    3    0    0  0.42818513068E+02  0.23882205447E+01  0.34668239916E+02  0.55145403415E+02  0.51100000000E-03 0.  1.
         23    2    1    0    0    0  0.16881182397E+02  0.21911476291E+02  0.11420486552E+02  0.95074849617E+02  0.90242519936E+02 0.  0.
         11    1    3    3    0    0 -0.25937330671E+02  0.19523255746E+02 -0.23247753364E+02  0.39929446202E+02  0.51100000000E-03 0. -1.
         22    1    1    0    0    0 -0.16881182397E+02 -0.21911476291E+02 -0.11420486552E+02  0.29925150383E+02  0.00000000000E+00 0.  1.
</event>
<event>
 5    1  0.6650580E-004  0.9118800E+02  0.7818608E-02  0.1130116E+00
         25   -1    0    0    0    0  0.00000000000E+00  0.00000000000E+00  0.99999998245E-14  0.12500000000E+03  0.12500000000E+03 0.  0.
        -11    1    3    3    0    0 -0.87701629136E+01  0.17527533285E+02  0.41708440205E+02  0.46083881837E+02  0.51100000000E-03 0. -1.
         23    2    1    0    0    0  0.66046243003E+01  0.39465505658E+02  0.22046330725E+02  0.79314248420E+02  0.64834883397E+02 0.  0.
         11    1    3    3    0    0  0.15374787214E+02  0.21937972374E+02 -0.19662109481E+02  0.33230366583E+02  0.51100000000E-03 0.  1.
         22    1    1    0    0    0 -0.66046243003E+01 -0.39465505658E+02 -0.22046330725E+02  0.45685751580E+02  0.00000000000E+00 0.  1.
</event>
<event>
 5    1  0.6650580E-004  0.9118800E+02  0.7818608E-02  0.1130116E+00
         25   -1    0    0    0    0  0.00000000000E+00  0.00000000000E+00  0.99999998245E-14  0.12500000000E+03  0.12500000000E+03 0.  0.
        -11    1    3    3    0    0  0.45784497929E+01  0.14753409748E+02  0.36227080232E+02  0.39383075605E+02  0.51100000000E-03 0.  1.
         23    2    1    0    0    0  0.15172809149E+02  0.21112213253E+02 -0.16941473461E+02  0.93968512621E+02  0.88696832836E+02 0.  0.
         11    1    3    3    0    0  0.10594359356E+02  0.63588035049E+01 -0.53168553693E+02  0.54585437016E+02  0.51100000000E-03 0. -1.
         22    1    1    0    0    0 -0.15172809149E+02 -0.21112213253E+02  0.16941473461E+02  0.31031487379E+02  0.00000000000E+00 0.  1.
</event>
<event>
 5    1  0.6650580E-004  0.9118800E+02  0.7818608E-02  0.1130116E+00
         25   -1    0    0    0    0  0.00000000000E+00  0.00000000000E+00  0.99999998245E-14  0.12500000000E+03  0.12500000000E+03 0.  0.
        -11    1    3    3    0    0  0.92742882706E+01 -0.42429226555E+02 -0.57799789299E+01  0.43813922966E+02  0.51100000000E-03 0.  1.
         23    2    1    0    0    0  0.28655960109E+02  0.54014088848E+01  0.72380963505E+00  0.95830441071E+02  0.91283132438E+02 0.  0.
         11    1    3    3    0    0  0.19381671839E+02  0.47830635440E+02  0.65037885649E+01  0.52016518105E+02  0.51100000000E-03 0. -1.
         22    1    1    0    0    0 -0.28655960109E+02 -0.54014088848E+01 -0.72380963505E+00  0.29169558929E+02  0.00000000000E+00 0. -1.
</event>
<event>
 5    1  0.6650580E-004  0.9118800E+02  0.7818608E-02  0.1130116E+00
         25   -1    0    0    0    0  0.00000000000E+00  0.00000000000E+00  0.99999998245E-14  0.12500000000E+03  0.12500000000E+03 0.  0.
        -11    1    3    3    0    0  0.10093500376E+02  0.33845341512E+02 -0.50310258223E+02  0.61469569501E+02  0.51100000000E-03 0. -1.
         23    2    1    0    0    0  0.10797957837E+02  0.19067921951E+02 -0.19419016190E+02  0.95720660343E+02  0.91132678473E+02 0.  0.
         11    1    3    3    0    0  0.70445746173E+00 -0.14777419561E+02  0.30891242033E+02  0.34251090841E+02  0.51100000000E-03 0.  1.
         22    1    1    0    0    0 -0.10797957837E+02 -0.19067921951E+02  0.19419016190E+02  0.29279339657E+02  0.00000000000E+00 0. -1.
</event>
<event>
 5    1  0.6650580E-004  0.9118800E+02  0.7818608E-02  0.1130116E+00
         25   -1    0    0    0    0  0.00000000000E+00  0.00000000000E+00  0.99999998245E-14  0.12500000000E+03  0.12500000000E+03 0.  0.
        -11    1    3    3    0    0  0.15165465633E+02  0.31383109489E+00  0.40519310197E+02  0.43265509785E+02  0.51100000000E-03 0. -1.
         23    2    1    0    0    0  0.21804260650E+02  0.20819360786E+02 -0.57503954595E+01  0.94308981542E+02  0.89175363108E+02 0.  0.
         11    1    3    3    0    0  0.66387950178E+01  0.20505529691E+02 -0.46269705657E+02  0.51043471757E+02  0.51100000000E-03 0.  1.
         22    1    1    0    0    0 -0.21804260650E+02 -0.20819360786E+02  0.57503954595E+01  0.30691018458E+02  0.00000000000E+00 0. -1.
</event>
<event>
 5    1  0.6650580E-004  0.9118800E+02  0.7818608E-02  0.1130116E+00
         25   -1    0    0    0    0  0.00000000000E+00  0.00000000000E+00  0.99999998245E-14  0.12500000000E+03  0.12500000000E+03 0.  0.
        -11    1    3    3    0    0 -0.37770580682E+02  0.42218818169E+02 -0.21441221595E+02  0.60570383492E+02  0.51100000000E-03 0. -1.
         23    2    1    0    0    0 -0.20410654772E+02  0.20350824097E+02  0.64407774987E+00  0.96170055397E+02  0.91747010030E+02 0.  0.
         11    1    3    3    0    0  0.17359925910E+02 -0.21867994073E+02  0.22085299345E+02  0.35599671905E+02  0.51100000000E-03 0.  1.
         22    1    1    0    0    0  0.20410654772E+02 -0.20350824097E+02 -0.64407774987E+00  0.28829944603E+02  0.00000000000E+00 0. -1.
</event>
<event>
 5    1  0.6650580E-004  0.9118800E+02  0.7818608E-02  0.1130116E+00
         25   -1    0    0    0    0  0.00000000000E+00  0.00000000000E+00  0.99999998245E-14  0.12500000000E+03  0.12500000000E+03 0.  0.
        -11    1    3    3    0    0 -0.81517247228E+01 -0.28090132035E+02 -0.31025078651E+02  0.42638734025E+02  0.51100000000E-03 0.  1.
         23    2    1    0    0    0 -0.20889888245E+02 -0.11250426227E+02  0.17472830689E+02  0.95533759427E+02  0.90875958629E+02 0.  0.
         11    1    3    3    0    0 -0.12738163523E+02  0.16839705808E+02  0.48497909341E+02  0.52895025402E+02  0.51100000000E-03 0. -1.
         22    1    1    0    0    0  0.20889888245E+02  0.11250426227E+02 -0.17472830689E+02  0.29466240573E+02  0.00000000000E+00 0. -1.
</event>
<event>
 5    1  0.6650580E-004  0.9118800E+02  0.7818608E-02  0.1130116E+00
         25   -1    0    0    0    0  0.00000000000E+00  0.00000000000E+00  0.99999998245E-14  0.12500000000E+03  0.12500000000E+03 0.  0.
        -11    1    3    3    0    0 -0.30246184106E+02  0.48125923603E+02 -0.34529106699E+01  0.56946104063E+02  0.51100000000E-03 0. -1.
         23    2    1    0    0    0 -0.89402365973E+01  0.23815199631E+02  0.16260836038E+02  0.94808836516E+02  0.89873294860E+02 0.  0.
         11    1    3    3    0    0  0.21305947508E+02 -0.24310723973E+02  0.19713746708E+02  0.37862732453E+02  0.51100000000E-03 0.  1.
         22    1    1    0    0    0  0.89402365973E+01 -0.23815199631E+02 -0.16260836038E+02  0.30191163484E+02  0.00000000000E+00 0. -1.
</event>
<event>
 5    1  0.6650580E-004  0.9118800E+02  0.7818608E-02  0.1130116E+00
         25   -1    0    0    0    0  0.00000000000E+00  0.00000000000E+00  0.99999998245E-14  0.12500000000E+03  0.12500000000E+03 0.  0.
        -11    1    3    3    0    0 -0.18139808871E+02 -0.33355967266E+02 -0.20760627808E+02  0.43274436857E+02  0.51100000000E-03 0. -1.
         23    2    1    0    0    0  0.24516753520E+02 -0.16788392723E+02  0.35203007581E+01  0.95078204419E+02  0.90247166740E+02 0.  0.
         11    1    3    3    0    0  0.42656562391E+02  0.16567574543E+02  0.24280928566E+02  0.51803767561E+02  0.51100000000E-03 0.  1.
         22    1    1    0    0    0 -0.24516753520E+02  0.16788392723E+02 -0.35203007581E+01  0.29921795581E+02  0.00000000000E+00 0.  1.
</event>
<event>
 5    1  0.6650580E-004  0.9118800E+02  0.7818608E-02  0.1130116E+00
         25   -1    0    0    0    0  0.00000000000E+00  0.00000000000E+00  0.99999998245E-14  0.12500000000E+03  0.12500000000E+03 0.  0.
        -11    1    3    3    0    0  0.48110635913E+02 -0.13116494800E+02  0.42097803778E+01  0.50043960424E+02  0.51100000000E-03 0.  1.
         23    2    1    0    0    0  0.18779532752E+02  0.21815834975E+02 -0.23148452233E+01  0.96121634146E+02  0.91681015136E+02 0.  0.
         11    1    3    3    0    0 -0.29331103161E+02  0.34932329775E+02 -0.65246256011E+01  0.46077673722E+02  0.51100000000E-03 0. -1.
         22    1    1    0    0    0 -0.18779532752E+02 -0.21815834975E+02  0.23148452233E+01  0.28878365854E+02  0.00000000000E+00 0.  1.
</event>
<event>
 5    1  0.6650580E-004  0.9118800E+02  0.7818608E-02  0.1130116E+00
         25   -1    0    0    0    0  0.00000000000E+00  0.00000000000E+00  0.99999998245E-14  0.12500000000E+03  0.12500000000E+03 0.  0.
        -11    1    3    3    0    0 -0.51915720745E+01  0.17727636609E+02  0.41450406915E+02  0.45380147135E+02  0.51100000000E-03 0. -1.
         23    2    1    0    0    0 -0.26015242040E+02  0.14393335020E+02 -0.35307647543E+01  0.95059605695E+02  0.90221402249E+02 0.  0.
         11    1    3    3    0    0 -0.20823669965E+02 -0.33343015891E+01 -0.44981171669E+02  0.49679458560E+02  0.51100000000E-03 0.  1.
         22    1    1    0    0    0  0.26015242040E+02 -0.14393335020E+02  0.35307647543E+01  0.29940394305E+02  0.00000000000E+00 0.  1.
</event>
<event>
 5    1  0.6650580E-004  0.9118800E+02  0.7818608E-02  0.1130116E+00
         25   -1    0    0    0    0  0.00000000000E+00  0.00000000000E+00  0.99999998245E-14  0.12500000000E+03  0.12500000000E+03 0.  0.
        -11    1    3    3    0    0 -0.18098546820E+02 -0.28526372417E+02 -0.43224785923E+02  0.54860672969E+02  0.51100000000E-03 0. -1.
         23    2    1    0    0    0 -0.18894536623E+02  0.58688867737E+01 -0.22556233555E+02  0.94996149941E+02  0.90133442657E+02 0.  0.
         11    1    3    3    0    0 -0.79598980319E+00  0.34395259190E+02  0.20668552368E+02  0.40135476972E+02  0.51100000000E-03 0.  1.
         22    1    1    0    0    0  0.18894536623E+02 -0.58688867737E+01  0.22556233555E+02  0.30003850059E+02  0.00000000000E+00 0. -1.
</event>
<event>
 5    1  0.6650580E-004  0.9118800E+02  0.7818608E-02  0.1130116E+00
         25   -1    0    0    0    0  0.00000000000E+00  0.00000000000E+00  0.99999998245E-14  0.12500000000E+03  0.12500000000E+03 0.  0.
        -11    1    3    3    0    0  0.37537083534E+01 -0.26586004436E+02  0.34982730487E+02  0.44098723234E+02  0.51100000000E-03 0.  1.
         23    2    1    0    0    0  0.17228729694E+02  0.18718410607E+02  0.15407081414E+02  0.95258006452E+02  0.90495865170E+02 0.  0.
         11    1    3    3    0    0  0.13475021341E+02  0.45304415043E+02 -0.19575649073E+02  0.51159283218E+02  0.51100000000E-03 0. -1.
         22    1    1    0    0    0 -0.17228729694E+02 -0.18718410607E+02 -0.15407081414E+02  0.29741993548E+02  0.00000000000E+00 0. -1.
</event>
<event>
 5    1  0.6650580E-004  0.9118800E+02  0.7818608E-02  0.1130116E+00
         25   -1    0    0    0    0  0.00000000000E+00  0.00000000000E+00  0.99999998245E-14  0.12500000000E+03  0.12500000000E+03 0.  0.
        -11    1    3    3    0    0 -0.30648505566E+02 -0.21264996934E+02 -0.30927680404E+02  0.48456706486E+02  0.51100000000E-03 0. -1.
         23    2    1    0    0    0  0.94755190671E+01 -0.27268874101E+02 -0.80629033084E+01  0.95026889283E+02  0.90176062903E+02 0.  0.
         11    1    3    3    0    0  0.40124024633E+02 -0.60038771665E+01  0.22864777095E+02  0.46570182796E+02  0.51100000000E-03 0.  1.
         22    1    1    0    0    0 -0.94755190671E+01  0.27268874101E+02  0.80629033084E+01  0.29973110717E+02  0.00000000000E+00 0.  1.
</event>
<event>
 5    1  0.6650580E-004  0.9118800E+02  0.7818608E-02  0.1130116E+00
         25   -1    0    0    0    0  0.00000000000E+00  0.00000000000E+00  0.99999998245E-14  0.12500000000E+03  0.12500000000E+03 0.  0.
        -11    1    3    3    0    0 -0.27143176096E+02  0.27259182646E+02 -0.17773761194E+02  0.42375955852E+02  0.51100000000E-03 0. -1.
         23    2    1    0    0    0  0.22091916696E+02  0.13818251166E+02  0.53370125019E+01  0.98401493443E+02  0.94738447110E+02 0.  0.
         11    1    3    3    0    0  0.49235092793E+02 -0.13440931480E+02  0.23110773695E+02  0.56025537592E+02  0.51100000000E-03 0.  1.
         22    1    1    0    0    0 -0.22091916696E+02 -0.13818251166E+02 -0.53370125019E+01  0.26598506557E+02  0.00000000000E+00 0.  1.
</event>
<event>
 5    1  0.6650580E-004  0.9118800E+02  0.7818608E-02  0.1130116E+00
         25   -1    0    0    0    0  0.00000000000E+00  0.00000000000E+00  0.99999998245E-14  0.12500000000E+03  0.12500000000E+03 0.  0.
        -11    1    3    3    0    0 -0.40640324256E+02  0.22653502739E+02 -0.21744883528E+02  0.51358125958E+02  0.51100000000E-03 0.  1.
         23    2    1    0    0    0 -0.11572827910E+02 -0.90875213863E+01 -0.26529686322E+02  0.94662932787E+02  0.89670135478E+02 0.  0.
         11    1    3    3    0    0  0.29067496347E+02 -0.31741024126E+02 -0.47848027936E+01  0.43304806828E+02  0.51100000000E-03 0. -1.
         22    1    1    0    0    0  0.11572827910E+02  0.90875213863E+01  0.26529686322E+02  0.30337067213E+02  0.00000000000E+00 0. -1.
</event>
<event>
 5    1  0.6650580E-004  0.9118800E+02  0.7818608E-02  0.1130116E+00
         25   -1    0    0    0    0  0.00000000000E+00  0.00000000000E+00  0.99999998245E-14  0.12500000000E+03  0.12500000000E+03 0.  0.
        -11    1    3    3    0    0 -0.36300365290E+02 -0.77419057633E+01 -0.28765338241E+02  0.46958474309E+02  0.51100000000E-03 0. -1.
         23    2    1    0    0    0 -0.53736283514E+01  0.26036719051E+02 -0.13105534331E+02  0.95359796716E+02  0.90636356828E+02 0.  0.
         11    1    3    3    0    0  0.30926736938E+02  0.33778624815E+02  0.15659803910E+02  0.48401322407E+02  0.51100000000E-03 0.  1.
         22    1    1    0    0    0  0.53736283514E+01 -0.26036719051E+02  0.13105534331E+02  0.29640203284E+02  0.00000000000E+00 0.  1.
</event>
<event>
 5    1  0.6650580E-004  0.9118800E+02  0.7818608E-02  0.1130116E+00
         25   -1    0    0    0    0  0.00000000000E+00  0.00000000000E+00  0.99999998245E-14  0.12500000000E+03  0.12500000000E+03 0.  0.
        -11    1    3    3    0    0  0.56771263109E+02  0.12867731164E+02 -0.79861761902E+01  0.58756564150E+02  0.51100000000E-03 0. -1.
         23    2    1    0    0    0  0.22556705111E+02  0.19780218924E+02  0.16047715239E+01  0.94956077191E+02  0.90077851316E+02 0.  0.
         11    1    3    3    0    0 -0.34214557998E+02  0.69124877604E+01  0.95909477142E+01  0.36199513041E+02  0.51100000000E-03 0.  1.
         22    1    1    0    0    0 -0.22556705111E+02 -0.19780218924E+02 -0.16047715239E+01  0.30043922809E+02  0.00000000000E+00 0. -1.
</event>
<event>
 5    1  0.6650580E-004  0.9118800E+02  0.7818608E-02  0.1130116E+00
         25   -1    0    0    0    0  0.00000000000E+00  0.00000000000E+00  0.99999998245E-14  0.12500000000E+03  0.12500000000E+03 0.  0.
        -11    1    3    3    0    0 -0.39980685326E+02  0.10947152421E+02  0.31275678819E+01  0.41570145855E+02  0.51100000000E-03 0.  1.
         23    2    1    0    0    0 -0.37756819516E+00 -0.17065327712E+02  0.24956610812E+02  0.94764253096E+02  0.89811264739E+02 0.  0.
         11    1    3    3    0    0  0.39603117131E+02 -0.28012480133E+02  0.21829042930E+02  0.53194107241E+02  0.51100000000E-03 0. -1.
         22    1    1    0    0    0  0.37756819516E+00  0.17065327712E+02 -0.24956610812E+02  0.30235746904E+02  0.00000000000E+00 0. -1.
</event>
<event>
 5    1  0.6650580E-004  0.9118800E+02  0.7818608E-02  0.1130116E+00
         25   -1    0    0    0    0  0.00000000000E+00  0.00000000000E+00  0.99999998245E-14  0.12500000000E+03  0.12500000000E+03 0.  0.
        -11    1    3    3    0    0  0.49098913096E+02 -0.22121102638E+02  0.59219278986E+01  0.54176707905E+02  0.51100000000E-03 0. -1.
         23    2    1    0    0    0  0.30116946784E+02  0.10390002487E+02 -0.33993064021E+01  0.92960369551E+02  0.87264496720E+02 0.  0.
         11    1    3    3    0    0 -0.18981966311E+02  0.32511105126E+02 -0.93212343007E+01  0.38783661646E+02  0.51100000000E-03 0.  1.
         22    1    1    0    0    0 -0.30116946784E+02 -0.10390002487E+02  0.33993064021E+01  0.32039630449E+02  0.00000000000E+00 0. -1.
</event>
<event>
 5    1  0.6650580E-004  0.9118800E+02  0.7818608E-02  0.1130116E+00
         25   -1    0    0    0    0  0.00000000000E+00  0.00000000000E+00  0.99999998245E-14  0.12500000000E+03  0.12500000000E+03 0.  0.
        -11    1    3    3    0    0  0.37061237665E+02 -0.38208639532E+02 -0.20923436003E+02  0.57194629526E+02  0.51100000000E-03 0.  1.
         23    2    1    0    0    0  0.21854045830E+02 -0.16914308042E+02  0.80315802844E+01  0.96221545950E+02  0.91817136132E+02 0.  0.
         11    1    3    3    0    0 -0.15207191835E+02  0.21294331490E+02  0.28955016287E+02  0.39026916424E+02  0.51100000000E-03 0. -1.
         22    1    1    0    0    0 -0.21854045830E+02  0.16914308042E+02 -0.80315802844E+01  0.28778454050E+02  0.00000000000E+00 0.  1.
</event>
<event>
 5    1  0.6650580E-004  0.9118800E+02  0.7818608E-02  0.1130116E+00
         25   -1    0    0    0    0  0.00000000000E+00  0.00000000000E+00  0.99999998245E-14  0.12500000000E+03  0.12500000000E+03 0.  0.
        -11    1    3    3    0    0  0.40119173861E+02  0.40742065726E+02  0.16723301301E+02  0.59574598929E+02  0.51100000000E-03 0.  1.
         23    2    1    0    0    0  0.13079032489E+02  0.30568111343E+02  0.28335470063E+01  0.91630859907E+02  0.85338824556E+02 0.  0.
         11    1    3    3    0    0 -0.27040141372E+02 -0.10173954383E+02 -0.13889754295E+02  0.32056260977E+02  0.51100000000E-03 0. -1.
         22    1    1    0    0    0 -0.13079032489E+02 -0.30568111343E+02 -0.28335470063E+01  0.33369140093E+02  0.00000000000E+00 0.  1.
</event>
<event>
 5    1  0.6650580E-004  0.9118800E+02  0.7818608E-02  0.1130116E+00
         25   -1    0    0    0    0  0.00000000000E+00  0.00000000000E+00  0.99999998245E-14  0.12500000000E+03  0.12500000000E+03 0.  0.
        -11    1    3    3    0    0  0.33596660360E+02 -0.86653672443E+01 -0.19267756291E+02  0.39687159253E+02  0.51100000000E-03 0.  1.
         23    2    1    0    0    0 -0.37154395389E+01  0.92631535395E+01  0.23658924674E+02  0.99322086899E+02  0.95945410129E+02 0.  0.
         11    1    3    3    0    0 -0.37312099899E+02  0.17928520784E+02  0.42926680966E+02  0.59634927646E+02  0.51100000000E-03 0. -1.
         22    1    1    0    0    0  0.37154395389E+01 -0.92631535395E+01 -0.23658924674E+02  0.25677913101E+02  0.00000000000E+00 0. -1.
</event>
<event>
 5    1  0.6650580E-004  0.9118800E+02  0.7818608E-02  0.1130116E+00
         25   -1    0    0    0    0  0.00000000000E+00  0.00000000000E+00  0.99999998245E-14  0.12500000000E+03  0.12500000000E+03 0.  0.
        -11    1    3    3    0    0 -0.18500474242E+02  0.45385528305E+02  0.34071014147E+02  0.59690432499E+02  0.51100000000E-03 0.  1.
         23    2    1    0    0    0 -0.20535673861E+02  0.15432243836E+02  0.16256822693E+02  0.94600126072E+02  0.89582540253E+02 0.  0.
         11    1    3    3    0    0 -0.20351996183E+01 -0.29953284469E+02 -0.17814191454E+02  0.34909693573E+02  0.51100000000E-03 0. -1.
         22    1    1    0    0    0  0.20535673861E+02 -0.15432243836E+02 -0.16256822693E+02  0.30399873928E+02  0.00000000000E+00 0.  1.
</event>
<event>
 5    1  0.6650580E-004  0.9118800E+02  0.7818608E-02  0.1130116E+00
         25   -1    0    0    0    0  0.00000000000E+00  0.00000000000E+00  0.99999998245E-14  0.12500000000E+03  0.12500000000E+03 0.  0.
        -11    1    3    3    0    0 -0.40521015713E+02  0.52433173927E+01  0.13263768082E+02  0.42957800638E+02  0.51100000000E-03 0.  1.
         23    2    1    0    0    0 -0.50531164159E+01 -0.27053110649E+02 -0.92750930970E+01  0.95958096942E+02  0.91457772964E+02 0.  0.
         11    1    3    3    0    0  0.35467899297E+02 -0.32296428041E+02 -0.22538861179E+02  0.53000296304E+02  0.51100000000E-03 0. -1.
         22    1    1    0    0    0  0.50531164159E+01  0.27053110649E+02  0.92750930970E+01  0.29041903058E+02  0.00000000000E+00 0. -1.
</event>
<event>
 5    1  0.6650580E-004  0.9118800E+02  0.7818608E-02  0.1130116E+00
         25   -1    0    0    0    0  0.00000000000E+00  0.00000000000E+00  0.99999998245E-14  0.12500000000E+03  0.12500000000E+03 0.  0.
        -11    1    3    3    0    0  0.41069489764E+01 -0.15806317276E+02 -0.24136625927E+02  0.29142467416E+02  0.51100000000E-03 0.  1.
         23    2    1    0    0    0 -0.14181442801E+02  0.33899431900E+02  0.19909707678E+01  0.88199880874E+02  0.80155911937E+02 0.  0.
         11    1    3    3    0    0 -0.18288391778E+02  0.49705749176E+02  0.26127596694E+02  0.59057413458E+02  0.51100000000E-03 0. -1.
         22    1    1    0    0    0  0.14181442801E+02 -0.33899431900E+02 -0.19909707678E+01  0.36800119126E+02  0.00000000000E+00 0. -1.
</event>
<event>
 5    1  0.6650580E-004  0.9118800E+02  0.7818608E-02  0.1130116E+00
         25   -1    0    0    0    0  0.00000000000E+00  0.00000000000E+00  0.99999998245E-14  0.12500000000E+03  0.12500000000E+03 0.  0.
        -11    1    3    3    0    0  0.14480992330E+02 -0.40487252403E+01 -0.31428914007E+02  0.34840607785E+02  0.51100000000E-03 0.  1.
         23    2    1    0    0    0 -0.15442842201E+02  0.25810349821E+02  0.92753338170E+01  0.93524813733E+02  0.88069310394E+02 0.  0.
         11    1    3    3    0    0 -0.29923834531E+02  0.29859075061E+02  0.40704247824E+02  0.58684205948E+02  0.51100000000E-03 0. -1.
         22    1    1    0    0    0  0.15442842201E+02 -0.25810349821E+02 -0.92753338170E+01  0.31475186267E+02  0.00000000000E+00 0. -1.
</event>
<event>
 5    1  0.6650580E-004  0.9118800E+02  0.7818608E-02  0.1130116E+00
         25   -1    0    0    0    0  0.00000000000E+00  0.00000000000E+00  0.99999998245E-14  0.12500000000E+03  0.12500000000E+03 0.  0.
        -11    1    3    3    0    0 -0.39777124707E+01 -0.49739667139E+02  0.12442125631E+02  0.51426288745E+02  0.51100000000E-03 0. -1.
         23    2    1    0    0    0  0.20361375652E+02 -0.17029082626E+02 -0.83231518473E+01  0.97181838123E+02  0.93115302345E+02 0.  0.
         11    1    3    3    0    0  0.24339088123E+02  0.32710584513E+02 -0.20765277479E+02  0.45755549378E+02  0.51100000000E-03 0.  1.
         22    1    1    0    0    0 -0.20361375652E+02  0.17029082626E+02  0.83231518473E+01  0.27818161877E+02  0.00000000000E+00 0. -1.
</event>
<event>
 5    1  0.6650580E-004  0.9118800E+02  0.7818608E-02  0.1130116E+00
         25   -1    0    0    0    0  0.00000000000E+00  0.00000000000E+00  0.99999998245E-14  0.12500000000E+03  0.12500000000E+03 0.  0.
        -11    1    3    3    0    0 -0.36216683798E+02  0.21532268690E+02  0.19648586733E+02  0.46490361809E+02  0.51100000000E-03 0.  1.
         23    2    1    0    0    0 -0.11668609976E+02 -0.21190385188E+02  0.16204089843E+02  0.95883657324E+02  0.91355975891E+02 0.  0.
         11    1    3    3    0    0  0.24548073822E+02 -0.42722653878E+02 -0.34444968894E+01  0.49393295515E+02  0.51100000000E-03 0. -1.
         22    1    1    0    0    0  0.11668609976E+02  0.21190385188E+02 -0.16204089843E+02  0.29116342676E+02  0.00000000000E+00 0.  1.
</event>
<event>
 5    1  0.6650580E-004  0.9118800E+02  0.7818608E-02  0.1130116E+00
         25   -1    0    0    0    0  0.00000000000E+00  0.00000000000E+00  0.99999998245E-14  0.12500000000E+03  0.12500000000E+03 0.  0.
        -11    1    3    3    0    0 -0.16725644514E+02 -0.36011350646E+02  0.16947221901E+02  0.43171436045E+02  0.51100000000E-03 0. -1.
         23    2    1    0    0    0  0.72812363721E+01  0.84405895766E+00 -0.21931599794E+02  0.10187590200E+03  0.99216810576E+02 0.  0.
         11    1    3    3    0    0  0.24006880886E+02  0.36855409603E+02 -0.38878821695E+02  0.58704465959E+02  0.51100000000E-03 0.  1.
         22    1    1    0    0    0 -0.72812363721E+01 -0.84405895766E+00  0.21931599794E+02  0.23124097996E+02  0.00000000000E+00 0.  1.
</event>
<event>
 5    1  0.6650580E-004  0.9118800E+02  0.7818608E-02  0.1130116E+00
         25   -1    0    0    0    0  0.00000000000E+00  0.00000000000E+00  0.99999998245E-14  0.12500000000E+03  0.12500000000E+03 0.  0.
        -11    1    3    3    0    0 -0.31330163084E+02 -0.11653430820E+02 -0.87249161004E+01  0.34547152270E+02  0.51100000000E-03 0. -1.
         23    2    1    0    0    0  0.25358359805E+02  0.92063744993E+01 -0.12901375630E+02  0.95095999656E+02  0.90271811292E+02 0.  0.
         11    1    3    3    0    0  0.56688522889E+02  0.20859805319E+02 -0.41764595294E+01  0.60548847386E+02  0.51100000000E-03 0.  1.
         22    1    1    0    0    0 -0.25358359805E+02 -0.92063744993E+01  0.12901375630E+02  0.29904000344E+02  0.00000000000E+00 0.  1.
</event>
<event>
 5    1  0.6650580E-004  0.9118800E+02  0.7818608E-02  0.1130116E+00
         25   -1    0    0    0    0  0.00000000000E+00  0.00000000000E+00  0.99999998245E-14  0.12500000000E+03  0.12500000000E+03 0.  0.
        -11    1    3    3    0    0  0.85148725556E+01 -0.52684975716E+01  0.50093882674E+02  0.51084804031E+02  0.51100000000E-03 0. -1.
         23    2    1    0    0    0  0.25233397838E+02  0.93265276308E+01  0.11210460669E+02  0.95855825410E+02  0.91317886269E+02 0.  0.
         11    1    3    3    0    0  0.16718525282E+02  0.14595025202E+02 -0.38883422005E+02  0.44771021379E+02  0.51100000000E-03 0.  1.
         22    1    1    0    0    0 -0.25233397838E+02 -0.93265276308E+01 -0.11210460669E+02  0.29144174590E+02  0.00000000000E+00 0. -1.
</event>
<event>
 5    1  0.6650580E-004  0.9118800E+02  0.7818608E-02  0.1130116E+00
         25   -1    0    0    0    0  0.00000000000E+00  0.00000000000E+00  0.99999998245E-14  0.12500000000E+03  0.12500000000E+03 0.  0.
        -11    1    3    3    0    0  0.23306231766E+02  0.32327293635E+02  0.14119841859E+02  0.42280069622E+02  0.51100000000E-03 0.  1.
         23    2    1    0    0    0  0.11934680888E+02  0.69110103067E+01 -0.28585867016E+02  0.93261215140E+02  0.87694377157E+02 0.  0.
         11    1    3    3    0    0 -0.11371550878E+02 -0.25416283328E+02 -0.42705708875E+02  0.50981145518E+02  0.51100000000E-03 0. -1.
         22    1    1    0    0    0 -0.11934680888E+02 -0.69110103067E+01  0.28585867016E+02  0.31738784860E+02  0.00000000000E+00 0.  1.
</event>
<event>
 5    1  0.6650580E-004  0.9118800E+02  0.7818608E-02  0.1130116E+00
         25   -1    0    0    0    0  0.00000000000E+00  0.00000000000E+00  0.99999998245E-14  0.12500000000E+03  0.12500000000E+03 0.  0.
        -11    1    3    3    0    0 -0.28998720996E+02 -0.27878772105E+02  0.11238769325E+02  0.41766753401E+02  0.51100000000E-03 0.  1.
         23    2    1    0    0    0 -0.12910507367E+02  0.51937706907E+01 -0.26877561865E+02  0.94733520418E+02  0.89768480574E+02 0.  0.
         11    1    3    3    0    0  0.16088213628E+02  0.33072542795E+02 -0.38116331189E+02  0.52966767018E+02  0.51100000000E-03 0. -1.
         22    1    1    0    0    0  0.12910507367E+02 -0.51937706907E+01  0.26877561865E+02  0.30266479582E+02  0.00000000000E+00 0.  1.
</event>
<event>
 5    1  0.6650580E-004  0.9118800E+02  0.7818608E-02  0.1130116E+00
         25   -1    0    0    0    0  0.00000000000E+00  0.00000000000E+00  0.99999998245E-14  0.12500000000E+03  0.12500000000E+03 0.  0.
        -11    1    3    3    0    0  0.19876264502E+02  0.51379860361E+02  0.25284679020E+01  0.55148427825E+02  0.51100000000E-03 0. -1.
         23    2    1    0    0    0  0.18025647210E+02  0.17286062597E+02 -0.17287283445E+02  0.94625963615E+02  0.89618585705E+02 0.  0.
         11    1    3    3    0    0 -0.18506172926E+01 -0.34093797764E+02 -0.19815751347E+02  0.39477535790E+02  0.51100000000E-03 0.  1.
         22    1    1    0    0    0 -0.18025647210E+02 -0.17286062597E+02  0.17287283445E+02  0.30374036385E+02  0.00000000000E+00 0. -1.
</event>
<event>
 5    1  0.6650580E-004  0.9118800E+02  0.7818608E-02  0.1130116E+00
         25   -1    0    0    0    0  0.00000000000E+00  0.00000000000E+00  0.99999998245E-14  0.12500000000E+03  0.12500000000E+03 0.  0.
        -11    1    3    3    0    0 -0.21674234712E+02 -0.33885287474E+02 -0.19627663784E+02  0.44757461316E+02  0.51100000000E-03 0. -1.
         23    2    1    0    0    0  0.22923247051E+02 -0.85934821792E+01 -0.15122006599E+02  0.96225040836E+02  0.91821893952E+02 0.  0.
         11    1    3    3    0    0  0.44597481763E+02  0.25291805294E+02  0.45056571849E+01  0.51467579520E+02  0.51100000000E-03 0.  1.
         22    1    1    0    0    0 -0.22923247051E+02  0.85934821792E+01  0.15122006599E+02  0.28774959164E+02  0.00000000000E+00 0.  1.
</event>
<event>
 5    1  0.6650580E-004  0.9118800E+02  0.7818608E-02  0.1130116E+00
         25   -1    0    0    0    0  0.00000000000E+00  0.00000000000E+00  0.99999998245E-14  0.12500000000E+03  0.12500000000E+03 0.  0.
        -11    1    3    3    0    0 -0.50751968867E+02  0.44925473063E+00  0.36186117646E+02  0.62332971085E+02  0.51100000000E-03 0. -1.
         23    2    1    0    0    0 -0.22425685063E+02 -0.18019449002E+01  0.19084272073E+02  0.95498003516E+02  0.90826763011E+02 0.  0.
         11    1    3    3    0    0  0.28326283804E+02 -0.22511996308E+01 -0.17101845573E+02  0.33165032432E+02  0.51100000000E-03 0.  1.
         22    1    1    0    0    0  0.22425685063E+02  0.18019449002E+01 -0.19084272073E+02  0.29501996484E+02  0.00000000000E+00 0. -1.
</event>
<event>
 5    1  0.6650580E-004  0.9118800E+02  0.7818608E-02  0.1130116E+00
         25   -1    0    0    0    0  0.00000000000E+00  0.00000000000E+00  0.99999998245E-14  0.12500000000E+03  0.12500000000E+03 0.  0.
        -11    1    3    3    0    0 -0.20450878905E+02 -0.12183978075E+02 -0.29359637970E+02  0.37797832104E+02  0.51100000000E-03 0. -1.
         23    2    1    0    0    0  0.23486785847E+01  0.30309598174E+02  0.64266981452E+00  0.94592746637E+02  0.89572242683E+02 0.  0.
         11    1    3    3    0    0  0.22799557490E+02  0.42493576249E+02  0.30002307785E+02  0.56794914534E+02  0.51100000000E-03 0.  1.
         22    1    1    0    0    0 -0.23486785847E+01 -0.30309598174E+02 -0.64266981452E+00  0.30407253363E+02  0.00000000000E+00 0.  1.
</event>
<event>
 5    1  0.6650580E-004  0.9118800E+02  0.7818608E-02  0.1130116E+00
         25   -1    0    0    0    0  0.00000000000E+00  0.00000000000E+00  0.99999998245E-14  0.12500000000E+03  0.12500000000E+03 0.  0.
        -11    1    3    3    0    0  0.26692911374E+01 -0.29027524262E+02  0.51001751274E+02  0.58744369205E+02  0.51100000000E-03 0.  1.
         23    2    1    0    0    0  0.94231389678E+01 -0.23149948202E+02  0.14983745408E+02  0.95858478485E+02  0.91321517844E+02 0.  0.
         11    1    3    3    0    0  0.67538478305E+01  0.58775760607E+01 -0.36018005866E+02  0.37114109280E+02  0.51100000000E-03 0. -1.
         22    1    1    0    0    0 -0.94231389678E+01  0.23149948202E+02 -0.14983745408E+02  0.29141521515E+02  0.00000000000E+00 0.  1.
</event>
<event>
 5    1  0.6650580E-004  0.9118800E+02  0.7818608E-02  0.1130116E+00
         25   -1    0    0    0    0  0.00000000000E+00  0.00000000000E+00  0.99999998245E-14  0.12500000000E+03  0.12500000000E+03 0.  0.
        -11    1    3    3    0    0 -0.37354709226E+02 -0.16654673194E+02 -0.56442388976E+01  0.41286921338E+02  0.51100000000E-03 0.  1.
         23    2    1    0    0    0  0.16179509144E+02 -0.21929151425E+02 -0.11546024597E+02  0.95403127153E+02  0.90696095772E+02 0.  0.
         11    1    3    3    0    0  0.53534218370E+02 -0.52744782310E+01 -0.59017856989E+01  0.54116205815E+02  0.51100000000E-03 0. -1.
         22    1    1    0    0    0 -0.16179509144E+02  0.21929151425E+02  0.11546024597E+02  0.29596872847E+02  0.00000000000E+00 0.  1.
</event>
<event>
 5    1  0.6650580E-004  0.9118800E+02  0.7818608E-02  0.1130116E+00
         25   -1    0    0    0    0  0.00000000000E+00  0.00000000000E+00  0.99999998245E-14  0.12500000000E+03  0.12500000000E+03 0.  0.
        -11    1    3    3    0    0  0.18182675299E+02  0.20225085078E+02 -0.84307167503E+00  0.27209823916E+02  0.51100000000E-03 0. -1.
         23    2    1    0    0    0  0.46918453623E+00 -0.36866114454E+02 -0.75655821773E+01  0.87362670622E+02  0.78839505677E+02 0.  0.
         11    1    3    3    0    0 -0.17713490763E+02 -0.57091199532E+02 -0.67225105022E+01  0.60152846705E+02  0.51100000000E-03 0.  1.
         22    1    1    0    0    0 -0.46918453623E+00  0.36866114454E+02  0.75655821773E+01  0.37637329378E+02  0.00000000000E+00 0.  1.
</event>
<event>
 5    1  0.6650580E-004  0.9118800E+02  0.7818608E-02  0.1130116E+00
         25   -1    0    0    0    0  0.00000000000E+00  0.00000000000E+00  0.99999998245E-14  0.12500000000E+03  0.12500000000E+03 0.  0.
        -11    1    3    3    0    0  0.34658074429E+02 -0.33735972062E+02  0.23946093487E+02  0.53969559268E+02  0.51100000000E-03 0. -1.
         23    2    1    0    0    0  0.16206142613E+02  0.27817549352E+01  0.25207270370E+02  0.94903759397E+02  0.90005221233E+02 0.  0.
         11    1    3    3    0    0 -0.18451931816E+02  0.36517726997E+02  0.12611768835E+01  0.40934200128E+02  0.51100000000E-03 0.  1.
         22    1    1    0    0    0 -0.16206142613E+02 -0.27817549352E+01 -0.25207270370E+02  0.30096240603E+02  0.00000000000E+00 0. -1.
</event>
<event>
 5    1  0.6650580E-004  0.9118800E+02  0.7818608E-02  0.1130116E+00
         25   -1    0    0    0    0  0.00000000000E+00  0.00000000000E+00  0.99999998245E-14  0.12500000000E+03  0.12500000000E+03 0.  0.
        -11    1    3    3    0    0 -0.98986198263E+01  0.43739250339E+02  0.38637909697E+02  0.59194533199E+02  0.51100000000E-03 0. -1.
         23    2    1    0    0    0  0.13470728522E+01  0.28611347998E+02  0.78395697512E+01  0.95303490215E+02  0.90558669125E+02 0.  0.
         11    1    3    3    0    0  0.11245692679E+02 -0.15127902341E+02 -0.30798339946E+02  0.36108957015E+02  0.51100000000E-03 0.  1.
         22    1    1    0    0    0 -0.13470728522E+01 -0.28611347998E+02 -0.78395697512E+01  0.29696509785E+02  0.00000000000E+00 0. -1.
</event>
<event>
 5    1  0.6650580E-004  0.9118800E+02  0.7818608E-02  0.1130116E+00
         25   -1    0    0    0    0  0.00000000000E+00  0.00000000000E+00  0.99999998245E-14  0.12500000000E+03  0.12500000000E+03 0.  0.
        -11    1    3    3    0    0 -0.13881228945E+02 -0.12849097863E+01 -0.49997032754E+02  0.51904169338E+02  0.51100000000E-03 0. -1.
         23    2    1    0    0    0  0.11908937611E+02 -0.18523244197E+02 -0.17111219386E+02  0.97112239253E+02  0.93021824392E+02 0.  0.
         11    1    3    3    0    0  0.25790166557E+02 -0.17238334410E+02  0.32885813368E+02  0.45208069915E+02  0.51100000000E-03 0.  1.
         22    1    1    0    0    0 -0.11908937611E+02  0.18523244197E+02  0.17111219386E+02  0.27887760747E+02  0.00000000000E+00 0. -1.
</event>
<event>
 5    1  0.6650580E-004  0.9118800E+02  0.7818608E-02  0.1130116E+00
         25   -1    0    0    0    0  0.00000000000E+00  0.00000000000E+00  0.99999998245E-14  0.12500000000E+03  0.12500000000E+03 0.  0.
        -11    1    3    3    0    0 -0.76924101217E+01 -0.29785268746E+02  0.21011794800E+02  0.37253602896E+02  0.51100000000E-03 0.  1.
         23    2    1    0    0    0  0.19228441914E+02  0.20530230667E+02  0.70023583802E+01  0.96012823999E+02  0.91532540660E+02 0.  0.
         11    1    3    3    0    0  0.26920852035E+02  0.50315499413E+02 -0.14009436420E+02  0.58759221102E+02  0.51100000000E-03 0. -1.
         22    1    1    0    0    0 -0.19228441914E+02 -0.20530230667E+02 -0.70023583802E+01  0.28987176001E+02  0.00000000000E+00 0. -1.
</event>
<event>
 5    1  0.6650580E-004  0.9118800E+02  0.7818608E-02  0.1130116E+00
         25   -1    0    0    0    0  0.00000000000E+00  0.00000000000E+00  0.99999998245E-14  0.12500000000E+03  0.12500000000E+03 0.  0.
        -11    1    3    3    0    0  0.48869970516E+02  0.27791339221E+02 -0.26142919285E+02  0.62000683730E+02  0.51100000000E-03 0.  1.
         23    2    1    0    0    0  0.24902530002E+02  0.81693759153E+01 -0.14144145139E+02  0.95218604045E+02  0.90441423094E+02 0.  0.
         11    1    3    3    0    0 -0.23967440514E+02 -0.19621963306E+02  0.11998774146E+02  0.33217920315E+02  0.51100000000E-03 0. -1.
         22    1    1    0    0    0 -0.24902530002E+02 -0.81693759153E+01  0.14144145139E+02  0.29781395955E+02  0.00000000000E+00 0.  1.
</event>
<event>
 5    1  0.6650580E-004  0.9118800E+02  0.7818608E-02  0.1130116E+00
         25   -1    0    0    0    0  0.00000000000E+00  0.00000000000E+00  0.99999998245E-14  0.12500000000E+03  0.12500000000E+03 0.  0.
        -11    1    3    3    0    0  0.78114091168E+01  0.22797209929E+02  0.24977964065E+02  0.34707774087E+02  0.51100000000E-03 0. -1.
         23    2    1    0    0    0 -0.27778371120E+02 -0.13520866961E+02 -0.49519307027E+01  0.93711449967E+02  0.88333812846E+02 0.  0.
         11    1    3    3    0    0 -0.35589780237E+02 -0.36318076890E+02 -0.29929894768E+02  0.59003675881E+02  0.51100000000E-03 0.  1.
         22    1    1    0    0    0  0.27778371120E+02  0.13520866961E+02  0.49519307027E+01  0.31288550033E+02  0.00000000000E+00 0.  1.
</event>
<event>
 5    1  0.6650580E-004  0.9118800E+02  0.7818608E-02  0.1130116E+00
         25   -1    0    0    0    0  0.00000000000E+00  0.00000000000E+00  0.99999998245E-14  0.12500000000E+03  0.12500000000E+03 0.  0.
        -11    1    3    3    0    0  0.20565482363E+02  0.36589441119E+02  0.10097426073E+02  0.43170409770E+02  0.51100000000E-03 0.  1.
         23    2    1    0    0    0  0.24901111402E+02 -0.11342496736E+02 -0.10726506529E+02  0.95609941756E+02  0.90980687176E+02 0.  0.
         11    1    3    3    0    0  0.43356290392E+01 -0.47931937855E+02 -0.20823932601E+02  0.52439531986E+02  0.51100000000E-03 0. -1.
         22    1    1    0    0    0 -0.24901111402E+02  0.11342496736E+02  0.10726506529E+02  0.29390058244E+02  0.00000000000E+00 0. -1.
</event>
<event>
 5    1  0.6650580E-004  0.9118800E+02  0.7818608E-02  0.1130116E+00
         25   -1    0    0    0    0  0.00000000000E+00  0.00000000000E+00  0.99999998245E-14  0.12500000000E+03  0.12500000000E+03 0.  0.
        -11    1    3    3    0    0  0.21837814284E+02 -0.37894686850E+02  0.35586768210E+01  0.43881221555E+02  0.51100000000E-03 0.  1.
         23    2    1    0    0    0 -0.23630645624E+02 -0.12183277973E+02 -0.77112783595E+01  0.97317812790E+02  0.93297659122E+02 0.  0.
         11    1    3    3    0    0 -0.45468459908E+02  0.25711408877E+02 -0.11269955181E+02  0.53436591236E+02  0.51100000000E-03 0. -1.
         22    1    1    0    0    0  0.23630645624E+02  0.12183277973E+02  0.77112783595E+01  0.27682187210E+02  0.00000000000E+00 0. -1.
</event>
<event>
 5    1  0.6650580E-004  0.9118800E+02  0.7818608E-02  0.1130116E+00
         25   -1    0    0    0    0  0.00000000000E+00  0.00000000000E+00  0.99999998245E-14  0.12500000000E+03  0.12500000000E+03 0.  0.
        -11    1    3    3    0    0 -0.34587362261E+02  0.15425561392E+02 -0.18920887834E+02  0.42334779663E+02  0.51100000000E-03 0.  1.
         23    2    1    0    0    0 -0.34214351795E+01 -0.18576517357E+02  0.16046329693E+02  0.10021536943E+03  0.97102226329E+02 0.  0.
         11    1    3    3    0    0  0.31165927082E+02 -0.34002078749E+02  0.34967217527E+02  0.57880589769E+02  0.51100000000E-03 0. -1.
         22    1    1    0    0    0  0.34214351795E+01  0.18576517357E+02 -0.16046329693E+02  0.24784630568E+02  0.00000000000E+00 0. -1.
</event>
<event>
 5    1  0.6650580E-004  0.9118800E+02  0.7818608E-02  0.1130116E+00
         25   -1    0    0    0    0  0.00000000000E+00  0.00000000000E+00  0.99999998245E-14  0.12500000000E+03  0.12500000000E+03 0.  0.
        -11    1    3    3    0    0  0.69764623282E+01  0.52679386707E+02 -0.25265844921E+02  0.58840052093E+02  0.51100000000E-03 0.  1.
         23    2    1    0    0    0  0.14081434218E+02  0.21899295478E+02 -0.53516345662E+00  0.98958641894E+02  0.95470730978E+02 0.  0.
         11    1    3    3    0    0  0.71049718900E+01 -0.30780091229E+02  0.24730681465E+02  0.40118589801E+02  0.51100000000E-03 0. -1.
         22    1    1    0    0    0 -0.14081434218E+02 -0.21899295478E+02  0.53516345662E+00  0.26041358106E+02  0.00000000000E+00 0.  1.
</event>
<event>
 5    1  0.6650580E-004  0.9118800E+02  0.7818608E-02  0.1130116E+00
         25   -1    0    0    0    0  0.00000000000E+00  0.00000000000E+00  0.99999998245E-14  0.12500000000E+03  0.12500000000E+03 0.  0.
        -11    1    3    3    0    0  0.20077742611E+02  0.20112859711E+01  0.36556379022E+02  0.41755596835E+02  0.51100000000E-03 0. -1.
         23    2    1    0    0    0 -0.90671701331E+01 -0.26400639974E+02 -0.90220614103E+00  0.97071137847E+02  0.92966577122E+02 0.  0.
         11    1    3    3    0    0 -0.29144912744E+02 -0.28411925945E+02 -0.37458585163E+02  0.55315541012E+02  0.51100000000E-03 0.  1.
         22    1    1    0    0    0  0.90671701331E+01  0.26400639974E+02  0.90220614103E+00  0.27928862153E+02  0.00000000000E+00 0. -1.
</event>
<event>
 5    1  0.6650580E-004  0.9118800E+02  0.7818608E-02  0.1130116E+00
         25   -1    0    0    0    0  0.00000000000E+00  0.00000000000E+00  0.99999998245E-14  0.12500000000E+03  0.12500000000E+03 0.  0.
        -11    1    3    3    0    0 -0.15178751363E+02 -0.30411411511E+02  0.19516048503E+02  0.39193425373E+02  0.51100000000E-03 0. -1.
         23    2    1    0    0    0 -0.18903983026E+02  0.21691003709E+02 -0.29929547955E+01  0.96072193402E+02  0.91613581693E+02 0.  0.
         11    1    3    3    0    0 -0.37252316626E+01  0.52102415221E+02 -0.22509003298E+02  0.56878768029E+02  0.51100000000E-03 0.  1.
         22    1    1    0    0    0  0.18903983026E+02 -0.21691003709E+02  0.29929547955E+01  0.28927806598E+02  0.00000000000E+00 0.  1.
</event>
<event>
 5    1  0.6650580E-004  0.9118800E+02  0.7818608E-02  0.1130116E+00
         25   -1    0    0    0    0  0.00000000000E+00  0.00000000000E+00  0.99999998245E-14  0.12500000000E+03  0.12500000000E+03 0.  0.
        -11    1    3    3    0    0 -0.34876668670E+02 -0.21851408408E+02 -0.27009611016E+02  0.49227890006E+02  0.51100000000E-03 0. -1.
         23    2    1    0    0    0 -0.26249609749E+02  0.10349196396E+02  0.60120243832E+01  0.96150523138E+02  0.91720394595E+02 0.  0.
         11    1    3    3    0    0  0.86270589209E+01  0.32200604804E+02  0.33021635400E+02  0.46922633133E+02  0.51100000000E-03 0.  1.
         22    1    1    0    0    0  0.26249609749E+02 -0.10349196396E+02 -0.60120243832E+01  0.28849476862E+02  0.00000000000E+00 0.  1.
</event>
<event>
 5    1  0.6650580E-004  0.9118800E+02  0.7818608E-02  0.1130116E+00
         25   -1    0    0    0    0  0.00000000000E+00  0.00000000000E+00  0.99999998245E-14  0.12500000000E+03  0.12500000000E+03 0.  0.
        -11    1    3    3    0    0 -0.39144515904E+02  0.99455953902E+01  0.76961025846E+01  0.41114936316E+02  0.51100000000E-03 0. -1.
         23    2    1    0    0    0 -0.33056345022E+01 -0.27254640871E+02  0.15679614125E+02  0.93383659801E+02  0.87868737047E+02 0.  0.
         11    1    3    3    0    0  0.35838881401E+02 -0.37200236261E+02  0.79835115407E+01  0.52268723485E+02  0.51100000000E-03 0.  1.
         22    1    1    0    0    0  0.33056345022E+01  0.27254640871E+02 -0.15679614125E+02  0.31616340199E+02  0.00000000000E+00 0.  1.
</event>
<event>
 5    1  0.6650580E-004  0.9118800E+02  0.7818608E-02  0.1130116E+00
         25   -1    0    0    0    0  0.00000000000E+00  0.00000000000E+00  0.99999998245E-14  0.12500000000E+03  0.12500000000E+03 0.  0.
        -11    1    3    3    0    0 -0.20800706585E+02 -0.47827543125E+02 -0.13471638824E+02  0.53866764602E+02  0.51100000000E-03 0. -1.
         23    2    1    0    0    0  0.81784764454E+01 -0.22146270953E+02 -0.21105529787E+02  0.93333169061E+02  0.87796880727E+02 0.  0.
         11    1    3    3    0    0  0.28979183030E+02  0.25681272172E+02 -0.76338909635E+01  0.39466404460E+02  0.51100000000E-03 0.  1.
         22    1    1    0    0    0 -0.81784764454E+01  0.22146270953E+02  0.21105529787E+02  0.31666830939E+02  0.00000000000E+00 0. -1.
</event>
<event>
 5    1  0.6650580E-004  0.9118800E+02  0.7818608E-02  0.1130116E+00
         25   -1    0    0    0    0  0.00000000000E+00  0.00000000000E+00  0.99999998245E-14  0.12500000000E+03  0.12500000000E+03 0.  0.
        -11    1    3    3    0    0  0.59308125898E+02  0.16581831763E+01 -0.54454652058E+01  0.59580671871E+02  0.51100000000E-03 0.  1.
         23    2    1    0    0    0  0.22242224338E+02  0.82725313211E+01 -0.12939588444E+02  0.97970677644E+02  0.94168303643E+02 0.  0.
         11    1    3    3    0    0 -0.37065901561E+02  0.66143481448E+01 -0.74941232378E+01  0.38390005773E+02  0.51100000000E-03 0. -1.
         22    1    1    0    0    0 -0.22242224338E+02 -0.82725313211E+01  0.12939588444E+02  0.27029322356E+02  0.00000000000E+00 0.  1.
</event>
<event>
 5    1  0.6650580E-004  0.9118800E+02  0.7818608E-02  0.1130116E+00
         25   -1    0    0    0    0  0.00000000000E+00  0.00000000000E+00  0.99999998245E-14  0.12500000000E+03  0.12500000000E+03 0.  0.
        -11    1    3    3    0    0 -0.34538665036E+02  0.78097006119E+01 -0.41596657941E+01  0.35654082879E+02  0.51100000000E-03 0.  1.
         23    2    1    0    0    0  0.25799438645E+02  0.91246132526E+01 -0.89802014554E+01  0.96198721910E+02  0.91786058187E+02 0.  0.
         11    1    3    3    0    0  0.60338103682E+02  0.13149126406E+01 -0.48205356613E+01  0.60544639032E+02  0.51100000000E-03 0. -1.
         22    1    1    0    0    0 -0.25799438645E+02 -0.91246132526E+01  0.89802014554E+01  0.28801278090E+02  0.00000000000E+00 0. -1.
</event>
<event>
 5    1  0.6650580E-004  0.9118800E+02  0.7818608E-02  0.1130116E+00
         25   -1    0    0    0    0  0.00000000000E+00  0.00000000000E+00  0.99999998245E-14  0.12500000000E+03  0.12500000000E+03 0.  0.
        -11    1    3    3    0    0  0.26650209675E+02  0.91750390715E+01  0.17234689733E+02  0.33037093519E+02  0.51100000000E-03 0.  1.
         23    2    1    0    0    0 -0.27642917881E+02 -0.77237502564E+01 -0.79360809315E+01  0.95221339729E+02  0.90445204031E+02 0.  0.
         11    1    3    3    0    0 -0.54293127556E+02 -0.16898789328E+02 -0.25170770665E+02  0.62184246210E+02  0.51100000000E-03 0. -1.
         22    1    1    0    0    0  0.27642917881E+02  0.77237502564E+01  0.79360809315E+01  0.29778660271E+02  0.00000000000E+00 0. -1.
</event>
<event>
 5    1  0.6650580E-004  0.9118800E+02  0.7818608E-02  0.1130116E+00
         25   -1    0    0    0    0  0.00000000000E+00  0.00000000000E+00  0.99999998245E-14  0.12500000000E+03  0.12500000000E+03 0.  0.
        -11    1    3    3    0    0  0.46936199544E+02 -0.58937722750E+01  0.31332751299E+02  0.56740503024E+02  0.51100000000E-03 0.  1.
         23    2    1    0    0    0  0.92831984392E+01 -0.43689445252E+01  0.28705741957E+02  0.94515822615E+02  0.89464829144E+02 0.  0.
         11    1    3    3    0    0 -0.37653001104E+02  0.15248277498E+01 -0.26270093416E+01  0.37775319591E+02  0.51100000000E-03 0. -1.
         22    1    1    0    0    0 -0.92831984392E+01  0.43689445252E+01 -0.28705741957E+02  0.30484177385E+02  0.00000000000E+00 0.  1.
</event>
<event>
 5    1  0.6650580E-004  0.9118800E+02  0.7818608E-02  0.1130116E+00
         25   -1    0    0    0    0  0.00000000000E+00  0.00000000000E+00  0.99999998245E-14  0.12500000000E+03  0.12500000000E+03 0.  0.
        -11    1    3    3    0    0 -0.41842780731E+02 -0.14391467541E+02 -0.51551408012E+01  0.44547818288E+02  0.51100000000E-03 0. -1.
         23    2    1    0    0    0 -0.63612001446E+01  0.21915861769E+01  0.28210158135E+02  0.95998604529E+02  0.91513120001E+02 0.  0.
         11    1    3    3    0    0  0.35481580586E+02  0.16583053718E+02  0.33365298936E+02  0.51450786241E+02  0.51100000000E-03 0.  1.
         22    1    1    0    0    0  0.63612001446E+01 -0.21915861769E+01 -0.28210158135E+02  0.29001395471E+02  0.00000000000E+00 0.  1.
</event>
<event>
 5    1  0.6650580E-004  0.9118800E+02  0.7818608E-02  0.1130116E+00
         25   -1    0    0    0    0  0.00000000000E+00  0.00000000000E+00  0.99999998245E-14  0.12500000000E+03  0.12500000000E+03 0.  0.
        -11    1    3    3    0    0  0.57864622721E+02 -0.29363222496E+01 -0.15057824473E+02  0.59863800657E+02  0.51100000000E-03 0. -1.
         23    2    1    0    0    0  0.23410709303E+02 -0.11708126859E+02 -0.13731763917E+02  0.95441534464E+02  0.90749014407E+02 0.  0.
         11    1    3    3    0    0 -0.34453913418E+02 -0.87718046092E+01  0.13260605566E+01  0.35577733806E+02  0.51100000000E-03 0.  1.
         22    1    1    0    0    0 -0.23410709303E+02  0.11708126859E+02  0.13731763917E+02  0.29558465536E+02  0.00000000000E+00 0. -1.
</event>
<event>
 5    1  0.6650580E-004  0.9118800E+02  0.7818608E-02  0.1130116E+00
         25   -1    0    0    0    0  0.00000000000E+00  0.00000000000E+00  0.99999998245E-14  0.12500000000E+03  0.12500000000E+03 0.  0.
        -11    1    3    3    0    0  0.59816391676E+01  0.29594776831E+02 -0.44058628893E+02  0.53411549341E+02  0.51100000000E-03 0.  1.
         23    2    1    0    0    0  0.10853084944E+02  0.26733804910E+02 -0.17516614252E+01  0.96094047404E+02  0.91643395021E+02 0.  0.
         11    1    3    3    0    0  0.48714457763E+01 -0.28609719216E+01  0.42306967468E+02  0.42682498063E+02  0.51100000000E-03 0. -1.
         22    1    1    0    0    0 -0.10853084944E+02 -0.26733804910E+02  0.17516614252E+01  0.28905952596E+02  0.00000000000E+00 0.  1.
</event>
<event>
 5    1  0.6650580E-004  0.9118800E+02  0.7818608E-02  0.1130116E+00
         25   -1    0    0    0    0  0.00000000000E+00  0.00000000000E+00  0.99999998245E-14  0.12500000000E+03  0.12500000000E+03 0.  0.
        -11    1    3    3    0    0  0.27394846624E+02 -0.13137770346E+02 -0.15091292264E+02  0.33923822510E+02  0.51100000000E-03 0.  1.
         23    2    1    0    0    0 -0.22515823409E+02  0.18335996325E+02  0.34123221473E+01  0.95762780443E+02  0.91190433219E+02 0.  0.
         11    1    3    3    0    0 -0.49910670033E+02  0.31473766671E+02  0.18503614412E+02  0.61838957932E+02  0.51100000000E-03 0. -1.
         22    1    1    0    0    0  0.22515823409E+02 -0.18335996325E+02 -0.34123221473E+01  0.29237219557E+02  0.00000000000E+00 0. -1.
</event>
<event>
 5    1  0.6650580E-004  0.9118800E+02  0.7818608E-02  0.1130116E+00
         25   -1    0    0    0    0  0.00000000000E+00  0.00000000000E+00  0.99999998245E-14  0.12500000000E+03  0.12500000000E+03 0.  0.
        -11    1    3    3    0    0  0.15200278909E+02  0.23921958792E+02 -0.52081889876E+02  0.59294450370E+02  0.51100000000E-03 0. -1.
         23    2    1    0    0    0  0.13224265329E+02 -0.13923682994E+01 -0.26568599745E+02  0.95289557806E+02  0.90539435891E+02 0.  0.
         11    1    3    3    0    0 -0.19760135803E+01 -0.25314327092E+02  0.25513290131E+02  0.35995107436E+02  0.51100000000E-03 0.  1.
         22    1    1    0    0    0 -0.13224265329E+02  0.13923682994E+01  0.26568599745E+02  0.29710442194E+02  0.00000000000E+00 0. -1.
</event>
<event>
 5    1  0.6650580E-004  0.9118800E+02  0.7818608E-02  0.1130116E+00
         25   -1    0    0    0    0  0.00000000000E+00  0.00000000000E+00  0.99999998245E-14  0.12500000000E+03  0.12500000000E+03 0.  0.
        -11    1    3    3    0    0  0.50561209746E+02  0.52590546259E+01  0.30945995867E+02  0.59512588979E+02  0.51100000000E-03 0.  1.
         23    2    1    0    0    0  0.22168825144E+02 -0.11034962119E+02  0.16142083566E+02  0.95439992235E+02  0.90746890077E+02 0.  0.
         11    1    3    3    0    0 -0.28392384602E+02 -0.16294016745E+02 -0.14803912300E+02  0.35927403256E+02  0.51100000000E-03 0. -1.
         22    1    1    0    0    0 -0.22168825144E+02  0.11034962119E+02 -0.16142083566E+02  0.29560007765E+02  0.00000000000E+00 0.  1.
</event>
<event>
 5    1  0.6650580E-004  0.9118800E+02  0.7818608E-02  0.1130116E+00
         25   -1    0    0    0    0  0.00000000000E+00  0.00000000000E+00  0.99999998245E-14  0.12500000000E+03  0.12500000000E+03 0.  0.
        -11    1    3    3    0    0 -0.29957163915E+02 -0.74908157469E+01 -0.42121729422E+02  0.52228192389E+02  0.51100000000E-03 0. -1.
         23    2    1    0    0    0 -0.18228455341E+02 -0.23670399090E+02 -0.45555532009E+01  0.94778857696E+02  0.89831589233E+02 0.  0.
         11    1    3    3    0    0  0.11728708574E+02 -0.16179583343E+02  0.37566176221E+02  0.42550665308E+02  0.51100000000E-03 0.  1.
         22    1    1    0    0    0  0.18228455341E+02  0.23670399090E+02  0.45555532009E+01  0.30221142304E+02  0.00000000000E+00 0. -1.
</event>
<event>
 5    1  0.6650580E-004  0.9118800E+02  0.7818608E-02  0.1130116E+00
         25   -1    0    0    0    0  0.00000000000E+00  0.00000000000E+00  0.99999998245E-14  0.12500000000E+03  0.12500000000E+03 0.  0.
        -11    1    3    3    0    0  0.36979261200E+02  0.19888462708E+02  0.44348353954E+02  0.61072032932E+02  0.51100000000E-03 0. -1.
         23    2    1    0    0    0  0.11711033339E+02  0.16915094335E+02  0.20928777490E+02  0.95652386035E+02  0.91038983456E+02 0.  0.
         11    1    3    3    0    0 -0.25268227861E+02 -0.29733683736E+01 -0.23419576463E+02  0.34580353103E+02  0.51100000000E-03 0.  1.
         22    1    1    0    0    0 -0.11711033339E+02 -0.16915094335E+02 -0.20928777490E+02  0.29347613965E+02  0.00000000000E+00 0. -1.
</event>
<event>
 5    1  0.6650580E-004  0.9118800E+02  0.7818608E-02  0.1130116E+00
         25   -1    0    0    0    0  0.00000000000E+00  0.00000000000E+00  0.99999998245E-14  0.12500000000E+03  0.12500000000E+03 0.  0.
        -11    1    3    3    0    0 -0.36894862030E+01 -0.46126688425E+01  0.56853337123E+02  0.57159347132E+02  0.51100000000E-03 0.  1.
         23    2    1    0    0    0  0.14229830689E+02  0.67979585865E+01  0.24164201718E+02  0.96145035660E+02  0.91712915748E+02 0.  0.
         11    1    3    3    0    0  0.17919316892E+02  0.11410627429E+02 -0.32689135405E+02  0.38985688528E+02  0.51100000000E-03 0. -1.
         22    1    1    0    0    0 -0.14229830689E+02 -0.67979585865E+01 -0.24164201718E+02  0.28854964340E+02  0.00000000000E+00 0.  1.
</event>
<event>
 5    1  0.6650580E-004  0.9118800E+02  0.7818608E-02  0.1130116E+00
         25   -1    0    0    0    0  0.00000000000E+00  0.00000000000E+00  0.99999998245E-14  0.12500000000E+03  0.12500000000E+03 0.  0.
        -11    1    3    3    0    0  0.37539359684E+02  0.17704556491E+02  0.21708205492E+02  0.46839097258E+02  0.51100000000E-03 0. -1.
         23    2    1    0    0    0  0.18277019530E+02  0.10923516088E+02 -0.21568564674E+02  0.94691987384E+02  0.89710628390E+02 0.  0.
         11    1    3    3    0    0 -0.19262340154E+02 -0.67810404034E+01 -0.43276770166E+02  0.47852890126E+02  0.51100000000E-03 0.  1.
         22    1    1    0    0    0 -0.18277019530E+02 -0.10923516088E+02  0.21568564674E+02  0.30308012616E+02  0.00000000000E+00 0.  1.
</event>
<event>
 5    1  0.6650580E-004  0.9118800E+02  0.7818608E-02  0.1130116E+00
         25   -1    0    0    0    0  0.00000000000E+00  0.00000000000E+00  0.99999998245E-14  0.12500000000E+03  0.12500000000E+03 0.  0.
        -11    1    3    3    0    0 -0.48327817481E+01 -0.21465989286E+01 -0.58851528406E+02  0.59088628875E+02  0.51100000000E-03 0. -1.
         23    2    1    0    0    0 -0.67729216571E+01 -0.14581543048E+02 -0.24283261008E+02  0.95876630850E+02  0.91346361244E+02 0.  0.
         11    1    3    3    0    0 -0.19401399090E+01 -0.12434944120E+02  0.34568267398E+02  0.36788001975E+02  0.51100000000E-03 0.  1.
         22    1    1    0    0    0  0.67729216571E+01  0.14581543048E+02  0.24283261008E+02  0.29123369150E+02  0.00000000000E+00 0. -1.
</event>
<event>
 5    1  0.6650580E-004  0.9118800E+02  0.7818608E-02  0.1130116E+00
         25   -1    0    0    0    0  0.00000000000E+00  0.00000000000E+00  0.99999998245E-14  0.12500000000E+03  0.12500000000E+03 0.  0.
        -11    1    3    3    0    0  0.18085038284E+01  0.33445651659E+02  0.19319461848E+02  0.38666832135E+02  0.51100000000E-03 0.  1.
         23    2    1    0    0    0  0.21129960400E+02 -0.17392251228E+02  0.16321877014E+02  0.93135140067E+02  0.87514484612E+02 0.  0.
         11    1    3    3    0    0  0.19321456572E+02 -0.50837902886E+02 -0.29975848349E+01  0.54468307933E+02  0.51100000000E-03 0. -1.
         22    1    1    0    0    0 -0.21129960400E+02  0.17392251228E+02 -0.16321877014E+02  0.31864859933E+02  0.00000000000E+00 0. -1.
</event>
<event>
 5    1  0.6650580E-004  0.9118800E+02  0.7818608E-02  0.1130116E+00
         25   -1    0    0    0    0  0.00000000000E+00  0.00000000000E+00  0.99999998245E-14  0.12500000000E+03  0.12500000000E+03 0.  0.
        -11    1    3    3    0    0 -0.89608345429E+01  0.34921211704E+02  0.21112970237E+02  0.41779721098E+02  0.51100000000E-03 0.  1.
         23    2    1    0    0    0 -0.28116719630E+02 -0.35349285961E+01 -0.10134390936E+02  0.94904293951E+02  0.90005963623E+02 0.  0.
         11    1    3    3    0    0 -0.19155885088E+02 -0.38456140300E+02 -0.31247361173E+02  0.53124572853E+02  0.51100000000E-03 0. -1.
         22    1    1    0    0    0  0.28116719630E+02  0.35349285961E+01  0.10134390936E+02  0.30095706049E+02  0.00000000000E+00 0. -1.
</event>
<event>
 5    1  0.6650580E-004  0.9118800E+02  0.7818608E-02  0.1130116E+00
         25   -1    0    0    0    0  0.00000000000E+00  0.00000000000E+00  0.99999998245E-14  0.12500000000E+03  0.12500000000E+03 0.  0.
        -11    1    3    3    0    0  0.50978609956E+02 -0.93667720379E+01 -0.76237349204E+00  0.51837595480E+02  0.51100000000E-03 0.  1.
         23    2    1    0    0    0  0.12702391822E+02 -0.11799148337E+02 -0.23020151714E+02  0.96181637027E+02  0.91762787974E+02 0.  0.
         11    1    3    3    0    0 -0.38276218134E+02 -0.24323762991E+01 -0.22257778222E+02  0.44344041548E+02  0.51100000000E-03 0. -1.
         22    1    1    0    0    0 -0.12702391822E+02  0.11799148337E+02  0.23020151714E+02  0.28818362973E+02  0.00000000000E+00 0.  1.
</event>
<event>
 5    1  0.6650580E-004  0.9118800E+02  0.7818608E-02  0.1130116E+00
         25   -1    0    0    0    0  0.00000000000E+00  0.00000000000E+00  0.99999998245E-14  0.12500000000E+03  0.12500000000E+03 0.  0.
        -11    1    3    3    0    0  0.28507806089E+02  0.31706950980E+02  0.58786436791E+01  0.43041656569E+02  0.51100000000E-03 0. -1.
         23    2    1    0    0    0  0.85283138765E+01 -0.12896729551E+02  0.25067540073E+02  0.95547676900E+02  0.90895100115E+02 0.  0.
         11    1    3    3    0    0 -0.19979492212E+02 -0.44603680530E+02  0.19188896394E+02  0.52506020331E+02  0.51100000000E-03 0.  1.
         22    1    1    0    0    0 -0.85283138765E+01  0.12896729551E+02 -0.25067540073E+02  0.29452323100E+02  0.00000000000E+00 0.  1.
</event>
<event>
 5    1  0.6650580E-004  0.9118800E+02  0.7818608E-02  0.1130116E+00
         25   -1    0    0    0    0  0.00000000000E+00  0.00000000000E+00  0.99999998245E-14  0.12500000000E+03  0.12500000000E+03 0.  0.
        -11    1    3    3    0    0  0.51685889387E+02 -0.18773201759E+02 -0.29458997582E+01  0.55068526325E+02  0.51100000000E-03 0. -1.
         23    2    1    0    0    0  0.23782913995E+02  0.64962862305E+01 -0.16782793170E+02  0.95175666320E+02  0.90382058949E+02 0.  0.
         11    1    3    3    0    0 -0.27902975392E+02  0.25269487989E+02 -0.13836893412E+02  0.40107139994E+02  0.51100000000E-03 0.  1.
         22    1    1    0    0    0 -0.23782913995E+02 -0.64962862305E+01  0.16782793170E+02  0.29824333680E+02  0.00000000000E+00 0. -1.
</event>
<event>
 5    1  0.6650580E-004  0.9118800E+02  0.7818608E-02  0.1130116E+00
         25   -1    0    0    0    0  0.00000000000E+00  0.00000000000E+00  0.99999998245E-14  0.12500000000E+03  0.12500000000E+03 0.  0.
        -11    1    3    3    0    0  0.40413364636E+02 -0.45827063546E+02 -0.10273086639E+02  0.61958825874E+02  0.51100000000E-03 0.  1.
         23    2    1    0    0    0  0.21233992723E+02 -0.31443754787E+02 -0.33578367316E+01  0.86909748891E+02  0.78118097921E+02 0.  0.
         11    1    3    3    0    0 -0.19179371913E+02  0.14383308759E+02  0.69152499077E+01  0.24950923016E+02  0.51100000000E-03 0. -1.
         22    1    1    0    0    0 -0.21233992723E+02  0.31443754787E+02  0.33578367316E+01  0.38090251109E+02  0.00000000000E+00 0.  1.
</event>
<event>
 5    1  0.6650580E-004  0.9118800E+02  0.7818608E-02  0.1130116E+00
         25   -1    0    0    0    0  0.00000000000E+00  0.00000000000E+00  0.99999998245E-14  0.12500000000E+03  0.12500000000E+03 0.  0.
        -11    1    3    3    0    0 -0.71950595863E+01  0.59910044292E+02  0.11693982411E+02  0.61463253366E+02  0.51100000000E-03 0.  1.
         23    2    1    0    0    0 -0.75690979264E+01  0.25594117598E+02  0.11889265153E+02  0.95781774097E+02  0.91216465204E+02 0.  0.
         11    1    3    3    0    0 -0.37403834015E+00 -0.34315926694E+02  0.19528274129E+00  0.34318520731E+02  0.51100000000E-03 0. -1.
         22    1    1    0    0    0  0.75690979264E+01 -0.25594117598E+02 -0.11889265153E+02  0.29218225903E+02  0.00000000000E+00 0.  1.
</event>
<event>
 5    1  0.6650580E-004  0.9118800E+02  0.7818608E-02  0.1130116E+00
         25   -1    0    0    0    0  0.00000000000E+00  0.00000000000E+00  0.99999998245E-14  0.12500000000E+03  0.12500000000E+03 0.  0.
        -11    1    3    3    0    0 -0.30408480884E+02  0.28418133709E+02 -0.31973994394E+02  0.52484305758E+02  0.51100000000E-03 0. -1.
         23    2    1    0    0    0 -0.30260900701E+02 -0.35805521358E+01 -0.54555433935E+01  0.94043491499E+02  0.88802437325E+02 0.  0.
         11    1    3    3    0    0  0.14758018263E+00 -0.31998685845E+02  0.26518451000E+02  0.41559185741E+02  0.51100000000E-03 0.  1.
         22    1    1    0    0    0  0.30260900701E+02  0.35805521358E+01  0.54555433935E+01  0.30956508501E+02  0.00000000000E+00 0.  1.
</event>
<event>
 5    1  0.6650580E-004  0.9118800E+02  0.7818608E-02  0.1130116E+00
         25   -1    0    0    0    0  0.00000000000E+00  0.00000000000E+00  0.99999998245E-14  0.12500000000E+03  0.12500000000E+03 0.  0.
        -11    1    3    3    0    0  0.12986023108E+02 -0.51120589477E+02 -0.20812944933E+02  0.56702117612E+02  0.51100000000E-03 0.  1.
         23    2    1    0    0    0 -0.13374749853E+02 -0.21819437805E+02 -0.69814221379E+01  0.98472428403E+02  0.94831994078E+02 0.  0.
         11    1    3    3    0    0 -0.26360772962E+02  0.29301151672E+02  0.13831522795E+02  0.41770310791E+02  0.51100000000E-03 0. -1.
         22    1    1    0    0    0  0.13374749853E+02  0.21819437805E+02  0.69814221379E+01  0.26527571597E+02  0.00000000000E+00 0.  1.
</event>
<event>
 5    1  0.6650580E-004  0.9118800E+02  0.7818608E-02  0.1130116E+00
         25   -1    0    0    0    0  0.00000000000E+00  0.00000000000E+00  0.99999998245E-14  0.12500000000E+03  0.12500000000E+03 0.  0.
        -11    1    3    3    0    0  0.13753034137E+02  0.41414953705E+02 -0.41670728407E+02  0.60338991909E+02  0.51100000000E-03 0. -1.
         23    2    1    0    0    0  0.14847547978E+02  0.11691107662E+02 -0.21993427177E+02  0.96002715328E+02  0.91518734869E+02 0.  0.
         11    1    3    3    0    0  0.10945138415E+01 -0.29723846044E+02  0.19677301230E+02  0.35663723419E+02  0.51100000000E-03 0.  1.
         22    1    1    0    0    0 -0.14847547978E+02 -0.11691107662E+02  0.21993427177E+02  0.28997284672E+02  0.00000000000E+00 0. -1.
</event>
<event>
 5    1  0.6650580E-004  0.9118800E+02  0.7818608E-02  0.1130116E+00
         25   -1    0    0    0    0  0.00000000000E+00  0.00000000000E+00  0.99999998245E-14  0.12500000000E+03  0.12500000000E+03 0.  0.
        -11    1    3    3    0    0  0.20569146113E+01 -0.36019472896E+02 -0.70624386920E-01  0.36078224922E+02  0.51100000000E-03 0.  1.
         23    2    1    0    0    0 -0.20270433250E+02  0.18891823562E+02  0.86023882549E+01  0.95986338644E+02  0.91496364195E+02 0.  0.
         11    1    3    3    0    0 -0.22327347861E+02  0.54911296458E+02  0.86730126418E+01  0.59908113722E+02  0.51100000000E-03 0. -1.
         22    1    1    0    0    0  0.20270433250E+02 -0.18891823562E+02 -0.86023882549E+01  0.29013661356E+02  0.00000000000E+00 0. -1.
</event>
<event>
 5    1  0.6650580E-004  0.9118800E+02  0.7818608E-02  0.1130116E+00
         25   -1    0    0    0    0  0.00000000000E+00  0.00000000000E+00  0.99999998245E-14  0.12500000000E+03  0.12500000000E+03 0.  0.
        -11    1    3    3    0    0 -0.35934044260E+02 -0.48957069224E+01 -0.32231206520E+02  0.48518802100E+02  0.51100000000E-03 0. -1.
         23    2    1    0    0    0 -0.22449258687E+02  0.18685284129E+02  0.57668954488E+01  0.95228098117E+02  0.90454543995E+02 0.  0.
         11    1    3    3    0    0  0.13484785573E+02  0.23580991052E+02  0.37998101969E+02  0.46709296018E+02  0.51100000000E-03 0.  1.
         22    1    1    0    0    0  0.22449258687E+02 -0.18685284129E+02 -0.57668954488E+01  0.29771901883E+02  0.00000000000E+00 0. -1.
</event>
<event>
 5    1  0.6650580E-004  0.9118800E+02  0.7818608E-02  0.1130116E+00
         25   -1    0    0    0    0  0.00000000000E+00  0.00000000000E+00  0.99999998245E-14  0.12500000000E+03  0.12500000000E+03 0.  0.
        -11    1    3    3    0    0  0.59946812730E+01 -0.42148761551E+02  0.40805460320E+02  0.58970669795E+02  0.51100000000E-03 0. -1.
         23    2    1    0    0    0  0.16253292223E+02 -0.21298846163E+02  0.12960115251E+02  0.95238028572E+02  0.90468265944E+02 0.  0.
         11    1    3    3    0    0  0.10258610950E+02  0.20849915388E+02 -0.27845345070E+02  0.36267358777E+02  0.51100000000E-03 0.  1.
         22    1    1    0    0    0 -0.16253292223E+02  0.21298846163E+02 -0.12960115251E+02  0.29761971428E+02  0.00000000000E+00 0. -1.
</event>
<event>
 5    1  0.6650580E-004  0.9118800E+02  0.7818608E-02  0.1130116E+00
         25   -1    0    0    0    0  0.00000000000E+00  0.00000000000E+00  0.99999998245E-14  0.12500000000E+03  0.12500000000E+03 0.  0.
        -11    1    3    3    0    0 -0.33582495483E+01  0.35933350295E+02 -0.15147797878E+02  0.39139995967E+02  0.51100000000E-03 0. -1.
         23    2    1    0    0    0  0.28687718232E+02 -0.81516408386E+01 -0.26287689610E+01  0.95060981112E+02  0.90223307842E+02 0.  0.
         11    1    3    3    0    0  0.32045967781E+02 -0.44084991134E+02  0.12519028917E+02  0.55920985145E+02  0.51100000000E-03 0.  1.
         22    1    1    0    0    0 -0.28687718232E+02  0.81516408386E+01  0.26287689610E+01  0.29939018888E+02  0.00000000000E+00 0.  1.
</event>
<event>
 5    1  0.6650580E-004  0.9118800E+02  0.7818608E-02  0.1130116E+00
         25   -1    0    0    0    0  0.00000000000E+00  0.00000000000E+00  0.99999998245E-14  0.12500000000E+03  0.12500000000E+03 0.  0.
        -11    1    3    3    0    0 -0.18004836704E+02  0.33987199008E+02  0.32771640013E+02  0.50530032956E+02  0.51100000000E-03 0.  1.
         23    2    1    0    0    0  0.57930883240E+01 -0.42182461174E+01  0.28350628806E+02  0.95757708258E+02  0.91183480217E+02 0.  0.
         11    1    3    3    0    0  0.23797925028E+02 -0.38205445125E+02 -0.44210112077E+01  0.45227675302E+02  0.51100000000E-03 0. -1.
         22    1    1    0    0    0 -0.57930883240E+01  0.42182461174E+01 -0.28350628806E+02  0.29242291742E+02  0.00000000000E+00 0. -1.
</event>
<event>
 5    1  0.6650580E-004  0.9118800E+02  0.7818608E-02  0.1130116E+00
         25   -1    0    0    0    0  0.00000000000E+00  0.00000000000E+00  0.99999998245E-14  0.12500000000E+03  0.12500000000E+03 0.  0.
        -11    1    3    3    0    0  0.21615389850E+02  0.16809168810E+02 -0.13037945151E+02  0.30327565818E+02  0.51100000000E-03 0.  1.
         23    2    1    0    0    0  0.26088890893E+01  0.18367357786E+02  0.36854062919E+02  0.83739994087E+02  0.72869736666E+02 0.  0.
         11    1    3    3    0    0 -0.19006500761E+02  0.15581889768E+01  0.49892008070E+02  0.53412428269E+02  0.51100000000E-03 0. -1.
         22    1    1    0    0    0 -0.26088890893E+01 -0.18367357786E+02 -0.36854062919E+02  0.41260005913E+02  0.00000000000E+00 0. -1.
</event>
<event>
 5    1  0.6650580E-004  0.9118800E+02  0.7818608E-02  0.1130116E+00
         25   -1    0    0    0    0  0.00000000000E+00  0.00000000000E+00  0.99999998245E-14  0.12500000000E+03  0.12500000000E+03 0.  0.
        -11    1    3    3    0    0  0.24397037198E+02 -0.36471530092E+02  0.40551404105E+02  0.59747839345E+02  0.51100000000E-03 0.  1.
         23    2    1    0    0    0  0.16255237001E+02 -0.58369249086E+01  0.23780971024E+02  0.95608895815E+02  0.90979250128E+02 0.  0.
         11    1    3    3    0    0 -0.81418001971E+01  0.30634605183E+02 -0.16770433081E+02  0.35861056470E+02  0.51100000000E-03 0. -1.
         22    1    1    0    0    0 -0.16255237001E+02  0.58369249086E+01 -0.23780971024E+02  0.29391104185E+02  0.00000000000E+00 0.  1.
</event>
<event>
 5    1  0.6650580E-004  0.9118800E+02  0.7818608E-02  0.1130116E+00
         25   -1    0    0    0    0  0.00000000000E+00  0.00000000000E+00  0.99999998245E-14  0.12500000000E+03  0.12500000000E+03 0.  0.
        -11    1    3    3    0    0 -0.38729914123E+02  0.18385686363E+02  0.33931354397E+02  0.54675191106E+02  0.51100000000E-03 0.  1.
         23    2    1    0    0    0 -0.17364846148E+02  0.22741323325E+02 -0.15766099741E+01  0.96343563248E+02  0.91983100687E+02 0.  0.
         11    1    3    3    0    0  0.21365067975E+02  0.43556369615E+01 -0.35507964371E+02  0.41668372142E+02  0.51100000000E-03 0. -1.
         22    1    1    0    0    0  0.17364846148E+02 -0.22741323325E+02  0.15766099741E+01  0.28656436752E+02  0.00000000000E+00 0.  1.
</event>
<event>
 5    1  0.6650580E-004  0.9118800E+02  0.7818608E-02  0.1130116E+00
         25   -1    0    0    0    0  0.00000000000E+00  0.00000000000E+00  0.99999998245E-14  0.12500000000E+03  0.12500000000E+03 0.  0.
        -11    1    3    3    0    0 -0.64861676317E+01  0.32233350603E+02 -0.52463195018E+02  0.61914829349E+02  0.51100000000E-03 0. -1.
         23    2    1    0    0    0 -0.95968320867E+01  0.19607147564E+02 -0.29544861776E+02  0.88265298707E+02  0.80257863645E+02 0.  0.
         11    1    3    3    0    0 -0.31106644551E+01 -0.12626203039E+02  0.22918333242E+02  0.26350469358E+02  0.51100000000E-03 0.  1.
         22    1    1    0    0    0  0.95968320867E+01 -0.19607147564E+02  0.29544861776E+02  0.36734701293E+02  0.00000000000E+00 0. -1.
</event>
<event>
 5    1  0.6650580E-004  0.9118800E+02  0.7818608E-02  0.1130116E+00
         25   -1    0    0    0    0  0.00000000000E+00  0.00000000000E+00  0.99999998245E-14  0.12500000000E+03  0.12500000000E+03 0.  0.
        -11    1    3    3    0    0  0.44354909628E+02  0.16251233209E+02  0.34138442642E+01  0.47361534201E+02  0.51100000000E-03 0.  1.
         23    2    1    0    0    0 -0.75423023143E+01 -0.10771441088E+02  0.12833352056E+02  0.10662596418E+03  0.10503090519E+03 0.  0.
         11    1    3    3    0    0 -0.51897211943E+02 -0.27022674296E+02  0.94195077913E+01  0.59264429980E+02  0.51100000000E-03 0. -1.
         22    1    1    0    0    0  0.75423023143E+01  0.10771441088E+02 -0.12833352056E+02  0.18374035819E+02  0.00000000000E+00 0. -1.
</event>
<event>
 5    1  0.6650580E-004  0.9118800E+02  0.7818608E-02  0.1130116E+00
         25   -1    0    0    0    0  0.00000000000E+00  0.00000000000E+00  0.99999998245E-14  0.12500000000E+03  0.12500000000E+03 0.  0.
        -11    1    3    3    0    0 -0.38467732506E+02  0.24717410621E+02  0.10429825331E+02  0.46898806900E+02  0.51100000000E-03 0. -1.
         23    2    1    0    0    0  0.73490324007E+01  0.26817288291E+02 -0.75901613742E+01  0.96176645265E+02  0.91755987904E+02 0.  0.
         11    1    3    3    0    0  0.45816764907E+02  0.20998776696E+01 -0.18019986705E+02  0.49277838364E+02  0.51100000000E-03 0.  1.
         22    1    1    0    0    0 -0.73490324007E+01 -0.26817288291E+02  0.75901613742E+01  0.28823354735E+02  0.00000000000E+00 0.  1.
</event>
<event>
 5    1  0.6650580E-004  0.9118800E+02  0.7818608E-02  0.1130116E+00
         25   -1    0    0    0    0  0.00000000000E+00  0.00000000000E+00  0.99999998245E-14  0.12500000000E+03  0.12500000000E+03 0.  0.
        -11    1    3    3    0    0 -0.29359303224E+02 -0.47593823468E+02  0.21884691231E+02  0.60050648861E+02  0.51100000000E-03 0.  1.
         23    2    1    0    0    0 -0.22584384031E+02 -0.17073131527E+02  0.31108725843E+01  0.96518010069E+02  0.92219859668E+02 0.  0.
         11    1    3    3    0    0  0.67749191937E+01  0.30520691940E+02 -0.18773818647E+02  0.36467361208E+02  0.51100000000E-03 0. -1.
         22    1    1    0    0    0  0.22584384031E+02  0.17073131527E+02 -0.31108725843E+01  0.28481989931E+02  0.00000000000E+00 0.  1.
</event>
<event>
 5    1  0.6650580E-004  0.9118800E+02  0.7818608E-02  0.1130116E+00
         25   -1    0    0    0    0  0.00000000000E+00  0.00000000000E+00  0.99999998245E-14  0.12500000000E+03  0.12500000000E+03 0.  0.
        -11    1    3    3    0    0 -0.20083624948E+02  0.39073852509E+01  0.55084786094E+02  0.58761835488E+02  0.51100000000E-03 0.  1.
         23    2    1    0    0    0 -0.11810812991E+02  0.16749488112E+02  0.23696397095E+02  0.93670143780E+02  0.88275341658E+02 0.  0.
         11    1    3    3    0    0  0.82728119577E+01  0.12842102861E+02 -0.31388388999E+02  0.34908308292E+02  0.51100000000E-03 0. -1.
         22    1    1    0    0    0  0.11810812991E+02 -0.16749488112E+02 -0.23696397095E+02  0.31329856220E+02  0.00000000000E+00 0.  1.
</event>
<event>
 5    1  0.6650580E-004  0.9118800E+02  0.7818608E-02  0.1130116E+00
         25   -1    0    0    0    0  0.00000000000E+00  0.00000000000E+00  0.99999998245E-14  0.12500000000E+03  0.12500000000E+03 0.  0.
        -11    1    3    3    0    0  0.19701323215E+02 -0.46292688225E+02  0.33203824001E+02  0.60279756536E+02  0.51100000000E-03 0.  1.
         23    2    1    0    0    0  0.43420313673E+01 -0.14827483149E+02  0.23955418307E+02  0.96494394250E+02  0.92187843897E+02 0.  0.
         11    1    3    3    0    0 -0.15359291848E+02  0.31465205077E+02 -0.92484056933E+01  0.36214637713E+02  0.51100000000E-03 0. -1.
         22    1    1    0    0    0 -0.43420313673E+01  0.14827483149E+02 -0.23955418307E+02  0.28505605750E+02  0.00000000000E+00 0.  1.
</event>
<event>
 5    1  0.6650580E-004  0.9118800E+02  0.7818608E-02  0.1130116E+00
         25   -1    0    0    0    0  0.00000000000E+00  0.00000000000E+00  0.99999998245E-14  0.12500000000E+03  0.12500000000E+03 0.  0.
        -11    1    3    3    0    0 -0.15085461990E+02  0.18766749389E+02  0.43343063415E+02  0.49582085399E+02  0.51100000000E-03 0. -1.
         23    2    1    0    0    0 -0.14022373560E+02 -0.19161782809E+02  0.15522995666E+02  0.96631632491E+02  0.92373741522E+02 0.  0.
         11    1    3    3    0    0  0.10630884304E+01 -0.37928532199E+02 -0.27820067748E+02  0.47049547092E+02  0.51100000000E-03 0.  1.
         22    1    1    0    0    0  0.14022373560E+02  0.19161782809E+02 -0.15522995666E+02  0.28368367509E+02  0.00000000000E+00 0. -1.
</event>
<event>
 5    1  0.6650580E-004  0.9118800E+02  0.7818608E-02  0.1130116E+00
         25   -1    0    0    0    0  0.00000000000E+00  0.00000000000E+00  0.99999998245E-14  0.12500000000E+03  0.12500000000E+03 0.  0.
        -11    1    3    3    0    0 -0.32786585817E+02 -0.30209878311E+02  0.49911447166E+01  0.44860990659E+02  0.51100000000E-03 0.  1.
         23    2    1    0    0    0 -0.26852811117E+02  0.17391743416E+02  0.11085557175E+01  0.92987891357E+02  0.87303910791E+02 0.  0.
         11    1    3    3    0    0  0.59337746991E+01  0.47601621727E+02 -0.38825889990E+01  0.48126900698E+02  0.51100000000E-03 0. -1.
         22    1    1    0    0    0  0.26852811117E+02 -0.17391743416E+02 -0.11085557175E+01  0.32012108643E+02  0.00000000000E+00 0. -1.
</event>
<event>
 5    1  0.6650580E-004  0.9118800E+02  0.7818608E-02  0.1130116E+00
         25   -1    0    0    0    0  0.00000000000E+00  0.00000000000E+00  0.99999998245E-14  0.12500000000E+03  0.12500000000E+03 0.  0.
        -11    1    3    3    0    0 -0.43970483232E+00  0.33695563449E+02 -0.48801197442E+02  0.59305490543E+02  0.51100000000E-03 0.  1.
         23    2    1    0    0    0  0.74816083025E+01  0.23822239448E+02 -0.13919725265E+02  0.96412724744E+02  0.92077039407E+02 0.  0.
         11    1    3    3    0    0  0.79213131348E+01 -0.98733240014E+01  0.34881472176E+02  0.37107234201E+02  0.51100000000E-03 0. -1.
         22    1    1    0    0    0 -0.74816083025E+01 -0.23822239448E+02  0.13919725265E+02  0.28587275256E+02  0.00000000000E+00 0.  1.
</event>
<event>
 5    1  0.6650580E-004  0.9118800E+02  0.7818608E-02  0.1130116E+00
         25   -1    0    0    0    0  0.00000000000E+00  0.00000000000E+00  0.99999998245E-14  0.12500000000E+03  0.12500000000E+03 0.  0.
        -11    1    3    3    0    0  0.49555273319E+01  0.17334054434E+02 -0.38081988310E+02  0.42133888121E+02  0.51100000000E-03 0.  1.
         23    2    1    0    0    0 -0.96643004301E+01 -0.25795483154E+02 -0.96929917277E+01  0.95797949685E+02  0.91238628998E+02 0.  0.
         11    1    3    3    0    0 -0.14619827762E+02 -0.43129537588E+02  0.28388996583E+02  0.53664061564E+02  0.51100000000E-03 0. -1.
         22    1    1    0    0    0  0.96643004301E+01  0.25795483154E+02  0.96929917277E+01  0.29202050315E+02  0.00000000000E+00 0. -1.
</event>
<event>
 5    1  0.6650580E-004  0.9118800E+02  0.7818608E-02  0.1130116E+00
         25   -1    0    0    0    0  0.00000000000E+00  0.00000000000E+00  0.99999998245E-14  0.12500000000E+03  0.12500000000E+03 0.  0.
        -11    1    3    3    0    0  0.37245038994E+02 -0.15746860433E+02 -0.32720770000E+01  0.40569237500E+02  0.51100000000E-03 0.  1.
         23    2    1    0    0    0  0.28937598994E+01  0.22827981927E+02 -0.19633546507E+02  0.94751582625E+02  0.89793628150E+02 0.  0.
         11    1    3    3    0    0 -0.34351279095E+02  0.38574842360E+02 -0.16361469507E+02  0.54182345125E+02  0.51100000000E-03 0. -1.
         22    1    1    0    0    0 -0.28937598994E+01 -0.22827981927E+02  0.19633546507E+02  0.30248417375E+02  0.00000000000E+00 0. -1.
</event>
<event>
 5    1  0.6650580E-004  0.9118800E+02  0.7818608E-02  0.1130116E+00
         25   -1    0    0    0    0  0.00000000000E+00  0.00000000000E+00  0.99999998245E-14  0.12500000000E+03  0.12500000000E+03 0.  0.
        -11    1    3    3    0    0  0.16509215988E+02  0.21200815836E+02  0.27708082626E+02  0.38597495355E+02  0.51100000000E-03 0. -1.
         23    2    1    0    0    0 -0.43383085302E+01  0.14329397588E+02 -0.25093212713E+02  0.95779769330E+02  0.91213717897E+02 0.  0.
         11    1    3    3    0    0 -0.20847524519E+02 -0.68714182477E+01 -0.52801295338E+02  0.57182273975E+02  0.51100000000E-03 0.  1.
         22    1    1    0    0    0  0.43383085302E+01 -0.14329397588E+02  0.25093212713E+02  0.29220230670E+02  0.00000000000E+00 0.  1.
</event>
<event>
 5    1  0.6650580E-004  0.9118800E+02  0.7818608E-02  0.1130116E+00
         25   -1    0    0    0    0  0.00000000000E+00  0.00000000000E+00  0.99999998245E-14  0.12500000000E+03  0.12500000000E+03 0.  0.
        -11    1    3    3    0    0  0.43031546974E+02 -0.42284788788E+02  0.90701373064E+01  0.61008071505E+02  0.51100000000E-03 0. -1.
         23    2    1    0    0    0  0.26559400874E+02 -0.14734756780E+02 -0.88179377052E+00  0.94614273213E+02  0.89602278449E+02 0.  0.
         11    1    3    3    0    0 -0.16472146100E+02  0.27550032008E+02 -0.99519310769E+01  0.33606201707E+02  0.51100000000E-03 0.  1.
         22    1    1    0    0    0 -0.26559400874E+02  0.14734756780E+02  0.88179377052E+00  0.30385726787E+02  0.00000000000E+00 0. -1.
</event>
<event>
 5    1  0.6650580E-004  0.9118800E+02  0.7818608E-02  0.1130116E+00
         25   -1    0    0    0    0  0.00000000000E+00  0.00000000000E+00  0.99999998245E-14  0.12500000000E+03  0.12500000000E+03 0.  0.
        -11    1    3    3    0    0 -0.34854732268E+01  0.19302582617E+02 -0.29254858215E+02  0.35221938458E+02  0.51100000000E-03 0. -1.
         23    2    1    0    0    0  0.18276997894E+02  0.40482797114E+01  0.23894643307E+02  0.94645573644E+02  0.89645933599E+02 0.  0.
         11    1    3    3    0    0  0.21762471121E+02 -0.15254302905E+02  0.53149501522E+02  0.59423635186E+02  0.51100000000E-03 0.  1.
         22    1    1    0    0    0 -0.18276997894E+02 -0.40482797114E+01 -0.23894643307E+02  0.30354426356E+02  0.00000000000E+00 0.  1.
</event>
<event>
 5    1  0.6650580E-004  0.9118800E+02  0.7818608E-02  0.1130116E+00
         25   -1    0    0    0    0  0.00000000000E+00  0.00000000000E+00  0.99999998245E-14  0.12500000000E+03  0.12500000000E+03 0.  0.
        -11    1    3    3    0    0  0.65708626787E+01 -0.20824761286E+02 -0.53104961819E+02  0.57419368587E+02  0.51100000000E-03 0.  1.
         23    2    1    0    0    0  0.18498819187E+02 -0.54576945820E+01 -0.39139641209E+02  0.81366248667E+02  0.68677231793E+02 0.  0.
         11    1    3    3    0    0  0.11927956508E+02  0.15367066704E+02  0.13965320610E+02  0.23946880079E+02  0.51100000000E-03 0. -1.
         22    1    1    0    0    0 -0.18498819187E+02  0.54576945820E+01  0.39139641209E+02  0.43633751333E+02  0.00000000000E+00 0.  1.
</event>
<event>
 5    1  0.6650580E-004  0.9118800E+02  0.7818608E-02  0.1130116E+00
         25   -1    0    0    0    0  0.00000000000E+00  0.00000000000E+00  0.99999998245E-14  0.12500000000E+03  0.12500000000E+03 0.  0.
        -11    1    3    3    0    0 -0.25274015345E+02  0.54673278127E+02  0.28651069255E+01  0.60300514349E+02  0.51100000000E-03 0.  1.
         23    2    1    0    0    0 -0.18975651137E+02  0.19117260357E+02 -0.58258691660E+01  0.97441231320E+02  0.93462868723E+02 0.  0.
         11    1    3    3    0    0  0.62983642076E+01 -0.35556017771E+02 -0.86909760915E+01  0.37140716970E+02  0.51100000000E-03 0. -1.
         22    1    1    0    0    0  0.18975651137E+02 -0.19117260357E+02  0.58258691660E+01  0.27558768680E+02  0.00000000000E+00 0.  1.
</event>
<event>
 5    1  0.6650580E-004  0.9118800E+02  0.7818608E-02  0.1130116E+00
         25   -1    0    0    0    0  0.00000000000E+00  0.00000000000E+00  0.99999998245E-14  0.12500000000E+03  0.12500000000E+03 0.  0.
        -11    1    3    3    0    0 -0.25321675980E+02 -0.28230534866E+02  0.62961130510E+01  0.38442052664E+02  0.51100000000E-03 0. -1.
         23    2    1    0    0    0  0.24376551582E+02  0.17877448573E+01  0.13712494484E+02  0.96974211810E+02  0.92836161879E+02 0.  0.
         11    1    3    3    0    0  0.49698227562E+02  0.30018279723E+02  0.74163814331E+01  0.58532159145E+02  0.51100000000E-03 0.  1.
         22    1    1    0    0    0 -0.24376551582E+02 -0.17877448573E+01 -0.13712494484E+02  0.28025788190E+02  0.00000000000E+00 0.  1.
</event>
<event>
 5    1  0.6650580E-004  0.9118800E+02  0.7818608E-02  0.1130116E+00
         25   -1    0    0    0    0  0.00000000000E+00  0.00000000000E+00  0.99999998245E-14  0.12500000000E+03  0.12500000000E+03 0.  0.
        -11    1    3    3    0    0  0.53786515861E+01  0.42737661483E+02 -0.14761674635E+02  0.45533994336E+02  0.51100000000E-03 0. -1.
         23    2    1    0    0    0 -0.25983277949E+02  0.70987071624E+01 -0.17151494307E+02  0.93067318726E+02  0.87417559343E+02 0.  0.
         11    1    3    3    0    0 -0.31361929535E+02 -0.35638954321E+02 -0.23898196721E+01  0.47533324390E+02  0.51100000000E-03 0.  1.
         22    1    1    0    0    0  0.25983277949E+02 -0.70987071624E+01  0.17151494307E+02  0.31932681274E+02  0.00000000000E+00 0.  1.
</event>
<event>
 5    1  0.6650580E-004  0.9118800E+02  0.7818608E-02  0.1130116E+00
         25   -1    0    0    0    0  0.00000000000E+00  0.00000000000E+00  0.99999998245E-14  0.12500000000E+03  0.12500000000E+03 0.  0.
        -11    1    3    3    0    0 -0.42242146726E+02 -0.21773353295E+02 -0.69029512327E+01  0.48022167899E+02  0.51100000000E-03 0. -1.
         23    2    1    0    0    0 -0.15438050257E+02  0.15476141640E+02 -0.19603000048E+02  0.95638086461E+02  0.91019347478E+02 0.  0.
         11    1    3    3    0    0  0.26804096469E+02  0.37249494934E+02 -0.12700048815E+02  0.47615918563E+02  0.51100000000E-03 0.  1.
         22    1    1    0    0    0  0.15438050257E+02 -0.15476141640E+02  0.19603000048E+02  0.29361913539E+02  0.00000000000E+00 0.  1.
</event>
<event>
 5    1  0.6650580E-004  0.9118800E+02  0.7818608E-02  0.1130116E+00
         25   -1    0    0    0    0  0.00000000000E+00  0.00000000000E+00  0.99999998245E-14  0.12500000000E+03  0.12500000000E+03 0.  0.
        -11    1    3    3    0    0  0.29014555041E+02  0.28923365690E+02  0.79935821032E+01  0.41740901310E+02  0.51100000000E-03 0. -1.
         23    2    1    0    0    0  0.54161097039E+01 -0.21509973291E+01 -0.28946694524E+02  0.95472518602E+02  0.90791682717E+02 0.  0.
         11    1    3    3    0    0 -0.23598445337E+02 -0.31074363019E+02 -0.36940276627E+02  0.53731617293E+02  0.51100000000E-03 0.  1.
         22    1    1    0    0    0 -0.54161097039E+01  0.21509973291E+01  0.28946694524E+02  0.29527481398E+02  0.00000000000E+00 0.  1.
</event>
<event>
 5    1  0.6650580E-004  0.9118800E+02  0.7818608E-02  0.1130116E+00
         25   -1    0    0    0    0  0.00000000000E+00  0.00000000000E+00  0.99999998245E-14  0.12500000000E+03  0.12500000000E+03 0.  0.
        -11    1    3    3    0    0 -0.43803593903E+02 -0.21348760115E+02 -0.85819543999E+01  0.49479029283E+02  0.51100000000E-03 0.  1.
         23    2    1    0    0    0 -0.21285441086E+02  0.86432128890E+01  0.18305209923E+02  0.95625592064E+02  0.91002186875E+02 0.  0.
         11    1    3    3    0    0  0.22518152816E+02  0.29991973004E+02  0.26887164323E+02  0.46146562781E+02  0.51100000000E-03 0. -1.
         22    1    1    0    0    0  0.21285441086E+02 -0.86432128890E+01 -0.18305209923E+02  0.29374407936E+02  0.00000000000E+00 0. -1.
</event>
<event>
 5    1  0.6650580E-004  0.9118800E+02  0.7818608E-02  0.1130116E+00
         25   -1    0    0    0    0  0.00000000000E+00  0.00000000000E+00  0.99999998245E-14  0.12500000000E+03  0.12500000000E+03 0.  0.
        -11    1    3    3    0    0 -0.26391106412E+02 -0.13250287038E+02  0.41534859624E+02  0.50962782189E+02  0.51100000000E-03 0.  1.
         23    2    1    0    0    0 -0.25424741915E+02  0.13341523602E+02  0.54872877457E+01  0.95767756154E+02  0.91197253459E+02 0.  0.
         11    1    3    3    0    0  0.96636449733E+00  0.26591810640E+02 -0.36047571878E+02  0.44804973965E+02  0.51100000000E-03 0. -1.
         22    1    1    0    0    0  0.25424741915E+02 -0.13341523602E+02 -0.54872877457E+01  0.29232243846E+02  0.00000000000E+00 0.  1.
</event>
<event>
 5    1  0.6650580E-004  0.9118800E+02  0.7818608E-02  0.1130116E+00
         25   -1    0    0    0    0  0.00000000000E+00  0.00000000000E+00  0.99999998245E-14  0.12500000000E+03  0.12500000000E+03 0.  0.
        -11    1    3    3    0    0 -0.11184929783E+02 -0.31253303567E+02 -0.88594103496E+01  0.34356379176E+02  0.51100000000E-03 0.  1.
         23    2    1    0    0    0 -0.65288055491E+01  0.28997428157E+02 -0.14224286721E+01  0.95242657293E+02  0.90474661222E+02 0.  0.
         11    1    3    3    0    0  0.46561242337E+01  0.60250731724E+02  0.74369816775E+01  0.60886278117E+02  0.51100000000E-03 0. -1.
         22    1    1    0    0    0  0.65288055491E+01 -0.28997428157E+02  0.14224286721E+01  0.29757342707E+02  0.00000000000E+00 0. -1.
</event>
<event>
 5    1  0.6650580E-004  0.9118800E+02  0.7818608E-02  0.1130116E+00
         25   -1    0    0    0    0  0.00000000000E+00  0.00000000000E+00  0.99999998245E-14  0.12500000000E+03  0.12500000000E+03 0.  0.
        -11    1    3    3    0    0 -0.17070293098E+02 -0.22353421187E+02 -0.29709120198E+02  0.40910905251E+02  0.51100000000E-03 0. -1.
         23    2    1    0    0    0 -0.20985423031E+02 -0.56154777092E+00  0.20421233561E+02  0.95712970519E+02  0.91122130296E+02 0.  0.
         11    1    3    3    0    0 -0.39151299330E+01  0.21791873416E+02  0.50130353759E+02  0.54802065268E+02  0.51100000000E-03 0.  1.
         22    1    1    0    0    0  0.20985423031E+02  0.56154777092E+00 -0.20421233561E+02  0.29287029481E+02  0.00000000000E+00 0. -1.
</event>
<event>
 5    1  0.6650580E-004  0.9118800E+02  0.7818608E-02  0.1130116E+00
         25   -1    0    0    0    0  0.00000000000E+00  0.00000000000E+00  0.99999998245E-14  0.12500000000E+03  0.12500000000E+03 0.  0.
        -11    1    3    3    0    0  0.33431958782E+02 -0.19441845063E+02 -0.18067910030E+02  0.42686421500E+02  0.51100000000E-03 0.  1.
         23    2    1    0    0    0  0.13863636694E+02  0.13123690978E+01  0.26188684977E+02  0.95339083699E+02  0.90607786225E+02 0.  0.
         11    1    3    3    0    0 -0.19568322088E+02  0.20754214161E+02  0.44256595006E+02  0.52652662198E+02  0.51100000000E-03 0. -1.
         22    1    1    0    0    0 -0.13863636694E+02 -0.13123690978E+01 -0.26188684977E+02  0.29660916301E+02  0.00000000000E+00 0. -1.
</event>
<event>
 5    1  0.6650580E-004  0.9118800E+02  0.7818608E-02  0.1130116E+00
         25   -1    0    0    0    0  0.00000000000E+00  0.00000000000E+00  0.99999998245E-14  0.12500000000E+03  0.12500000000E+03 0.  0.
        -11    1    3    3    0    0 -0.44785767336E+02 -0.40114368349E+02  0.48074617152E+01  0.60316160291E+02  0.51100000000E-03 0. -1.
         23    2    1    0    0    0 -0.22752279527E+02 -0.13228331899E+02 -0.82039934055E+01  0.97432618980E+02  0.93451349616E+02 0.  0.
         11    1    3    3    0    0  0.22033487809E+02  0.26886036449E+02 -0.13011455121E+02  0.37116458689E+02  0.51100000000E-03 0.  1.
         22    1    1    0    0    0  0.22752279527E+02  0.13228331899E+02  0.82039934055E+01  0.27567381020E+02  0.00000000000E+00 0. -1.
</event>
<event>
 5    1  0.6650580E-004  0.9118800E+02  0.7818608E-02  0.1130116E+00
         25   -1    0    0    0    0  0.00000000000E+00  0.00000000000E+00  0.99999998245E-14  0.12500000000E+03  0.12500000000E+03 0.  0.
        -11    1    3    3    0    0  0.13935363363E+02 -0.52360859149E+02  0.32812435048E+01  0.54282782556E+02  0.51100000000E-03 0. -1.
         23    2    1    0    0    0  0.27191863952E+02 -0.15143473553E+02  0.88803872392E+00  0.93863030507E+02  0.88548052642E+02 0.  0.
         11    1    3    3    0    0  0.13256500589E+02  0.37217385596E+02 -0.23932047809E+01  0.39580247951E+02  0.51100000000E-03 0.  1.
         22    1    1    0    0    0 -0.27191863952E+02  0.15143473553E+02 -0.88803872392E+00  0.31136969493E+02  0.00000000000E+00 0. -1.
</event>
<event>
 5    1  0.6650580E-004  0.9118800E+02  0.7818608E-02  0.1130116E+00
         25   -1    0    0    0    0  0.00000000000E+00  0.00000000000E+00  0.99999998245E-14  0.12500000000E+03  0.12500000000E+03 0.  0.
        -11    1    3    3    0    0 -0.13767074404E+02  0.29774510667E+02  0.43200934265E+02  0.54243659028E+02  0.51100000000E-03 0.  1.
         23    2    1    0    0    0 -0.23190544626E+02 -0.15961533524E+01  0.16686231122E+02  0.96385678854E+02  0.92040315697E+02 0.  0.
         11    1    3    3    0    0 -0.94234702214E+01 -0.31370664019E+02 -0.26514703143E+02  0.42142019826E+02  0.51100000000E-03 0. -1.
         22    1    1    0    0    0  0.23190544626E+02  0.15961533524E+01 -0.16686231122E+02  0.28614321146E+02  0.00000000000E+00 0.  1.
</event>
<event>
 5    1  0.6650580E-004  0.9118800E+02  0.7818608E-02  0.1130116E+00
         25   -1    0    0    0    0  0.00000000000E+00  0.00000000000E+00  0.99999998245E-14  0.12500000000E+03  0.12500000000E+03 0.  0.
        -11    1    3    3    0    0 -0.14744321425E+02 -0.22989173812E+02  0.38218810200E+02  0.46974190576E+02  0.51100000000E-03 0.  1.
         23    2    1    0    0    0  0.18068119909E+01 -0.30495975433E+02 -0.51706487818E+01  0.94016057449E+02  0.88763812234E+02 0.  0.
         11    1    3    3    0    0  0.16551133416E+02 -0.75068016211E+01 -0.43389458982E+02  0.47041866874E+02  0.51100000000E-03 0. -1.
         22    1    1    0    0    0 -0.18068119909E+01  0.30495975433E+02  0.51706487818E+01  0.30983942551E+02  0.00000000000E+00 0. -1.
</event>
<event>
 5    1  0.6650580E-004  0.9118800E+02  0.7818608E-02  0.1130116E+00
         25   -1    0    0    0    0  0.00000000000E+00  0.00000000000E+00  0.99999998245E-14  0.12500000000E+03  0.12500000000E+03 0.  0.
        -11    1    3    3    0    0  0.62281141999E+01  0.31615253630E+02  0.27303291702E+02  0.42234860088E+02  0.51100000000E-03 0.  1.
         23    2    1    0    0    0  0.21612750280E+02 -0.16758459659E+02  0.10496601849E+02  0.95706048488E+02  0.91112634261E+02 0.  0.
         11    1    3    3    0    0  0.15384636080E+02 -0.48373713290E+02 -0.16806689854E+02  0.53471188400E+02  0.51100000000E-03 0. -1.
         22    1    1    0    0    0 -0.21612750280E+02  0.16758459659E+02 -0.10496601849E+02  0.29293951512E+02  0.00000000000E+00 0. -1.
</event>
<event>
 5    1  0.6650580E-004  0.9118800E+02  0.7818608E-02  0.1130116E+00
         25   -1    0    0    0    0  0.00000000000E+00  0.00000000000E+00  0.99999998245E-14  0.12500000000E+03  0.12500000000E+03 0.  0.
        -11    1    3    3    0    0 -0.26768048136E+02 -0.23413568118E+02 -0.63749258417E+00  0.35568665565E+02  0.51100000000E-03 0. -1.
         23    2    1    0    0    0  0.20953852452E+02  0.14300282419E+02  0.10744879613E+02  0.97449783163E+02  0.93474305511E+02 0.  0.
         11    1    3    3    0    0  0.47721900588E+02  0.37713850537E+02  0.11382372197E+02  0.61881117598E+02  0.51100000000E-03 0.  1.
         22    1    1    0    0    0 -0.20953852452E+02 -0.14300282419E+02 -0.10744879613E+02  0.27550216837E+02  0.00000000000E+00 0.  1.
</event>
<event>
 5    1  0.6650580E-004  0.9118800E+02  0.7818608E-02  0.1130116E+00
         25   -1    0    0    0    0  0.00000000000E+00  0.00000000000E+00  0.99999998245E-14  0.12500000000E+03  0.12500000000E+03 0.  0.
        -11    1    3    3    0    0  0.48027472356E+02 -0.14885071893E+02  0.76710542468E+01  0.50863037068E+02  0.51100000000E-03 0. -1.
         23    2    1    0    0    0  0.39380909686E+01 -0.24798600082E+02  0.13605964983E+02  0.96441263865E+02  0.92115774796E+02 0.  0.
         11    1    3    3    0    0 -0.44089381388E+02 -0.99135281889E+01  0.59349107358E+01  0.45578226798E+02  0.51100000000E-03 0.  1.
         22    1    1    0    0    0 -0.39380909686E+01  0.24798600082E+02 -0.13605964983E+02  0.28558736135E+02  0.00000000000E+00 0. -1.
</event>
<event>
 5    1  0.6650580E-004  0.9118800E+02  0.7818608E-02  0.1130116E+00
         25   -1    0    0    0    0  0.00000000000E+00  0.00000000000E+00  0.99999998245E-14  0.12500000000E+03  0.12500000000E+03 0.  0.
        -11    1    3    3    0    0  0.97548336590E+01  0.54324926684E+02 -0.18573449395E+02  0.58235105063E+02  0.51100000000E-03 0.  1.
         23    2    1    0    0    0  0.75248503579E+01  0.22769825212E+02 -0.24828368181E+02  0.90481364749E+02  0.83638156287E+02 0.  0.
         11    1    3    3    0    0 -0.22299833011E+01 -0.31555101472E+02 -0.62549187862E+01  0.32246259686E+02  0.51100000000E-03 0. -1.
         22    1    1    0    0    0 -0.75248503579E+01 -0.22769825212E+02  0.24828368181E+02  0.34518635251E+02  0.00000000000E+00 0.  1.
</event>
<event>
 5    1  0.6650580E-004  0.9118800E+02  0.7818608E-02  0.1130116E+00
         25   -1    0    0    0    0  0.00000000000E+00  0.00000000000E+00  0.99999998245E-14  0.12500000000E+03  0.12500000000E+03 0.  0.
        -11    1    3    3    0    0 -0.13741888146E+02  0.25137027464E+02 -0.30627360001E+02  0.41937391674E+02  0.51100000000E-03 0.  1.
         23    2    1    0    0    0 -0.24692788588E+02 -0.24982927458E+01  0.14708823291E+02  0.96149960875E+02  0.91719628318E+02 0.  0.
         11    1    3    3    0    0 -0.10950900442E+02 -0.27635320210E+02  0.45336183292E+02  0.54212569201E+02  0.51100000000E-03 0. -1.
         22    1    1    0    0    0  0.24692788588E+02  0.24982927458E+01 -0.14708823291E+02  0.28850039125E+02  0.00000000000E+00 0. -1.
</event>
<event>
 5    1  0.6650580E-004  0.9118800E+02  0.7818608E-02  0.1130116E+00
         25   -1    0    0    0    0  0.00000000000E+00  0.00000000000E+00  0.99999998245E-14  0.12500000000E+03  0.12500000000E+03 0.  0.
        -11    1    3    3    0    0 -0.14569850172E+02  0.42898238520E+02  0.99949683086E+01  0.46394383215E+02  0.51100000000E-03 0. -1.
         23    2    1    0    0    0 -0.16206705019E+02  0.47792152863E+01 -0.22741985888E+02  0.96668107927E+02  0.92423086844E+02 0.  0.
         11    1    3    3    0    0 -0.16368548468E+01 -0.38119023234E+02 -0.32736954196E+02  0.50273724712E+02  0.51100000000E-03 0.  1.
         22    1    1    0    0    0  0.16206705019E+02 -0.47792152863E+01  0.22741985888E+02  0.28331892073E+02  0.00000000000E+00 0.  1.
</event>
<event>
 5    1  0.6650580E-004  0.9118800E+02  0.7818608E-02  0.1130116E+00
         25   -1    0    0    0    0  0.00000000000E+00  0.00000000000E+00  0.99999998245E-14  0.12500000000E+03  0.12500000000E+03 0.  0.
        -11    1    3    3    0    0 -0.29202847437E+02  0.55164664240E+01 -0.20064215017E+02  0.35858198850E+02  0.51100000000E-03 0.  1.
         23    2    1    0    0    0  0.26692357748E+02 -0.10418574750E+02 -0.84139066476E+01  0.95136602888E+02  0.90328017370E+02 0.  0.
         11    1    3    3    0    0  0.55895205185E+02 -0.15935041174E+02  0.11650308369E+02  0.59278404038E+02  0.51100000000E-03 0. -1.
         22    1    1    0    0    0 -0.26692357748E+02  0.10418574750E+02  0.84139066476E+01  0.29863397112E+02  0.00000000000E+00 0. -1.
</event>
<event>
 5    1  0.6650580E-004  0.9118800E+02  0.7818608E-02  0.1130116E+00
         25   -1    0    0    0    0  0.00000000000E+00  0.00000000000E+00  0.99999998245E-14  0.12500000000E+03  0.12500000000E+03 0.  0.
        -11    1    3    3    0    0 -0.18580810604E+01 -0.25110716322E+02  0.25504422995E+02  0.35839588893E+02  0.51100000000E-03 0. -1.
         23    2    1    0    0    0 -0.26016050850E+02 -0.13160365384E+01 -0.19694290726E+02  0.92343730446E+02  0.86376690209E+02 0.  0.
         11    1    3    3    0    0 -0.24157969789E+02  0.23794679783E+02 -0.45198713721E+02  0.56504141553E+02  0.51100000000E-03 0.  1.
         22    1    1    0    0    0  0.26016050850E+02  0.13160365384E+01  0.19694290726E+02  0.32656269554E+02  0.00000000000E+00 0. -1.
</event>
<event>
 5    1  0.6650580E-004  0.9118800E+02  0.7818608E-02  0.1130116E+00
         25   -1    0    0    0    0  0.00000000000E+00  0.00000000000E+00  0.99999998245E-14  0.12500000000E+03  0.12500000000E+03 0.  0.
        -11    1    3    3    0    0  0.55974767126E+02 -0.14734559303E+01 -0.20236030949E+02  0.59538580568E+02  0.51100000000E-03 0.  1.
         23    2    1    0    0    0  0.26125181382E+02 -0.13595495159E+02 -0.14152384382E+02  0.92325046678E+02  0.86349647768E+02 0.  0.
         11    1    3    3    0    0 -0.29849585744E+02 -0.12122039229E+02  0.60836465676E+01  0.32786466110E+02  0.51100000000E-03 0. -1.
         22    1    1    0    0    0 -0.26125181382E+02  0.13595495159E+02  0.14152384382E+02  0.32674953322E+02  0.00000000000E+00 0.  1.
</event>
<event>
 5    1  0.6650580E-004  0.9118800E+02  0.7818608E-02  0.1130116E+00
         25   -1    0    0    0    0  0.00000000000E+00  0.00000000000E+00  0.99999998245E-14  0.12500000000E+03  0.12500000000E+03 0.  0.
        -11    1    3    3    0    0  0.22710854264E+02  0.51197838403E+01  0.34789056811E+02  0.41860166770E+02  0.51100000000E-03 0.  1.
         23    2    1    0    0    0 -0.10003444048E+02 -0.26962134714E+02  0.71660254788E+01  0.95362565524E+02  0.90640175314E+02 0.  0.
         11    1    3    3    0    0 -0.32714298312E+02 -0.32081918554E+02 -0.27623031333E+02  0.53502398754E+02  0.51100000000E-03 0. -1.
         22    1    1    0    0    0  0.10003444048E+02  0.26962134714E+02 -0.71660254788E+01  0.29637434476E+02  0.00000000000E+00 0. -1.
</event>
<event>
 5    1  0.6650580E-004  0.9118800E+02  0.7818608E-02  0.1130116E+00
         25   -1    0    0    0    0  0.00000000000E+00  0.00000000000E+00  0.99999998245E-14  0.12500000000E+03  0.12500000000E+03 0.  0.
        -11    1    3    3    0    0 -0.40485033470E+02  0.52869095761E+00 -0.16541475946E+02  0.43737145265E+02  0.51100000000E-03 0. -1.
         23    2    1    0    0    0  0.11180294096E+02 -0.10762845953E+02 -0.23250724770E+02  0.97045858421E+02  0.92932580968E+02 0.  0.
         11    1    3    3    0    0  0.51665327566E+02 -0.11291536911E+02 -0.67092488237E+01  0.53308713156E+02  0.51100000000E-03 0.  1.
         22    1    1    0    0    0 -0.11180294096E+02  0.10762845953E+02  0.23250724770E+02  0.27954141579E+02  0.00000000000E+00 0.  1.
</event>
<event>
 5    1  0.6650580E-004  0.9118800E+02  0.7818608E-02  0.1130116E+00
         25   -1    0    0    0    0  0.00000000000E+00  0.00000000000E+00  0.99999998245E-14  0.12500000000E+03  0.12500000000E+03 0.  0.
        -11    1    3    3    0    0 -0.79320020099E+01  0.28057480904E+02 -0.33498665290E+02  0.44410578324E+02  0.51100000000E-03 0. -1.
         23    2    1    0    0    0  0.36853283850E+01 -0.19885506001E+02 -0.22104139216E+02  0.95039893781E+02  0.90194087640E+02 0.  0.
         11    1    3    3    0    0  0.11617330395E+02 -0.47942986905E+02  0.11394526075E+02  0.50629315457E+02  0.51100000000E-03 0.  1.
         22    1    1    0    0    0 -0.36853283850E+01  0.19885506001E+02  0.22104139216E+02  0.29960106219E+02  0.00000000000E+00 0. -1.
</event>
<event>
 5    1  0.6650580E-004  0.9118800E+02  0.7818608E-02  0.1130116E+00
         25   -1    0    0    0    0  0.00000000000E+00  0.00000000000E+00  0.99999998245E-14  0.12500000000E+03  0.12500000000E+03 0.  0.
        -11    1    3    3    0    0  0.30723459676E+02  0.69681174506E+01  0.38648316401E+02  0.49861588384E+02  0.51100000000E-03 0.  1.
         23    2    1    0    0    0  0.26797846201E+02 -0.11364770796E+02 -0.31987979271E+01  0.95716644926E+02  0.91127170654E+02 0.  0.
         11    1    3    3    0    0 -0.39256134751E+01 -0.18332888246E+02 -0.41847114328E+02  0.45855056542E+02  0.51100000000E-03 0. -1.
         22    1    1    0    0    0 -0.26797846201E+02  0.11364770796E+02  0.31987979271E+01  0.29283355074E+02  0.00000000000E+00 0.  1.
</event>
<event>
 5    1  0.6650580E-004  0.9118800E+02  0.7818608E-02  0.1130116E+00
         25   -1    0    0    0    0  0.00000000000E+00  0.00000000000E+00  0.99999998245E-14  0.12500000000E+03  0.12500000000E+03 0.  0.
        -11    1    3    3    0    0 -0.15573263315E+02 -0.46526441199E+02  0.27252103084E+02  0.56124089157E+02  0.51100000000E-03 0. -1.
         23    2    1    0    0    0 -0.19897674684E+02 -0.91257786750E+01  0.21691783595E+02  0.94182297785E+02  0.88997609217E+02 0.  0.
         11    1    3    3    0    0 -0.43244113682E+01  0.37400662524E+02 -0.55603194887E+01  0.38058208628E+02  0.51100000000E-03 0.  1.
         22    1    1    0    0    0  0.19897674684E+02  0.91257786750E+01 -0.21691783595E+02  0.30817702215E+02  0.00000000000E+00 0. -1.
</event>
<event>
 5    1  0.6650580E-004  0.9118800E+02  0.7818608E-02  0.1130116E+00
         25   -1    0    0    0    0  0.00000000000E+00  0.00000000000E+00  0.99999998245E-14  0.12500000000E+03  0.12500000000E+03 0.  0.
        -11    1    3    3    0    0 -0.10209573184E+02  0.24948182263E+01 -0.38006954088E+02  0.39433336936E+02  0.51100000000E-03 0. -1.
         23    2    1    0    0    0  0.17391368739E+01 -0.26543629101E+02  0.98179527150E+01  0.96645440605E+02  0.92392424751E+02 0.  0.
         11    1    3    3    0    0  0.11948710058E+02 -0.29038447328E+02  0.47824906803E+02  0.57212103669E+02  0.51100000000E-03 0.  1.
         22    1    1    0    0    0 -0.17391368739E+01  0.26543629101E+02 -0.98179527150E+01  0.28354559395E+02  0.00000000000E+00 0.  1.
</event>
<event>
 5    1  0.6650580E-004  0.9118800E+02  0.7818608E-02  0.1130116E+00
         25   -1    0    0    0    0  0.00000000000E+00  0.00000000000E+00  0.99999998245E-14  0.12500000000E+03  0.12500000000E+03 0.  0.
        -11    1    3    3    0    0 -0.93896596349E+01  0.48113822363E+02  0.17114163407E+02  0.51923021867E+02  0.51100000000E-03 0.  1.
         23    2    1    0    0    0  0.20720755945E+02  0.17982064754E+02  0.12759306571E+02  0.94742698667E+02  0.89781260109E+02 0.  0.
         11    1    3    3    0    0  0.30110415580E+02 -0.30131757608E+02 -0.43548568356E+01  0.42819676800E+02  0.51100000000E-03 0. -1.
         22    1    1    0    0    0 -0.20720755945E+02 -0.17982064754E+02 -0.12759306571E+02  0.30257301333E+02  0.00000000000E+00 0.  1.
</event>
<event>
 5    1  0.6650580E-004  0.9118800E+02  0.7818608E-02  0.1130116E+00
         25   -1    0    0    0    0  0.00000000000E+00  0.00000000000E+00  0.99999998245E-14  0.12500000000E+03  0.12500000000E+03 0.  0.
        -11    1    3    3    0    0 -0.21955225359E+02 -0.26073963570E+02 -0.48278325380E+01  0.34426609826E+02  0.51100000000E-03 0.  1.
         23    2    1    0    0    0  0.22051062572E+02  0.17494703036E+02  0.22847540458E+01  0.96759353833E+02  0.92546412455E+02 0.  0.
         11    1    3    3    0    0  0.44006287931E+02  0.43568666606E+02  0.71125865838E+01  0.62332744007E+02  0.51100000000E-03 0. -1.
         22    1    1    0    0    0 -0.22051062572E+02 -0.17494703036E+02 -0.22847540458E+01  0.28240646167E+02  0.00000000000E+00 0. -1.
</event>
<event>
 5    1  0.6650580E-004  0.9118800E+02  0.7818608E-02  0.1130116E+00
         25   -1    0    0    0    0  0.00000000000E+00  0.00000000000E+00  0.99999998245E-14  0.12500000000E+03  0.12500000000E+03 0.  0.
        -11    1    3    3    0    0  0.35567132147E+02 -0.29363488195E+02 -0.25877246564E+02  0.52885415930E+02  0.51100000000E-03 0. -1.
         23    2    1    0    0    0  0.28916379315E+02  0.58774247108E+01 -0.31937434928E+01  0.95320021708E+02  0.90581485012E+02 0.  0.
         11    1    3    3    0    0 -0.66507528321E+01  0.35240912906E+02  0.22683503071E+02  0.42434605778E+02  0.51100000000E-03 0.  1.
         22    1    1    0    0    0 -0.28916379315E+02 -0.58774247108E+01  0.31937434928E+01  0.29679978292E+02  0.00000000000E+00 0. -1.
</event>
<event>
 5    1  0.6650580E-004  0.9118800E+02  0.7818608E-02  0.1130116E+00
         25   -1    0    0    0    0  0.00000000000E+00  0.00000000000E+00  0.99999998245E-14  0.12500000000E+03  0.12500000000E+03 0.  0.
        -11    1    3    3    0    0  0.16762126047E+02 -0.44082745412E+02  0.30974879601E+02  0.56424289798E+02  0.51100000000E-03 0. -1.
         23    2    1    0    0    0 -0.12194522329E+02 -0.19727778903E+02  0.14134006319E+02  0.97840070510E+02  0.93994774469E+02 0.  0.
         11    1    3    3    0    0 -0.28956648376E+02  0.24354966508E+02 -0.16840873282E+02  0.41415780712E+02  0.51100000000E-03 0.  1.
         22    1    1    0    0    0  0.12194522329E+02  0.19727778903E+02 -0.14134006319E+02  0.27159929490E+02  0.00000000000E+00 0. -1.
</event>
<event>
 5    1  0.6650580E-004  0.9118800E+02  0.7818608E-02  0.1130116E+00
         25   -1    0    0    0    0  0.00000000000E+00  0.00000000000E+00  0.99999998245E-14  0.12500000000E+03  0.12500000000E+03 0.  0.
        -11    1    3    3    0    0 -0.34150322974E+02 -0.39613301924E+02  0.32791474621E+02  0.61731183827E+02  0.51100000000E-03 0. -1.
         23    2    1    0    0    0 -0.78290163262E+01 -0.18673385331E+02  0.15148715199E+02  0.99712208706E+02  0.96452331109E+02 0.  0.
         11    1    3    3    0    0  0.26321306647E+02  0.20939916593E+02 -0.17642759422E+02  0.37981024879E+02  0.51100000000E-03 0.  1.
         22    1    1    0    0    0  0.78290163262E+01  0.18673385331E+02 -0.15148715199E+02  0.25287791294E+02  0.00000000000E+00 0. -1.
</event>
<event>
 5    1  0.6650580E-004  0.9118800E+02  0.7818608E-02  0.1130116E+00
         25   -1    0    0    0    0  0.00000000000E+00  0.00000000000E+00  0.99999998245E-14  0.12500000000E+03  0.12500000000E+03 0.  0.
        -11    1    3    3    0    0 -0.12057114623E+02  0.55034310257E+02  0.58613925850E+01  0.56643669035E+02  0.51100000000E-03 0.  1.
         23    2    1    0    0    0 -0.20835989644E+02  0.17073359622E+02  0.10919185855E+02  0.95933409334E+02  0.91424024924E+02 0.  0.
         11    1    3    3    0    0 -0.87788750213E+01 -0.37960950634E+02  0.50577932698E+01  0.39289740299E+02  0.51100000000E-03 0. -1.
         22    1    1    0    0    0  0.20835989644E+02 -0.17073359622E+02 -0.10919185855E+02  0.29066590666E+02  0.00000000000E+00 0.  1.
</event>
<event>
 5    1  0.6650580E-004  0.9118800E+02  0.7818608E-02  0.1130116E+00
         25   -1    0    0    0    0  0.00000000000E+00  0.00000000000E+00  0.99999998245E-14  0.12500000000E+03  0.12500000000E+03 0.  0.
        -11    1    3    3    0    0  0.79118158429E+01 -0.28580003420E+02  0.28946663163E+02  0.41440592828E+02  0.51100000000E-03 0. -1.
         23    2    1    0    0    0 -0.98132573382E+01 -0.23718389968E+02 -0.19179887269E+02  0.92957370303E+02  0.87260200410E+02 0.  0.
         11    1    3    3    0    0 -0.17725073181E+02  0.48616134518E+01 -0.48126550432E+02  0.51516777474E+02  0.51100000000E-03 0.  1.
         22    1    1    0    0    0  0.98132573382E+01  0.23718389968E+02  0.19179887269E+02  0.32042629697E+02  0.00000000000E+00 0.  1.
</event>
<event>
 5    1  0.6650580E-004  0.9118800E+02  0.7818608E-02  0.1130116E+00
         25   -1    0    0    0    0  0.00000000000E+00  0.00000000000E+00  0.99999998245E-14  0.12500000000E+03  0.12500000000E+03 0.  0.
        -11    1    3    3    0    0  0.47050550924E+02 -0.37439865936E+01  0.15779974396E+02  0.49767251984E+02  0.51100000000E-03 0. -1.
         23    2    1    0    0    0  0.24811749289E+02  0.13461650346E+02 -0.16282489677E+02  0.92412296753E+02  0.86475858992E+02 0.  0.
         11    1    3    3    0    0 -0.22238801635E+02  0.17205636939E+02 -0.32062464073E+02  0.42645044769E+02  0.51100000000E-03 0.  1.
         22    1    1    0    0    0 -0.24811749289E+02 -0.13461650346E+02  0.16282489677E+02  0.32587703247E+02  0.00000000000E+00 0. -1.
</event>
<event>
 5    1  0.6650580E-004  0.9118800E+02  0.7818608E-02  0.1130116E+00
         25   -1    0    0    0    0  0.00000000000E+00  0.00000000000E+00  0.99999998245E-14  0.12500000000E+03  0.12500000000E+03 0.  0.
        -11    1    3    3    0    0  0.83154526815E+01  0.57246891280E+02 -0.15162018137E+02  0.59801673127E+02  0.51100000000E-03 0. -1.
         23    2    1    0    0    0 -0.91358422037E+01  0.26835811454E+02 -0.67432611059E+01  0.95860748817E+02  0.91324625399E+02 0.  0.
         11    1    3    3    0    0 -0.17451294885E+02 -0.30411079827E+02  0.84187570314E+01  0.36059075690E+02  0.51100000000E-03 0.  1.
         22    1    1    0    0    0  0.91358422037E+01 -0.26835811454E+02  0.67432611059E+01  0.29139251183E+02  0.00000000000E+00 0. -1.
</event>
<event>
 5    1  0.6650580E-004  0.9118800E+02  0.7818608E-02  0.1130116E+00
         25   -1    0    0    0    0  0.00000000000E+00  0.00000000000E+00  0.99999998245E-14  0.12500000000E+03  0.12500000000E+03 0.  0.
        -11    1    3    3    0    0 -0.51783636375E+02  0.85890144648E+01 -0.21761076111E+02  0.56823063975E+02  0.51100000000E-03 0. -1.
         23    2    1    0    0    0 -0.23448977444E+02  0.15651980094E+02  0.49232029014E+01  0.96380479550E+02  0.92033254247E+02 0.  0.
         11    1    3    3    0    0  0.28334658932E+02  0.70629656291E+01  0.26684279012E+02  0.39557415574E+02  0.51100000000E-03 0.  1.
         22    1    1    0    0    0  0.23448977444E+02 -0.15651980094E+02 -0.49232029014E+01  0.28619520450E+02  0.00000000000E+00 0. -1.
</event>
<event>
 5    1  0.6650580E-004  0.9118800E+02  0.7818608E-02  0.1130116E+00
         25   -1    0    0    0    0  0.00000000000E+00  0.00000000000E+00  0.99999998245E-14  0.12500000000E+03  0.12500000000E+03 0.  0.
        -11    1    3    3    0    0 -0.92633905009E+01  0.47122385779E+01 -0.47965035043E+02  0.49078102887E+02  0.51100000000E-03 0. -1.
         23    2    1    0    0    0 -0.72945099423E+01  0.26507149932E+02 -0.53383071893E+01  0.96993993564E+02  0.92862793362E+02 0.  0.
         11    1    3    3    0    0  0.19688805586E+01  0.21794911355E+02  0.42626727854E+02  0.47915890677E+02  0.51100000000E-03 0.  1.
         22    1    1    0    0    0  0.72945099423E+01 -0.26507149932E+02  0.53383071893E+01  0.28006006436E+02  0.00000000000E+00 0. -1.
</event>
<event>
 5    1  0.6650580E-004  0.9118800E+02  0.7818608E-02  0.1130116E+00
         25   -1    0    0    0    0  0.00000000000E+00  0.00000000000E+00  0.99999998245E-14  0.12500000000E+03  0.12500000000E+03 0.  0.
        -11    1    3    3    0    0  0.30060038240E+02  0.30902390636E+02  0.37287925706E+02  0.56999588154E+02  0.51100000000E-03 0. -1.
         23    2    1    0    0    0 -0.32804423460E+01  0.18037389751E+02  0.23242838730E+02  0.95396988612E+02  0.90687635061E+02 0.  0.
         11    1    3    3    0    0 -0.33340480586E+02 -0.12865000885E+02 -0.14045086975E+02  0.38397400458E+02  0.51100000000E-03 0.  1.
         22    1    1    0    0    0  0.32804423460E+01 -0.18037389751E+02 -0.23242838730E+02  0.29603011388E+02  0.00000000000E+00 0. -1.
</event>
<event>
 5    1  0.6650580E-004  0.9118800E+02  0.7818608E-02  0.1130116E+00
         25   -1    0    0    0    0  0.00000000000E+00  0.00000000000E+00  0.99999998245E-14  0.12500000000E+03  0.12500000000E+03 0.  0.
        -11    1    3    3    0    0  0.38042131444E+02  0.84353949161E+01  0.52959128368E+01  0.39324373424E+02  0.51100000000E-03 0.  1.
         23    2    1    0    0    0 -0.10301316520E+02 -0.24228869485E+02 -0.38869348310E+01  0.98386779584E+02  0.94719031329E+02 0.  0.
         11    1    3    3    0    0 -0.48343447963E+02 -0.32664264401E+02 -0.91828476678E+01  0.59062406160E+02  0.51100000000E-03 0. -1.
         22    1    1    0    0    0  0.10301316520E+02  0.24228869485E+02  0.38869348310E+01  0.26613220416E+02  0.00000000000E+00 0. -1.
</event>
<event>
 5    1  0.6650580E-004  0.9118800E+02  0.7818608E-02  0.1130116E+00
         25   -1    0    0    0    0  0.00000000000E+00  0.00000000000E+00  0.99999998245E-14  0.12500000000E+03  0.12500000000E+03 0.  0.
        -11    1    3    3    0    0  0.21586027421E+02 -0.14266868671E+02 -0.23253122308E+02  0.34788041319E+02  0.51100000000E-03 0.  1.
         23    2    1    0    0    0 -0.26816184246E+01  0.21426221001E+02  0.19765234187E+02  0.95726487976E+02  0.91140671459E+02 0.  0.
         11    1    3    3    0    0 -0.24267645845E+02  0.35693089672E+02  0.43018356495E+02  0.60938446657E+02  0.51100000000E-03 0. -1.
         22    1    1    0    0    0  0.26816184246E+01 -0.21426221001E+02 -0.19765234187E+02  0.29273512024E+02  0.00000000000E+00 0. -1.
</event>
<event>
 5    1  0.6650580E-004  0.9118800E+02  0.7818608E-02  0.1130116E+00
         25   -1    0    0    0    0  0.00000000000E+00  0.00000000000E+00  0.99999998245E-14  0.12500000000E+03  0.12500000000E+03 0.  0.
        -11    1    3    3    0    0 -0.76069293615E+01 -0.32536793442E+02 -0.22966856396E+02  0.40546082360E+02  0.51100000000E-03 0.  1.
         23    2    1    0    0    0  0.25254630056E+00 -0.10694573861E+02  0.27172090908E+02  0.95797941613E+02  0.91238617938E+02 0.  0.
         11    1    3    3    0    0  0.78594756621E+01  0.21842219581E+02  0.50138947304E+02  0.55251859253E+02  0.51100000000E-03 0. -1.
         22    1    1    0    0    0 -0.25254630056E+00  0.10694573861E+02 -0.27172090908E+02  0.29202058387E+02  0.00000000000E+00 0. -1.
</event>
<event>
 5    1  0.6650580E-004  0.9118800E+02  0.7818608E-02  0.1130116E+00
         25   -1    0    0    0    0  0.00000000000E+00  0.00000000000E+00  0.99999998245E-14  0.12500000000E+03  0.12500000000E+03 0.  0.
        -11    1    3    3    0    0  0.48517022856E+02 -0.11054443056E+02 -0.37645426365E+01  0.49902645217E+02  0.51100000000E-03 0.  1.
         23    2    1    0    0    0  0.66967598650E+01 -0.19149378385E+02 -0.20952134739E+02  0.95836028471E+02  0.91290783313E+02 0.  0.
         11    1    3    3    0    0 -0.41820262991E+02 -0.80949353284E+01 -0.17187592102E+02  0.45933383254E+02  0.51100000000E-03 0. -1.
         22    1    1    0    0    0 -0.66967598650E+01  0.19149378385E+02  0.20952134739E+02  0.29163971529E+02  0.00000000000E+00 0. -1.
</event>
<event>
 5    1  0.6650580E-004  0.9118800E+02  0.7818608E-02  0.1130116E+00
         25   -1    0    0    0    0  0.00000000000E+00  0.00000000000E+00  0.99999998245E-14  0.12500000000E+03  0.12500000000E+03 0.  0.
        -11    1    3    3    0    0 -0.46748828834E+02 -0.11506339965E+02  0.12466829180E+02  0.49731988567E+02  0.51100000000E-03 0. -1.
         23    2    1    0    0    0 -0.21040206581E+02  0.20388500985E+02 -0.66774585036E+01  0.94950545471E+02  0.90070174685E+02 0.  0.
         11    1    3    3    0    0  0.25708622253E+02  0.31894840950E+02 -0.19144287684E+02  0.45218556905E+02  0.51100000000E-03 0.  1.
         22    1    1    0    0    0  0.21040206581E+02 -0.20388500985E+02  0.66774585036E+01  0.30049454529E+02  0.00000000000E+00 0.  1.
</event>
<event>
 5    1  0.6650580E-004  0.9118800E+02  0.7818608E-02  0.1130116E+00
         25   -1    0    0    0    0  0.00000000000E+00  0.00000000000E+00  0.99999998245E-14  0.12500000000E+03  0.12500000000E+03 0.  0.
        -11    1    3    3    0    0 -0.70768892718E+00  0.31669220992E+02 -0.14325949728E+02  0.34765977877E+02  0.51100000000E-03 0.  1.
         23    2    1    0    0    0 -0.14325351473E+02 -0.22807924603E+02  0.10408085798E+02  0.96125350747E+02  0.91686082296E+02 0.  0.
         11    1    3    3    0    0 -0.13617662546E+02 -0.54477145594E+02  0.24734035527E+02  0.61359372870E+02  0.51100000000E-03 0. -1.
         22    1    1    0    0    0  0.14325351473E+02  0.22807924603E+02 -0.10408085798E+02  0.28874649253E+02  0.00000000000E+00 0. -1.
</event>
<event>
 5    1  0.6650580E-004  0.9118800E+02  0.7818608E-02  0.1130116E+00
         25   -1    0    0    0    0  0.00000000000E+00  0.00000000000E+00  0.99999998245E-14  0.12500000000E+03  0.12500000000E+03 0.  0.
        -11    1    3    3    0    0 -0.42723275692E+02 -0.18233066099E+02 -0.12971499877E+01  0.46469404812E+02  0.51100000000E-03 0. -1.
         23    2    1    0    0    0  0.11139609270E+02 -0.12961384197E+02  0.14216703950E+02  0.10276932196E+03  0.10033608767E+03 0.  0.
         11    1    3    3    0    0  0.53862884962E+02  0.52716819016E+01  0.15513853937E+02  0.56299917147E+02  0.51100000000E-03 0.  1.
         22    1    1    0    0    0 -0.11139609270E+02  0.12961384197E+02 -0.14216703950E+02  0.22230678042E+02  0.00000000000E+00 0.  1.
</event>
<event>
 5    1  0.6650580E-004  0.9118800E+02  0.7818608E-02  0.1130116E+00
         25   -1    0    0    0    0  0.00000000000E+00  0.00000000000E+00  0.99999998245E-14  0.12500000000E+03  0.12500000000E+03 0.  0.
        -11    1    3    3    0    0  0.10168229524E+02  0.35664357104E+02 -0.69320981866E+01  0.37727884182E+02  0.51100000000E-03 0.  1.
         23    2    1    0    0    0 -0.13379067725E+02  0.10397260303E+02 -0.37499434979E+02  0.83850150684E+02  0.73058453795E+02 0.  0.
         11    1    3    3    0    0 -0.23547297249E+02 -0.25267096801E+02 -0.30567336792E+02  0.46122266502E+02  0.51100000000E-03 0. -1.
         22    1    1    0    0    0  0.13379067725E+02 -0.10397260303E+02  0.37499434979E+02  0.41149849316E+02  0.00000000000E+00 0. -1.
</event>
<event>
 5    1  0.6650580E-004  0.9118800E+02  0.7818608E-02  0.1130116E+00
         25   -1    0    0    0    0  0.00000000000E+00  0.00000000000E+00  0.99999998245E-14  0.12500000000E+03  0.12500000000E+03 0.  0.
        -11    1    3    3    0    0 -0.33294425358E+02  0.25309315559E+02 -0.38151654166E+02  0.56609442055E+02  0.51100000000E-03 0.  1.
         23    2    1    0    0    0 -0.93207927639E+01  0.78784253377E+01 -0.36742502531E+02  0.86283617734E+02  0.77109690918E+02 0.  0.
         11    1    3    3    0    0  0.23973632594E+02 -0.17430890221E+02  0.14091516355E+01  0.29674175679E+02  0.51100000000E-03 0. -1.
         22    1    1    0    0    0  0.93207927639E+01 -0.78784253377E+01  0.36742502531E+02  0.38716382266E+02  0.00000000000E+00 0.  1.
</event>
<event>
 5    1  0.6650580E-004  0.9118800E+02  0.7818608E-02  0.1130116E+00
         25   -1    0    0    0    0  0.00000000000E+00  0.00000000000E+00  0.99999998245E-14  0.12500000000E+03  0.12500000000E+03 0.  0.
        -11    1    3    3    0    0  0.23708071126E+02  0.28693729623E+02  0.40946289676E+02  0.55335353931E+02  0.51100000000E-03 0. -1.
         23    2    1    0    0    0  0.23880089292E+02 -0.27729110003E+01  0.23802080196E+02  0.91169736600E+02  0.84660700151E+02 0.  0.
         11    1    3    3    0    0  0.17201816634E+00 -0.31466640623E+02 -0.17144209480E+02  0.35834382669E+02  0.51100000000E-03 0.  1.
         22    1    1    0    0    0 -0.23880089292E+02  0.27729110003E+01 -0.23802080196E+02  0.33830263400E+02  0.00000000000E+00 0. -1.
</event>
<event>
 5    1  0.6650580E-004  0.9118800E+02  0.7818608E-02  0.1130116E+00
         25   -1    0    0    0    0  0.00000000000E+00  0.00000000000E+00  0.99999998245E-14  0.12500000000E+03  0.12500000000E+03 0.  0.
        -11    1    3    3    0    0 -0.16770899663E+02  0.45366175702E+02  0.61769327127E+01  0.48759691051E+02  0.51100000000E-03 0.  1.
         23    2    1    0    0    0 -0.55626908737E+01  0.14387231910E+02 -0.25973153430E+02  0.94791711884E+02  0.89849473961E+02 0.  0.
         11    1    3    3    0    0  0.11208208789E+02 -0.30978943793E+02 -0.32150086143E+02  0.46032020834E+02  0.51100000000E-03 0. -1.
         22    1    1    0    0    0  0.55626908737E+01 -0.14387231910E+02  0.25973153430E+02  0.30208288116E+02  0.00000000000E+00 0.  1.
</event>
<event>
 5    1  0.6650580E-004  0.9118800E+02  0.7818608E-02  0.1130116E+00
         25   -1    0    0    0    0  0.00000000000E+00  0.00000000000E+00  0.99999998245E-14  0.12500000000E+03  0.12500000000E+03 0.  0.
        -11    1    3    3    0    0  0.28555782264E+02 -0.40096692252E+02 -0.78757397832E+01  0.49851827526E+02  0.51100000000E-03 0.  1.
         23    2    1    0    0    0  0.76314549630E+01  0.14209340053E+02  0.15059159146E+01  0.10880085705E+03  0.10758816971E+03 0.  0.
         11    1    3    3    0    0 -0.20924327301E+02  0.54306032306E+02  0.93816556978E+01  0.58949029523E+02  0.51100000000E-03 0. -1.
         22    1    1    0    0    0 -0.76314549630E+01 -0.14209340053E+02 -0.15059159146E+01  0.16199142951E+02  0.00000000000E+00 0. -1.
</event>
<event>
 5    1  0.6650580E-004  0.9118800E+02  0.7818608E-02  0.1130116E+00
         25   -1    0    0    0    0  0.00000000000E+00  0.00000000000E+00  0.99999998245E-14  0.12500000000E+03  0.12500000000E+03 0.  0.
        -11    1    3    3    0    0  0.21165946523E+02 -0.18663438685E+02 -0.26611490255E+02  0.38787789955E+02  0.51100000000E-03 0.  1.
         23    2    1    0    0    0 -0.11667650984E+02 -0.18690878884E+02  0.19623199170E+02  0.95494865216E+02  0.90822443834E+02 0.  0.
         11    1    3    3    0    0 -0.32833597507E+02 -0.27440198821E-01  0.46234689425E+02  0.56707075261E+02  0.51100000000E-03 0. -1.
         22    1    1    0    0    0  0.11667650984E+02  0.18690878884E+02 -0.19623199170E+02  0.29505134784E+02  0.00000000000E+00 0. -1.
</event>
<event>
 5    1  0.6650580E-004  0.9118800E+02  0.7818608E-02  0.1130116E+00
         25   -1    0    0    0    0  0.00000000000E+00  0.00000000000E+00  0.99999998245E-14  0.12500000000E+03  0.12500000000E+03 0.  0.
        -11    1    3    3    0    0 -0.44609062850E+01 -0.12752887374E+00 -0.40965988707E+02  0.41208350847E+02  0.51100000000E-03 0. -1.
         23    2    1    0    0    0 -0.43748269717E+01  0.26173252362E+02  0.84189025973E+01  0.97160169340E+02  0.93086209155E+02 0.  0.
         11    1    3    3    0    0  0.86079313294E-01  0.26300781236E+02  0.49384891304E+02  0.55951818493E+02  0.51100000000E-03 0.  1.
         22    1    1    0    0    0  0.43748269717E+01 -0.26173252362E+02 -0.84189025973E+01  0.27839830660E+02  0.00000000000E+00 0.  1.
</event>
<event>
 5    1  0.6650580E-004  0.9118800E+02  0.7818608E-02  0.1130116E+00
         25   -1    0    0    0    0  0.00000000000E+00  0.00000000000E+00  0.99999998245E-14  0.12500000000E+03  0.12500000000E+03 0.  0.
        -11    1    3    3    0    0  0.20615570689E+01  0.35097450673E+02  0.20797428420E+02  0.40848673056E+02  0.51100000000E-03 0.  1.
         23    2    1    0    0    0 -0.24385508548E+02 -0.11365416602E+02  0.13787609167E+02  0.94768825888E+02  0.89817628960E+02 0.  0.
         11    1    3    3    0    0 -0.26447065617E+02 -0.46462867275E+02 -0.70098192526E+01  0.53920152832E+02  0.51100000000E-03 0. -1.
         22    1    1    0    0    0  0.24385508548E+02  0.11365416602E+02 -0.13787609167E+02  0.30231174112E+02  0.00000000000E+00 0. -1.
</event>
<event>
 5    1  0.6650580E-004  0.9118800E+02  0.7818608E-02  0.1130116E+00
         25   -1    0    0    0    0  0.00000000000E+00  0.00000000000E+00  0.99999998245E-14  0.12500000000E+03  0.12500000000E+03 0.  0.
        -11    1    3    3    0    0  0.38490662364E+02  0.12520501670E+02  0.67095660149E+01  0.41028189427E+02  0.51100000000E-03 0.  1.
         23    2    1    0    0    0  0.40442127948E+01 -0.28417805637E+02 -0.51711255697E+01  0.95833788830E+02  0.91287716630E+02 0.  0.
         11    1    3    3    0    0 -0.34446449569E+02 -0.40938307307E+02 -0.11880691585E+02  0.54805599403E+02  0.51100000000E-03 0. -1.
         22    1    1    0    0    0 -0.40442127948E+01  0.28417805637E+02  0.51711255697E+01  0.29166211170E+02  0.00000000000E+00 0. -1.
</event>
<event>
 5    1  0.6650580E-004  0.9118800E+02  0.7818608E-02  0.1130116E+00
         25   -1    0    0    0    0  0.00000000000E+00  0.00000000000E+00  0.99999998245E-14  0.12500000000E+03  0.12500000000E+03 0.  0.
        -11    1    3    3    0    0 -0.94145064840E+01 -0.11462982664E+02 -0.54263607609E+02  0.56254528839E+02  0.51100000000E-03 0. -1.
         23    2    1    0    0    0  0.13808106190E+02 -0.12746056564E+02 -0.21326249106E+02  0.96575808624E+02  0.92298169841E+02 0.  0.
         11    1    3    3    0    0  0.23222612674E+02 -0.12830738994E+01  0.32937358503E+02  0.40321279784E+02  0.51100000000E-03 0.  1.
         22    1    1    0    0    0 -0.13808106190E+02  0.12746056564E+02  0.21326249106E+02  0.28424191376E+02  0.00000000000E+00 0. -1.
</event>
<event>
 5    1  0.6650580E-004  0.9118800E+02  0.7818608E-02  0.1130116E+00
         25   -1    0    0    0    0  0.00000000000E+00  0.00000000000E+00  0.99999998245E-14  0.12500000000E+03  0.12500000000E+03 0.  0.
        -11    1    3    3    0    0  0.21926617164E+02 -0.26763423506E+02  0.15391491332E+02  0.37867603353E+02  0.51100000000E-03 0.  1.
         23    2    1    0    0    0 -0.29634938660E+02 -0.97099754608E+01  0.89447584844E+01  0.92557405819E+02  0.86685358942E+02 0.  0.
         11    1    3    3    0    0 -0.51561555824E+02  0.17053448045E+02 -0.64467328473E+01  0.54689802467E+02  0.51100000000E-03 0. -1.
         22    1    1    0    0    0  0.29634938660E+02  0.97099754608E+01 -0.89447584844E+01  0.32442594181E+02  0.00000000000E+00 0. -1.
</event>
<event>
 5    1  0.6650580E-004  0.9118800E+02  0.7818608E-02  0.1130116E+00
         25   -1    0    0    0    0  0.00000000000E+00  0.00000000000E+00  0.99999998245E-14  0.12500000000E+03  0.12500000000E+03 0.  0.
        -11    1    3    3    0    0  0.17087211195E+02  0.58911424328E+02 -0.70706152775E+01  0.61745625784E+02  0.51100000000E-03 0. -1.
         23    2    1    0    0    0  0.88918357267E+01  0.28645264619E+02  0.34245920815E+01  0.94811529376E+02  0.89877040138E+02 0.  0.
         11    1    3    3    0    0 -0.81953754688E+01 -0.30266159709E+02  0.10495207359E+02  0.33065903592E+02  0.51100000000E-03 0.  1.
         22    1    1    0    0    0 -0.88918357267E+01 -0.28645264619E+02 -0.34245920815E+01  0.30188470624E+02  0.00000000000E+00 0. -1.
</event>
<event>
 5    1  0.6650580E-004  0.9118800E+02  0.7818608E-02  0.1130116E+00
         25   -1    0    0    0    0  0.00000000000E+00  0.00000000000E+00  0.99999998245E-14  0.12500000000E+03  0.12500000000E+03 0.  0.
        -11    1    3    3    0    0 -0.22658112280E+02 -0.46070104751E+02  0.20455864071E+02  0.55265603941E+02  0.51100000000E-03 0.  1.
         23    2    1    0    0    0  0.10199911172E+02 -0.26330306277E+02  0.10551260418E+02  0.94856139714E+02  0.89939062306E+02 0.  0.
         11    1    3    3    0    0  0.32858023452E+02  0.19739798474E+02 -0.99046036540E+01  0.39590535772E+02  0.51100000000E-03 0. -1.
         22    1    1    0    0    0 -0.10199911172E+02  0.26330306277E+02 -0.10551260418E+02  0.30143860286E+02  0.00000000000E+00 0.  1.
</event>
<event>
 5    1  0.6650580E-004  0.9118800E+02  0.7818608E-02  0.1130116E+00
         25   -1    0    0    0    0  0.00000000000E+00  0.00000000000E+00  0.99999998245E-14  0.12500000000E+03  0.12500000000E+03 0.  0.
        -11    1    3    3    0    0 -0.22340939074E+02 -0.18165867064E+02  0.24576465985E+02  0.37856557760E+02  0.51100000000E-03 0.  1.
         23    2    1    0    0    0 -0.80339972034E+01 -0.33668299819E+01 -0.28719029318E+02  0.94988947034E+02  0.90123452877E+02 0.  0.
         11    1    3    3    0    0  0.14306941870E+02  0.14799037082E+02 -0.53295495303E+02  0.57132389273E+02  0.51100000000E-03 0. -1.
         22    1    1    0    0    0  0.80339972034E+01  0.33668299819E+01  0.28719029318E+02  0.30011052966E+02  0.00000000000E+00 0. -1.
</event>
<event>
 5    1  0.6650580E-004  0.9118800E+02  0.7818608E-02  0.1130116E+00
         25   -1    0    0    0    0  0.00000000000E+00  0.00000000000E+00  0.99999998245E-14  0.12500000000E+03  0.12500000000E+03 0.  0.
        -11    1    3    3    0    0  0.35091469257E+02 -0.21582086298E+02  0.45701776044E+02  0.61529261310E+02  0.51100000000E-03 0.  1.
         23    2    1    0    0    0  0.18038502829E+02 -0.15098700079E+02  0.15449974163E+02  0.96856438925E+02  0.92677449961E+02 0.  0.
         11    1    3    3    0    0 -0.17052966429E+02  0.64833862188E+01 -0.30251801881E+02  0.35327177614E+02  0.51100000000E-03 0. -1.
         22    1    1    0    0    0 -0.18038502829E+02  0.15098700079E+02 -0.15449974163E+02  0.28143561075E+02  0.00000000000E+00 0.  1.
</event>
<event>
 5    1  0.6650580E-004  0.9118800E+02  0.7818608E-02  0.1130116E+00
         25   -1    0    0    0    0  0.00000000000E+00  0.00000000000E+00  0.99999998245E-14  0.12500000000E+03  0.12500000000E+03 0.  0.
        -11    1    3    3    0    0 -0.37770424378E+02 -0.37683561526E+02 -0.30580160217E+02  0.61496357340E+02  0.51100000000E-03 0. -1.
         23    2    1    0    0    0 -0.23941673851E+02 -0.15267248988E+02 -0.10094638660E+02  0.94863736660E+02  0.89949620149E+02 0.  0.
         11    1    3    3    0    0  0.13828750527E+02  0.22416312538E+02  0.20485521557E+02  0.33367379319E+02  0.51100000000E-03 0.  1.
         22    1    1    0    0    0  0.23941673851E+02  0.15267248988E+02  0.10094638660E+02  0.30136263340E+02  0.00000000000E+00 0. -1.
</event>
<event>
 5    1  0.6650580E-004  0.9118800E+02  0.7818608E-02  0.1130116E+00
         25   -1    0    0    0    0  0.00000000000E+00  0.00000000000E+00  0.99999998245E-14  0.12500000000E+03  0.12500000000E+03 0.  0.
        -11    1    3    3    0    0  0.44548516188E+01  0.11143234374E+02  0.47842748317E+02  0.49324901845E+02  0.51100000000E-03 0. -1.
         23    2    1    0    0    0 -0.15458017155E+02  0.25247038227E+02  0.11200798983E+02  0.93348441879E+02  0.87818622568E+02 0.  0.
         11    1    3    3    0    0 -0.19912868774E+02  0.14103803853E+02 -0.36641949333E+02  0.44023540034E+02  0.51100000000E-03 0.  1.
         22    1    1    0    0    0  0.15458017155E+02 -0.25247038227E+02 -0.11200798983E+02  0.31651558121E+02  0.00000000000E+00 0. -1.
</event>
<event>
 5    1  0.6650580E-004  0.9118800E+02  0.7818608E-02  0.1130116E+00
         25   -1    0    0    0    0  0.00000000000E+00  0.00000000000E+00  0.99999998245E-14  0.12500000000E+03  0.12500000000E+03 0.  0.
        -11    1    3    3    0    0  0.44136127932E+02  0.36139817204E+01  0.43593226188E+02  0.62140389623E+02  0.51100000000E-03 0.  1.
         23    2    1    0    0    0  0.13595244646E+02  0.37311302274E+01  0.90578354733E+01  0.10824301957E+03  0.10693808906E+03 0.  0.
         11    1    3    3    0    0 -0.30540883287E+02  0.11714850704E+00 -0.34535390715E+02  0.46102629944E+02  0.51100000000E-03 0. -1.
         22    1    1    0    0    0 -0.13595244646E+02 -0.37311302274E+01 -0.90578354733E+01  0.16756980432E+02  0.00000000000E+00 0.  1.
</event>
<event>
 5    1  0.6650580E-004  0.9118800E+02  0.7818608E-02  0.1130116E+00
         25   -1    0    0    0    0  0.00000000000E+00  0.00000000000E+00  0.99999998245E-14  0.12500000000E+03  0.12500000000E+03 0.  0.
        -11    1    3    3    0    0 -0.39778593000E+02 -0.16466925150E+02 -0.60706713320E+01  0.43478145495E+02  0.51100000000E-03 0.  1.
         23    2    1    0    0    0  0.56573722262E+01 -0.20398254267E+02  0.19888468344E+02  0.95954418396E+02  0.91452745170E+02 0.  0.
         11    1    3    3    0    0  0.45435965226E+02 -0.39313291173E+01  0.25959139676E+02  0.52476272902E+02  0.51100000000E-03 0. -1.
         22    1    1    0    0    0 -0.56573722262E+01  0.20398254267E+02 -0.19888468344E+02  0.29045581604E+02  0.00000000000E+00 0.  1.
</event>
<event>
 5    1  0.6650580E-004  0.9118800E+02  0.7818608E-02  0.1130116E+00
         25   -1    0    0    0    0  0.00000000000E+00  0.00000000000E+00  0.99999998245E-14  0.12500000000E+03  0.12500000000E+03 0.  0.
        -11    1    3    3    0    0 -0.49478655509E+02  0.15231491910E+02  0.22346113683E+02  0.56386917754E+02  0.51100000000E-03 0.  1.
         23    2    1    0    0    0 -0.24825097718E+02  0.11370449144E+02 -0.88139441932E+01  0.96307523588E+02  0.91934111716E+02 0.  0.
         11    1    3    3    0    0  0.24653557792E+02 -0.38610427660E+01 -0.31160057876E+02  0.39920605834E+02  0.51100000000E-03 0. -1.
         22    1    1    0    0    0  0.24825097718E+02 -0.11370449144E+02  0.88139441932E+01  0.28692476412E+02  0.00000000000E+00 0.  1.
</event>
<event>
 5    1  0.6650580E-004  0.9118800E+02  0.7818608E-02  0.1130116E+00
         25   -1    0    0    0    0  0.00000000000E+00  0.00000000000E+00  0.99999998245E-14  0.12500000000E+03  0.12500000000E+03 0.  0.
        -11    1    3    3    0    0  0.40294728666E+02 -0.30241515228E+02 -0.20216910826E+02  0.54285706085E+02  0.51100000000E-03 0.  1.
         23    2    1    0    0    0 -0.10481335031E+00 -0.16138959967E+02 -0.22699391874E+02  0.97147901227E+02  0.93069733569E+02 0.  0.
         11    1    3    3    0    0 -0.40399542016E+02  0.14102555261E+02 -0.24824810477E+01  0.42862195142E+02  0.51100000000E-03 0. -1.
         22    1    1    0    0    0  0.10481335031E+00  0.16138959967E+02  0.22699391874E+02  0.27852098773E+02  0.00000000000E+00 0.  1.
</event>
<event>
 5    1  0.6650580E-004  0.9118800E+02  0.7818608E-02  0.1130116E+00
         25   -1    0    0    0    0  0.00000000000E+00  0.00000000000E+00  0.99999998245E-14  0.12500000000E+03  0.12500000000E+03 0.  0.
        -11    1    3    3    0    0 -0.39029307291E+02  0.78322214999E+01 -0.10219379456E+02  0.41098251033E+02  0.51100000000E-03 0.  1.
         23    2    1    0    0    0 -0.32619192470E+02 -0.21886097837E+02 -0.28405599909E+02  0.76524324635E+02  0.59212170697E+02 0.  0.
         11    1    3    3    0    0  0.64101148205E+01 -0.29718319337E+02 -0.18186220453E+02  0.35426073602E+02  0.51100000000E-03 0. -1.
         22    1    1    0    0    0  0.32619192470E+02  0.21886097837E+02  0.28405599909E+02  0.48475675365E+02  0.00000000000E+00 0. -1.
</event>
<event>
 5    1  0.6650580E-004  0.9118800E+02  0.7818608E-02  0.1130116E+00
         25   -1    0    0    0    0  0.00000000000E+00  0.00000000000E+00  0.99999998245E-14  0.12500000000E+03  0.12500000000E+03 0.  0.
        -11    1    3    3    0    0 -0.20840194248E+02 -0.24888471044E+02 -0.13569734316E+02  0.35183623703E+02  0.51100000000E-03 0. -1.
         23    2    1    0    0    0  0.83789209157E+01  0.96567059837E+01  0.26471732046E+02  0.95602536102E+02  0.90970511845E+02 0.  0.
         11    1    3    3    0    0  0.29219115164E+02  0.34545177027E+02  0.40041466361E+02  0.60418912399E+02  0.51100000000E-03 0.  1.
         22    1    1    0    0    0 -0.83789209157E+01 -0.96567059837E+01 -0.26471732046E+02  0.29397463898E+02  0.00000000000E+00 0.  1.
</event>
<event>
 5    1  0.6650580E-004  0.9118800E+02  0.7818608E-02  0.1130116E+00
         25   -1    0    0    0    0  0.00000000000E+00  0.00000000000E+00  0.99999998245E-14  0.12500000000E+03  0.12500000000E+03 0.  0.
        -11    1    3    3    0    0  0.31554790948E+02  0.44610152565E+02  0.12944399401E+02  0.56154501331E+02  0.51100000000E-03 0.  1.
         23    2    1    0    0    0  0.27123007205E+02  0.50209547307E+01  0.27184179070E+01  0.97282545172E+02  0.93250395672E+02 0.  0.
         11    1    3    3    0    0 -0.44317837429E+01 -0.39589197835E+02 -0.10225981494E+02  0.41128043840E+02  0.51100000000E-03 0. -1.
         22    1    1    0    0    0 -0.27123007205E+02 -0.50209547307E+01 -0.27184179070E+01  0.27717454828E+02  0.00000000000E+00 0. -1.
</event>
<event>
 5    1  0.6650580E-004  0.9118800E+02  0.7818608E-02  0.1130116E+00
         25   -1    0    0    0    0  0.00000000000E+00  0.00000000000E+00  0.99999998245E-14  0.12500000000E+03  0.12500000000E+03 0.  0.
        -11    1    3    3    0    0 -0.23655166798E+02  0.45221693895E+02 -0.33817549614E+02  0.61222505479E+02  0.51100000000E-03 0.  1.
         23    2    1    0    0    0 -0.56372014746E+01  0.24636817297E+02 -0.89615873807E+01  0.98184689907E+02  0.94451958565E+02 0.  0.
         11    1    3    3    0    0  0.18017965323E+02 -0.20584876598E+02  0.24855962233E+02  0.36962184428E+02  0.51100000000E-03 0. -1.
         22    1    1    0    0    0  0.56372014746E+01 -0.24636817297E+02  0.89615873807E+01  0.26815310093E+02  0.00000000000E+00 0.  1.
</event>
<event>
 5    1  0.6650580E-004  0.9118800E+02  0.7818608E-02  0.1130116E+00
         25   -1    0    0    0    0  0.00000000000E+00  0.00000000000E+00  0.99999998245E-14  0.12500000000E+03  0.12500000000E+03 0.  0.
        -11    1    3    3    0    0 -0.43729224572E+02 -0.74966300986E+01  0.46057568278E+01  0.44605577462E+02  0.51100000000E-03 0. -1.
         23    2    1    0    0    0 -0.93177652681E+01  0.28689467723E+02  0.42103675197E+01  0.94542923606E+02  0.89502686560E+02 0.  0.
         11    1    3    3    0    0  0.34411459304E+02  0.36186097822E+02 -0.39538930811E+00  0.49937346144E+02  0.51100000000E-03 0.  1.
         22    1    1    0    0    0  0.93177652681E+01 -0.28689467723E+02 -0.42103675197E+01  0.30457076394E+02  0.00000000000E+00 0.  1.
</event>
<event>
 5    1  0.6650580E-004  0.9118800E+02  0.7818608E-02  0.1130116E+00
         25   -1    0    0    0    0  0.00000000000E+00  0.00000000000E+00  0.99999998245E-14  0.12500000000E+03  0.12500000000E+03 0.  0.
        -11    1    3    3    0    0 -0.14933834985E+02 -0.22496861150E+02  0.35800924183E+02  0.44842327789E+02  0.51100000000E-03 0.  1.
         23    2    1    0    0    0 -0.79888286792E+01  0.23593784464E+02  0.15335285502E+02  0.95748349954E+02  0.91170650367E+02 0.  0.
         11    1    3    3    0    0  0.69450063059E+01  0.46090645614E+02 -0.20465638681E+02  0.50906022164E+02  0.51100000000E-03 0. -1.
         22    1    1    0    0    0  0.79888286792E+01 -0.23593784464E+02 -0.15335285502E+02  0.29251650046E+02  0.00000000000E+00 0. -1.
</event>
<event>
 5    1  0.6650580E-004  0.9118800E+02  0.7818608E-02  0.1130116E+00
         25   -1    0    0    0    0  0.00000000000E+00  0.00000000000E+00  0.99999998245E-14  0.12500000000E+03  0.12500000000E+03 0.  0.
        -11    1    3    3    0    0 -0.38454135657E+01  0.16001151008E+02 -0.45971446886E+02  0.48828249693E+02  0.51100000000E-03 0.  1.
         23    2    1    0    0    0 -0.10749528491E+02  0.22309388876E+02  0.42159755092E+01  0.99879577147E+02  0.96668993409E+02 0.  0.
         11    1    3    3    0    0 -0.69041149249E+01  0.63082378689E+01  0.50187422395E+02  0.51051327454E+02  0.51100000000E-03 0. -1.
         22    1    1    0    0    0  0.10749528491E+02 -0.22309388876E+02 -0.42159755092E+01  0.25120422853E+02  0.00000000000E+00 0.  1.
</event>
<event>
 5    1  0.6650580E-004  0.9118800E+02  0.7818608E-02  0.1130116E+00
         25   -1    0    0    0    0  0.00000000000E+00  0.00000000000E+00  0.99999998245E-14  0.12500000000E+03  0.12500000000E+03 0.  0.
        -11    1    3    3    0    0  0.33692381093E+02  0.46916385124E+02 -0.12970209289E+02  0.59199240418E+02  0.51100000000E-03 0. -1.
         23    2    1    0    0    0  0.25486213120E+02  0.11229393688E+02 -0.44418812358E+01  0.96797577219E+02  0.92598025383E+02 0.  0.
         11    1    3    3    0    0 -0.82061679723E+01 -0.35686991436E+02  0.85283280535E+01  0.37598336801E+02  0.51100000000E-03 0.  1.
         22    1    1    0    0    0 -0.25486213120E+02 -0.11229393688E+02  0.44418812358E+01  0.28202422781E+02  0.00000000000E+00 0. -1.
</event>
<event>
 5    1  0.6650580E-004  0.9118800E+02  0.7818608E-02  0.1130116E+00
         25   -1    0    0    0    0  0.00000000000E+00  0.00000000000E+00  0.99999998245E-14  0.12500000000E+03  0.12500000000E+03 0.  0.
        -11    1    3    3    0    0 -0.43517287866E+02 -0.13230231207E+02  0.32718595143E+02  0.56029455016E+02  0.51100000000E-03 0.  1.
         23    2    1    0    0    0 -0.22778395357E+02  0.13438484964E+02  0.10078242985E+02  0.96697718204E+02  0.92463125359E+02 0.  0.
         11    1    3    3    0    0  0.20738892509E+02  0.26668716171E+02 -0.22640352157E+02  0.40668263189E+02  0.51100000000E-03 0. -1.
         22    1    1    0    0    0  0.22778395357E+02 -0.13438484964E+02 -0.10078242985E+02  0.28302281796E+02  0.00000000000E+00 0.  1.
</event>
<event>
 5    1  0.6650580E-004  0.9118800E+02  0.7818608E-02  0.1130116E+00
         25   -1    0    0    0    0  0.00000000000E+00  0.00000000000E+00  0.99999998245E-14  0.12500000000E+03  0.12500000000E+03 0.  0.
        -11    1    3    3    0    0 -0.19319465618E+02 -0.24872575045E+02 -0.35589279740E+02  0.47523505488E+02  0.51100000000E-03 0. -1.
         23    2    1    0    0    0 -0.23811635432E+01  0.19032290607E+02 -0.20461339757E+02  0.96954243632E+02  0.92809271671E+02 0.  0.
         11    1    3    3    0    0  0.16938302075E+02  0.43904865652E+02  0.15127939983E+02  0.49430738145E+02  0.51100000000E-03 0.  1.
         22    1    1    0    0    0  0.23811635432E+01 -0.19032290607E+02  0.20461339757E+02  0.28045756368E+02  0.00000000000E+00 0.  1.
</event>
<event>
 5    1  0.6650580E-004  0.9118800E+02  0.7818608E-02  0.1130116E+00
         25   -1    0    0    0    0  0.00000000000E+00  0.00000000000E+00  0.99999998245E-14  0.12500000000E+03  0.12500000000E+03 0.  0.
        -11    1    3    3    0    0  0.20060642548E+02 -0.23668294386E+02 -0.40422770936E+02  0.50957020605E+02  0.51100000000E-03 0. -1.
         23    2    1    0    0    0 -0.14263143790E+02 -0.22817260301E+02 -0.11967004268E+02  0.95550486769E+02  0.90898964198E+02 0.  0.
         11    1    3    3    0    0 -0.34323786338E+02  0.85103408576E+00  0.28455766667E+02  0.44593466163E+02  0.51100000000E-03 0.  1.
         22    1    1    0    0    0  0.14263143790E+02  0.22817260301E+02  0.11967004268E+02  0.29449513231E+02  0.00000000000E+00 0. -1.
</event>
<event>
 5    1  0.6650580E-004  0.9118800E+02  0.7818608E-02  0.1130116E+00
         25   -1    0    0    0    0  0.00000000000E+00  0.00000000000E+00  0.99999998245E-14  0.12500000000E+03  0.12500000000E+03 0.  0.
        -11    1    3    3    0    0  0.34940812946E+02  0.51563825225E+02 -0.37281282957E+01  0.62398617148E+02  0.51100000000E-03 0. -1.
         23    2    1    0    0    0  0.13893278371E+02  0.24970765997E+02 -0.16124721588E+01  0.96378986657E+02  0.92031226571E+02 0.  0.
         11    1    3    3    0    0 -0.21047534575E+02 -0.26593059228E+02  0.21156561369E+01  0.33980369509E+02  0.51100000000E-03 0.  1.
         22    1    1    0    0    0 -0.13893278371E+02 -0.24970765997E+02  0.16124721588E+01  0.28621013343E+02  0.00000000000E+00 0. -1.
</event>
<event>
 5    1  0.6650580E-004  0.9118800E+02  0.7818608E-02  0.1130116E+00
         25   -1    0    0    0    0  0.00000000000E+00  0.00000000000E+00  0.99999998245E-14  0.12500000000E+03  0.12500000000E+03 0.  0.
        -11    1    3    3    0    0  0.37261588722E+02  0.37291817267E+02 -0.17661321135E+01  0.52746799448E+02  0.51100000000E-03 0. -1.
         23    2    1    0    0    0  0.26241846916E+02 -0.16938439972E+01  0.12741620194E+02  0.95779245010E+02  0.91212999361E+02 0.  0.
         11    1    3    3    0    0 -0.11019741806E+02 -0.38985661265E+02  0.14507752308E+02  0.43032445561E+02  0.51100000000E-03 0.  1.
         22    1    1    0    0    0 -0.26241846916E+02  0.16938439972E+01 -0.12741620194E+02  0.29220754990E+02  0.00000000000E+00 0.  1.
</event>
<event>
 5    1  0.6650580E-004  0.9118800E+02  0.7818608E-02  0.1130116E+00
         25   -1    0    0    0    0  0.00000000000E+00  0.00000000000E+00  0.99999998245E-14  0.12500000000E+03  0.12500000000E+03 0.  0.
        -11    1    3    3    0    0 -0.23588214076E+02 -0.13118054073E+02  0.27998844223E+02  0.38889876113E+02  0.51100000000E-03 0. -1.
         23    2    1    0    0    0  0.93175538039E+01  0.26428488157E+02  0.10725338378E+01  0.96956602845E+02  0.92812449118E+02 0.  0.
         11    1    3    3    0    0  0.32905767880E+02  0.39546542230E+02 -0.26926310386E+02  0.58066726732E+02  0.51100000000E-03 0.  1.
         22    1    1    0    0    0 -0.93175538039E+01 -0.26428488157E+02 -0.10725338378E+01  0.28043397155E+02  0.00000000000E+00 0.  1.
</event>
<event>
 5    1  0.6650580E-004  0.9118800E+02  0.7818608E-02  0.1130116E+00
         25   -1    0    0    0    0  0.00000000000E+00  0.00000000000E+00  0.99999998245E-14  0.12500000000E+03  0.12500000000E+03 0.  0.
        -11    1    3    3    0    0 -0.34542176416E+02 -0.15381925515E+02 -0.25519073526E+02  0.45617855035E+02  0.51100000000E-03 0.  1.
         23    2    1    0    0    0  0.12380577135E+02 -0.22792799933E+02 -0.10818249258E+01  0.99039245694E+02  0.95576207413E+02 0.  0.
         11    1    3    3    0    0  0.46922753552E+02 -0.74108744179E+01  0.24437248600E+02  0.53421390659E+02  0.51100000000E-03 0. -1.
         22    1    1    0    0    0 -0.12380577135E+02  0.22792799933E+02  0.10818249258E+01  0.25960754306E+02  0.00000000000E+00 0.  1.
</event>
<event>
 5    1  0.6650580E-004  0.9118800E+02  0.7818608E-02  0.1130116E+00
         25   -1    0    0    0    0  0.00000000000E+00  0.00000000000E+00  0.99999998245E-14  0.12500000000E+03  0.12500000000E+03 0.  0.
        -11    1    3    3    0    0  0.16040397459E+02  0.33678847974E+02  0.98410194175E+01  0.38579849857E+02  0.51100000000E-03 0.  1.
         23    2    1    0    0    0  0.40843843663E+02  0.32091296615E+01  0.20356691674E+02  0.79251634190E+02  0.64714052165E+02 0.  0.
         11    1    3    3    0    0  0.24803446204E+02 -0.30469718313E+02  0.10515672257E+02  0.40671784334E+02  0.51100000000E-03 0. -1.
         22    1    1    0    0    0 -0.40843843663E+02 -0.32091296615E+01 -0.20356691674E+02  0.45748365810E+02  0.00000000000E+00 0.  1.
</event>
<event>
 5    1  0.6650580E-004  0.9118800E+02  0.7818608E-02  0.1130116E+00
         25   -1    0    0    0    0  0.00000000000E+00  0.00000000000E+00  0.99999998245E-14  0.12500000000E+03  0.12500000000E+03 0.  0.
        -11    1    3    3    0    0 -0.10206334181E+02  0.53366625662E+02  0.17157209453E+02  0.56978380360E+02  0.51100000000E-03 0.  1.
         23    2    1    0    0    0 -0.10821911168E+02  0.15291929909E+02  0.22818340397E+02  0.95476559480E+02  0.90797245939E+02 0.  0.
         11    1    3    3    0    0 -0.61557698637E+00 -0.38074695754E+02  0.56611309437E+01  0.38498179120E+02  0.51100000000E-03 0. -1.
         22    1    1    0    0    0  0.10821911168E+02 -0.15291929909E+02 -0.22818340397E+02  0.29523440520E+02  0.00000000000E+00 0. -1.
</event>
<event>
 5    1  0.6650580E-004  0.9118800E+02  0.7818608E-02  0.1130116E+00
         25   -1    0    0    0    0  0.00000000000E+00  0.00000000000E+00  0.99999998245E-14  0.12500000000E+03  0.12500000000E+03 0.  0.
        -11    1    3    3    0    0  0.59582340510E+02  0.97851859926E+01 -0.29256735242E+01  0.60451341850E+02  0.51100000000E-03 0. -1.
         23    2    1    0    0    0  0.25564294366E+02 -0.49357843844E+01  0.53237995488E+01  0.98424862078E+02  0.94769275188E+02 0.  0.
         11    1    3    3    0    0 -0.34018046144E+02 -0.14720970377E+02  0.82494730730E+01  0.37973520229E+02  0.51100000000E-03 0.  1.
         22    1    1    0    0    0 -0.25564294366E+02  0.49357843844E+01 -0.53237995488E+01  0.26575137922E+02  0.00000000000E+00 0. -1.
</event>
<event>
 5    1  0.6650580E-004  0.9118800E+02  0.7818608E-02  0.1130116E+00
         25   -1    0    0    0    0  0.00000000000E+00  0.00000000000E+00  0.99999998245E-14  0.12500000000E+03  0.12500000000E+03 0.  0.
        -11    1    3    3    0    0 -0.21077435055E+02 -0.22119978332E+02  0.19077449183E+02  0.36020838101E+02  0.51100000000E-03 0. -1.
         23    2    1    0    0    0  0.60804147116E+01  0.40575596271E+01 -0.27837315238E+02  0.96218906330E+02  0.91813542479E+02 0.  0.
         11    1    3    3    0    0  0.27157849767E+02  0.26177537959E+02 -0.46914764421E+02  0.60198068229E+02  0.51100000000E-03 0.  1.
         22    1    1    0    0    0 -0.60804147116E+01 -0.40575596271E+01  0.27837315238E+02  0.28781093670E+02  0.00000000000E+00 0.  1.
</event>
<event>
 5    1  0.6650580E-004  0.9118800E+02  0.7818608E-02  0.1130116E+00
         25   -1    0    0    0    0  0.00000000000E+00  0.00000000000E+00  0.99999998245E-14  0.12500000000E+03  0.12500000000E+03 0.  0.
        -11    1    3    3    0    0  0.16737596700E+02 -0.41874370144E+02 -0.33220062858E+02  0.56010557887E+02  0.51100000000E-03 0.  1.
         23    2    1    0    0    0  0.25141413270E+02 -0.10750177804E+02 -0.94320935455E+01  0.96075592094E+02  0.91618218841E+02 0.  0.
         11    1    3    3    0    0  0.84038165699E+01  0.31124192340E+02  0.23787969312E+02  0.40065034207E+02  0.51100000000E-03 0. -1.
         22    1    1    0    0    0 -0.25141413270E+02  0.10750177804E+02  0.94320935455E+01  0.28924407906E+02  0.00000000000E+00 0.  1.
</event>
<event>
 5    1  0.6650580E-004  0.9118800E+02  0.7818608E-02  0.1130116E+00
         25   -1    0    0    0    0  0.00000000000E+00  0.00000000000E+00  0.99999998245E-14  0.12500000000E+03  0.12500000000E+03 0.  0.
        -11    1    3    3    0    0  0.13781902933E+02  0.24361244710E+02  0.19954509801E+02  0.34374315322E+02  0.51100000000E-03 0.  1.
         23    2    1    0    0    0 -0.61590178140E+01 -0.27957655765E+02 -0.54489818065E+01  0.95858012781E+02  0.91320880391E+02 0.  0.
         11    1    3    3    0    0 -0.19940920747E+02 -0.52318900475E+02 -0.25403491607E+02  0.61483697459E+02  0.51100000000E-03 0. -1.
         22    1    1    0    0    0  0.61590178140E+01  0.27957655765E+02  0.54489818065E+01  0.29141987219E+02  0.00000000000E+00 0. -1.
</event>
<event>
 5    1  0.6650580E-004  0.9118800E+02  0.7818608E-02  0.1130116E+00
         25   -1    0    0    0    0  0.00000000000E+00  0.00000000000E+00  0.99999998245E-14  0.12500000000E+03  0.12500000000E+03 0.  0.
        -11    1    3    3    0    0 -0.71544411446E+01 -0.10147777283E+02 -0.60948724163E+02  0.62200565828E+02  0.51100000000E-03 0.  1.
         23    2    1    0    0    0 -0.28330939394E+01 -0.90043278143E+00 -0.31340256278E+02  0.93519071424E+02  0.88061159747E+02 0.  0.
         11    1    3    3    0    0  0.43213472052E+01  0.92473445015E+01  0.29608467885E+02  0.31318505596E+02  0.51100000000E-03 0. -1.
         22    1    1    0    0    0  0.28330939394E+01  0.90043278143E+00  0.31340256278E+02  0.31480928576E+02  0.00000000000E+00 0.  1.
</event>
<event>
 5    1  0.6650580E-004  0.9118800E+02  0.7818608E-02  0.1130116E+00
         25   -1    0    0    0    0  0.00000000000E+00  0.00000000000E+00  0.99999998245E-14  0.12500000000E+03  0.12500000000E+03 0.  0.
        -11    1    3    3    0    0  0.10058719208E+02  0.37906391036E+01 -0.60577861627E+02  0.61524174895E+02  0.51100000000E-03 0. -1.
         23    2    1    0    0    0  0.55592466268E+01 -0.59723629179E+01 -0.28472959023E+02  0.95381024031E+02  0.90665627488E+02 0.  0.
         11    1    3    3    0    0 -0.44994725812E+01 -0.97630020214E+01  0.32104902604E+02  0.33856849136E+02  0.51100000000E-03 0.  1.
         22    1    1    0    0    0 -0.55592466268E+01  0.59723629179E+01  0.28472959023E+02  0.29618975969E+02  0.00000000000E+00 0. -1.
</event>
<event>
 5    1  0.6650580E-004  0.9118800E+02  0.7818608E-02  0.1130116E+00
         25   -1    0    0    0    0  0.00000000000E+00  0.00000000000E+00  0.99999998245E-14  0.12500000000E+03  0.12500000000E+03 0.  0.
        -11    1    3    3    0    0 -0.32646385883E+02  0.61836648275E+00  0.26959103772E+02  0.42343383955E+02  0.51100000000E-03 0.  1.
         23    2    1    0    0    0 -0.15724197583E+02  0.11068346074E+02 -0.22352354906E+02  0.95514640171E+02  0.90849656260E+02 0.  0.
         11    1    3    3    0    0  0.16922188300E+02  0.10449979592E+02 -0.49311458678E+02  0.53171256215E+02  0.51100000000E-03 0. -1.
         22    1    1    0    0    0  0.15724197583E+02 -0.11068346074E+02  0.22352354906E+02  0.29485359829E+02  0.00000000000E+00 0. -1.
</event>
<event>
 5    1  0.6650580E-004  0.9118800E+02  0.7818608E-02  0.1130116E+00
         25   -1    0    0    0    0  0.00000000000E+00  0.00000000000E+00  0.99999998245E-14  0.12500000000E+03  0.12500000000E+03 0.  0.
        -11    1    3    3    0    0  0.12538121705E+02  0.46958427190E+02 -0.36902149084E+02  0.61025134062E+02  0.51100000000E-03 0.  1.
         23    2    1    0    0    0  0.14483341864E+02  0.22037081885E+02 -0.13046416406E+02  0.95578763612E+02  0.90937840875E+02 0.  0.
         11    1    3    3    0    0  0.19452201587E+01 -0.24921345304E+02  0.23855732678E+02  0.34553629550E+02  0.51100000000E-03 0. -1.
         22    1    1    0    0    0 -0.14483341864E+02 -0.22037081885E+02  0.13046416406E+02  0.29421236388E+02  0.00000000000E+00 0.  1.
</event>
<event>
 5    1  0.6650580E-004  0.9118800E+02  0.7818608E-02  0.1130116E+00
         25   -1    0    0    0    0  0.00000000000E+00  0.00000000000E+00  0.99999998245E-14  0.12500000000E+03  0.12500000000E+03 0.  0.
        -11    1    3    3    0    0  0.54994075458E+01 -0.28983524207E+02  0.54393203447E+02  0.61878176607E+02  0.51100000000E-03 0.  1.
         23    2    1    0    0    0  0.88614829687E+01 -0.13597296442E+02  0.25877402217E+02  0.94454095259E+02  0.89378542250E+02 0.  0.
         11    1    3    3    0    0  0.33620754229E+01  0.15386227765E+02 -0.28515801229E+02  0.32575918652E+02  0.51100000000E-03 0. -1.
         22    1    1    0    0    0 -0.88614829687E+01  0.13597296442E+02 -0.25877402217E+02  0.30545904741E+02  0.00000000000E+00 0.  1.
</event>
<event>
 5    1  0.6650580E-004  0.9118800E+02  0.7818608E-02  0.1130116E+00
         25   -1    0    0    0    0  0.00000000000E+00  0.00000000000E+00  0.99999998245E-14  0.12500000000E+03  0.12500000000E+03 0.  0.
        -11    1    3    3    0    0 -0.26836452832E+02 -0.23967328199E+02  0.44270772792E+02  0.57048482411E+02  0.51100000000E-03 0.  1.
         23    2    1    0    0    0 -0.20595520331E+02 -0.62642685279E+01  0.19021870813E+01  0.10338901128E+03  0.10110515723E+03 0.  0.
         11    1    3    3    0    0  0.62409325011E+01  0.17703059671E+02 -0.42368585711E+02  0.46340528866E+02  0.51100000000E-03 0. -1.
         22    1    1    0    0    0  0.20595520331E+02  0.62642685279E+01 -0.19021870813E+01  0.21610988723E+02  0.00000000000E+00 0.  1.
</event>
<event>
 5    1  0.6650580E-004  0.9118800E+02  0.7818608E-02  0.1130116E+00
         25   -1    0    0    0    0  0.00000000000E+00  0.00000000000E+00  0.99999998245E-14  0.12500000000E+03  0.12500000000E+03 0.  0.
        -11    1    3    3    0    0 -0.35120304954E+02 -0.19178389812E+02  0.56643639165E+01  0.40414495849E+02  0.51100000000E-03 0.  1.
         23    2    1    0    0    0  0.19183493747E+02 -0.14482702405E+02  0.16311932056E+02  0.95951175090E+02  0.91448312026E+02 0.  0.
         11    1    3    3    0    0  0.54303798701E+02  0.46956874070E+01  0.10647568139E+02  0.55536679241E+02  0.51100000000E-03 0. -1.
         22    1    1    0    0    0 -0.19183493747E+02  0.14482702405E+02 -0.16311932056E+02  0.29048824910E+02  0.00000000000E+00 0. -1.
</event>
<event>
 5    1  0.6650580E-004  0.9118800E+02  0.7818608E-02  0.1130116E+00
         25   -1    0    0    0    0  0.00000000000E+00  0.00000000000E+00  0.99999998245E-14  0.12500000000E+03  0.12500000000E+03 0.  0.
        -11    1    3    3    0    0 -0.55746367878E+02  0.16047113057E+02 -0.10468879447E+02  0.58947135692E+02  0.51100000000E-03 0.  1.
         23    2    1    0    0    0 -0.20633825697E+02  0.13481439345E+02 -0.17400443592E+02  0.94829162973E+02  0.89901561406E+02 0.  0.
         11    1    3    3    0    0  0.35112542182E+02 -0.25656737121E+01 -0.69315641450E+01  0.35882027281E+02  0.51100000000E-03 0. -1.
         22    1    1    0    0    0  0.20633825697E+02 -0.13481439345E+02  0.17400443592E+02  0.30170837027E+02  0.00000000000E+00 0.  1.
</event>
<event>
 5    1  0.6650580E-004  0.9118800E+02  0.7818608E-02  0.1130116E+00
         25   -1    0    0    0    0  0.00000000000E+00  0.00000000000E+00  0.99999998245E-14  0.12500000000E+03  0.12500000000E+03 0.  0.
        -11    1    3    3    0    0 -0.31415993949E+02 -0.44277330973E+01 -0.43456628392E+02  0.53805650704E+02  0.51100000000E-03 0.  1.
         23    2    1    0    0    0  0.71622647515E+01 -0.48789400393E+01 -0.28545851383E+02  0.95167673181E+02  0.90371003619E+02 0.  0.
         11    1    3    3    0    0  0.38578258701E+02 -0.45120694200E+00  0.14910777009E+02  0.41362022477E+02  0.51100000000E-03 0. -1.
         22    1    1    0    0    0 -0.71622647515E+01  0.48789400393E+01  0.28545851383E+02  0.29832326819E+02  0.00000000000E+00 0.  1.
</event>
<event>
 5    1  0.6650580E-004  0.9118800E+02  0.7818608E-02  0.1130116E+00
         25   -1    0    0    0    0  0.00000000000E+00  0.00000000000E+00  0.99999998245E-14  0.12500000000E+03  0.12500000000E+03 0.  0.
        -11    1    3    3    0    0 -0.16169658410E+02  0.59495591447E+01 -0.38314684351E+02  0.42010357584E+02  0.51100000000E-03 0. -1.
         23    2    1    0    0    0 -0.23614107536E+02 -0.14451572163E+02  0.10462609607E+02  0.95403712859E+02  0.90696903006E+02 0.  0.
         11    1    3    3    0    0 -0.74444491262E+01 -0.20401131308E+02  0.48777293958E+02  0.53393355275E+02  0.51100000000E-03 0.  1.
         22    1    1    0    0    0  0.23614107536E+02  0.14451572163E+02 -0.10462609607E+02  0.29596287141E+02  0.00000000000E+00 0.  1.
</event>
<event>
 5    1  0.6650580E-004  0.9118800E+02  0.7818608E-02  0.1130116E+00
         25   -1    0    0    0    0  0.00000000000E+00  0.00000000000E+00  0.99999998245E-14  0.12500000000E+03  0.12500000000E+03 0.  0.
        -11    1    3    3    0    0  0.10149622621E+02 -0.40457802180E+02 -0.32896352314E+02  0.53122674937E+02  0.51100000000E-03 0. -1.
         23    2    1    0    0    0 -0.42603934330E+01 -0.28219268390E+02  0.55134693811E+01  0.95933242264E+02  0.91423796497E+02 0.  0.
         11    1    3    3    0    0 -0.14410016054E+02  0.12238533790E+02  0.38409821695E+02  0.42810567327E+02  0.51100000000E-03 0.  1.
         22    1    1    0    0    0  0.42603934330E+01  0.28219268390E+02 -0.55134693811E+01  0.29066757736E+02  0.00000000000E+00 0. -1.
</event>
<event>
 5    1  0.6650580E-004  0.9118800E+02  0.7818608E-02  0.1130116E+00
         25   -1    0    0    0    0  0.00000000000E+00  0.00000000000E+00  0.99999998245E-14  0.12500000000E+03  0.12500000000E+03 0.  0.
        -11    1    3    3    0    0 -0.43621699838E+02 -0.22240489925E+02  0.18687576573E+02  0.52409136677E+02  0.51100000000E-03 0.  1.
         23    2    1    0    0    0 -0.27565237190E+02  0.11718347522E+02  0.18151866711E+02  0.89976404595E+02  0.82880040714E+02 0.  0.
         11    1    3    3    0    0  0.16056462648E+02  0.33958837447E+02 -0.53570986108E+00  0.37567267918E+02  0.51100000000E-03 0. -1.
         22    1    1    0    0    0  0.27565237190E+02 -0.11718347522E+02 -0.18151866711E+02  0.35023595405E+02  0.00000000000E+00 0.  1.
</event>
<event>
 5    1  0.6650580E-004  0.9118800E+02  0.7818608E-02  0.1130116E+00
         25   -1    0    0    0    0  0.00000000000E+00  0.00000000000E+00  0.99999998245E-14  0.12500000000E+03  0.12500000000E+03 0.  0.
        -11    1    3    3    0    0  0.22081833691E+02 -0.56098770189E+02 -0.12768359119E+01  0.60301821748E+02  0.51100000000E-03 0. -1.
         23    2    1    0    0    0  0.10830633031E+02 -0.32492288959E+02 -0.12200113164E+02  0.88642136823E+02  0.80842650907E+02 0.  0.
         11    1    3    3    0    0 -0.11251200661E+02  0.23606481230E+02 -0.10923277252E+02  0.28340315075E+02  0.51100000000E-03 0.  1.
         22    1    1    0    0    0 -0.10830633031E+02  0.32492288959E+02  0.12200113164E+02  0.36357863177E+02  0.00000000000E+00 0. -1.
</event>
<event>
 5    1  0.6650580E-004  0.9118800E+02  0.7818608E-02  0.1130116E+00
         25   -1    0    0    0    0  0.00000000000E+00  0.00000000000E+00  0.99999998245E-14  0.12500000000E+03  0.12500000000E+03 0.  0.
        -11    1    3    3    0    0  0.34132300252E+02  0.39598574519E+02 -0.46371100509E+00  0.52280742655E+02  0.51100000000E-03 0. -1.
         23    2    1    0    0    0 -0.76009759528E+01  0.26174255205E+02  0.72574597113E+01  0.96794731123E+02  0.92594183298E+02 0.  0.
         11    1    3    3    0    0 -0.41733276205E+02 -0.13424319314E+02  0.77211707164E+01  0.44513988468E+02  0.51100000000E-03 0.  1.
         22    1    1    0    0    0  0.76009759528E+01 -0.26174255205E+02 -0.72574597113E+01  0.28205268877E+02  0.00000000000E+00 0.  1.
</event>
<event>
 5    1  0.6650580E-004  0.9118800E+02  0.7818608E-02  0.1130116E+00
         25   -1    0    0    0    0  0.00000000000E+00  0.00000000000E+00  0.99999998245E-14  0.12500000000E+03  0.12500000000E+03 0.  0.
        -11    1    3    3    0    0  0.55126713962E+02  0.70375599685E+01 -0.10205275734E+02  0.56503358268E+02  0.51100000000E-03 0. -1.
         23    2    1    0    0    0  0.29283104046E+02  0.17856209753E+02  0.78255256120E+01  0.89820698409E+02  0.82644870393E+02 0.  0.
         11    1    3    3    0    0 -0.25843609915E+02  0.10818649784E+02  0.18030801346E+02  0.33317340141E+02  0.51100000000E-03 0.  1.
         22    1    1    0    0    0 -0.29283104046E+02 -0.17856209753E+02 -0.78255256120E+01  0.35179301591E+02  0.00000000000E+00 0. -1.
</event>
<event>
 5    1  0.6650580E-004  0.9118800E+02  0.7818608E-02  0.1130116E+00
         25   -1    0    0    0    0  0.00000000000E+00  0.00000000000E+00  0.99999998245E-14  0.12500000000E+03  0.12500000000E+03 0.  0.
        -11    1    3    3    0    0 -0.11239508705E+02 -0.28572952360E+02  0.16066026350E+02  0.34653388946E+02  0.51100000000E-03 0. -1.
         23    2    1    0    0    0 -0.13747308273E+02  0.28328567123E+02  0.13379411020E+01  0.93483555302E+02  0.88010731309E+02 0.  0.
         11    1    3    3    0    0 -0.25077995677E+01  0.56901519483E+02 -0.14728085248E+02  0.58830166356E+02  0.51100000000E-03 0.  1.
         22    1    1    0    0    0  0.13747308273E+02 -0.28328567123E+02 -0.13379411020E+01  0.31516444698E+02  0.00000000000E+00 0.  1.
</event>
<event>
 5    1  0.6650580E-004  0.9118800E+02  0.7818608E-02  0.1130116E+00
         25   -1    0    0    0    0  0.00000000000E+00  0.00000000000E+00  0.99999998245E-14  0.12500000000E+03  0.12500000000E+03 0.  0.
        -11    1    3    3    0    0  0.31362396843E+02  0.27376496157E+02 -0.81684817972E+01  0.42424009389E+02  0.51100000000E-03 0.  1.
         23    2    1    0    0    0 -0.20745764942E+02  0.19808157998E+02 -0.85119753828E+01  0.95080046604E+02  0.90249718288E+02 0.  0.
         11    1    3    3    0    0 -0.52108161785E+02 -0.75683381586E+01 -0.34349358563E+00  0.52656037215E+02  0.51100000000E-03 0. -1.
         22    1    1    0    0    0  0.20745764942E+02 -0.19808157998E+02  0.85119753828E+01  0.29919953396E+02  0.00000000000E+00 0. -1.
</event>
<event>
 5    1  0.6650580E-004  0.9118800E+02  0.7818608E-02  0.1130116E+00
         25   -1    0    0    0    0  0.00000000000E+00  0.00000000000E+00  0.99999998245E-14  0.12500000000E+03  0.12500000000E+03 0.  0.
        -11    1    3    3    0    0 -0.11001907644E+02  0.60408433834E+02 -0.85895126885E+01  0.62000004666E+02  0.51100000000E-03 0.  1.
         23    2    1    0    0    0 -0.98537874536E+01  0.27175512026E+02 -0.11753592037E+01  0.96069271521E+02  0.91609594914E+02 0.  0.
         11    1    3    3    0    0  0.11481201903E+01 -0.33232921808E+02  0.74141534848E+01  0.34069266855E+02  0.51100000000E-03 0. -1.
         22    1    1    0    0    0  0.98537874536E+01 -0.27175512026E+02  0.11753592037E+01  0.28930728479E+02  0.00000000000E+00 0.  1.
</event>
<event>
 5    1  0.6650580E-004  0.9118800E+02  0.7818608E-02  0.1130116E+00
         25   -1    0    0    0    0  0.00000000000E+00  0.00000000000E+00  0.99999998245E-14  0.12500000000E+03  0.12500000000E+03 0.  0.
        -11    1    3    3    0    0  0.48122504177E+01 -0.38993248614E+02 -0.24547411837E+02  0.46327169346E+02  0.51100000000E-03 0.  1.
         23    2    1    0    0    0  0.27661380280E+02  0.20507298517E+01 -0.10235751606E+02  0.95434343186E+02  0.90739108418E+02 0.  0.
         11    1    3    3    0    0  0.22849129862E+02  0.41043978465E+02  0.14311660230E+02  0.49107173840E+02  0.51100000000E-03 0. -1.
         22    1    1    0    0    0 -0.27661380280E+02 -0.20507298517E+01  0.10235751606E+02  0.29565656814E+02  0.00000000000E+00 0. -1.
</event>
<event>
 5    1  0.6650580E-004  0.9118800E+02  0.7818608E-02  0.1130116E+00
         25   -1    0    0    0    0  0.00000000000E+00  0.00000000000E+00  0.99999998245E-14  0.12500000000E+03  0.12500000000E+03 0.  0.
        -11    1    3    3    0    0  0.50861837328E+02  0.30862299170E+02  0.13515486839E+02  0.61008822241E+02  0.51100000000E-03 0.  1.
         23    2    1    0    0    0  0.20882869211E+02  0.13705349399E+02  0.15493141738E+02  0.95606662838E+02  0.90976182100E+02 0.  0.
         11    1    3    3    0    0 -0.29978968117E+02 -0.17156949771E+02  0.19776548987E+01  0.34597840597E+02  0.51100000000E-03 0. -1.
         22    1    1    0    0    0 -0.20882869211E+02 -0.13705349399E+02 -0.15493141738E+02  0.29393337162E+02  0.00000000000E+00 0.  1.
</event>
<event>
 5    1  0.6650580E-004  0.9118800E+02  0.7818608E-02  0.1130116E+00
         25   -1    0    0    0    0  0.00000000000E+00  0.00000000000E+00  0.99999998245E-14  0.12500000000E+03  0.12500000000E+03 0.  0.
        -11    1    3    3    0    0 -0.33133201039E+02 -0.37617099596E+01 -0.13067228438E+02  0.35814967991E+02  0.51100000000E-03 0.  1.
         23    2    1    0    0    0  0.26465082405E+02 -0.93824723729E+01 -0.75034123585E+01  0.95935716565E+02  0.91427179446E+02 0.  0.
         11    1    3    3    0    0  0.59598283444E+02 -0.56207624133E+01  0.55638160792E+01  0.60120748575E+02  0.51100000000E-03 0. -1.
         22    1    1    0    0    0 -0.26465082405E+02  0.93824723729E+01  0.75034123585E+01  0.29064283435E+02  0.00000000000E+00 0. -1.
</event>
<event>
 5    1  0.6650580E-004  0.9118800E+02  0.7818608E-02  0.1130116E+00
         25   -1    0    0    0    0  0.00000000000E+00  0.00000000000E+00  0.99999998245E-14  0.12500000000E+03  0.12500000000E+03 0.  0.
        -11    1    3    3    0    0  0.27310072815E+02  0.59324444733E+01  0.28083131633E+02  0.39619392438E+02  0.51100000000E-03 0. -1.
         23    2    1    0    0    0 -0.26150005692E+02  0.72879450567E+01  0.99523341669E+01  0.96086579307E+02  0.91633208100E+02 0.  0.
         11    1    3    3    0    0 -0.53460078507E+02  0.13555005833E+01 -0.18130797466E+02  0.56467186868E+02  0.51100000000E-03 0.  1.
         22    1    1    0    0    0  0.26150005692E+02 -0.72879450567E+01 -0.99523341669E+01  0.28913420693E+02  0.00000000000E+00 0.  1.
</event>
<event>
 5    1  0.6650580E-004  0.9118800E+02  0.7818608E-02  0.1130116E+00
         25   -1    0    0    0    0  0.00000000000E+00  0.00000000000E+00  0.99999998245E-14  0.12500000000E+03  0.12500000000E+03 0.  0.
        -11    1    3    3    0    0  0.13821624357E+02 -0.28230749412E+02 -0.37756747282E+02  0.49128245213E+02  0.51100000000E-03 0. -1.
         23    2    1    0    0    0  0.23044557965E+02 -0.16049559896E+02  0.66930648633E+01  0.96130688579E+02  0.91693359328E+02 0.  0.
         11    1    3    3    0    0  0.92229336081E+01  0.12181189515E+02  0.44449812145E+02  0.47002443366E+02  0.51100000000E-03 0.  1.
         22    1    1    0    0    0 -0.23044557965E+02  0.16049559896E+02 -0.66930648633E+01  0.28869311421E+02  0.00000000000E+00 0. -1.
</event>
<event>
 5    1  0.6650580E-004  0.9118800E+02  0.7818608E-02  0.1130116E+00
         25   -1    0    0    0    0  0.00000000000E+00  0.00000000000E+00  0.99999998245E-14  0.12500000000E+03  0.12500000000E+03 0.  0.
        -11    1    3    3    0    0  0.37528423969E+02  0.20335092114E+02 -0.19074057992E+02  0.46751665911E+02  0.51100000000E-03 0. -1.
         23    2    1    0    0    0 -0.88504061260E+01  0.27331194139E+02 -0.41433231284E+01  0.95974304691E+02  0.91479922238E+02 0.  0.
         11    1    3    3    0    0 -0.46378830095E+02  0.69961020246E+01  0.14930734864E+02  0.49222638779E+02  0.51100000000E-03 0.  1.
         22    1    1    0    0    0  0.88504061260E+01 -0.27331194139E+02  0.41433231284E+01  0.29025695309E+02  0.00000000000E+00 0.  1.
</event>
<event>
 5    1  0.6650580E-004  0.9118800E+02  0.7818608E-02  0.1130116E+00
         25   -1    0    0    0    0  0.00000000000E+00  0.00000000000E+00  0.99999998245E-14  0.12500000000E+03  0.12500000000E+03 0.  0.
        -11    1    3    3    0    0 -0.41204242648E+02 -0.24698211906E+02 -0.18597527744E+01  0.48075461144E+02  0.51100000000E-03 0. -1.
         23    2    1    0    0    0 -0.19146993725E+02  0.91154967121E+01 -0.23057042878E+02  0.93673862745E+02  0.88280607646E+02 0.  0.
         11    1    3    3    0    0  0.22057248923E+02  0.33813708618E+02 -0.21197290104E+02  0.45598401601E+02  0.51100000000E-03 0.  1.
         22    1    1    0    0    0  0.19146993725E+02 -0.91154967121E+01  0.23057042878E+02  0.31326137255E+02  0.00000000000E+00 0.  1.
</event>
<event>
 5    1  0.6650580E-004  0.9118800E+02  0.7818608E-02  0.1130116E+00
         25   -1    0    0    0    0  0.00000000000E+00  0.00000000000E+00  0.99999998245E-14  0.12500000000E+03  0.12500000000E+03 0.  0.
        -11    1    3    3    0    0  0.66793230717E+01 -0.23610896009E+02  0.29454175172E+02  0.38335834442E+02  0.51100000000E-03 0.  1.
         23    2    1    0    0    0  0.11349438831E+02 -0.31516097348E+01 -0.25364447197E+02  0.97033992289E+02  0.92916618924E+02 0.  0.
         11    1    3    3    0    0  0.46701157590E+01  0.20459286274E+02 -0.54818622368E+02  0.58698157847E+02  0.51100000000E-03 0. -1.
         22    1    1    0    0    0 -0.11349438831E+02  0.31516097348E+01  0.25364447197E+02  0.27966007711E+02  0.00000000000E+00 0. -1.
</event>
<event>
 5    1  0.6650580E-004  0.9118800E+02  0.7818608E-02  0.1130116E+00
         25   -1    0    0    0    0  0.00000000000E+00  0.00000000000E+00  0.99999998245E-14  0.12500000000E+03  0.12500000000E+03 0.  0.
        -11    1    3    3    0    0 -0.21594164447E+01 -0.54640848140E+02 -0.28937331467E+02  0.61868041164E+02  0.51100000000E-03 0.  1.
         23    2    1    0    0    0 -0.37610110569E+01 -0.22795307587E+02 -0.18447947802E+02  0.95434851087E+02  0.90739808087E+02 0.  0.
         11    1    3    3    0    0 -0.16015946121E+01  0.31845540554E+02  0.10489383664E+02  0.33566809923E+02  0.51100000000E-03 0. -1.
         22    1    1    0    0    0  0.37610110569E+01  0.22795307587E+02  0.18447947802E+02  0.29565148913E+02  0.00000000000E+00 0.  1.
</event>
<event>
 5    1  0.6650580E-004  0.9118800E+02  0.7818608E-02  0.1130116E+00
         25   -1    0    0    0    0  0.00000000000E+00  0.00000000000E+00  0.99999998245E-14  0.12500000000E+03  0.12500000000E+03 0.  0.
        -11    1    3    3    0    0  0.24325466441E+02 -0.37179384666E+02 -0.20221090316E+02  0.48815237944E+02  0.51100000000E-03 0. -1.
         23    2    1    0    0    0  0.26444889202E+01  0.55322682691E+01 -0.27107969787E+02  0.97207171072E+02  0.93149303637E+02 0.  0.
         11    1    3    3    0    0 -0.21680977521E+02  0.42711652935E+02 -0.68868794707E+01  0.48391933128E+02  0.51100000000E-03 0.  1.
         22    1    1    0    0    0 -0.26444889202E+01 -0.55322682691E+01  0.27107969787E+02  0.27792828928E+02  0.00000000000E+00 0. -1.
</event>
<event>
 5    1  0.6650580E-004  0.9118800E+02  0.7818608E-02  0.1130116E+00
         25   -1    0    0    0    0  0.00000000000E+00  0.00000000000E+00  0.99999998245E-14  0.12500000000E+03  0.12500000000E+03 0.  0.
        -11    1    3    3    0    0  0.34519859646E+01 -0.33134228007E+02 -0.45542058192E+02  0.56425812687E+02  0.51100000000E-03 0.  1.
         23    2    1    0    0    0  0.50290564160E+01  0.30834783549E+01 -0.27415430628E+02  0.96957084963E+02  0.92813098434E+02 0.  0.
         11    1    3    3    0    0  0.15770704514E+01  0.36217706361E+02  0.18126627564E+02  0.40531272277E+02  0.51100000000E-03 0. -1.
         22    1    1    0    0    0 -0.50290564160E+01 -0.30834783549E+01  0.27415430628E+02  0.28042915037E+02  0.00000000000E+00 0. -1.
</event>
<event>
 5    1  0.6650580E-004  0.9118800E+02  0.7818608E-02  0.1130116E+00
         25   -1    0    0    0    0  0.00000000000E+00  0.00000000000E+00  0.99999998245E-14  0.12500000000E+03  0.12500000000E+03 0.  0.
        -11    1    3    3    0    0  0.19117292360E+02  0.23946838702E+02 -0.15305611368E+02  0.34251769161E+02  0.51100000000E-03 0.  1.
         23    2    1    0    0    0 -0.91057857935E+01 -0.23567016560E+02  0.13265212296E+02  0.96464312489E+02  0.92147046194E+02 0.  0.
         11    1    3    3    0    0 -0.28223078154E+02 -0.47513855262E+02  0.28570823664E+02  0.62212543329E+02  0.51100000000E-03 0. -1.
         22    1    1    0    0    0  0.91057857935E+01  0.23567016560E+02 -0.13265212296E+02  0.28535687511E+02  0.00000000000E+00 0. -1.
</event>
<event>
 5    1  0.6650580E-004  0.9118800E+02  0.7818608E-02  0.1130116E+00
         25   -1    0    0    0    0  0.00000000000E+00  0.00000000000E+00  0.99999998245E-14  0.12500000000E+03  0.12500000000E+03 0.  0.
        -11    1    3    3    0    0  0.14456818045E+02 -0.43320598219E+02 -0.34780564540E+01  0.45801426779E+02  0.51100000000E-03 0.  1.
         23    2    1    0    0    0 -0.20079615156E+02 -0.21434926052E+02  0.16503791194E+02  0.91309910605E+02  0.84867412187E+02 0.  0.
         11    1    3    3    0    0 -0.34536433201E+02  0.21885672167E+02  0.19981847648E+02  0.45508483826E+02  0.51100000000E-03 0. -1.
         22    1    1    0    0    0  0.20079615156E+02  0.21434926052E+02 -0.16503791194E+02  0.33690089395E+02  0.00000000000E+00 0. -1.
</event>
<event>
 5    1  0.6650580E-004  0.9118800E+02  0.7818608E-02  0.1130116E+00
         25   -1    0    0    0    0  0.00000000000E+00  0.00000000000E+00  0.99999998245E-14  0.12500000000E+03  0.12500000000E+03 0.  0.
        -11    1    3    3    0    0 -0.10624579543E+02 -0.19567677312E+02 -0.30377228780E+02  0.37663665707E+02  0.51100000000E-03 0. -1.
         23    2    1    0    0    0  0.56730906383E+00 -0.25652016245E+02  0.21773902892E+02  0.91348096278E+02  0.84923636694E+02 0.  0.
         11    1    3    3    0    0  0.11191888607E+02 -0.60843389324E+01  0.52151131671E+02  0.53684430571E+02  0.51100000000E-03 0.  1.
         22    1    1    0    0    0 -0.56730906383E+00  0.25652016245E+02 -0.21773902892E+02  0.33651903722E+02  0.00000000000E+00 0. -1.
</event>
<event>
 5    1  0.6650580E-004  0.9118800E+02  0.7818608E-02  0.1130116E+00
         25   -1    0    0    0    0  0.00000000000E+00  0.00000000000E+00  0.99999998245E-14  0.12500000000E+03  0.12500000000E+03 0.  0.
        -11    1    3    3    0    0  0.36946538918E+02 -0.48420074728E+02  0.54808523075E+01  0.61152188161E+02  0.51100000000E-03 0. -1.
         23    2    1    0    0    0  0.89159749207E+01 -0.26375862044E+02  0.42642297700E+01  0.96833275610E+02  0.92646202849E+02 0.  0.
         11    1    3    3    0    0 -0.28030563997E+02  0.22044212684E+02 -0.12166225374E+01  0.35681087448E+02  0.51100000000E-03 0.  1.
         22    1    1    0    0    0 -0.89159749207E+01  0.26375862044E+02 -0.42642297700E+01  0.28166724390E+02  0.00000000000E+00 0. -1.
</event>
<event>
 5    1  0.6650580E-004  0.9118800E+02  0.7818608E-02  0.1130116E+00
         25   -1    0    0    0    0  0.00000000000E+00  0.00000000000E+00  0.99999998245E-14  0.12500000000E+03  0.12500000000E+03 0.  0.
        -11    1    3    3    0    0 -0.16327490361E+02 -0.43061711459E+02  0.31781176855E+01  0.46162737869E+02  0.51100000000E-03 0.  1.
         23    2    1    0    0    0 -0.22251434000E+02  0.74021679192E+00 -0.19105092752E+02  0.95662672156E+02  0.91053105598E+02 0.  0.
         11    1    3    3    0    0 -0.59239436393E+01  0.43801928251E+02 -0.22283210438E+02  0.49499934287E+02  0.51100000000E-03 0. -1.
         22    1    1    0    0    0  0.22251434000E+02 -0.74021679192E+00  0.19105092752E+02  0.29337327844E+02  0.00000000000E+00 0. -1.
</event>
<event>
 5    1  0.6650580E-004  0.9118800E+02  0.7818608E-02  0.1130116E+00
         25   -1    0    0    0    0  0.00000000000E+00  0.00000000000E+00  0.99999998245E-14  0.12500000000E+03  0.12500000000E+03 0.  0.
        -11    1    3    3    0    0  0.26079790992E+00 -0.25996545249E+02  0.23412124916E+02  0.34985939658E+02  0.51100000000E-03 0.  1.
         23    2    1    0    0    0  0.28519398636E+02 -0.12250980471E+00 -0.17898312453E+02  0.91329230839E+02  0.84895863914E+02 0.  0.
         11    1    3    3    0    0  0.28258600726E+02  0.25874035444E+02 -0.41310437369E+02  0.56343291181E+02  0.51100000000E-03 0. -1.
         22    1    1    0    0    0 -0.28519398636E+02  0.12250980471E+00  0.17898312453E+02  0.33670769161E+02  0.00000000000E+00 0. -1.
</event>
<event>
 5    1  0.6650580E-004  0.9118800E+02  0.7818608E-02  0.1130116E+00
         25   -1    0    0    0    0  0.00000000000E+00  0.00000000000E+00  0.99999998245E-14  0.12500000000E+03  0.12500000000E+03 0.  0.
        -11    1    3    3    0    0 -0.33775916678E+02 -0.25839820775E+02 -0.33592237322E+02  0.54193609344E+02  0.51100000000E-03 0. -1.
         23    2    1    0    0    0 -0.18043366486E+02 -0.21989911109E+02  0.50656710126E+01  0.96107435428E+02  0.91661654235E+02 0.  0.
         11    1    3    3    0    0  0.15732550192E+02  0.38499096660E+01  0.38657908335E+02  0.41913826085E+02  0.51100000000E-03 0.  1.
         22    1    1    0    0    0  0.18043366486E+02  0.21989911109E+02 -0.50656710126E+01  0.28892564572E+02  0.00000000000E+00 0. -1.
</event>
<event>
 5    1  0.6650580E-004  0.9118800E+02  0.7818608E-02  0.1130116E+00
         25   -1    0    0    0    0  0.00000000000E+00  0.00000000000E+00  0.99999998245E-14  0.12500000000E+03  0.12500000000E+03 0.  0.
        -11    1    3    3    0    0  0.79001740222E+01 -0.24266065399E+02  0.22676963981E+02  0.34139410879E+02  0.51100000000E-03 0.  1.
         23    2    1    0    0    0 -0.11327119767E+02  0.25200740970E+02 -0.89945606165E+01  0.95943449820E+02  0.91437751804E+02 0.  0.
         11    1    3    3    0    0 -0.19227293790E+02  0.49466806369E+02 -0.31671524597E+02  0.61804038941E+02  0.51100000000E-03 0. -1.
         22    1    1    0    0    0  0.11327119767E+02 -0.25200740970E+02  0.89945606165E+01  0.29056550180E+02  0.00000000000E+00 0. -1.
</event>
<event>
 5    1  0.6650580E-004  0.9118800E+02  0.7818608E-02  0.1130116E+00
         25   -1    0    0    0    0  0.00000000000E+00  0.00000000000E+00  0.99999998245E-14  0.12500000000E+03  0.12500000000E+03 0.  0.
        -11    1    3    3    0    0 -0.36121468712E+01 -0.20859712648E+02  0.28169010605E+02  0.35237315101E+02  0.51100000000E-03 0.  1.
         23    2    1    0    0    0 -0.12926855664E+02  0.15563032904E+02 -0.20141199034E+02  0.96452154389E+02  0.92130551921E+02 0.  0.
         11    1    3    3    0    0 -0.93147087926E+01  0.36422745552E+02 -0.48310209639E+02  0.61214839288E+02  0.51100000000E-03 0. -1.
         22    1    1    0    0    0  0.12926855664E+02 -0.15563032904E+02  0.20141199034E+02  0.28547845611E+02  0.00000000000E+00 0. -1.
</event>
<event>
 5    1  0.6650580E-004  0.9118800E+02  0.7818608E-02  0.1130116E+00
         25   -1    0    0    0    0  0.00000000000E+00  0.00000000000E+00  0.99999998245E-14  0.12500000000E+03  0.12500000000E+03 0.  0.
        -11    1    3    3    0    0 -0.19614452536E+00  0.47027929774E+02  0.40399913732E+01  0.47201548513E+02  0.51100000000E-03 0.  1.
         23    2    1    0    0    0  0.29403571141E+02  0.20670551506E+02  0.10935749437E+02  0.87430966061E+02  0.78947713806E+02 0.  0.
         11    1    3    3    0    0  0.29599715666E+02 -0.26357378268E+02  0.68957580635E+01  0.40229417548E+02  0.51100000000E-03 0. -1.
         22    1    1    0    0    0 -0.29403571141E+02 -0.20670551506E+02 -0.10935749437E+02  0.37569033939E+02  0.00000000000E+00 0.  1.
</event>
<event>
 5    1  0.6650580E-004  0.9118800E+02  0.7818608E-02  0.1130116E+00
         25   -1    0    0    0    0  0.00000000000E+00  0.00000000000E+00  0.99999998245E-14  0.12500000000E+03  0.12500000000E+03 0.  0.
        -11    1    3    3    0    0 -0.45450675809E+01 -0.22847840804E+02  0.30129305502E+02  0.38084859446E+02  0.51100000000E-03 0. -1.
         23    2    1    0    0    0  0.30768279300E+02  0.89029776755E+01  0.21688148709E+02  0.86317629119E+02  0.77164805966E+02 0.  0.
         11    1    3    3    0    0  0.35313346880E+02  0.31750818480E+02 -0.84411567935E+01  0.48232769673E+02  0.51100000000E-03 0.  1.
         22    1    1    0    0    0 -0.30768279300E+02 -0.89029776755E+01 -0.21688148709E+02  0.38682370881E+02  0.00000000000E+00 0. -1.
</event>
<event>
 5    1  0.6650580E-004  0.9118800E+02  0.7818608E-02  0.1130116E+00
         25   -1    0    0    0    0  0.00000000000E+00  0.00000000000E+00  0.99999998245E-14  0.12500000000E+03  0.12500000000E+03 0.  0.
        -11    1    3    3    0    0 -0.44117713457E+02  0.14717959590E+02 -0.20102067754E+02  0.50666400143E+02  0.51100000000E-03 0.  1.
         23    2    1    0    0    0 -0.23381247189E+02 -0.19865565423E+02 -0.41133936672E+01  0.94044492943E+02  0.88803846965E+02 0.  0.
         11    1    3    3    0    0  0.20736466268E+02 -0.34583525013E+02  0.15988674087E+02  0.43378092800E+02  0.51100000000E-03 0. -1.
         22    1    1    0    0    0  0.23381247189E+02  0.19865565423E+02  0.41133936672E+01  0.30955507057E+02  0.00000000000E+00 0.  1.
</event>
<event>
 5    1  0.6650580E-004  0.9118800E+02  0.7818608E-02  0.1130116E+00
         25   -1    0    0    0    0  0.00000000000E+00  0.00000000000E+00  0.99999998245E-14  0.12500000000E+03  0.12500000000E+03 0.  0.
        -11    1    3    3    0    0  0.19312542180E+02  0.56593805820E+02  0.15172586966E+02  0.61693115809E+02  0.51100000000E-03 0. -1.
         23    2    1    0    0    0  0.22409881814E+01  0.28206436887E+02  0.81466500022E+01  0.95555254863E+02  0.90905520822E+02 0.  0.
         11    1    3    3    0    0 -0.17071553998E+02 -0.28387368933E+02 -0.70259369643E+01  0.33862139055E+02  0.51100000000E-03 0.  1.
         22    1    1    0    0    0 -0.22409881814E+01 -0.28206436887E+02 -0.81466500022E+01  0.29444745137E+02  0.00000000000E+00 0. -1.
</event>
<event>
 5    1  0.6650580E-004  0.9118800E+02  0.7818608E-02  0.1130116E+00
         25   -1    0    0    0    0  0.00000000000E+00  0.00000000000E+00  0.99999998245E-14  0.12500000000E+03  0.12500000000E+03 0.  0.
        -11    1    3    3    0    0 -0.27431965081E+02 -0.39690672247E+02 -0.18146890579E+02  0.51547762411E+02  0.51100000000E-03 0.  1.
         23    2    1    0    0    0 -0.23877247456E+02 -0.89754860744E+01  0.13792008619E+02  0.96001693186E+02  0.91517338775E+02 0.  0.
         11    1    3    3    0    0  0.35547176256E+01  0.30715186173E+02  0.31938899199E+02  0.44453930775E+02  0.51100000000E-03 0. -1.
         22    1    1    0    0    0  0.23877247456E+02  0.89754860744E+01 -0.13792008619E+02  0.28998306814E+02  0.00000000000E+00 0.  1.
</event>
<event>
 5    1  0.6650580E-004  0.9118800E+02  0.7818608E-02  0.1130116E+00
         25   -1    0    0    0    0  0.00000000000E+00  0.00000000000E+00  0.99999998245E-14  0.12500000000E+03  0.12500000000E+03 0.  0.
        -11    1    3    3    0    0  0.29866268354E+02  0.24660744775E+02 -0.12254588658E+02  0.40624146288E+02  0.51100000000E-03 0.  1.
         23    2    1    0    0    0  0.13345509388E+02 -0.18506630757E+02  0.18061391649E+02  0.95899967850E+02  0.91378290434E+02 0.  0.
         11    1    3    3    0    0 -0.16520758965E+02 -0.43167375532E+02  0.30315980307E+02  0.55275821562E+02  0.51100000000E-03 0. -1.
         22    1    1    0    0    0 -0.13345509388E+02  0.18506630757E+02 -0.18061391649E+02  0.29100032150E+02  0.00000000000E+00 0. -1.
</event>
<event>
 5    1  0.6650580E-004  0.9118800E+02  0.7818608E-02  0.1130116E+00
         25   -1    0    0    0    0  0.00000000000E+00  0.00000000000E+00  0.99999998245E-14  0.12500000000E+03  0.12500000000E+03 0.  0.
        -11    1    3    3    0    0 -0.89730933827E+01 -0.41402207416E+02  0.37357131808E+02  0.56481983685E+02  0.51100000000E-03 0. -1.
         23    2    1    0    0    0  0.86938818863E+01 -0.25221157185E+02  0.33031685452E+01  0.98118756085E+02  0.94364659811E+02 0.  0.
         11    1    3    3    0    0  0.17666975269E+02  0.16181050232E+02 -0.34053963263E+02  0.41636772400E+02  0.51100000000E-03 0.  1.
         22    1    1    0    0    0 -0.86938818863E+01  0.25221157185E+02 -0.33031685452E+01  0.26881243915E+02  0.00000000000E+00 0. -1.
</event>
<event>
 5    1  0.6650580E-004  0.9118800E+02  0.7818608E-02  0.1130116E+00
         25   -1    0    0    0    0  0.00000000000E+00  0.00000000000E+00  0.99999998245E-14  0.12500000000E+03  0.12500000000E+03 0.  0.
        -11    1    3    3    0    0 -0.41365344317E+02  0.57692092839E+01  0.37877472594E+02  0.56383316829E+02  0.51100000000E-03 0.  1.
         23    2    1    0    0    0 -0.16174316602E+02  0.21451303778E+02  0.12769475986E+02  0.95253967184E+02  0.90490285645E+02 0.  0.
         11    1    3    3    0    0  0.25191027715E+02  0.15682094494E+02 -0.25107996609E+02  0.38870650355E+02  0.51100000000E-03 0. -1.
         22    1    1    0    0    0  0.16174316602E+02 -0.21451303778E+02 -0.12769475986E+02  0.29746032816E+02  0.00000000000E+00 0.  1.
</event>
<event>
 5    1  0.6650580E-004  0.9118800E+02  0.7818608E-02  0.1130116E+00
         25   -1    0    0    0    0  0.00000000000E+00  0.00000000000E+00  0.99999998245E-14  0.12500000000E+03  0.12500000000E+03 0.  0.
        -11    1    3    3    0    0  0.43674663091E+02  0.16604593923E+02 -0.33190286106E+02  0.57313033662E+02  0.51100000000E-03 0.  1.
         23    2    1    0    0    0  0.15623364747E+02 -0.69168837539E+01 -0.24823189305E+02  0.94864911911E+02  0.89951253341E+02 0.  0.
         11    1    3    3    0    0 -0.28051298344E+02 -0.23521477677E+02  0.83670968012E+01  0.37551878249E+02  0.51100000000E-03 0. -1.
         22    1    1    0    0    0 -0.15623364747E+02  0.69168837539E+01  0.24823189305E+02  0.30135088089E+02  0.00000000000E+00 0.  1.
</event>
<event>
 5    1  0.6650580E-004  0.9118800E+02  0.7818608E-02  0.1130116E+00
         25   -1    0    0    0    0  0.00000000000E+00  0.00000000000E+00  0.99999998245E-14  0.12500000000E+03  0.12500000000E+03 0.  0.
        -11    1    3    3    0    0 -0.12722622443E+02  0.47308605573E+02  0.25967006452E+02  0.55445962048E+02  0.51100000000E-03 0.  1.
         23    2    1    0    0    0  0.92844621416E+01  0.27848313715E+02 -0.14220877338E+01  0.95610339445E+02  0.90981233566E+02 0.  0.
         11    1    3    3    0    0  0.22007084585E+02 -0.19460291858E+02 -0.27389094185E+02  0.40164377397E+02  0.51100000000E-03 0. -1.
         22    1    1    0    0    0 -0.92844621416E+01 -0.27848313715E+02  0.14220877338E+01  0.29389660555E+02  0.00000000000E+00 0.  1.
</event>
<event>
 5    1  0.6650580E-004  0.9118800E+02  0.7818608E-02  0.1130116E+00
         25   -1    0    0    0    0  0.00000000000E+00  0.00000000000E+00  0.99999998245E-14  0.12500000000E+03  0.12500000000E+03 0.  0.
        -11    1    3    3    0    0 -0.45711969201E+02  0.23515296695E+02  0.19234159744E+02  0.54886302555E+02  0.51100000000E-03 0.  1.
         23    2    1    0    0    0 -0.76381644521E+01  0.67079300914E+01  0.26029457430E+02  0.97055939157E+02  0.92946139184E+02 0.  0.
         11    1    3    3    0    0  0.38073804749E+02 -0.16807366604E+02  0.67952976860E+01  0.42169636602E+02  0.51100000000E-03 0. -1.
         22    1    1    0    0    0  0.76381644521E+01 -0.67079300914E+01 -0.26029457430E+02  0.27944060843E+02  0.00000000000E+00 0.  1.
</event>
<event>
 5    1  0.6650580E-004  0.9118800E+02  0.7818608E-02  0.1130116E+00
         25   -1    0    0    0    0  0.00000000000E+00  0.00000000000E+00  0.99999998245E-14  0.12500000000E+03  0.12500000000E+03 0.  0.
        -11    1    3    3    0    0  0.26215558271E+02 -0.27262692443E+02 -0.17586117095E+02  0.41710686993E+02  0.51100000000E-03 0.  1.
         23    2    1    0    0    0  0.36466540107E+00 -0.16910191696E+02  0.26326432105E+02  0.93708330319E+02  0.88329398162E+02 0.  0.
         11    1    3    3    0    0 -0.25850892870E+02  0.10352500747E+02  0.43912549200E+02  0.51997643325E+02  0.51100000000E-03 0. -1.
         22    1    1    0    0    0 -0.36466540107E+00  0.16910191696E+02 -0.26326432105E+02  0.31291669681E+02  0.00000000000E+00 0.  1.
</event>
<event>
 5    1  0.6650580E-004  0.9118800E+02  0.7818608E-02  0.1130116E+00
         25   -1    0    0    0    0  0.00000000000E+00  0.00000000000E+00  0.99999998245E-14  0.12500000000E+03  0.12500000000E+03 0.  0.
        -11    1    3    3    0    0 -0.14685252312E+02 -0.28470809732E+02 -0.38863775549E+00  0.32037395054E+02  0.51100000000E-03 0. -1.
         23    2    1    0    0    0  0.79345381043E+01  0.26965783836E+02 -0.14236109889E+02  0.93491632578E+02  0.88022202566E+02 0.  0.
         11    1    3    3    0    0  0.22619790416E+02  0.55436593568E+02 -0.13847472134E+02  0.61454237524E+02  0.51100000000E-03 0.  1.
         22    1    1    0    0    0 -0.79345381043E+01 -0.26965783836E+02  0.14236109889E+02  0.31508367422E+02  0.00000000000E+00 0.  1.
</event>
<event>
 5    1  0.6650580E-004  0.9118800E+02  0.7818608E-02  0.1130116E+00
         25   -1    0    0    0    0  0.00000000000E+00  0.00000000000E+00  0.99999998245E-14  0.12500000000E+03  0.12500000000E+03 0.  0.
        -11    1    3    3    0    0  0.16406663011E+02  0.29354353695E+02  0.63186156289E+01  0.34216685633E+02  0.51100000000E-03 0.  1.
         23    2    1    0    0    0 -0.22716648582E+02 -0.16308776268E+02 -0.77694003505E+01  0.95976115216E+02  0.91482396143E+02 0.  0.
         11    1    3    3    0    0 -0.39123311593E+02 -0.45663129962E+02 -0.14088015979E+02  0.61759429583E+02  0.51100000000E-03 0. -1.
         22    1    1    0    0    0  0.22716648582E+02  0.16308776268E+02  0.77694003505E+01  0.29023884784E+02  0.00000000000E+00 0. -1.
</event>
<event>
 5    1  0.6650580E-004  0.9118800E+02  0.7818608E-02  0.1130116E+00
         25   -1    0    0    0    0  0.00000000000E+00  0.00000000000E+00  0.99999998245E-14  0.12500000000E+03  0.12500000000E+03 0.  0.
        -11    1    3    3    0    0 -0.13940681464E+02 -0.52475481353E+02 -0.18154209819E+02  0.57250275784E+02  0.51100000000E-03 0.  1.
         23    2    1    0    0    0  0.95947752314E+01 -0.27029816085E+02 -0.13073225746E+00  0.96317465938E+02  0.91947629031E+02 0.  0.
         11    1    3    3    0    0  0.23535456696E+02  0.25445665268E+02  0.18023477562E+02  0.39067190154E+02  0.51100000000E-03 0. -1.
         22    1    1    0    0    0 -0.95947752314E+01  0.27029816085E+02  0.13073225746E+00  0.28682534062E+02  0.00000000000E+00 0.  1.
</event>
<event>
 5    1  0.6650580E-004  0.9118800E+02  0.7818608E-02  0.1130116E+00
         25   -1    0    0    0    0  0.00000000000E+00  0.00000000000E+00  0.99999998245E-14  0.12500000000E+03  0.12500000000E+03 0.  0.
        -11    1    3    3    0    0  0.20439252294E+02  0.29189900661E+02 -0.30417778394E+01  0.35764028683E+02  0.51100000000E-03 0.  1.
         23    2    1    0    0    0 -0.29541257786E+02 -0.28458778022E+01  0.13404463353E+01  0.95291722897E+02  0.90542424997E+02 0.  0.
         11    1    3    3    0    0 -0.49980510079E+02 -0.32035778463E+02  0.43822241747E+01  0.59527694215E+02  0.51100000000E-03 0. -1.
         22    1    1    0    0    0  0.29541257786E+02  0.28458778022E+01 -0.13404463353E+01  0.29708277103E+02  0.00000000000E+00 0. -1.
</event>
<event>
 5    1  0.6650580E-004  0.9118800E+02  0.7818608E-02  0.1130116E+00
         25   -1    0    0    0    0  0.00000000000E+00  0.00000000000E+00  0.99999998245E-14  0.12500000000E+03  0.12500000000E+03 0.  0.
        -11    1    3    3    0    0  0.26083055068E+02  0.41464640778E+02 -0.10341419562E+02  0.50065828220E+02  0.51100000000E-03 0. -1.
         23    2    1    0    0    0 -0.90572668348E+01  0.23783811974E+02  0.13628020218E+02  0.96130868915E+02  0.91693605168E+02 0.  0.
         11    1    3    3    0    0 -0.35140321902E+02 -0.17680828804E+02  0.23969439780E+02  0.46065040695E+02  0.51100000000E-03 0.  1.
         22    1    1    0    0    0  0.90572668348E+01 -0.23783811974E+02 -0.13628020218E+02  0.28869131085E+02  0.00000000000E+00 0. -1.
</event>
<event>
 5    1  0.6650580E-004  0.9118800E+02  0.7818608E-02  0.1130116E+00
         25   -1    0    0    0    0  0.00000000000E+00  0.00000000000E+00  0.99999998245E-14  0.12500000000E+03  0.12500000000E+03 0.  0.
        -11    1    3    3    0    0  0.25641554290E+02 -0.61123136843E+01  0.28963634813E+02  0.39163016059E+02  0.51100000000E-03 0.  1.
         23    2    1    0    0    0  0.99042429600E+01  0.21174189494E+01 -0.26091560169E+02  0.97011663078E+02  0.92886574754E+02 0.  0.
         11    1    3    3    0    0 -0.15737311330E+02  0.82297326338E+01 -0.55055194982E+02  0.57848647019E+02  0.51100000000E-03 0. -1.
         22    1    1    0    0    0 -0.99042429600E+01 -0.21174189494E+01  0.26091560169E+02  0.27988336922E+02  0.00000000000E+00 0. -1.
</event>
<event>
 5    1  0.6650580E-004  0.9118800E+02  0.7818608E-02  0.1130116E+00
         25   -1    0    0    0    0  0.00000000000E+00  0.00000000000E+00  0.99999998245E-14  0.12500000000E+03  0.12500000000E+03 0.  0.
        -11    1    3    3    0    0  0.36581158074E+01 -0.31975170031E+02 -0.21874583260E+02  0.38913888302E+02  0.51100000000E-03 0.  1.
         23    2    1    0    0    0  0.23539179942E+02  0.17021965458E+02 -0.50243904460E+00  0.95946725737E+02  0.91442230037E+02 0.  0.
         11    1    3    3    0    0  0.19881064135E+02  0.48997135489E+02  0.21372144215E+02  0.57032837435E+02  0.51100000000E-03 0. -1.
         22    1    1    0    0    0 -0.23539179942E+02 -0.17021965458E+02  0.50243904460E+00  0.29053274263E+02  0.00000000000E+00 0. -1.
</event>
<event>
 5    1  0.6650580E-004  0.9118800E+02  0.7818608E-02  0.1130116E+00
         25   -1    0    0    0    0  0.00000000000E+00  0.00000000000E+00  0.99999998245E-14  0.12500000000E+03  0.12500000000E+03 0.  0.
        -11    1    3    3    0    0 -0.11378343767E+01 -0.29090601716E+02 -0.37418851554E+02  0.47410212266E+02  0.51100000000E-03 0.  1.
         23    2    1    0    0    0 -0.29557809174E+01 -0.27869303217E+02  0.10271934236E+02  0.95151259062E+02  0.90348296971E+02 0.  0.
         11    1    3    3    0    0 -0.18179465407E+01  0.12212984996E+01  0.47690785790E+02  0.47741046796E+02  0.51100000000E-03 0. -1.
         22    1    1    0    0    0  0.29557809174E+01  0.27869303217E+02 -0.10271934236E+02  0.29848740938E+02  0.00000000000E+00 0. -1.
</event>
<event>
 5    1  0.6650580E-004  0.9118800E+02  0.7818608E-02  0.1130116E+00
         25   -1    0    0    0    0  0.00000000000E+00  0.00000000000E+00  0.99999998245E-14  0.12500000000E+03  0.12500000000E+03 0.  0.
        -11    1    3    3    0    0  0.46170742147E+02 -0.18584874302E+02  0.29828397052E+02  0.58024721061E+02  0.51100000000E-03 0. -1.
         23    2    1    0    0    0  0.18929493758E+02 -0.21883215412E+02  0.26675418198E+02  0.85645473110E+02  0.76068181768E+02 0.  0.
         11    1    3    3    0    0 -0.27241248389E+02 -0.32983411093E+01 -0.31529788535E+01  0.27620752050E+02  0.51100000000E-03 0.  1.
         22    1    1    0    0    0 -0.18929493758E+02  0.21883215412E+02 -0.26675418198E+02  0.39354526890E+02  0.00000000000E+00 0. -1.
</event>
<event>
 5    1  0.6650580E-004  0.9118800E+02  0.7818608E-02  0.1130116E+00
         25   -1    0    0    0    0  0.00000000000E+00  0.00000000000E+00  0.99999998245E-14  0.12500000000E+03  0.12500000000E+03 0.  0.
        -11    1    3    3    0    0 -0.16137090182E+02 -0.39530462258E+02  0.26492713465E+01  0.42779454938E+02  0.51100000000E-03 0.  1.
         23    2    1    0    0    0 -0.19379183812E+02  0.85171576417E+01  0.21808348723E+02  0.94607586250E+02  0.89592949290E+02 0.  0.
         11    1    3    3    0    0 -0.32420936302E+01  0.48047619900E+02  0.19159077377E+02  0.51828131312E+02  0.51100000000E-03 0. -1.
         22    1    1    0    0    0  0.19379183812E+02 -0.85171576417E+01 -0.21808348723E+02  0.30392413750E+02  0.00000000000E+00 0. -1.
</event>
<event>
 5    1  0.6650580E-004  0.9118800E+02  0.7818608E-02  0.1130116E+00
         25   -1    0    0    0    0  0.00000000000E+00  0.00000000000E+00  0.99999998245E-14  0.12500000000E+03  0.12500000000E+03 0.  0.
        -11    1    3    3    0    0 -0.45152079786E+02  0.41083819347E+02  0.13389085430E+02  0.62496864961E+02  0.51100000000E-03 0.  1.
         23    2    1    0    0    0 -0.20653821825E+02  0.18699944428E+02  0.56650197124E+01  0.96568314754E+02  0.92288020287E+02 0.  0.
         11    1    3    3    0    0  0.24498257960E+02 -0.22383874919E+02 -0.77240657174E+01  0.34071449792E+02  0.51100000000E-03 0. -1.
         22    1    1    0    0    0  0.20653821825E+02 -0.18699944428E+02 -0.56650197124E+01  0.28431685246E+02  0.00000000000E+00 0.  1.
</event>
<event>
 5    1  0.6650580E-004  0.9118800E+02  0.7818608E-02  0.1130116E+00
         25   -1    0    0    0    0  0.00000000000E+00  0.00000000000E+00  0.99999998245E-14  0.12500000000E+03  0.12500000000E+03 0.  0.
        -11    1    3    3    0    0  0.23343376341E+02 -0.28888296513E+01 -0.54106631936E+02  0.58998187900E+02  0.51100000000E-03 0.  1.
         23    2    1    0    0    0  0.12262754600E+02  0.13273349184E+02 -0.23216581618E+02  0.95579486562E+02  0.90938834612E+02 0.  0.
         11    1    3    3    0    0 -0.11080621741E+02  0.16162178836E+02  0.30890050318E+02  0.36581298662E+02  0.51100000000E-03 0. -1.
         22    1    1    0    0    0 -0.12262754600E+02 -0.13273349184E+02  0.23216581618E+02  0.29420513438E+02  0.00000000000E+00 0.  1.
</event>
<event>
 5    1  0.6650580E-004  0.9118800E+02  0.7818608E-02  0.1130116E+00
         25   -1    0    0    0    0  0.00000000000E+00  0.00000000000E+00  0.99999998245E-14  0.12500000000E+03  0.12500000000E+03 0.  0.
        -11    1    3    3    0    0  0.42304434763E+01 -0.34834229457E+02 -0.22761699795E+02  0.41826010707E+02  0.51100000000E-03 0.  1.
         23    2    1    0    0    0 -0.31096685685E+02 -0.29799155628E+01 -0.16093733497E+02  0.89858969634E+02  0.82702735193E+02 0.  0.
         11    1    3    3    0    0 -0.35327129161E+02  0.31854313894E+02  0.66679662988E+01  0.48032958927E+02  0.51100000000E-03 0. -1.
         22    1    1    0    0    0  0.31096685685E+02  0.29799155628E+01  0.16093733497E+02  0.35141030366E+02  0.00000000000E+00 0.  1.
</event>
<event>
 5    1  0.6650580E-004  0.9118800E+02  0.7818608E-02  0.1130116E+00
         25   -1    0    0    0    0  0.00000000000E+00  0.00000000000E+00  0.99999998245E-14  0.12500000000E+03  0.12500000000E+03 0.  0.
        -11    1    3    3    0    0 -0.44353498010E+02  0.15457476601E+02 -0.34769835111E+02  0.58438923694E+02  0.51100000000E-03 0. -1.
         23    2    1    0    0    0 -0.28723223874E+02 -0.18329214715E+01 -0.57679491958E+01  0.95646083246E+02  0.91030329075E+02 0.  0.
         11    1    3    3    0    0  0.15630274136E+02 -0.17290398073E+02  0.29001885915E+02  0.37207159552E+02  0.51100000000E-03 0.  1.
         22    1    1    0    0    0  0.28723223874E+02  0.18329214715E+01  0.57679491958E+01  0.29353916754E+02  0.00000000000E+00 0. -1.
</event>
<event>
 5    1  0.6650580E-004  0.9118800E+02  0.7818608E-02  0.1130116E+00
         25   -1    0    0    0    0  0.00000000000E+00  0.00000000000E+00  0.99999998245E-14  0.12500000000E+03  0.12500000000E+03 0.  0.
        -11    1    3    3    0    0 -0.23167126262E+02  0.24174391453E+02  0.24768322229E+01  0.33574568344E+02  0.51100000000E-03 0.  1.
         23    2    1    0    0    0  0.17817402801E+02 -0.22796191721E+02 -0.14043802308E+01  0.96032803322E+02  0.91559821049E+02 0.  0.
         11    1    3    3    0    0  0.40984529063E+02 -0.46970583174E+02 -0.38812124537E+01  0.62458234978E+02  0.51100000000E-03 0. -1.
         22    1    1    0    0    0 -0.17817402801E+02  0.22796191721E+02  0.14043802308E+01  0.28967196678E+02  0.00000000000E+00 0. -1.
</event>
<event>
 5    1  0.6650580E-004  0.9118800E+02  0.7818608E-02  0.1130116E+00
         25   -1    0    0    0    0  0.00000000000E+00  0.00000000000E+00  0.99999998245E-14  0.12500000000E+03  0.12500000000E+03 0.  0.
        -11    1    3    3    0    0  0.28047835770E+02 -0.49150963481E+02  0.22977379113E+02  0.61077477467E+02  0.51100000000E-03 0.  1.
         23    2    1    0    0    0  0.49741741439E+01 -0.23910367584E+02  0.15472564394E+02  0.96088958245E+02  0.91636453234E+02 0.  0.
         11    1    3    3    0    0 -0.23073661626E+02  0.25240595897E+02 -0.75048147190E+01  0.35011480779E+02  0.51100000000E-03 0. -1.
         22    1    1    0    0    0 -0.49741741439E+01  0.23910367584E+02 -0.15472564394E+02  0.28911041755E+02  0.00000000000E+00 0.  1.
</event>
<event>
 5    1  0.6650580E-004  0.9118800E+02  0.7818608E-02  0.1130116E+00
         25   -1    0    0    0    0  0.00000000000E+00  0.00000000000E+00  0.99999998245E-14  0.12500000000E+03  0.12500000000E+03 0.  0.
        -11    1    3    3    0    0  0.14409618367E+02  0.20219307572E+02 -0.47413622630E+02  0.53521109025E+02  0.51100000000E-03 0. -1.
         23    2    1    0    0    0 -0.98264543715E+00 -0.13142665047E+02 -0.25484555624E+02  0.96309273067E+02  0.91936490398E+02 0.  0.
         11    1    3    3    0    0 -0.15392263804E+02 -0.33361972619E+02  0.21929067005E+02  0.42788164041E+02  0.51100000000E-03 0.  1.
         22    1    1    0    0    0  0.98264543715E+00  0.13142665047E+02  0.25484555624E+02  0.28690726933E+02  0.00000000000E+00 0. -1.
</event>
<event>
 5    1  0.6650580E-004  0.9118800E+02  0.7818608E-02  0.1130116E+00
         25   -1    0    0    0    0  0.00000000000E+00  0.00000000000E+00  0.99999998245E-14  0.12500000000E+03  0.12500000000E+03 0.  0.
        -11    1    3    3    0    0  0.25181289105E+01 -0.35576036895E+02  0.47014666293E+02  0.59011644794E+02  0.51100000000E-03 0. -1.
         23    2    1    0    0    0 -0.96708457637E+01 -0.69355563506E+01  0.25529136935E+02  0.96833281477E+02  0.92646210766E+02 0.  0.
         11    1    3    3    0    0 -0.12188974674E+02  0.28640480544E+02 -0.21485529358E+02  0.37821636684E+02  0.51100000000E-03 0.  1.
         22    1    1    0    0    0  0.96708457637E+01  0.69355563506E+01 -0.25529136935E+02  0.28166718523E+02  0.00000000000E+00 0. -1.
</event>
<event>
 5    1  0.6650580E-004  0.9118800E+02  0.7818608E-02  0.1130116E+00
         25   -1    0    0    0    0  0.00000000000E+00  0.00000000000E+00  0.99999998245E-14  0.12500000000E+03  0.12500000000E+03 0.  0.
        -11    1    3    3    0    0 -0.44140525078E+02 -0.32289250162E+00  0.30392014894E+02  0.53592581421E+02  0.51100000000E-03 0.  1.
         23    2    1    0    0    0 -0.39415039260E+02  0.77407485045E+01  0.58794074828E+00  0.84827743633E+02  0.74712354455E+02 0.  0.
         11    1    3    3    0    0  0.47254858179E+01  0.80636410062E+01 -0.29804074146E+02  0.31235162212E+02  0.51100000000E-03 0. -1.
         22    1    1    0    0    0  0.39415039260E+02 -0.77407485045E+01 -0.58794074828E+00  0.40172256367E+02  0.00000000000E+00 0.  1.
</event>
<event>
 5    1  0.6650580E-004  0.9118800E+02  0.7818608E-02  0.1130116E+00
         25   -1    0    0    0    0  0.00000000000E+00  0.00000000000E+00  0.99999998245E-14  0.12500000000E+03  0.12500000000E+03 0.  0.
        -11    1    3    3    0    0  0.49857877387E+02 -0.15233396557E+02  0.14506761777E+02  0.54113865559E+02  0.51100000000E-03 0.  1.
         23    2    1    0    0    0  0.10273236954E+02 -0.12381770519E+02  0.25096140879E+02  0.95189533286E+02  0.90401235177E+02 0.  0.
         11    1    3    3    0    0 -0.39584640432E+02  0.28516260386E+01  0.10589379102E+02  0.41075667727E+02  0.51100000000E-03 0. -1.
         22    1    1    0    0    0 -0.10273236954E+02  0.12381770519E+02 -0.25096140879E+02  0.29810466714E+02  0.00000000000E+00 0.  1.
</event>
<event>
 5    1  0.6650580E-004  0.9118800E+02  0.7818608E-02  0.1130116E+00
         25   -1    0    0    0    0  0.00000000000E+00  0.00000000000E+00  0.99999998245E-14  0.12500000000E+03  0.12500000000E+03 0.  0.
        -11    1    3    3    0    0 -0.62130788530E+02  0.31487090904E+01 -0.58653592199E+01  0.62486412053E+02  0.51100000000E-03 0. -1.
         23    2    1    0    0    0 -0.28521047724E+02  0.23633345117E+01 -0.26390737745E+01  0.96259780383E+02  0.91869173805E+02 0.  0.
         11    1    3    3    0    0  0.33609740806E+02 -0.78537457868E+00  0.32262854453E+01  0.33773368329E+02  0.51100000000E-03 0.  1.
         22    1    1    0    0    0  0.28521047724E+02 -0.23633345117E+01  0.26390737745E+01  0.28740219617E+02  0.00000000000E+00 0. -1.
</event>
<event>
 5    1  0.6650580E-004  0.9118800E+02  0.7818608E-02  0.1130116E+00
         25   -1    0    0    0    0  0.00000000000E+00  0.00000000000E+00  0.99999998245E-14  0.12500000000E+03  0.12500000000E+03 0.  0.
        -11    1    3    3    0    0  0.15098061798E+01 -0.36377283425E+02  0.18644835694E+02  0.40904965009E+02  0.51100000000E-03 0. -1.
         23    2    1    0    0    0 -0.27523432578E+02  0.78733059636E+01  0.23747362449E+01  0.96274268331E+02  0.91888884435E+02 0.  0.
         11    1    3    3    0    0 -0.29033238758E+02  0.44250589389E+02 -0.16270099449E+02  0.55369303322E+02  0.51100000000E-03 0.  1.
         22    1    1    0    0    0  0.27523432578E+02 -0.78733059636E+01 -0.23747362449E+01  0.28725731669E+02  0.00000000000E+00 0.  1.
</event>
<event>
 5    1  0.6650580E-004  0.9118800E+02  0.7818608E-02  0.1130116E+00
         25   -1    0    0    0    0  0.00000000000E+00  0.00000000000E+00  0.99999998245E-14  0.12500000000E+03  0.12500000000E+03 0.  0.
        -11    1    3    3    0    0  0.82745840784E+01 -0.56962021885E+02  0.21960954725E+02  0.61607014305E+02  0.51100000000E-03 0. -1.
         23    2    1    0    0    0  0.43805812920E+01 -0.24493093673E+02  0.17429126038E+02  0.94621132928E+02  0.89611847610E+02 0.  0.
         11    1    3    3    0    0 -0.38940027864E+01  0.32468928212E+02 -0.45318286877E+01  0.33014118623E+02  0.51100000000E-03 0.  1.
         22    1    1    0    0    0 -0.43805812920E+01  0.24493093673E+02 -0.17429126038E+02  0.30378867072E+02  0.00000000000E+00 0. -1.
</event>
<event>
 5    1  0.6650580E-004  0.9118800E+02  0.7818608E-02  0.1130116E+00
         25   -1    0    0    0    0  0.00000000000E+00  0.00000000000E+00  0.99999998245E-14  0.12500000000E+03  0.12500000000E+03 0.  0.
        -11    1    3    3    0    0 -0.27342814198E+02  0.38845120063E+02  0.30744375652E+02  0.56584357162E+02  0.51100000000E-03 0.  1.
         23    2    1    0    0    0 -0.25411942401E+02  0.14275982050E+02  0.17340611670E+00  0.95852091846E+02  0.91312775455E+02 0.  0.
         11    1    3    3    0    0  0.19308717968E+01 -0.24569138013E+02 -0.30570969535E+02  0.39267734683E+02  0.51100000000E-03 0. -1.
         22    1    1    0    0    0  0.25411942401E+02 -0.14275982050E+02 -0.17340611670E+00  0.29147908154E+02  0.00000000000E+00 0.  1.
</event>
<event>
 5    1  0.6650580E-004  0.9118800E+02  0.7818608E-02  0.1130116E+00
         25   -1    0    0    0    0  0.00000000000E+00  0.00000000000E+00  0.99999998245E-14  0.12500000000E+03  0.12500000000E+03 0.  0.
        -11    1    3    3    0    0  0.49136092461E+02 -0.19277656956E+02  0.11578754048E+02  0.54037497959E+02  0.51100000000E-03 0.  1.
         23    2    1    0    0    0  0.11228514940E+02 -0.24609999981E+02 -0.76669617069E+01  0.96883920106E+02  0.92714508177E+02 0.  0.
         11    1    3    3    0    0 -0.37907577521E+02 -0.53323430242E+01 -0.19245715754E+02  0.42846422147E+02  0.51100000000E-03 0. -1.
         22    1    1    0    0    0 -0.11228514940E+02  0.24609999981E+02  0.76669617069E+01  0.28116079894E+02  0.00000000000E+00 0.  1.
</event>
<event>
 5    1  0.6650580E-004  0.9118800E+02  0.7818608E-02  0.1130116E+00
         25   -1    0    0    0    0  0.00000000000E+00  0.00000000000E+00  0.99999998245E-14  0.12500000000E+03  0.12500000000E+03 0.  0.
        -11    1    3    3    0    0 -0.61092086963E+02  0.30339294796E+01 -0.10994304213E+02  0.62147586783E+02  0.51100000000E-03 0. -1.
         23    2    1    0    0    0 -0.28497127884E+02 -0.32652083929E+01 -0.48614159168E+01  0.95907367802E+02  0.91388412562E+02 0.  0.
         11    1    3    3    0    0  0.32594959079E+02 -0.62991378725E+01  0.61328882967E+01  0.33759781019E+02  0.51100000000E-03 0.  1.
         22    1    1    0    0    0  0.28497127884E+02  0.32652083929E+01  0.48614159168E+01  0.29092632198E+02  0.00000000000E+00 0. -1.
</event>
<event>
 5    1  0.6650580E-004  0.9118800E+02  0.7818608E-02  0.1130116E+00
         25   -1    0    0    0    0  0.00000000000E+00  0.00000000000E+00  0.99999998245E-14  0.12500000000E+03  0.12500000000E+03 0.  0.
        -11    1    3    3    0    0  0.40992331611E+02  0.42047613773E+02  0.21211343698E+02  0.62436320973E+02  0.51100000000E-03 0.  1.
         23    2    1    0    0    0  0.19197230148E+02  0.21846872717E+02  0.11883797928E+02  0.93582741270E+02  0.88151490728E+02 0.  0.
         11    1    3    3    0    0 -0.21795101462E+02 -0.20200741056E+02 -0.93275457698E+01  0.31146420297E+02  0.51100000000E-03 0. -1.
         22    1    1    0    0    0 -0.19197230148E+02 -0.21846872717E+02 -0.11883797928E+02  0.31417258730E+02  0.00000000000E+00 0.  1.
</event>
<event>
 5    1  0.6650580E-004  0.9118800E+02  0.7818608E-02  0.1130116E+00
         25   -1    0    0    0    0  0.00000000000E+00  0.00000000000E+00  0.99999998245E-14  0.12500000000E+03  0.12500000000E+03 0.  0.
        -11    1    3    3    0    0  0.12293200881E+01  0.21428267760E+02  0.46648732637E+02  0.51349645996E+02  0.51100000000E-03 0. -1.
         23    2    1    0    0    0  0.15511990303E+02  0.26397632200E+02  0.72720752035E+01  0.93530333547E+02  0.88077144520E+02 0.  0.
         11    1    3    3    0    0  0.14282670215E+02  0.49693644396E+01 -0.39376657433E+02  0.42180687551E+02  0.51100000000E-03 0.  1.
         22    1    1    0    0    0 -0.15511990303E+02 -0.26397632200E+02 -0.72720752035E+01  0.31469666453E+02  0.00000000000E+00 0. -1.
</event>
<event>
 5    1  0.6650580E-004  0.9118800E+02  0.7818608E-02  0.1130116E+00
         25   -1    0    0    0    0  0.00000000000E+00  0.00000000000E+00  0.99999998245E-14  0.12500000000E+03  0.12500000000E+03 0.  0.
        -11    1    3    3    0    0 -0.34114347513E+01 -0.95747666337E+01  0.48176360524E+02  0.49236934884E+02  0.51100000000E-03 0. -1.
         23    2    1    0    0    0  0.48995707652E+01 -0.28075663003E+02  0.62333627779E+01  0.95826322510E+02  0.91277492448E+02 0.  0.
         11    1    3    3    0    0  0.83110055165E+01 -0.18500896369E+02 -0.41942997747E+02  0.46589387626E+02  0.51100000000E-03 0.  1.
         22    1    1    0    0    0 -0.48995707652E+01  0.28075663003E+02 -0.62333627779E+01  0.29173677490E+02  0.00000000000E+00 0.  1.
</event>
<event>
 5    1  0.6650580E-004  0.9118800E+02  0.7818608E-02  0.1130116E+00
         25   -1    0    0    0    0  0.00000000000E+00  0.00000000000E+00  0.99999998245E-14  0.12500000000E+03  0.12500000000E+03 0.  0.
        -11    1    3    3    0    0 -0.14818619985E+02 -0.39032809107E+01  0.36355171953E+02  0.39452827885E+02  0.51100000000E-03 0. -1.
         23    2    1    0    0    0  0.24782239491E+02 -0.13169738984E+02 -0.38873339105E+01  0.96667813639E+02  0.92422688825E+02 0.  0.
         11    1    3    3    0    0  0.39600859476E+02 -0.92664580729E+01 -0.40242505863E+02  0.57214985754E+02  0.51100000000E-03 0.  1.
         22    1    1    0    0    0 -0.24782239491E+02  0.13169738984E+02  0.38873339105E+01  0.28332186361E+02  0.00000000000E+00 0.  1.
</event>
<event>
 5    1  0.6650580E-004  0.9118800E+02  0.7818608E-02  0.1130116E+00
         25   -1    0    0    0    0  0.00000000000E+00  0.00000000000E+00  0.99999998245E-14  0.12500000000E+03  0.12500000000E+03 0.  0.
        -11    1    3    3    0    0 -0.40743427659E+02 -0.15383746632E+02 -0.11363867593E+02  0.45009155121E+02  0.51100000000E-03 0.  1.
         23    2    1    0    0    0  0.41055194394E+01 -0.34336044783E+01 -0.29631954521E+02  0.94888579271E+02  0.89984136479E+02 0.  0.
         11    1    3    3    0    0  0.44848947098E+02  0.11950142153E+02 -0.18268086928E+02  0.49879424150E+02  0.51100000000E-03 0. -1.
         22    1    1    0    0    0 -0.41055194394E+01  0.34336044783E+01  0.29631954521E+02  0.30111420729E+02  0.00000000000E+00 0. -1.
</event>
<event>
 5    1  0.6650580E-004  0.9118800E+02  0.7818608E-02  0.1130116E+00
         25   -1    0    0    0    0  0.00000000000E+00  0.00000000000E+00  0.99999998245E-14  0.12500000000E+03  0.12500000000E+03 0.  0.
        -11    1    3    3    0    0 -0.31015686563E+02  0.23037152880E+02  0.21402383394E+02  0.44167241718E+02  0.51100000000E-03 0.  1.
         23    2    1    0    0    0  0.13141425307E+02 -0.65625510574E+01  0.23407741216E+02  0.97365121959E+02  0.93361022327E+02 0.  0.
         11    1    3    3    0    0  0.44157111871E+02 -0.29599703937E+02  0.20053578223E+01  0.53197880241E+02  0.51100000000E-03 0. -1.
         22    1    1    0    0    0 -0.13141425307E+02  0.65625510574E+01 -0.23407741216E+02  0.27634878041E+02  0.00000000000E+00 0. -1.
</event>
<event>
 5    1  0.6650580E-004  0.9118800E+02  0.7818608E-02  0.1130116E+00
         25   -1    0    0    0    0  0.00000000000E+00  0.00000000000E+00  0.99999998245E-14  0.12500000000E+03  0.12500000000E+03 0.  0.
        -11    1    3    3    0    0  0.10309878562E+02 -0.11637426762E+02  0.29912608937E+02  0.33711829842E+02  0.51100000000E-03 0.  1.
         23    2    1    0    0    0  0.78537596689E+01  0.23355027721E+02 -0.18987571666E+02  0.93892657803E+02  0.88589866524E+02 0.  0.
         11    1    3    3    0    0 -0.24561188929E+01  0.34992454484E+02 -0.48900180603E+02  0.60180827961E+02  0.51100000000E-03 0. -1.
         22    1    1    0    0    0 -0.78537596689E+01 -0.23355027721E+02  0.18987571666E+02  0.31107342197E+02  0.00000000000E+00 0. -1.
</event>
<event>
 5    1  0.6650580E-004  0.9118800E+02  0.7818608E-02  0.1130116E+00
         25   -1    0    0    0    0  0.00000000000E+00  0.00000000000E+00  0.99999998245E-14  0.12500000000E+03  0.12500000000E+03 0.  0.
        -11    1    3    3    0    0  0.22617975225E+02  0.30231678174E+02 -0.57586153182E+01  0.38192784909E+02  0.51100000000E-03 0.  1.
         23    2    1    0    0    0  0.10477050101E+02 -0.25856889233E+02 -0.90372871530E+01  0.95673904817E+02  0.91068524772E+02 0.  0.
         11    1    3    3    0    0 -0.12140925124E+02 -0.56088567406E+02 -0.32786718349E+01  0.57481119908E+02  0.51100000000E-03 0. -1.
         22    1    1    0    0    0 -0.10477050101E+02  0.25856889233E+02  0.90372871530E+01  0.29326095183E+02  0.00000000000E+00 0. -1.
</event>
<event>
 5    1  0.6650580E-004  0.9118800E+02  0.7818608E-02  0.1130116E+00
         25   -1    0    0    0    0  0.00000000000E+00  0.00000000000E+00  0.99999998245E-14  0.12500000000E+03  0.12500000000E+03 0.  0.
        -11    1    3    3    0    0  0.26672061363E+02 -0.13178181554E+02  0.20225740090E+02  0.35974211442E+02  0.51100000000E-03 0. -1.
         23    2    1    0    0    0 -0.66359784366E+01  0.21496259237E+02 -0.17017085414E+02  0.96791728749E+02  0.92590130074E+02 0.  0.
         11    1    3    3    0    0 -0.33308039800E+02  0.34674440791E+02 -0.37242825505E+02  0.60817517306E+02  0.51100000000E-03 0.  1.
         22    1    1    0    0    0  0.66359784366E+01 -0.21496259237E+02  0.17017085414E+02  0.28208271251E+02  0.00000000000E+00 0.  1.
</event>
<event>
 5    1  0.6650580E-004  0.9118800E+02  0.7818608E-02  0.1130116E+00
         25   -1    0    0    0    0  0.00000000000E+00  0.00000000000E+00  0.99999998245E-14  0.12500000000E+03  0.12500000000E+03 0.  0.
        -11    1    3    3    0    0 -0.98819604128E+01 -0.35190456278E+02 -0.12332640231E+01  0.36572425337E+02  0.51100000000E-03 0.  1.
         23    2    1    0    0    0  0.27181548525E+02  0.10597224840E+02 -0.40375675432E+01  0.95547670615E+02  0.90895091472E+02 0.  0.
         11    1    3    3    0    0  0.37063508938E+02  0.45787681118E+02 -0.28043035201E+01  0.58975245277E+02  0.51100000000E-03 0. -1.
         22    1    1    0    0    0 -0.27181548525E+02 -0.10597224840E+02  0.40375675432E+01  0.29452329385E+02  0.00000000000E+00 0. -1.
</event>
<event>
 5    1  0.6650580E-004  0.9118800E+02  0.7818608E-02  0.1130116E+00
         25   -1    0    0    0    0  0.00000000000E+00  0.00000000000E+00  0.99999998245E-14  0.12500000000E+03  0.12500000000E+03 0.  0.
        -11    1    3    3    0    0  0.42189757183E+02 -0.20446450339E+02 -0.16104340515E+02  0.49571995384E+02  0.51100000000E-03 0. -1.
         23    2    1    0    0    0  0.35972141473E+01 -0.28255203528E+02  0.75857043286E+01  0.95523918405E+02  0.90862421282E+02 0.  0.
         11    1    3    3    0    0 -0.38592543036E+02 -0.78087531897E+01  0.23690044844E+02  0.45951923021E+02  0.51100000000E-03 0.  1.
         22    1    1    0    0    0 -0.35972141473E+01  0.28255203528E+02 -0.75857043286E+01  0.29476081595E+02  0.00000000000E+00 0. -1.
</event>
<event>
 5    1  0.6650580E-004  0.9118800E+02  0.7818608E-02  0.1130116E+00
         25   -1    0    0    0    0  0.00000000000E+00  0.00000000000E+00  0.99999998245E-14  0.12500000000E+03  0.12500000000E+03 0.  0.
        -11    1    3    3    0    0  0.81444385262E+01 -0.45494892306E+02  0.84551281625E+01  0.46985171037E+02  0.51100000000E-03 0. -1.
         23    2    1    0    0    0 -0.24752344473E+02 -0.13270564246E+02 -0.78526874952E+01  0.95837504681E+02  0.91292804592E+02 0.  0.
         11    1    3    3    0    0 -0.32896783000E+02  0.32224328060E+02 -0.16307815658E+02  0.48852333644E+02  0.51100000000E-03 0.  1.
         22    1    1    0    0    0  0.24752344473E+02  0.13270564246E+02  0.78526874952E+01  0.29162495319E+02  0.00000000000E+00 0. -1.
</event>
<event>
 5    1  0.6650580E-004  0.9118800E+02  0.7818608E-02  0.1130116E+00
         25   -1    0    0    0    0  0.00000000000E+00  0.00000000000E+00  0.99999998245E-14  0.12500000000E+03  0.12500000000E+03 0.  0.
        -11    1    3    3    0    0 -0.14516835635E+02 -0.39689649773E+02  0.43201321774E+02  0.60434766643E+02  0.51100000000E-03 0. -1.
         23    2    1    0    0    0  0.24238335197E+00 -0.25967879785E+02  0.15279749050E+02  0.94869280439E+02  0.89957323825E+02 0.  0.
         11    1    3    3    0    0  0.14759218987E+02  0.13721769988E+02 -0.27921572723E+02  0.34434513795E+02  0.51100000000E-03 0.  1.
         22    1    1    0    0    0 -0.24238335197E+00  0.25967879785E+02 -0.15279749050E+02  0.30130719561E+02  0.00000000000E+00 0. -1.
</event>
<event>
 5    1  0.6650580E-004  0.9118800E+02  0.7818608E-02  0.1130116E+00
         25   -1    0    0    0    0  0.00000000000E+00  0.00000000000E+00  0.99999998245E-14  0.12500000000E+03  0.12500000000E+03 0.  0.
        -11    1    3    3    0    0  0.52456601942E+02  0.28897087553E+02  0.27702961963E+01  0.59953409392E+02  0.51100000000E-03 0.  1.
         23    2    1    0    0    0  0.10782750761E+02  0.12451177259E+02  0.10570235193E+02  0.10542886306E+03  0.10359640807E+03 0.  0.
         11    1    3    3    0    0 -0.41673851182E+02 -0.16445910294E+02  0.77999389966E+01  0.45475453668E+02  0.51100000000E-03 0. -1.
         22    1    1    0    0    0 -0.10782750761E+02 -0.12451177259E+02 -0.10570235193E+02  0.19571136940E+02  0.00000000000E+00 0.  1.
</event>
<event>
 5    1  0.6650580E-004  0.9118800E+02  0.7818608E-02  0.1130116E+00
         25   -1    0    0    0    0  0.00000000000E+00  0.00000000000E+00  0.99999998245E-14  0.12500000000E+03  0.12500000000E+03 0.  0.
        -11    1    3    3    0    0  0.17870563271E+02 -0.23910803870E+02  0.18764529791E+02  0.35258915920E+02  0.51100000000E-03 0. -1.
         23    2    1    0    0    0 -0.51991504669E+01  0.27345106049E+02 -0.57446500080E+01  0.96578406200E+02  0.92301687688E+02 0.  0.
         11    1    3    3    0    0 -0.23069713737E+02  0.51255909919E+02 -0.24509179799E+02  0.61319490280E+02  0.51100000000E-03 0.  1.
         22    1    1    0    0    0  0.51991504669E+01 -0.27345106049E+02  0.57446500080E+01  0.28421593800E+02  0.00000000000E+00 0.  1.
</event>
<event>
 5    1  0.6650580E-004  0.9118800E+02  0.7818608E-02  0.1130116E+00
         25   -1    0    0    0    0  0.00000000000E+00  0.00000000000E+00  0.99999998245E-14  0.12500000000E+03  0.12500000000E+03 0.  0.
        -11    1    3    3    0    0 -0.57444438846E+02 -0.68805301480E+01 -0.11539302796E+02  0.58994582453E+02  0.51100000000E-03 0. -1.
         23    2    1    0    0    0 -0.21787415658E+02  0.28419029879E+00 -0.18963412897E+02  0.96114306762E+02  0.91671024268E+02 0.  0.
         11    1    3    3    0    0  0.35657023188E+02  0.71647204467E+01 -0.74241101006E+01  0.37119724309E+02  0.51100000000E-03 0.  1.
         22    1    1    0    0    0  0.21787415658E+02 -0.28419029879E+00  0.18963412897E+02  0.28885693238E+02  0.00000000000E+00 0. -1.
</event>
<event>
 5    1  0.6650580E-004  0.9118800E+02  0.7818608E-02  0.1130116E+00
         25   -1    0    0    0    0  0.00000000000E+00  0.00000000000E+00  0.99999998245E-14  0.12500000000E+03  0.12500000000E+03 0.  0.
        -11    1    3    3    0    0  0.96087972934E+01 -0.20514391651E+02  0.30938189482E+02  0.38345023392E+02  0.51100000000E-03 0. -1.
         23    2    1    0    0    0 -0.22756488868E+02 -0.23104517024E+01 -0.15174769801E+02  0.97550599075E+02  0.93609026107E+02 0.  0.
         11    1    3    3    0    0 -0.32365286161E+02  0.18203939948E+02 -0.46112959282E+02  0.59205575683E+02  0.51100000000E-03 0.  1.
         22    1    1    0    0    0  0.22756488868E+02  0.23104517024E+01  0.15174769801E+02  0.27449400925E+02  0.00000000000E+00 0.  1.
</event>
<event>
 5    1  0.6650580E-004  0.9118800E+02  0.7818608E-02  0.1130116E+00
         25   -1    0    0    0    0  0.00000000000E+00  0.00000000000E+00  0.99999998245E-14  0.12500000000E+03  0.12500000000E+03 0.  0.
        -11    1    3    3    0    0 -0.93126697909E+01  0.23146524404E+02 -0.15014836119E+02  0.29119284238E+02  0.51100000000E-03 0.  1.
         23    2    1    0    0    0  0.29553531279E+01 -0.23209250161E+02  0.24403145259E+02  0.91192945948E+02  0.84694961403E+02 0.  0.
         11    1    3    3    0    0  0.12268022919E+02 -0.46355774565E+02  0.39417981378E+02  0.62073661709E+02  0.51100000000E-03 0. -1.
         22    1    1    0    0    0 -0.29553531279E+01  0.23209250161E+02 -0.24403145259E+02  0.33807054052E+02  0.00000000000E+00 0. -1.
</event>
<event>
 5    1  0.6650580E-004  0.9118800E+02  0.7818608E-02  0.1130116E+00
         25   -1    0    0    0    0  0.00000000000E+00  0.00000000000E+00  0.99999998245E-14  0.12500000000E+03  0.12500000000E+03 0.  0.
        -11    1    3    3    0    0  0.30216045113E+02 -0.23099981557E+02  0.35013262398E+02  0.51696683396E+02  0.51100000000E-03 0. -1.
         23    2    1    0    0    0 -0.29578056684E+01  0.41477480927E+01  0.29598449081E+02  0.94966341937E+02  0.90092094460E+02 0.  0.
         11    1    3    3    0    0 -0.33173850781E+02  0.27247729650E+02 -0.54148133163E+01  0.43269658541E+02  0.51100000000E-03 0.  1.
         22    1    1    0    0    0  0.29578056684E+01 -0.41477480927E+01 -0.29598449081E+02  0.30033658063E+02  0.00000000000E+00 0. -1.
</event>
<event>
 5    1  0.6650580E-004  0.9118800E+02  0.7818608E-02  0.1130116E+00
         25   -1    0    0    0    0  0.00000000000E+00  0.00000000000E+00  0.99999998245E-14  0.12500000000E+03  0.12500000000E+03 0.  0.
        -11    1    3    3    0    0 -0.29225689085E+02 -0.11906373822E+02 -0.86826648054E+01  0.32730586742E+02  0.51100000000E-03 0. -1.
         23    2    1    0    0    0  0.22366060190E+02  0.20988511407E+02 -0.31673711550E+01  0.94165109055E+02  0.88973463818E+02 0.  0.
         11    1    3    3    0    0  0.51591749276E+02  0.32894885229E+02  0.55152936505E+01  0.61434522313E+02  0.51100000000E-03 0.  1.
         22    1    1    0    0    0 -0.22366060190E+02 -0.20988511407E+02  0.31673711550E+01  0.30834890945E+02  0.00000000000E+00 0.  1.
</event>
<event>
 5    1  0.6650580E-004  0.9118800E+02  0.7818608E-02  0.1130116E+00
         25   -1    0    0    0    0  0.00000000000E+00  0.00000000000E+00  0.99999998245E-14  0.12500000000E+03  0.12500000000E+03 0.  0.
        -11    1    3    3    0    0 -0.72663474391E+01  0.43167720646E+02 -0.30276820833E+02  0.53225349138E+02  0.51100000000E-03 0.  1.
         23    2    1    0    0    0 -0.15068715105E+02  0.22397885734E+02  0.74528186607E+01  0.96995072464E+02  0.92864245628E+02 0.  0.
         11    1    3    3    0    0 -0.78023676657E+01 -0.20769834911E+02  0.37729639494E+02  0.43769723326E+02  0.51100000000E-03 0. -1.
         22    1    1    0    0    0  0.15068715105E+02 -0.22397885734E+02 -0.74528186607E+01  0.28004927536E+02  0.00000000000E+00 0. -1.
</event>
<event>
 5    1  0.6650580E-004  0.9118800E+02  0.7818608E-02  0.1130116E+00
         25   -1    0    0    0    0  0.00000000000E+00  0.00000000000E+00  0.99999998245E-14  0.12500000000E+03  0.12500000000E+03 0.  0.
        -11    1    3    3    0    0  0.24920538367E+02 -0.23906897887E+02 -0.15978770530E+02  0.38051203752E+02  0.51100000000E-03 0. -1.
         23    2    1    0    0    0 -0.12019287308E+02  0.19746257792E+02 -0.18649062126E+02  0.95298729280E+02  0.90552097270E+02 0.  0.
         11    1    3    3    0    0 -0.36939825675E+02  0.43653155679E+02 -0.26702915967E+01  0.57247525528E+02  0.51100000000E-03 0.  1.
         22    1    1    0    0    0  0.12019287308E+02 -0.19746257792E+02  0.18649062126E+02  0.29701270720E+02  0.00000000000E+00 0.  1.
</event>
<event>
 5    1  0.6650580E-004  0.9118800E+02  0.7818608E-02  0.1130116E+00
         25   -1    0    0    0    0  0.00000000000E+00  0.00000000000E+00  0.99999998245E-14  0.12500000000E+03  0.12500000000E+03 0.  0.
        -11    1    3    3    0    0  0.20866202015E+02  0.18478705820E+02  0.35871621737E+02  0.45427240744E+02  0.51100000000E-03 0.  1.
         23    2    1    0    0    0  0.78078297291E+01  0.35841193537E+02 -0.10914184252E+01  0.88301981615E+02  0.80314976211E+02 0.  0.
         11    1    3    3    0    0 -0.13058372286E+02  0.17362487717E+02 -0.36963040162E+02  0.42874740871E+02  0.51100000000E-03 0. -1.
         22    1    1    0    0    0 -0.78078297291E+01 -0.35841193537E+02  0.10914184252E+01  0.36698018385E+02  0.00000000000E+00 0.  1.
</event>
<event>
 5    1  0.6650580E-004  0.9118800E+02  0.7818608E-02  0.1130116E+00
         25   -1    0    0    0    0  0.00000000000E+00  0.00000000000E+00  0.99999998245E-14  0.12500000000E+03  0.12500000000E+03 0.  0.
        -11    1    3    3    0    0  0.40220386896E+02  0.76104704596E+01 -0.81106342031E+01  0.41729859455E+02  0.51100000000E-03 0.  1.
         23    2    1    0    0    0  0.31769818047E+01 -0.29464180046E+02  0.26989521852E+01  0.95242388166E+02  0.90474289395E+02 0.  0.
         11    1    3    3    0    0 -0.37043405092E+02 -0.37074650506E+02  0.10809586388E+02  0.53512528711E+02  0.51100000000E-03 0. -1.
         22    1    1    0    0    0 -0.31769818047E+01  0.29464180046E+02 -0.26989521852E+01  0.29757611834E+02  0.00000000000E+00 0. -1.
</event>
<event>
 5    1  0.6650580E-004  0.9118800E+02  0.7818608E-02  0.1130116E+00
         25   -1    0    0    0    0  0.00000000000E+00  0.00000000000E+00  0.99999998245E-14  0.12500000000E+03  0.12500000000E+03 0.  0.
        -11    1    3    3    0    0  0.26587118917E+02 -0.21721068281E+02  0.31307340909E+02  0.46463203663E+02  0.51100000000E-03 0. -1.
         23    2    1    0    0    0  0.95308373356E+01 -0.23834416777E+02 -0.14590782678E+02  0.95473618193E+02  0.90793196597E+02 0.  0.
         11    1    3    3    0    0 -0.17056281581E+02 -0.21133484961E+01 -0.45898123588E+02  0.49010414530E+02  0.51100000000E-03 0.  1.
         22    1    1    0    0    0 -0.95308373356E+01  0.23834416777E+02  0.14590782678E+02  0.29526381807E+02  0.00000000000E+00 0.  1.
</event>
<event>
 5    1  0.6650580E-004  0.9118800E+02  0.7818608E-02  0.1130116E+00
         25   -1    0    0    0    0  0.00000000000E+00  0.00000000000E+00  0.99999998245E-14  0.12500000000E+03  0.12500000000E+03 0.  0.
        -11    1    3    3    0    0  0.49207814561E+02  0.90945851990E+01 -0.18104549907E+02  0.53215554319E+02  0.51100000000E-03 0.  1.
         23    2    1    0    0    0  0.19377622691E+02  0.19688418372E+02  0.10073745924E+02  0.95595809208E+02  0.90961268143E+02 0.  0.
         11    1    3    3    0    0 -0.29830191870E+02  0.10593833173E+02  0.28178295831E+02  0.42380254890E+02  0.51100000000E-03 0. -1.
         22    1    1    0    0    0 -0.19377622691E+02 -0.19688418372E+02 -0.10073745924E+02  0.29404190792E+02  0.00000000000E+00 0.  1.
</event>
<event>
 5    1  0.6650580E-004  0.9118800E+02  0.7818608E-02  0.1130116E+00
         25   -1    0    0    0    0  0.00000000000E+00  0.00000000000E+00  0.99999998245E-14  0.12500000000E+03  0.12500000000E+03 0.  0.
        -11    1    3    3    0    0 -0.14984665974E+02 -0.22320993436E+02 -0.19667147787E+02  0.33310113549E+02  0.51100000000E-03 0.  1.
         23    2    1    0    0    0  0.25513748247E+02  0.18874584791E+02 -0.54984841631E+01  0.92790767958E+02  0.87021215744E+02 0.  0.
         11    1    3    3    0    0  0.40498414220E+02  0.41195578227E+02  0.14168663624E+02  0.59480654409E+02  0.51100000000E-03 0. -1.
         22    1    1    0    0    0 -0.25513748247E+02 -0.18874584791E+02  0.54984841631E+01  0.32209232042E+02  0.00000000000E+00 0. -1.
</event>
<event>
 5    1  0.6650580E-004  0.9118800E+02  0.7818608E-02  0.1130116E+00
         25   -1    0    0    0    0  0.00000000000E+00  0.00000000000E+00  0.99999998245E-14  0.12500000000E+03  0.12500000000E+03 0.  0.
        -11    1    3    3    0    0  0.25661797528E+02  0.18027716360E+02  0.25771189676E+01  0.31466934264E+02  0.51100000000E-03 0. -1.
         23    2    1    0    0    0 -0.25043851336E+02  0.10910602587E+02  0.25558432042E+02  0.87590520091E+02  0.79199937013E+02 0.  0.
         11    1    3    3    0    0 -0.50705648864E+02 -0.71171137736E+01  0.22981313075E+02  0.56123585827E+02  0.51100000000E-03 0.  1.
         22    1    1    0    0    0  0.25043851336E+02 -0.10910602587E+02 -0.25558432042E+02  0.37409479909E+02  0.00000000000E+00 0. -1.
</event>
<event>
 5    1  0.6650580E-004  0.9118800E+02  0.7818608E-02  0.1130116E+00
         25   -1    0    0    0    0  0.00000000000E+00  0.00000000000E+00  0.99999998245E-14  0.12500000000E+03  0.12500000000E+03 0.  0.
        -11    1    3    3    0    0 -0.14229539653E+02  0.28315654764E+02 -0.92495932005E+01  0.33012286775E+02  0.51100000000E-03 0. -1.
         23    2    1    0    0    0  0.20219227232E+02 -0.21407605686E+02  0.49323071763E+01  0.95143168535E+02  0.90337102752E+02 0.  0.
         11    1    3    3    0    0  0.34448766886E+02 -0.49723260450E+02  0.14181900377E+02  0.62130881760E+02  0.51100000000E-03 0.  1.
         22    1    1    0    0    0 -0.20219227232E+02  0.21407605686E+02 -0.49323071763E+01  0.29856831465E+02  0.00000000000E+00 0.  1.
</event>
<event>
 5    1  0.6650580E-004  0.9118800E+02  0.7818608E-02  0.1130116E+00
         25   -1    0    0    0    0  0.00000000000E+00  0.00000000000E+00  0.99999998245E-14  0.12500000000E+03  0.12500000000E+03 0.  0.
        -11    1    3    3    0    0  0.38714609347E+02 -0.17601886078E+02  0.10087511438E+02  0.43708182960E+02  0.51100000000E-03 0. -1.
         23    2    1    0    0    0  0.11620331723E+02 -0.16322223877E+02 -0.28062998328E+02  0.90518425546E+02  0.83693526551E+02 0.  0.
         11    1    3    3    0    0 -0.27094277624E+02  0.12796622014E+01 -0.38150509766E+02  0.46810242586E+02  0.51100000000E-03 0.  1.
         22    1    1    0    0    0 -0.11620331723E+02  0.16322223877E+02  0.28062998328E+02  0.34481574454E+02  0.00000000000E+00 0.  1.
</event>
<event>
 5    1  0.6650580E-004  0.9118800E+02  0.7818608E-02  0.1130116E+00
         25   -1    0    0    0    0  0.00000000000E+00  0.00000000000E+00  0.99999998245E-14  0.12500000000E+03  0.12500000000E+03 0.  0.
        -11    1    3    3    0    0 -0.10358272657E+02  0.39823030458E+02 -0.15197037875E+02  0.43864764079E+02  0.51100000000E-03 0.  1.
         23    2    1    0    0    0  0.17617017303E+02 -0.61129341924E+00 -0.25401625210E+02  0.94081145855E+02  0.88855424504E+02 0.  0.
         11    1    3    3    0    0  0.27975289960E+02 -0.40434323877E+02 -0.10204587335E+02  0.50216381776E+02  0.51100000000E-03 0. -1.
         22    1    1    0    0    0 -0.17617017303E+02  0.61129341924E+00  0.25401625210E+02  0.30918854145E+02  0.00000000000E+00 0. -1.
</event>
<event>
 5    1  0.6650580E-004  0.9118800E+02  0.7818608E-02  0.1130116E+00
         25   -1    0    0    0    0  0.00000000000E+00  0.00000000000E+00  0.99999998245E-14  0.12500000000E+03  0.12500000000E+03 0.  0.
        -11    1    3    3    0    0  0.54143702603E+01  0.22134295608E+02  0.26628450730E+02  0.35047351339E+02  0.51100000000E-03 0.  1.
         23    2    1    0    0    0 -0.30548799549E+01 -0.10842866106E+01 -0.28947792654E+02  0.95871274169E+02  0.91339030771E+02 0.  0.
         11    1    3    3    0    0 -0.84692502151E+01 -0.23218582219E+02 -0.55576243384E+02  0.60823922830E+02  0.51100000000E-03 0. -1.
         22    1    1    0    0    0  0.30548799549E+01  0.10842866106E+01  0.28947792654E+02  0.29128725831E+02  0.00000000000E+00 0. -1.
</event>
<event>
 5    1  0.6650580E-004  0.9118800E+02  0.7818608E-02  0.1130116E+00
         25   -1    0    0    0    0  0.00000000000E+00  0.00000000000E+00  0.99999998245E-14  0.12500000000E+03  0.12500000000E+03 0.  0.
        -11    1    3    3    0    0 -0.45262129350E+02  0.38177060619E+02 -0.10586325699E+02  0.60151630093E+02  0.51100000000E-03 0. -1.
         23    2    1    0    0    0 -0.23146944571E+02  0.12660557753E+02 -0.15693564156E+02  0.94302138161E+02  0.89165770002E+02 0.  0.
         11    1    3    3    0    0  0.22115184779E+02 -0.25516502866E+02 -0.51072384571E+01  0.34150508067E+02  0.51100000000E-03 0.  1.
         22    1    1    0    0    0  0.23146944571E+02 -0.12660557753E+02  0.15693564156E+02  0.30697861839E+02  0.00000000000E+00 0. -1.
</event>
<event>
 5    1  0.6650580E-004  0.9118800E+02  0.7818608E-02  0.1130116E+00
         25   -1    0    0    0    0  0.00000000000E+00  0.00000000000E+00  0.99999998245E-14  0.12500000000E+03  0.12500000000E+03 0.  0.
        -11    1    3    3    0    0 -0.24475131351E+02 -0.19836344186E+02 -0.33585234361E+02  0.46048676123E+02  0.51100000000E-03 0.  1.
         23    2    1    0    0    0  0.21338713401E+01 -0.25265134187E+02  0.10280122295E+02  0.97640151193E+02  0.93728532466E+02 0.  0.
         11    1    3    3    0    0  0.26609002691E+02 -0.54287900005E+01  0.43865356655E+02  0.51591475070E+02  0.51100000000E-03 0. -1.
         22    1    1    0    0    0 -0.21338713401E+01  0.25265134187E+02 -0.10280122295E+02  0.27359848807E+02  0.00000000000E+00 0. -1.
</event>
<event>
 5    1  0.6650580E-004  0.9118800E+02  0.7818608E-02  0.1130116E+00
         25   -1    0    0    0    0  0.00000000000E+00  0.00000000000E+00  0.99999998245E-14  0.12500000000E+03  0.12500000000E+03 0.  0.
        -11    1    3    3    0    0  0.12005695131E+02 -0.21932357120E+02  0.39168298812E+02  0.46468490792E+02  0.51100000000E-03 0.  1.
         23    2    1    0    0    0  0.15579000700E+02 -0.16382240373E+02 -0.12911941018E+02  0.98965382982E+02  0.95479556689E+02 0.  0.
         11    1    3    3    0    0  0.35733055691E+01  0.55501167471E+01 -0.52080239830E+02  0.52496892190E+02  0.51100000000E-03 0. -1.
         22    1    1    0    0    0 -0.15579000700E+02  0.16382240373E+02  0.12911941018E+02  0.26034617018E+02  0.00000000000E+00 0. -1.
</event>
<event>
 5    1  0.6650580E-004  0.9118800E+02  0.7818608E-02  0.1130116E+00
         25   -1    0    0    0    0  0.00000000000E+00  0.00000000000E+00  0.99999998245E-14  0.12500000000E+03  0.12500000000E+03 0.  0.
        -11    1    3    3    0    0 -0.77398321140E+01  0.23749294660E+02 -0.45322819980E+02  0.51750285112E+02  0.51100000000E-03 0. -1.
         23    2    1    0    0    0  0.17864590875E+02  0.20879682939E+02 -0.93997499628E+01  0.95957616039E+02  0.91457115687E+02 0.  0.
         11    1    3    3    0    0  0.25604422989E+02 -0.28696117205E+01  0.35923070017E+02  0.44207330927E+02  0.51100000000E-03 0.  1.
         22    1    1    0    0    0 -0.17864590875E+02 -0.20879682939E+02  0.93997499628E+01  0.29042383961E+02  0.00000000000E+00 0.  1.
</event>
<event>
 5    1  0.6650580E-004  0.9118800E+02  0.7818608E-02  0.1130116E+00
         25   -1    0    0    0    0  0.00000000000E+00  0.00000000000E+00  0.99999998245E-14  0.12500000000E+03  0.12500000000E+03 0.  0.
        -11    1    3    3    0    0  0.43641931861E+01  0.23554382598E+02 -0.38389119097E+02  0.45250188807E+02  0.51100000000E-03 0. -1.
         23    2    1    0    0    0  0.25805437299E+02  0.20761222085E+02  0.27915999251E+01  0.91762341136E+02  0.85531194800E+02 0.  0.
         11    1    3    3    0    0  0.21441244113E+02 -0.27931605130E+01  0.41180719022E+02  0.46512152328E+02  0.51100000000E-03 0.  1.
         22    1    1    0    0    0 -0.25805437299E+02 -0.20761222085E+02 -0.27915999251E+01  0.33237658864E+02  0.00000000000E+00 0.  1.
</event>
<event>
 5    1  0.6650580E-004  0.9118800E+02  0.7818608E-02  0.1130116E+00
         25   -1    0    0    0    0  0.00000000000E+00  0.00000000000E+00  0.99999998245E-14  0.12500000000E+03  0.12500000000E+03 0.  0.
        -11    1    3    3    0    0  0.19533825006E+02  0.47048257741E+02 -0.84411459549E+01  0.51636826211E+02  0.51100000000E-03 0.  1.
         23    2    1    0    0    0  0.61815405959E+01  0.89578106871E+01 -0.26871203679E+02  0.96008356314E+02  0.91526439232E+02 0.  0.
         11    1    3    3    0    0 -0.13352284410E+02 -0.38090447054E+02 -0.18430057724E+02  0.44371530103E+02  0.51100000000E-03 0. -1.
         22    1    1    0    0    0 -0.61815405959E+01 -0.89578106871E+01  0.26871203679E+02  0.28991643686E+02  0.00000000000E+00 0.  1.
</event>
<event>
 5    1  0.6650580E-004  0.9118800E+02  0.7818608E-02  0.1130116E+00
         25   -1    0    0    0    0  0.00000000000E+00  0.00000000000E+00  0.99999998245E-14  0.12500000000E+03  0.12500000000E+03 0.  0.
        -11    1    3    3    0    0 -0.38370740243E+01 -0.25633215520E+02  0.26335155061E+02  0.36950308081E+02  0.51100000000E-03 0. -1.
         23    2    1    0    0    0  0.20374205034E+02  0.20784750792E+02 -0.73061306070E+00  0.95885606795E+02  0.91358643262E+02 0.  0.
         11    1    3    3    0    0  0.24211279058E+02  0.46417966312E+02 -0.27065768121E+02  0.58935298714E+02  0.51100000000E-03 0.  1.
         22    1    1    0    0    0 -0.20374205034E+02 -0.20784750792E+02  0.73061306070E+00  0.29114393205E+02  0.00000000000E+00 0.  1.
</event>
<event>
 5    1  0.6650580E-004  0.9118800E+02  0.7818608E-02  0.1130116E+00
         25   -1    0    0    0    0  0.00000000000E+00  0.00000000000E+00  0.99999998245E-14  0.12500000000E+03  0.12500000000E+03 0.  0.
        -11    1    3    3    0    0  0.50426441613E+02  0.64654423913E+00  0.16550031987E+02  0.53076808421E+02  0.51100000000E-03 0. -1.
         23    2    1    0    0    0  0.24170481693E+02 -0.11401410671E+02 -0.13753793791E+02  0.94943865947E+02  0.90060904319E+02 0.  0.
         11    1    3    3    0    0 -0.26255959919E+02 -0.12047954910E+02 -0.30303825778E+02  0.41867057525E+02  0.51100000000E-03 0.  1.
         22    1    1    0    0    0 -0.24170481693E+02  0.11401410671E+02  0.13753793791E+02  0.30056134053E+02  0.00000000000E+00 0. -1.
</event>
<event>
 5    1  0.6650580E-004  0.9118800E+02  0.7818608E-02  0.1130116E+00
         25   -1    0    0    0    0  0.00000000000E+00  0.00000000000E+00  0.99999998245E-14  0.12500000000E+03  0.12500000000E+03 0.  0.
        -11    1    3    3    0    0  0.22278424891E+02 -0.32908356538E+01  0.52480246757E+02  0.57108091500E+02  0.51100000000E-03 0.  1.
         23    2    1    0    0    0 -0.62942424073E+00 -0.16574840124E+02  0.20643690856E+02  0.98518242653E+02  0.94892363566E+02 0.  0.
         11    1    3    3    0    0 -0.22907849132E+02 -0.13284004471E+02 -0.31836555900E+02  0.41410151152E+02  0.51100000000E-03 0. -1.
         22    1    1    0    0    0  0.62942424073E+00  0.16574840124E+02 -0.20643690856E+02  0.26481757347E+02  0.00000000000E+00 0.  1.
</event>
<event>
 5    1  0.6650580E-004  0.9118800E+02  0.7818608E-02  0.1130116E+00
         25   -1    0    0    0    0  0.00000000000E+00  0.00000000000E+00  0.99999998245E-14  0.12500000000E+03  0.12500000000E+03 0.  0.
        -11    1    3    3    0    0 -0.25012910382E+02 -0.12454129934E+02  0.17120449654E+02  0.32769815911E+02  0.51100000000E-03 0. -1.
         23    2    1    0    0    0  0.82186881703E+01  0.17377228502E+02 -0.24529942221E+02  0.93835389125E+02  0.88509023728E+02 0.  0.
         11    1    3    3    0    0  0.33231598552E+02  0.29831358436E+02 -0.41650391874E+02  0.61065573215E+02  0.51100000000E-03 0.  1.
         22    1    1    0    0    0 -0.82186881703E+01 -0.17377228502E+02  0.24529942221E+02  0.31164610875E+02  0.00000000000E+00 0.  1.
</event>
<event>
 5    1  0.6650580E-004  0.9118800E+02  0.7818608E-02  0.1130116E+00
         25   -1    0    0    0    0  0.00000000000E+00  0.00000000000E+00  0.99999998245E-14  0.12500000000E+03  0.12500000000E+03 0.  0.
        -11    1    3    3    0    0  0.10041931438E+02  0.20093889362E+02 -0.35196756082E+02  0.41754238296E+02  0.51100000000E-03 0.  1.
         23    2    1    0    0    0  0.23443544577E+02  0.42900164817E+01  0.15532636107E+02  0.96552384842E+02  0.92266441410E+02 0.  0.
         11    1    3    3    0    0  0.13401613139E+02 -0.15803872880E+02  0.50729392190E+02  0.54798146546E+02  0.51100000000E-03 0. -1.
         22    1    1    0    0    0 -0.23443544577E+02 -0.42900164817E+01 -0.15532636107E+02  0.28447615158E+02  0.00000000000E+00 0. -1.
</event>
<event>
 5    1  0.6650580E-004  0.9118800E+02  0.7818608E-02  0.1130116E+00
         25   -1    0    0    0    0  0.00000000000E+00  0.00000000000E+00  0.99999998245E-14  0.12500000000E+03  0.12500000000E+03 0.  0.
        -11    1    3    3    0    0 -0.12313154789E+02  0.20665409166E+02 -0.30698296045E+02  0.39000747392E+02  0.51100000000E-03 0.  1.
         23    2    1    0    0    0  0.11389319751E+02  0.16268135422E+02  0.21033011296E+02  0.96073258071E+02  0.91615034343E+02 0.  0.
         11    1    3    3    0    0  0.23702474539E+02 -0.43972737437E+01  0.51731307341E+02  0.57072510678E+02  0.51100000000E-03 0. -1.
         22    1    1    0    0    0 -0.11389319751E+02 -0.16268135422E+02 -0.21033011296E+02  0.28926741929E+02  0.00000000000E+00 0. -1.
</event>
<event>
 5    1  0.6650580E-004  0.9118800E+02  0.7818608E-02  0.1130116E+00
         25   -1    0    0    0    0  0.00000000000E+00  0.00000000000E+00  0.99999998245E-14  0.12500000000E+03  0.12500000000E+03 0.  0.
        -11    1    3    3    0    0  0.36021463547E+02 -0.33784852688E+02  0.22422180338E+02  0.54237591010E+02  0.51100000000E-03 0. -1.
         23    2    1    0    0    0  0.37346970568E+02 -0.45074182009E+01  0.15239679446E+02  0.84412306557E+02  0.74014030016E+02 0.  0.
         11    1    3    3    0    0  0.13255070214E+01  0.29277434487E+02 -0.71825008923E+01  0.30174715547E+02  0.51100000000E-03 0.  1.
         22    1    1    0    0    0 -0.37346970568E+02  0.45074182009E+01 -0.15239679446E+02  0.40587693443E+02  0.00000000000E+00 0. -1.
</event>
<event>
 5    1  0.6650580E-004  0.9118800E+02  0.7818608E-02  0.1130116E+00
         25   -1    0    0    0    0  0.00000000000E+00  0.00000000000E+00  0.99999998245E-14  0.12500000000E+03  0.12500000000E+03 0.  0.
        -11    1    3    3    0    0  0.12908450113E+02 -0.48015939365E+02 -0.31675913992E+02  0.58953558374E+02  0.51100000000E-03 0.  1.
         23    2    1    0    0    0 -0.69430449359E+01 -0.30993256414E+02 -0.16106138156E+02  0.89388267349E+02  0.81988211575E+02 0.  0.
         11    1    3    3    0    0 -0.19851495049E+02  0.17022682951E+02  0.15569775837E+02  0.30434708975E+02  0.51100000000E-03 0. -1.
         22    1    1    0    0    0  0.69430449359E+01  0.30993256414E+02  0.16106138156E+02  0.35611732651E+02  0.00000000000E+00 0.  1.
</event>
<event>
 5    1  0.6650580E-004  0.9118800E+02  0.7818608E-02  0.1130116E+00
         25   -1    0    0    0    0  0.00000000000E+00  0.00000000000E+00  0.99999998245E-14  0.12500000000E+03  0.12500000000E+03 0.  0.
        -11    1    3    3    0    0 -0.25376261268E+02 -0.41207536698E+02 -0.87381141790E+00  0.48402265064E+02  0.51100000000E-03 0.  1.
         23    2    1    0    0    0  0.18862452220E+02 -0.19012161002E+02 -0.36306944820E+01  0.97973414715E+02  0.94171936790E+02 0.  0.
         11    1    3    3    0    0  0.44238713488E+02  0.22195375695E+02 -0.27568830641E+01  0.49571149652E+02  0.51100000000E-03 0. -1.
         22    1    1    0    0    0 -0.18862452220E+02  0.19012161002E+02  0.36306944820E+01  0.27026585285E+02  0.00000000000E+00 0.  1.
</event>
<event>
 5    1  0.6650580E-004  0.9118800E+02  0.7818608E-02  0.1130116E+00
         25   -1    0    0    0    0  0.00000000000E+00  0.00000000000E+00  0.99999998245E-14  0.12500000000E+03  0.12500000000E+03 0.  0.
        -11    1    3    3    0    0 -0.24411343056E+02  0.44330171585E+02  0.92756693106E+01  0.51450129484E+02  0.51100000000E-03 0.  1.
         23    2    1    0    0    0 -0.26851485579E+02  0.68689858170E+01 -0.12220201156E+02  0.94709431166E+02  0.89734930721E+02 0.  0.
         11    1    3    3    0    0 -0.24401425237E+01 -0.37461185768E+02 -0.21495870467E+02  0.43259301682E+02  0.51100000000E-03 0. -1.
         22    1    1    0    0    0  0.26851485579E+02 -0.68689858170E+01  0.12220201156E+02  0.30290568834E+02  0.00000000000E+00 0.  1.
</event>
<event>
 5    1  0.6650580E-004  0.9118800E+02  0.7818608E-02  0.1130116E+00
         25   -1    0    0    0    0  0.00000000000E+00  0.00000000000E+00  0.99999998245E-14  0.12500000000E+03  0.12500000000E+03 0.  0.
        -11    1    3    3    0    0 -0.34649019795E+01 -0.41262541498E+02 -0.38930129045E+01  0.41590364586E+02  0.51100000000E-03 0.  1.
         23    2    1    0    0    0  0.34702344352E+01  0.16908234081E+01  0.28755107716E+02  0.95986940344E+02  0.91497186219E+02 0.  0.
         11    1    3    3    0    0  0.69351364146E+01  0.42953364907E+02  0.32648120621E+02  0.54396575758E+02  0.51100000000E-03 0. -1.
         22    1    1    0    0    0 -0.34702344352E+01 -0.16908234081E+01 -0.28755107716E+02  0.29013059656E+02  0.00000000000E+00 0. -1.
</event>
<event>
 5    1  0.6650580E-004  0.9118800E+02  0.7818608E-02  0.1130116E+00
         25   -1    0    0    0    0  0.00000000000E+00  0.00000000000E+00  0.99999998245E-14  0.12500000000E+03  0.12500000000E+03 0.  0.
        -11    1    3    3    0    0  0.13234857525E+02  0.20894802193E+02  0.55416529716E+02  0.60685632389E+02  0.51100000000E-03 0. -1.
         23    2    1    0    0    0  0.10482518135E+02  0.16557758281E+02  0.18199162867E+02  0.98255802970E+02  0.94546024466E+02 0.  0.
         11    1    3    3    0    0 -0.27523393905E+01 -0.43370439119E+01 -0.37217366849E+02  0.37570170581E+02  0.51100000000E-03 0.  1.
         22    1    1    0    0    0 -0.10482518135E+02 -0.16557758281E+02 -0.18199162867E+02  0.26744197030E+02  0.00000000000E+00 0. -1.
</event>
<event>
 5    1  0.6650580E-004  0.9118800E+02  0.7818608E-02  0.1130116E+00
         25   -1    0    0    0    0  0.00000000000E+00  0.00000000000E+00  0.99999998245E-14  0.12500000000E+03  0.12500000000E+03 0.  0.
        -11    1    3    3    0    0  0.40697201739E+02  0.35005802390E+02 -0.15420458397E+02  0.55852116950E+02  0.51100000000E-03 0.  1.
         23    2    1    0    0    0  0.25056627274E+02 -0.18381545275E+01 -0.14713589628E+02  0.95884658646E+02  0.91357345964E+02 0.  0.
         11    1    3    3    0    0 -0.15640574465E+02 -0.36843956917E+02  0.70686876946E+00  0.40032541696E+02  0.51100000000E-03 0. -1.
         22    1    1    0    0    0 -0.25056627274E+02  0.18381545275E+01  0.14713589628E+02  0.29115341354E+02  0.00000000000E+00 0.  1.
</event>
<event>
 5    1  0.6650580E-004  0.9118800E+02  0.7818608E-02  0.1130116E+00
         25   -1    0    0    0    0  0.00000000000E+00  0.00000000000E+00  0.99999998245E-14  0.12500000000E+03  0.12500000000E+03 0.  0.
        -11    1    3    3    0    0 -0.57348120847E+01 -0.70358600495E+01  0.32247094023E+02  0.33500245812E+02  0.51100000000E-03 0.  1.
         23    2    1    0    0    0 -0.37945879335E+01  0.26074609775E+02 -0.17556677854E+02  0.93337386245E+02  0.87802884698E+02 0.  0.
         11    1    3    3    0    0  0.19402241512E+01  0.33110469825E+02 -0.49803771877E+02  0.59837140433E+02  0.51100000000E-03 0. -1.
         22    1    1    0    0    0  0.37945879335E+01 -0.26074609775E+02  0.17556677854E+02  0.31662613755E+02  0.00000000000E+00 0. -1.
</event>
<event>
 5    1  0.6650580E-004  0.9118800E+02  0.7818608E-02  0.1130116E+00
         25   -1    0    0    0    0  0.00000000000E+00  0.00000000000E+00  0.99999998245E-14  0.12500000000E+03  0.12500000000E+03 0.  0.
        -11    1    3    3    0    0 -0.29402477638E+02  0.20477531772E+02  0.90360156518E+01  0.36952463758E+02  0.51100000000E-03 0. -1.
         23    2    1    0    0    0  0.23944553495E+02 -0.99621568195E+01 -0.20914881278E+00  0.99064889555E+02  0.95609740031E+02 0.  0.
         11    1    3    3    0    0  0.53347031132E+02 -0.30439688591E+02 -0.92451644646E+01  0.62112425797E+02  0.51100000000E-03 0.  1.
         22    1    1    0    0    0 -0.23944553495E+02  0.99621568195E+01  0.20914881278E+00  0.25935110445E+02  0.00000000000E+00 0.  1.
</event>
<event>
 5    1  0.6650580E-004  0.9118800E+02  0.7818608E-02  0.1130116E+00
         25   -1    0    0    0    0  0.00000000000E+00  0.00000000000E+00  0.99999998245E-14  0.12500000000E+03  0.12500000000E+03 0.  0.
        -11    1    3    3    0    0 -0.73067954097E+01 -0.32478329668E+02 -0.25797377327E+02  0.42115743308E+02  0.51100000000E-03 0. -1.
         23    2    1    0    0    0 -0.57324798791E+01  0.20557660158E+02 -0.20446670764E+02  0.95444204256E+02  0.90752691773E+02 0.  0.
         11    1    3    3    0    0  0.15743155306E+01  0.53035989825E+02  0.53507065622E+01  0.53328460948E+02  0.51100000000E-03 0.  1.
         22    1    1    0    0    0  0.57324798791E+01 -0.20557660158E+02  0.20446670764E+02  0.29555795744E+02  0.00000000000E+00 0.  1.
</event>
<event>
 5    1  0.6650580E-004  0.9118800E+02  0.7818608E-02  0.1130116E+00
         25   -1    0    0    0    0  0.00000000000E+00  0.00000000000E+00  0.99999998245E-14  0.12500000000E+03  0.12500000000E+03 0.  0.
        -11    1    3    3    0    0 -0.53430411499E+00 -0.47554308290E+02 -0.11995357183E+02  0.49046776776E+02  0.51100000000E-03 0. -1.
         23    2    1    0    0    0  0.25970264326E+02 -0.10528855040E+02 -0.11831268172E+02  0.94581414823E+02  0.89556427495E+02 0.  0.
         11    1    3    3    0    0  0.26504568441E+02  0.37025453250E+02  0.16408901112E+00  0.45534638047E+02  0.51100000000E-03 0.  1.
         22    1    1    0    0    0 -0.25970264326E+02  0.10528855040E+02  0.11831268172E+02  0.30418585177E+02  0.00000000000E+00 0. -1.
</event>
<event>
 5    1  0.6650580E-004  0.9118800E+02  0.7818608E-02  0.1130116E+00
         25   -1    0    0    0    0  0.00000000000E+00  0.00000000000E+00  0.99999998245E-14  0.12500000000E+03  0.12500000000E+03 0.  0.
        -11    1    3    3    0    0  0.17477814964E+02 -0.24712871415E+02  0.33165618540E+02  0.44901651226E+02  0.51100000000E-03 0. -1.
         23    2    1    0    0    0 -0.17520591036E+02 -0.23159512512E+02 -0.36611464759E+01  0.95729910769E+02  0.91145365721E+02 0.  0.
         11    1    3    3    0    0 -0.34998406000E+02  0.15533589035E+01 -0.36826765015E+02  0.50828259543E+02  0.51100000000E-03 0.  1.
         22    1    1    0    0    0  0.17520591036E+02  0.23159512512E+02  0.36611464759E+01  0.29270089231E+02  0.00000000000E+00 0.  1.
</event>
<event>
 5    1  0.6650580E-004  0.9118800E+02  0.7818608E-02  0.1130116E+00
         25   -1    0    0    0    0  0.00000000000E+00  0.00000000000E+00  0.99999998245E-14  0.12500000000E+03  0.12500000000E+03 0.  0.
        -11    1    3    3    0    0  0.13060104402E+02  0.28529761465E+02  0.21422474053E+02  0.37992578368E+02  0.51100000000E-03 0.  1.
         23    2    1    0    0    0  0.33918340678E+01 -0.27091711676E+02  0.22942658081E+01  0.97600565052E+02  0.93675723979E+02 0.  0.
         11    1    3    3    0    0 -0.96682703340E+01 -0.55621473141E+02 -0.19128208245E+02  0.59607986684E+02  0.51100000000E-03 0. -1.
         22    1    1    0    0    0 -0.33918340678E+01  0.27091711676E+02 -0.22942658081E+01  0.27399434948E+02  0.00000000000E+00 0. -1.
</event>
<event>
 5    1  0.6650580E-004  0.9118800E+02  0.7818608E-02  0.1130116E+00
         25   -1    0    0    0    0  0.00000000000E+00  0.00000000000E+00  0.99999998245E-14  0.12500000000E+03  0.12500000000E+03 0.  0.
        -11    1    3    3    0    0 -0.13707778889E+02 -0.46212211266E+01  0.32542160193E+02  0.35612512928E+02  0.51100000000E-03 0. -1.
         23    2    1    0    0    0  0.21613729420E+02 -0.11562837852E+02 -0.15764196441E+02  0.95856177188E+02  0.91318367797E+02 0.  0.
         11    1    3    3    0    0  0.35321508309E+02 -0.69416167257E+01 -0.48306356634E+02  0.60243664260E+02  0.51100000000E-03 0.  1.
         22    1    1    0    0    0 -0.21613729420E+02  0.11562837852E+02  0.15764196441E+02  0.29143822812E+02  0.00000000000E+00 0.  1.
</event>
<event>
 5    1  0.6650580E-004  0.9118800E+02  0.7818608E-02  0.1130116E+00
         25   -1    0    0    0    0  0.00000000000E+00  0.00000000000E+00  0.99999998245E-14  0.12500000000E+03  0.12500000000E+03 0.  0.
        -11    1    3    3    0    0  0.15776803873E+02 -0.37663250982E+02 -0.31923916958E+02  0.51832079730E+02  0.51100000000E-03 0. -1.
         23    2    1    0    0    0  0.19727909851E+02  0.49611257274E+01 -0.20461657071E+02  0.96147225339E+02  0.91715900119E+02 0.  0.
         11    1    3    3    0    0  0.39511059784E+01  0.42624376709E+02  0.11462259888E+02  0.44315145608E+02  0.51100000000E-03 0.  1.
         22    1    1    0    0    0 -0.19727909851E+02 -0.49611257274E+01  0.20461657071E+02  0.28852774661E+02  0.00000000000E+00 0.  1.
</event>
<event>
 5    1  0.6650580E-004  0.9118800E+02  0.7818608E-02  0.1130116E+00
         25   -1    0    0    0    0  0.00000000000E+00  0.00000000000E+00  0.99999998245E-14  0.12500000000E+03  0.12500000000E+03 0.  0.
        -11    1    3    3    0    0 -0.72799551638E+01  0.70134399287E+01 -0.32227152989E+02  0.33775367901E+02  0.51100000000E-03 0.  1.
         23    2    1    0    0    0 -0.17098933006E+02 -0.36604152529E+02 -0.11942677474E+02  0.82870852874E+02  0.71363248375E+02 0.  0.
         11    1    3    3    0    0 -0.98189778426E+01 -0.43617592457E+02  0.20284475514E+02  0.49095484974E+02  0.51100000000E-03 0. -1.
         22    1    1    0    0    0  0.17098933006E+02  0.36604152529E+02  0.11942677474E+02  0.42129147126E+02  0.00000000000E+00 0. -1.
</event>
<event>
 5    1  0.6650580E-004  0.9118800E+02  0.7818608E-02  0.1130116E+00
         25   -1    0    0    0    0  0.00000000000E+00  0.00000000000E+00  0.99999998245E-14  0.12500000000E+03  0.12500000000E+03 0.  0.
        -11    1    3    3    0    0  0.20013387201E+02 -0.22824842586E+02 -0.51014869278E+02  0.59363507259E+02  0.51100000000E-03 0.  1.
         23    2    1    0    0    0  0.20020476118E+02 -0.19726856668E+01 -0.20919270840E+02  0.95977132374E+02  0.91483785960E+02 0.  0.
         11    1    3    3    0    0  0.70889170833E-02  0.20852156920E+02  0.30095598438E+02  0.36613625115E+02  0.51100000000E-03 0. -1.
         22    1    1    0    0    0 -0.20020476118E+02  0.19726856668E+01  0.20919270840E+02  0.29022867626E+02  0.00000000000E+00 0.  1.
</event>
<event>
 5    1  0.6650580E-004  0.9118800E+02  0.7818608E-02  0.1130116E+00
         25   -1    0    0    0    0  0.00000000000E+00  0.00000000000E+00  0.99999998245E-14  0.12500000000E+03  0.12500000000E+03 0.  0.
        -11    1    3    3    0    0 -0.47555381268E+02 -0.28095324931E+00 -0.10047357475E+02  0.48605993609E+02  0.51100000000E-03 0. -1.
         23    2    1    0    0    0 -0.57745776662E+01  0.24050703194E+01 -0.29551819200E+02  0.94793376082E+02  0.89851789189E+02 0.  0.
         11    1    3    3    0    0  0.41780803602E+02  0.26860235687E+01 -0.19504461726E+02  0.46187382473E+02  0.51100000000E-03 0.  1.
         22    1    1    0    0    0  0.57745776662E+01 -0.24050703194E+01  0.29551819200E+02  0.30206623918E+02  0.00000000000E+00 0.  1.
</event>
<event>
 5    1  0.6650580E-004  0.9118800E+02  0.7818608E-02  0.1130116E+00
         25   -1    0    0    0    0  0.00000000000E+00  0.00000000000E+00  0.99999998245E-14  0.12500000000E+03  0.12500000000E+03 0.  0.
        -11    1    3    3    0    0 -0.26889932076E+02  0.63560799651E+01  0.34751778451E+02  0.44397683559E+02  0.51100000000E-03 0. -1.
         23    2    1    0    0    0  0.20398078797E+02 -0.72195222103E+01  0.19408900216E+02  0.95932689716E+02  0.91423041018E+02 0.  0.
         11    1    3    3    0    0  0.47288010873E+02 -0.13575602175E+02 -0.15342878236E+02  0.51535006157E+02  0.51100000000E-03 0.  1.
         22    1    1    0    0    0 -0.20398078797E+02  0.72195222103E+01 -0.19408900216E+02  0.29067310284E+02  0.00000000000E+00 0.  1.
</event>
<event>
 5    1  0.6650580E-004  0.9118800E+02  0.7818608E-02  0.1130116E+00
         25   -1    0    0    0    0  0.00000000000E+00  0.00000000000E+00  0.99999998245E-14  0.12500000000E+03  0.12500000000E+03 0.  0.
        -11    1    3    3    0    0 -0.42365095503E+02  0.98093913740E+01  0.63476196862E+01  0.43946760428E+02  0.51100000000E-03 0.  1.
         23    2    1    0    0    0 -0.82230210053E+01  0.19410194837E+01 -0.29643601889E+02  0.94175841227E+02  0.88988540312E+02 0.  0.
         11    1    3    3    0    0  0.34142074498E+02 -0.78683718903E+01 -0.35991221575E+02  0.50229080800E+02  0.51100000000E-03 0. -1.
         22    1    1    0    0    0  0.82230210053E+01 -0.19410194837E+01  0.29643601889E+02  0.30824158773E+02  0.00000000000E+00 0.  1.
</event>
<event>
 5    1  0.6650580E-004  0.9118800E+02  0.7818608E-02  0.1130116E+00
         25   -1    0    0    0    0  0.00000000000E+00  0.00000000000E+00  0.99999998245E-14  0.12500000000E+03  0.12500000000E+03 0.  0.
        -11    1    3    3    0    0 -0.31304366869E+01 -0.12859477883E+02  0.37700931928E+02  0.39956552326E+02  0.51100000000E-03 0.  1.
         23    2    1    0    0    0  0.17360938228E+02 -0.19818039310E+02 -0.13393007816E+02  0.95444467242E+02  0.90753054002E+02 0.  0.
         11    1    3    3    0    0  0.20491374915E+02 -0.69585614267E+01 -0.51093939744E+02  0.55487914917E+02  0.51100000000E-03 0. -1.
         22    1    1    0    0    0 -0.17360938228E+02  0.19818039310E+02  0.13393007816E+02  0.29555532758E+02  0.00000000000E+00 0. -1.
</event>
<event>
 5    1  0.6650580E-004  0.9118800E+02  0.7818608E-02  0.1130116E+00
         25   -1    0    0    0    0  0.00000000000E+00  0.00000000000E+00  0.99999998245E-14  0.12500000000E+03  0.12500000000E+03 0.  0.
        -11    1    3    3    0    0 -0.59437285413E+01  0.15829896961E+02 -0.33389748712E+02  0.37427114050E+02  0.51100000000E-03 0. -1.
         23    2    1    0    0    0  0.27233738414E+01  0.21041839854E+02  0.22411933691E+02  0.94137878211E+02  0.88935198616E+02 0.  0.
         11    1    3    3    0    0  0.86671023827E+01  0.52119428934E+01  0.55801682404E+02  0.56710764161E+02  0.51100000000E-03 0.  1.
         22    1    1    0    0    0 -0.27233738414E+01 -0.21041839854E+02 -0.22411933691E+02  0.30862121789E+02  0.00000000000E+00 0.  1.
</event>
<event>
 5    1  0.6650580E-004  0.9118800E+02  0.7818608E-02  0.1130116E+00
         25   -1    0    0    0    0  0.00000000000E+00  0.00000000000E+00  0.99999998245E-14  0.12500000000E+03  0.12500000000E+03 0.  0.
        -11    1    3    3    0    0  0.30075686295E+02 -0.13592723158E+01  0.17755768106E+02  0.34952279305E+02  0.51100000000E-03 0.  1.
         23    2    1    0    0    0 -0.15923602011E+02 -0.68450001211E+01 -0.22688664341E+02  0.96448456832E+02  0.92125535049E+02 0.  0.
         11    1    3    3    0    0 -0.45999288306E+02 -0.54857278053E+01 -0.40444432447E+02  0.61496177527E+02  0.51100000000E-03 0. -1.
         22    1    1    0    0    0  0.15923602011E+02  0.68450001211E+01  0.22688664341E+02  0.28551543168E+02  0.00000000000E+00 0. -1.
</event>
<event>
 5    1  0.6650580E-004  0.9118800E+02  0.7818608E-02  0.1130116E+00
         25   -1    0    0    0    0  0.00000000000E+00  0.00000000000E+00  0.99999998245E-14  0.12500000000E+03  0.12500000000E+03 0.  0.
        -11    1    3    3    0    0  0.42370157905E+01 -0.45786937132E+02  0.15807709731E+01  0.46009724536E+02  0.51100000000E-03 0.  1.
         23    2    1    0    0    0  0.12561327624E+02 -0.37055445832E+01 -0.25214175455E+02  0.96587456006E+02  0.92313942617E+02 0.  0.
         11    1    3    3    0    0  0.83243118331E+01  0.42081392549E+02 -0.26794946428E+02  0.50577731470E+02  0.51100000000E-03 0. -1.
         22    1    1    0    0    0 -0.12561327624E+02  0.37055445832E+01  0.25214175455E+02  0.28412543994E+02  0.00000000000E+00 0. -1.
</event>
<event>
 5    1  0.6650580E-004  0.9118800E+02  0.7818608E-02  0.1130116E+00
         25   -1    0    0    0    0  0.00000000000E+00  0.00000000000E+00  0.99999998245E-14  0.12500000000E+03  0.12500000000E+03 0.  0.
        -11    1    3    3    0    0 -0.93002017224E+01 -0.17392910835E+02  0.37019159064E+02  0.41945503186E+02  0.51100000000E-03 0.  1.
         23    2    1    0    0    0  0.26774716012E+02  0.94135362842E+01  0.77518976184E+01  0.95579055087E+02  0.90938241525E+02 0.  0.
         11    1    3    3    0    0  0.36074917734E+02  0.26806447120E+02 -0.29267261446E+02  0.53633551901E+02  0.51100000000E-03 0. -1.
         22    1    1    0    0    0 -0.26774716012E+02 -0.94135362842E+01 -0.77518976184E+01  0.29420944913E+02  0.00000000000E+00 0. -1.
</event>
<event>
 5    1  0.6650580E-004  0.9118800E+02  0.7818608E-02  0.1130116E+00
         25   -1    0    0    0    0  0.00000000000E+00  0.00000000000E+00  0.99999998245E-14  0.12500000000E+03  0.12500000000E+03 0.  0.
        -11    1    3    3    0    0  0.24688166461E+02 -0.52535073580E+02  0.12933912578E+02  0.59470375937E+02  0.51100000000E-03 0.  1.
         23    2    1    0    0    0 -0.46669432239E+00 -0.30673093868E+02  0.90077107858E+01  0.93028210175E+02  0.87361619397E+02 0.  0.
         11    1    3    3    0    0 -0.25154860784E+02  0.21861979711E+02 -0.39262017922E+01  0.33557834238E+02  0.51100000000E-03 0. -1.
         22    1    1    0    0    0  0.46669432239E+00  0.30673093868E+02 -0.90077107858E+01  0.31971789825E+02  0.00000000000E+00 0.  1.
</event>
<event>
 5    1  0.6650580E-004  0.9118800E+02  0.7818608E-02  0.1130116E+00
         25   -1    0    0    0    0  0.00000000000E+00  0.00000000000E+00  0.99999998245E-14  0.12500000000E+03  0.12500000000E+03 0.  0.
        -11    1    3    3    0    0  0.32363901555E+02 -0.12639566270E+02  0.24212036849E+01  0.34828766658E+02  0.51100000000E-03 0. -1.
         23    2    1    0    0    0 -0.27923845405E+02 -0.10363290264E+02  0.17615451429E+01  0.95163077092E+02  0.90364646146E+02 0.  0.
         11    1    3    3    0    0 -0.60287746960E+02  0.22762760059E+01 -0.65965854199E+00  0.60334310435E+02  0.51100000000E-03 0.  1.
         22    1    1    0    0    0  0.27923845405E+02  0.10363290264E+02 -0.17615451429E+01  0.29836922908E+02  0.00000000000E+00 0. -1.
</event>
<event>
 5    1  0.6650580E-004  0.9118800E+02  0.7818608E-02  0.1130116E+00
         25   -1    0    0    0    0  0.00000000000E+00  0.00000000000E+00  0.99999998245E-14  0.12500000000E+03  0.12500000000E+03 0.  0.
        -11    1    3    3    0    0 -0.22214073601E+02 -0.19560045015E+02 -0.13068504738E+02  0.32355003373E+02  0.51100000000E-03 0.  1.
         23    2    1    0    0    0  0.15237018305E+01  0.26055930317E+02  0.18783389998E+02  0.92843369085E+02  0.87096740877E+02 0.  0.
         11    1    3    3    0    0  0.23737775431E+02  0.45615975332E+02  0.31851894736E+02  0.60488365712E+02  0.51100000000E-03 0. -1.
         22    1    1    0    0    0 -0.15237018305E+01 -0.26055930317E+02 -0.18783389998E+02  0.32156630915E+02  0.00000000000E+00 0. -1.
</event>
<event>
 5    1  0.6650580E-004  0.9118800E+02  0.7818608E-02  0.1130116E+00
         25   -1    0    0    0    0  0.00000000000E+00  0.00000000000E+00  0.99999998245E-14  0.12500000000E+03  0.12500000000E+03 0.  0.
        -11    1    3    3    0    0  0.36848891637E+02  0.20738849891E+02 -0.26976427395E+01  0.42370012820E+02  0.51100000000E-03 0.  1.
         23    2    1    0    0    0 -0.49396671218E+01 -0.56159493675E+01  0.24927964431E+02  0.98974193398E+02  0.95491090420E+02 0.  0.
         11    1    3    3    0    0 -0.41788558759E+02 -0.26354799259E+02  0.27625607171E+02  0.56604180579E+02  0.51100000000E-03 0. -1.
         22    1    1    0    0    0  0.49396671218E+01  0.56159493675E+01 -0.24927964431E+02  0.26025806602E+02  0.00000000000E+00 0. -1.
</event>
<event>
 5    1  0.6650580E-004  0.9118800E+02  0.7818608E-02  0.1130116E+00
         25   -1    0    0    0    0  0.00000000000E+00  0.00000000000E+00  0.99999998245E-14  0.12500000000E+03  0.12500000000E+03 0.  0.
        -11    1    3    3    0    0 -0.25646493344E+02 -0.26566864758E+02  0.15783533660E+02  0.40157948889E+02  0.51100000000E-03 0. -1.
         23    2    1    0    0    0  0.23935175472E+02 -0.42679323350E+01  0.18281989297E+02  0.94580614669E+02  0.89555310658E+02 0.  0.
         11    1    3    3    0    0  0.49581668816E+02  0.22298932423E+02  0.24984556372E+01  0.54422665780E+02  0.51100000000E-03 0.  1.
         22    1    1    0    0    0 -0.23935175472E+02  0.42679323350E+01 -0.18281989297E+02  0.30419385331E+02  0.00000000000E+00 0.  1.
</event>
<event>
 5    1  0.6650580E-004  0.9118800E+02  0.7818608E-02  0.1130116E+00
         25   -1    0    0    0    0  0.00000000000E+00  0.00000000000E+00  0.99999998245E-14  0.12500000000E+03  0.12500000000E+03 0.  0.
        -11    1    3    3    0    0 -0.71950246585E+01  0.25947422095E+02  0.16543858420E+02  0.31602790144E+02  0.51100000000E-03 0.  1.
         23    2    1    0    0    0 -0.47434434396E+01 -0.28687498466E+02 -0.12294890294E+02  0.93430439483E+02  0.87935259542E+02 0.  0.
         11    1    3    3    0    0  0.24515812189E+01 -0.54634920561E+02 -0.28838748714E+02  0.61827649339E+02  0.51100000000E-03 0. -1.
         22    1    1    0    0    0  0.47434434396E+01  0.28687498466E+02  0.12294890294E+02  0.31569560517E+02  0.00000000000E+00 0. -1.
</event>
<event>
 5    1  0.6650580E-004  0.9118800E+02  0.7818608E-02  0.1130116E+00
         25   -1    0    0    0    0  0.00000000000E+00  0.00000000000E+00  0.99999998245E-14  0.12500000000E+03  0.12500000000E+03 0.  0.
        -11    1    3    3    0    0 -0.31072746493E+02 -0.23245305182E+02 -0.16623028363E+02  0.42215931351E+02  0.51100000000E-03 0. -1.
         23    2    1    0    0    0 -0.14485717126E+02 -0.16404980061E+02  0.27504101101E+02  0.89851245415E+02  0.82691059697E+02 0.  0.
         11    1    3    3    0    0  0.16587029367E+02  0.68403251204E+01  0.44127129464E+02  0.47635314064E+02  0.51100000000E-03 0.  1.
         22    1    1    0    0    0  0.14485717126E+02  0.16404980061E+02 -0.27504101101E+02  0.35148754585E+02  0.00000000000E+00 0.  1.
</event>
<event>
 5    1  0.6650580E-004  0.9118800E+02  0.7818608E-02  0.1130116E+00
         25   -1    0    0    0    0  0.00000000000E+00  0.00000000000E+00  0.99999998245E-14  0.12500000000E+03  0.12500000000E+03 0.  0.
        -11    1    3    3    0    0 -0.16330500878E+02  0.16324625026E+02 -0.22679758200E+02  0.32365878228E+02  0.51100000000E-03 0.  1.
         23    2    1    0    0    0  0.25056931951E+02 -0.19174788381E+02  0.42209857696E+01  0.93167012878E+02  0.87559997827E+02 0.  0.
         11    1    3    3    0    0  0.41387432829E+02 -0.35499413407E+02  0.26900743969E+02  0.60801134651E+02  0.51100000000E-03 0. -1.
         22    1    1    0    0    0 -0.25056931951E+02  0.19174788381E+02 -0.42209857696E+01  0.31832987122E+02  0.00000000000E+00 0. -1.
</event>
<event>
 5    1  0.6650580E-004  0.9118800E+02  0.7818608E-02  0.1130116E+00
         25   -1    0    0    0    0  0.00000000000E+00  0.00000000000E+00  0.99999998245E-14  0.12500000000E+03  0.12500000000E+03 0.  0.
        -11    1    3    3    0    0 -0.22000258114E+02  0.24872792949E+02  0.14692636252E+02  0.36311716380E+02  0.51100000000E-03 0. -1.
         23    2    1    0    0    0 -0.11824289347E+02 -0.10956566573E+02 -0.27828890190E+02  0.92839351704E+02  0.87090974997E+02 0.  0.
         11    1    3    3    0    0  0.10175968767E+02 -0.35829359522E+02 -0.42521526442E+02  0.56527635324E+02  0.51100000000E-03 0.  1.
         22    1    1    0    0    0  0.11824289347E+02  0.10956566573E+02  0.27828890190E+02  0.32160648296E+02  0.00000000000E+00 0.  1.
</event>
<event>
 5    1  0.6650580E-004  0.9118800E+02  0.7818608E-02  0.1130116E+00
         25   -1    0    0    0    0  0.00000000000E+00  0.00000000000E+00  0.99999998245E-14  0.12500000000E+03  0.12500000000E+03 0.  0.
        -11    1    3    3    0    0 -0.27548526730E+02  0.23290765063E+02  0.87897151144E+01  0.37130043823E+02  0.51100000000E-03 0.  1.
         23    2    1    0    0    0  0.25024812068E+02  0.83531190462E+01 -0.12527714212E+02  0.95794530646E+02  0.91233944678E+02 0.  0.
         11    1    3    3    0    0  0.52573338798E+02 -0.14937646017E+02 -0.21317429326E+02  0.58664486823E+02  0.51100000000E-03 0. -1.
         22    1    1    0    0    0 -0.25024812068E+02 -0.83531190462E+01  0.12527714212E+02  0.29205469354E+02  0.00000000000E+00 0. -1.
</event>
<event>
 5    1  0.6650580E-004  0.9118800E+02  0.7818608E-02  0.1130116E+00
         25   -1    0    0    0    0  0.00000000000E+00  0.00000000000E+00  0.99999998245E-14  0.12500000000E+03  0.12500000000E+03 0.  0.
        -11    1    3    3    0    0  0.37304303155E+02 -0.10901218469E+02 -0.35615894932E+01  0.39027330398E+02  0.51100000000E-03 0. -1.
         23    2    1    0    0    0 -0.16887122121E+02 -0.15237872339E+02 -0.18803601189E+02  0.95488255480E+02  0.90813346320E+02 0.  0.
         11    1    3    3    0    0 -0.54191425276E+02 -0.43366538698E+01 -0.15242011696E+02  0.56460925082E+02  0.51100000000E-03 0.  1.
         22    1    1    0    0    0  0.16887122121E+02  0.15237872339E+02  0.18803601189E+02  0.29511744520E+02  0.00000000000E+00 0.  1.
</event>
<event>
 5    1  0.6650580E-004  0.9118800E+02  0.7818608E-02  0.1130116E+00
         25   -1    0    0    0    0  0.00000000000E+00  0.00000000000E+00  0.99999998245E-14  0.12500000000E+03  0.12500000000E+03 0.  0.
        -11    1    3    3    0    0  0.15186418051E+02  0.50815401544E+02  0.20251930219E+02  0.56771233959E+02  0.51100000000E-03 0. -1.
         23    2    1    0    0    0 -0.29568116750E+01  0.40712032978E+02  0.23665584229E+02  0.77816610535E+02  0.61880147332E+02 0.  0.
         11    1    3    3    0    0 -0.18143229726E+02 -0.10103368566E+02  0.34136540102E+01  0.21045376577E+02  0.51100000000E-03 0.  1.
         22    1    1    0    0    0  0.29568116750E+01 -0.40712032978E+02 -0.23665584229E+02  0.47183389465E+02  0.00000000000E+00 0. -1.
</event>
<event>
 5    1  0.6650580E-004  0.9118800E+02  0.7818608E-02  0.1130116E+00
         25   -1    0    0    0    0  0.00000000000E+00  0.00000000000E+00  0.99999998245E-14  0.12500000000E+03  0.12500000000E+03 0.  0.
        -11    1    3    3    0    0 -0.34266870829E+02 -0.18640870429E+02 -0.40456965196E+02  0.56200235941E+02  0.51100000000E-03 0.  1.
         23    2    1    0    0    0 -0.28535743014E+02 -0.40346193222E+01 -0.39821980040E+01  0.95906621314E+02  0.91387391518E+02 0.  0.
         11    1    3    3    0    0  0.57311278148E+01  0.14606251106E+02  0.36474767192E+02  0.39706385373E+02  0.51100000000E-03 0. -1.
         22    1    1    0    0    0  0.28535743014E+02  0.40346193222E+01  0.39821980040E+01  0.29093378686E+02  0.00000000000E+00 0.  1.
</event>
<event>
 5    1  0.6650580E-004  0.9118800E+02  0.7818608E-02  0.1130116E+00
         25   -1    0    0    0    0  0.00000000000E+00  0.00000000000E+00  0.99999998245E-14  0.12500000000E+03  0.12500000000E+03 0.  0.
        -11    1    3    3    0    0  0.18240170265E+02 -0.21922916547E+02 -0.26054522615E+02  0.38628438101E+02  0.51100000000E-03 0.  1.
         23    2    1    0    0    0 -0.12691449884E+01  0.27184128514E+02  0.53334170274E+00  0.97781035555E+02  0.93916233361E+02 0.  0.
         11    1    3    3    0    0 -0.19509315253E+02  0.49107045061E+02  0.26587864317E+02  0.59152597454E+02  0.51100000000E-03 0. -1.
         22    1    1    0    0    0  0.12691449884E+01 -0.27184128514E+02 -0.53334170274E+00  0.27218964445E+02  0.00000000000E+00 0. -1.
</event>
<event>
 5    1  0.6650580E-004  0.9118800E+02  0.7818608E-02  0.1130116E+00
         25   -1    0    0    0    0  0.00000000000E+00  0.00000000000E+00  0.99999998245E-14  0.12500000000E+03  0.12500000000E+03 0.  0.
        -11    1    3    3    0    0  0.30863186531E+01  0.62495454712E+01 -0.34262182875E+02  0.34963972272E+02  0.51100000000E-03 0.  1.
         23    2    1    0    0    0 -0.10137683861E+02  0.21787079469E+01  0.26112608962E+02  0.96903954919E+02  0.92741515675E+02 0.  0.
         11    1    3    3    0    0 -0.13224002514E+02 -0.40708375243E+01  0.60374791837E+02  0.61939982647E+02  0.51100000000E-03 0. -1.
         22    1    1    0    0    0  0.10137683861E+02 -0.21787079469E+01 -0.26112608962E+02  0.28096045081E+02  0.00000000000E+00 0. -1.
</event>
<event>
 5    1  0.6650580E-004  0.9118800E+02  0.7818608E-02  0.1130116E+00
         25   -1    0    0    0    0  0.00000000000E+00  0.00000000000E+00  0.99999998245E-14  0.12500000000E+03  0.12500000000E+03 0.  0.
        -11    1    3    3    0    0 -0.32600827047E+02 -0.34304497817E+02 -0.31418055712E+02  0.56804108299E+02  0.51100000000E-03 0. -1.
         23    2    1    0    0    0 -0.18670375280E+02 -0.24187939414E+02  0.19820311167E+01  0.94380271497E+02  0.89275236625E+02 0.  0.
         11    1    3    3    0    0  0.13930451767E+02  0.10116558403E+02  0.33400086828E+02  0.37576163199E+02  0.51100000000E-03 0.  1.
         22    1    1    0    0    0  0.18670375280E+02  0.24187939414E+02 -0.19820311167E+01  0.30619728503E+02  0.00000000000E+00 0. -1.
</event>
<event>
 5    1  0.6650580E-004  0.9118800E+02  0.7818608E-02  0.1130116E+00
         25   -1    0    0    0    0  0.00000000000E+00  0.00000000000E+00  0.99999998245E-14  0.12500000000E+03  0.12500000000E+03 0.  0.
        -11    1    3    3    0    0 -0.42635539147E+02 -0.83441221762E+01 -0.41428229973E+01  0.43641454558E+02  0.51100000000E-03 0. -1.
         23    2    1    0    0    0 -0.46535508855E+01  0.27997741570E+02  0.18961314223E+01  0.96554888236E+02  0.92269832876E+02 0.  0.
         11    1    3    3    0    0  0.37981988262E+02  0.36341863747E+02  0.60389544195E+01  0.52913433678E+02  0.51100000000E-03 0.  1.
         22    1    1    0    0    0  0.46535508855E+01 -0.27997741570E+02 -0.18961314223E+01  0.28445111764E+02  0.00000000000E+00 0.  1.
</event>
<event>
 5    1  0.6650580E-004  0.9118800E+02  0.7818608E-02  0.1130116E+00
         25   -1    0    0    0    0  0.00000000000E+00  0.00000000000E+00  0.99999998245E-14  0.12500000000E+03  0.12500000000E+03 0.  0.
        -11    1    3    3    0    0  0.24312897644E+02 -0.74835856680E+01  0.37155275002E+02  0.45029273890E+02  0.51100000000E-03 0.  1.
         23    2    1    0    0    0  0.26891986795E+02  0.10091360294E+01 -0.12397527078E+02  0.95370690407E+02  0.90651379481E+02 0.  0.
         11    1    3    3    0    0  0.25790891506E+01  0.84927216974E+01 -0.49552802080E+02  0.50341416517E+02  0.51100000000E-03 0. -1.
         22    1    1    0    0    0 -0.26891986795E+02 -0.10091360294E+01  0.12397527078E+02  0.29629309593E+02  0.00000000000E+00 0. -1.
</event>
<event>
 5    1  0.6650580E-004  0.9118800E+02  0.7818608E-02  0.1130116E+00
         25   -1    0    0    0    0  0.00000000000E+00  0.00000000000E+00  0.99999998245E-14  0.12500000000E+03  0.12500000000E+03 0.  0.
        -11    1    3    3    0    0 -0.49838791904E+02  0.54203125442E+01 -0.27996768809E+02  0.57420414754E+02  0.51100000000E-03 0.  1.
         23    2    1    0    0    0 -0.26366534157E+02 -0.13399947698E+02 -0.56707890992E+01  0.94885044068E+02  0.89979225475E+02 0.  0.
         11    1    3    3    0    0  0.23472257747E+02 -0.18820260242E+02  0.22325979710E+02  0.37464629314E+02  0.51100000000E-03 0. -1.
         22    1    1    0    0    0  0.26366534157E+02  0.13399947698E+02  0.56707890992E+01  0.30114955932E+02  0.00000000000E+00 0.  1.
</event>
<event>
 5    1  0.6650580E-004  0.9118800E+02  0.7818608E-02  0.1130116E+00
         25   -1    0    0    0    0  0.00000000000E+00  0.00000000000E+00  0.99999998245E-14  0.12500000000E+03  0.12500000000E+03 0.  0.
        -11    1    3    3    0    0 -0.71438706920E+01  0.56031247934E+02 -0.17770241710E+02  0.59214163206E+02  0.51100000000E-03 0. -1.
         23    2    1    0    0    0  0.10676941650E+02  0.21907598694E+02 -0.10828043068E+02  0.98331920200E+02  0.94646606120E+02 0.  0.
         11    1    3    3    0    0  0.17820812342E+02 -0.34123649241E+02  0.69421986417E+01  0.39117756994E+02  0.51100000000E-03 0.  1.
         22    1    1    0    0    0 -0.10676941650E+02 -0.21907598694E+02  0.10828043068E+02  0.26668079800E+02  0.00000000000E+00 0. -1.
</event>
<event>
 5    1  0.6650580E-004  0.9118800E+02  0.7818608E-02  0.1130116E+00
         25   -1    0    0    0    0  0.00000000000E+00  0.00000000000E+00  0.99999998245E-14  0.12500000000E+03  0.12500000000E+03 0.  0.
        -11    1    3    3    0    0 -0.24251557444E+02  0.32789495965E+02  0.17394419337E+02  0.44337962384E+02  0.51100000000E-03 0.  1.
         23    2    1    0    0    0 -0.23196019180E+02 -0.16661848933E+02  0.10874058742E+01  0.96419325285E+02  0.92085999594E+02 0.  0.
         11    1    3    3    0    0  0.10555382644E+01 -0.49451344898E+02 -0.16307013463E+02  0.52081362900E+02  0.51100000000E-03 0. -1.
         22    1    1    0    0    0  0.23196019180E+02  0.16661848933E+02 -0.10874058742E+01  0.28580674715E+02  0.00000000000E+00 0.  1.
</event>
<event>
 5    1  0.6650580E-004  0.9118800E+02  0.7818608E-02  0.1130116E+00
         25   -1    0    0    0    0  0.00000000000E+00  0.00000000000E+00  0.99999998245E-14  0.12500000000E+03  0.12500000000E+03 0.  0.
        -11    1    3    3    0    0  0.46703742941E+02 -0.20597100292E+00  0.37355420771E+02  0.59805597481E+02  0.51100000000E-03 0. -1.
         23    2    1    0    0    0  0.14683867982E+02 -0.93847499339E+01  0.23165336765E+02  0.96011686188E+02  0.91530986813E+02 0.  0.
         11    1    3    3    0    0 -0.32019874959E+02 -0.91787789310E+01 -0.14190084006E+02  0.36206088707E+02  0.51100000000E-03 0.  1.
         22    1    1    0    0    0 -0.14683867982E+02  0.93847499339E+01 -0.23165336765E+02  0.28988313812E+02  0.00000000000E+00 0. -1.
</event>
<event>
 5    1  0.6650580E-004  0.9118800E+02  0.7818608E-02  0.1130116E+00
         25   -1    0    0    0    0  0.00000000000E+00  0.00000000000E+00  0.99999998245E-14  0.12500000000E+03  0.12500000000E+03 0.  0.
        -11    1    3    3    0    0 -0.35318170700E+02  0.49644933432E+02  0.30850818598E+00  0.60926905179E+02  0.51100000000E-03 0. -1.
         23    2    1    0    0    0 -0.22048776323E+02  0.17288973992E+02 -0.56910310515E+01  0.96409005029E+02  0.92071989536E+02 0.  0.
         11    1    3    3    0    0  0.13269394377E+02 -0.32355959440E+02 -0.59995392374E+01  0.35482099850E+02  0.51100000000E-03 0.  1.
         22    1    1    0    0    0  0.22048776323E+02 -0.17288973992E+02  0.56910310515E+01  0.28590994971E+02  0.00000000000E+00 0. -1.
</event>
<event>
 5    1  0.6650580E-004  0.9118800E+02  0.7818608E-02  0.1130116E+00
         25   -1    0    0    0    0  0.00000000000E+00  0.00000000000E+00  0.99999998245E-14  0.12500000000E+03  0.12500000000E+03 0.  0.
        -11    1    3    3    0    0  0.25564643305E+01 -0.33110967810E+02  0.10864007285E+02  0.34941355923E+02  0.51100000000E-03 0. -1.
         23    2    1    0    0    0 -0.12764733796E+02  0.15566218418E+02 -0.21639328247E+02  0.95444863193E+02  0.90753599368E+02 0.  0.
         11    1    3    3    0    0 -0.15321198126E+02  0.48677186227E+02 -0.32503335532E+02  0.60503507270E+02  0.51100000000E-03 0.  1.
         22    1    1    0    0    0  0.12764733796E+02 -0.15566218418E+02  0.21639328247E+02  0.29555136807E+02  0.00000000000E+00 0.  1.
</event>
<event>
 5    1  0.6650580E-004  0.9118800E+02  0.7818608E-02  0.1130116E+00
         25   -1    0    0    0    0  0.00000000000E+00  0.00000000000E+00  0.99999998245E-14  0.12500000000E+03  0.12500000000E+03 0.  0.
        -11    1    3    3    0    0  0.58771685644E+01  0.35515441794E+02 -0.15079724614E+02  0.39029294265E+02  0.51100000000E-03 0. -1.
         23    2    1    0    0    0  0.15574206683E+02  0.12076504237E+01  0.26769706571E+02  0.94005943743E+02  0.88749568651E+02 0.  0.
         11    1    3    3    0    0  0.96970381189E+01 -0.34307791371E+02  0.41849431185E+02  0.54976649477E+02  0.51100000000E-03 0.  1.
         22    1    1    0    0    0 -0.15574206683E+02 -0.12076504237E+01 -0.26769706571E+02  0.30994056257E+02  0.00000000000E+00 0.  1.
</event>
<event>
 5    1  0.6650580E-004  0.9118800E+02  0.7818608E-02  0.1130116E+00
         25   -1    0    0    0    0  0.00000000000E+00  0.00000000000E+00  0.99999998245E-14  0.12500000000E+03  0.12500000000E+03 0.  0.
        -11    1    3    3    0    0  0.11308191201E+02  0.31352072577E+02 -0.42204276473E+01  0.33595232591E+02  0.51100000000E-03 0. -1.
         23    2    1    0    0    0 -0.23944880088E+01 -0.28616440449E+02 -0.78920431531E+01  0.95218821684E+02  0.90441723894E+02 0.  0.
         11    1    3    3    0    0 -0.13702679209E+02 -0.59968513025E+02 -0.36716155058E+01  0.61623589093E+02  0.51100000000E-03 0.  1.
         22    1    1    0    0    0  0.23944880088E+01  0.28616440449E+02  0.78920431531E+01  0.29781178316E+02  0.00000000000E+00 0.  1.
</event>
<event>
 5    1  0.6650580E-004  0.9118800E+02  0.7818608E-02  0.1130116E+00
         25   -1    0    0    0    0  0.00000000000E+00  0.00000000000E+00  0.99999998245E-14  0.12500000000E+03  0.12500000000E+03 0.  0.
        -11    1    3    3    0    0 -0.53546157031E+01 -0.60168829827E+01  0.39297528102E+02  0.40114467532E+02  0.51100000000E-03 0. -1.
         23    2    1    0    0    0  0.24871360194E+00 -0.27568799574E+02 -0.11151946033E+02  0.95260019019E+02  0.90498645044E+02 0.  0.
         11    1    3    3    0    0  0.56033293050E+01 -0.21551916591E+02 -0.50449474136E+02  0.55145551488E+02  0.51100000000E-03 0.  1.
         22    1    1    0    0    0 -0.24871360194E+00  0.27568799574E+02  0.11151946033E+02  0.29739980981E+02  0.00000000000E+00 0.  1.
</event>
<event>
 5    1  0.6650580E-004  0.9118800E+02  0.7818608E-02  0.1130116E+00
         25   -1    0    0    0    0  0.00000000000E+00  0.00000000000E+00  0.99999998245E-14  0.12500000000E+03  0.12500000000E+03 0.  0.
        -11    1    3    3    0    0 -0.48837301891E+02  0.97123552787E+01 -0.15031591586E+01  0.49816376713E+02  0.51100000000E-03 0. -1.
         23    2    1    0    0    0 -0.32697094228E+02  0.38040136724E+01 -0.28258453567E+02  0.81616700344E+02  0.69131578068E+02 0.  0.
         11    1    3    3    0    0  0.16140207663E+02 -0.59083416063E+01 -0.26755294409E+02  0.31800323632E+02  0.51100000000E-03 0.  1.
         22    1    1    0    0    0  0.32697094228E+02 -0.38040136724E+01  0.28258453567E+02  0.43383299656E+02  0.00000000000E+00 0. -1.
</event>
<event>
 5    1  0.6650580E-004  0.9118800E+02  0.7818608E-02  0.1130116E+00
         25   -1    0    0    0    0  0.00000000000E+00  0.00000000000E+00  0.99999998245E-14  0.12500000000E+03  0.12500000000E+03 0.  0.
        -11    1    3    3    0    0  0.33682682824E+02 -0.39477060284E+02 -0.25330779011E+02  0.57746080183E+02  0.51100000000E-03 0.  1.
         23    2    1    0    0    0  0.14012011274E+02 -0.25535161930E+02  0.38731129414E+01  0.95616638066E+02  0.90989886891E+02 0.  0.
         11    1    3    3    0    0 -0.19670671550E+02  0.13941898355E+02  0.29203891952E+02  0.37870557883E+02  0.51100000000E-03 0. -1.
         22    1    1    0    0    0 -0.14012011274E+02  0.25535161930E+02 -0.38731129414E+01  0.29383361934E+02  0.00000000000E+00 0.  1.
</event>
<event>
 5    1  0.6650580E-004  0.9118800E+02  0.7818608E-02  0.1130116E+00
         25   -1    0    0    0    0  0.00000000000E+00  0.00000000000E+00  0.99999998245E-14  0.12500000000E+03  0.12500000000E+03 0.  0.
        -11    1    3    3    0    0 -0.76591786709E+01  0.32739041082E+02  0.23766809432E+02  0.41174859560E+02  0.51100000000E-03 0.  1.
         23    2    1    0    0    0  0.29485779977E+02 -0.11751332822E-01  0.14884684897E+01  0.95476671980E+02  0.90797400817E+02 0.  0.
         11    1    3    3    0    0  0.37144958647E+02 -0.32750792415E+02 -0.22278340942E+02  0.54301812421E+02  0.51100000000E-03 0. -1.
         22    1    1    0    0    0 -0.29485779977E+02  0.11751332822E-01 -0.14884684897E+01  0.29523328020E+02  0.00000000000E+00 0. -1.
</event>
<event>
 5    1  0.6650580E-004  0.9118800E+02  0.7818608E-02  0.1130116E+00
         25   -1    0    0    0    0  0.00000000000E+00  0.00000000000E+00  0.99999998245E-14  0.12500000000E+03  0.12500000000E+03 0.  0.
        -11    1    3    3    0    0 -0.76653424635E+01  0.31628250394E+02 -0.40287225366E+02  0.51789615041E+02  0.51100000000E-03 0. -1.
         23    2    1    0    0    0 -0.66221469197E+01  0.27100455658E+02  0.44344003642E+01  0.96751965851E+02  0.92536433164E+02 0.  0.
         11    1    3    3    0    0  0.10431955438E+01 -0.45277947362E+01  0.44721625731E+02  0.44962350810E+02  0.51100000000E-03 0.  1.
         22    1    1    0    0    0  0.66221469197E+01 -0.27100455658E+02 -0.44344003642E+01  0.28248034149E+02  0.00000000000E+00 0.  1.
</event>
<event>
 5    1  0.6650580E-004  0.9118800E+02  0.7818608E-02  0.1130116E+00
         25   -1    0    0    0    0  0.00000000000E+00  0.00000000000E+00  0.99999998245E-14  0.12500000000E+03  0.12500000000E+03 0.  0.
        -11    1    3    3    0    0 -0.21239291757E+01 -0.32626127510E+02 -0.13629218595E+02  0.35422180498E+02  0.51100000000E-03 0. -1.
         23    2    1    0    0    0 -0.78518226707E+01  0.12929350291E+02  0.25236356466E+02  0.95577340265E+02  0.90935884370E+02 0.  0.
         11    1    3    3    0    0 -0.57278934950E+01  0.45555477800E+02  0.38865575061E+02  0.60155159767E+02  0.51100000000E-03 0.  1.
         22    1    1    0    0    0  0.78518226707E+01 -0.12929350291E+02 -0.25236356466E+02  0.29422659735E+02  0.00000000000E+00 0.  1.
</event>
<event>
 5    1  0.6650580E-004  0.9118800E+02  0.7818608E-02  0.1130116E+00
         25   -1    0    0    0    0  0.00000000000E+00  0.00000000000E+00  0.99999998245E-14  0.12500000000E+03  0.12500000000E+03 0.  0.
        -11    1    3    3    0    0 -0.25804008993E+02 -0.32890005511E+02  0.65867732252E+01  0.42320029825E+02  0.51100000000E-03 0.  1.
         23    2    1    0    0    0  0.17020500219E+02  0.20931705154E+01  0.19425632667E+02  0.99087956564E+02  0.95639893042E+02 0.  0.
         11    1    3    3    0    0  0.42824509212E+02  0.34983176027E+02  0.12838859442E+02  0.56767926739E+02  0.51100000000E-03 0. -1.
         22    1    1    0    0    0 -0.17020500219E+02 -0.20931705154E+01 -0.19425632667E+02  0.25912043436E+02  0.00000000000E+00 0. -1.
</event>
<event>
 5    1  0.6650580E-004  0.9118800E+02  0.7818608E-02  0.1130116E+00
         25   -1    0    0    0    0  0.00000000000E+00  0.00000000000E+00  0.99999998245E-14  0.12500000000E+03  0.12500000000E+03 0.  0.
        -11    1    3    3    0    0  0.29762611002E+02  0.24431210018E+02  0.27849010894E+02  0.47521199949E+02  0.51100000000E-03 0.  1.
         23    2    1    0    0    0  0.53105424362E+01 -0.17679169723E+02  0.21554659748E+02  0.96621165282E+02  0.92359576226E+02 0.  0.
         11    1    3    3    0    0 -0.24452068566E+02 -0.42110379741E+02 -0.62943511452E+01  0.49099965333E+02  0.51100000000E-03 0. -1.
         22    1    1    0    0    0 -0.53105424362E+01  0.17679169723E+02 -0.21554659748E+02  0.28378834718E+02  0.00000000000E+00 0. -1.
</event>
<event>
 5    1  0.6650580E-004  0.9118800E+02  0.7818608E-02  0.1130116E+00
         25   -1    0    0    0    0  0.00000000000E+00  0.00000000000E+00  0.99999998245E-14  0.12500000000E+03  0.12500000000E+03 0.  0.
        -11    1    3    3    0    0 -0.23566693618E+02 -0.23816191925E+02 -0.43509857784E+02  0.54915460214E+02  0.51100000000E-03 0.  1.
         23    2    1    0    0    0 -0.24114945942E+02 -0.15656028444E+02 -0.31718873053E+01  0.96074186035E+02  0.91616300454E+02 0.  0.
         11    1    3    3    0    0 -0.54825232395E+00  0.81601634803E+01  0.40337970479E+02  0.41158725821E+02  0.51100000000E-03 0. -1.
         22    1    1    0    0    0  0.24114945942E+02  0.15656028444E+02  0.31718873053E+01  0.28925813965E+02  0.00000000000E+00 0. -1.
</event>
<event>
 5    1  0.6650580E-004  0.9118800E+02  0.7818608E-02  0.1130116E+00
         25   -1    0    0    0    0  0.00000000000E+00  0.00000000000E+00  0.99999998245E-14  0.12500000000E+03  0.12500000000E+03 0.  0.
        -11    1    3    3    0    0 -0.34534727738E+00  0.21484422395E+02  0.37557568666E+02  0.43269742716E+02  0.51100000000E-03 0. -1.
         23    2    1    0    0    0 -0.28168800695E+02  0.54702333568E+01 -0.42616951991E+01  0.95990228688E+02  0.91501678520E+02 0.  0.
         11    1    3    3    0    0 -0.27823453418E+02 -0.16014189038E+02 -0.41819263865E+02  0.52720485972E+02  0.51100000000E-03 0.  1.
         22    1    1    0    0    0  0.28168800695E+02 -0.54702333568E+01  0.42616951991E+01  0.29009771312E+02  0.00000000000E+00 0. -1.
</event>
<event>
 5    1  0.6650580E-004  0.9118800E+02  0.7818608E-02  0.1130116E+00
         25   -1    0    0    0    0  0.00000000000E+00  0.00000000000E+00  0.99999998245E-14  0.12500000000E+03  0.12500000000E+03 0.  0.
        -11    1    3    3    0    0  0.28853427101E+02  0.40278897957E+01 -0.15451063487E+02  0.32976954299E+02  0.51100000000E-03 0.  1.
         23    2    1    0    0    0 -0.28479423162E+02 -0.12419764792E+02 -0.50467154444E+01  0.93523064986E+02  0.88066828298E+02 0.  0.
         11    1    3    3    0    0 -0.57332850263E+02 -0.16447654588E+02  0.10404348043E+02  0.60546110686E+02  0.51100000000E-03 0. -1.
         22    1    1    0    0    0  0.28479423162E+02  0.12419764792E+02  0.50467154444E+01  0.31476935014E+02  0.00000000000E+00 0. -1.
</event>
<event>
 5    1  0.6650580E-004  0.9118800E+02  0.7818608E-02  0.1130116E+00
         25   -1    0    0    0    0  0.00000000000E+00  0.00000000000E+00  0.99999998245E-14  0.12500000000E+03  0.12500000000E+03 0.  0.
        -11    1    3    3    0    0 -0.29057293973E+02  0.43196058285E+02 -0.33759093300E+02  0.62047579849E+02  0.51100000000E-03 0. -1.
         23    2    1    0    0    0 -0.15861664574E+02  0.22142003521E+02 -0.11402230022E+02  0.95472528512E+02  0.90791696361E+02 0.  0.
         11    1    3    3    0    0  0.13195629399E+02 -0.21054054764E+02  0.22356863278E+02  0.33424948663E+02  0.51100000000E-03 0.  1.
         22    1    1    0    0    0  0.15861664574E+02 -0.22142003521E+02  0.11402230022E+02  0.29527471488E+02  0.00000000000E+00 0. -1.
</event>
<event>
 5    1  0.6650580E-004  0.9118800E+02  0.7818608E-02  0.1130116E+00
         25   -1    0    0    0    0  0.00000000000E+00  0.00000000000E+00  0.99999998245E-14  0.12500000000E+03  0.12500000000E+03 0.  0.
        -11    1    3    3    0    0  0.43783039059E+02  0.11324415193E+02  0.16281278580E+02  0.48065340124E+02  0.51100000000E-03 0.  1.
         23    2    1    0    0    0  0.90548380138E+01 -0.21677054271E+02  0.17039170897E+02  0.95979005562E+02  0.91486345377E+02 0.  0.
         11    1    3    3    0    0 -0.34728201045E+02 -0.33001469465E+02  0.75789231687E+00  0.47913665438E+02  0.51100000000E-03 0. -1.
         22    1    1    0    0    0 -0.90548380138E+01  0.21677054271E+02 -0.17039170897E+02  0.29020994438E+02  0.00000000000E+00 0.  1.
</event>
<event>
 5    1  0.6650580E-004  0.9118800E+02  0.7818608E-02  0.1130116E+00
         25   -1    0    0    0    0  0.00000000000E+00  0.00000000000E+00  0.99999998245E-14  0.12500000000E+03  0.12500000000E+03 0.  0.
        -11    1    3    3    0    0  0.38997633715E+02  0.35562108655E+01  0.43440076195E+01  0.39399650678E+02  0.51100000000E-03 0. -1.
         23    2    1    0    0    0 -0.14382973119E+02  0.13585544917E+02  0.20938517931E+02  0.96192735646E+02  0.91777905355E+02 0.  0.
         11    1    3    3    0    0 -0.53380606834E+02  0.10029334052E+02  0.16594510311E+02  0.56793084968E+02  0.51100000000E-03 0.  1.
         22    1    1    0    0    0  0.14382973119E+02 -0.13585544917E+02 -0.20938517931E+02  0.28807264354E+02  0.00000000000E+00 0.  1.
</event>
<event>
 5    1  0.6650580E-004  0.9118800E+02  0.7818608E-02  0.1130116E+00
         25   -1    0    0    0    0  0.00000000000E+00  0.00000000000E+00  0.99999998245E-14  0.12500000000E+03  0.12500000000E+03 0.  0.
        -11    1    3    3    0    0  0.62712782435E+01 -0.33801808787E+02  0.32975065729E+02  0.47636605339E+02  0.51100000000E-03 0. -1.
         23    2    1    0    0    0  0.26633552031E+02  0.41098904900E+01  0.12483767546E+02  0.95300138961E+02  0.90554043202E+02 0.  0.
         11    1    3    3    0    0  0.20362273787E+02  0.37911699277E+02 -0.20491298184E+02  0.47663533622E+02  0.51100000000E-03 0.  1.
         22    1    1    0    0    0 -0.26633552031E+02 -0.41098904900E+01 -0.12483767546E+02  0.29699861039E+02  0.00000000000E+00 0.  1.
</event>
<event>
 5    1  0.6650580E-004  0.9118800E+02  0.7818608E-02  0.1130116E+00
         25   -1    0    0    0    0  0.00000000000E+00  0.00000000000E+00  0.99999998245E-14  0.12500000000E+03  0.12500000000E+03 0.  0.
        -11    1    3    3    0    0 -0.51989043393E+02 -0.26351499003E+00  0.32467799053E+02  0.61295089923E+02  0.51100000000E-03 0.  1.
         23    2    1    0    0    0 -0.24761012955E+02  0.82861786033E+01  0.13081877385E+02  0.95795479214E+02  0.91235244306E+02 0.  0.
         11    1    3    3    0    0  0.27228030438E+02  0.85496935934E+01 -0.19385921668E+02  0.34500389291E+02  0.51100000000E-03 0. -1.
         22    1    1    0    0    0  0.24761012955E+02 -0.82861786033E+01 -0.13081877385E+02  0.29204520786E+02  0.00000000000E+00 0.  1.
</event>
<event>
 5    1  0.6650580E-004  0.9118800E+02  0.7818608E-02  0.1130116E+00
         25   -1    0    0    0    0  0.00000000000E+00  0.00000000000E+00  0.99999998245E-14  0.12500000000E+03  0.12500000000E+03 0.  0.
        -11    1    3    3    0    0  0.26270356979E+02 -0.19907689422E+02  0.12560413363E+02  0.35273385690E+02  0.51100000000E-03 0.  1.
         23    2    1    0    0    0 -0.27004428587E+02  0.66192892126E+01  0.11810115147E+02  0.94791839302E+02  0.89849651226E+02 0.  0.
         11    1    3    3    0    0 -0.53274785566E+02  0.26526978635E+02 -0.75029821642E+00  0.59518453611E+02  0.51100000000E-03 0. -1.
         22    1    1    0    0    0  0.27004428587E+02 -0.66192892126E+01 -0.11810115147E+02  0.30208160698E+02  0.00000000000E+00 0. -1.
</event>
<event>
 5    1  0.6650580E-004  0.9118800E+02  0.7818608E-02  0.1130116E+00
         25   -1    0    0    0    0  0.00000000000E+00  0.00000000000E+00  0.99999998245E-14  0.12500000000E+03  0.12500000000E+03 0.  0.
        -11    1    3    3    0    0  0.19770277238E+02 -0.80500497121E+01  0.28230938309E+02  0.35392838831E+02  0.51100000000E-03 0. -1.
         23    2    1    0    0    0  0.20532591751E+02  0.15533643338E+02 -0.22157105011E+02  0.91032093061E+02  0.84457227430E+02 0.  0.
         11    1    3    3    0    0  0.76231451274E+00  0.23583693050E+02 -0.50388043320E+02  0.55639254230E+02  0.51100000000E-03 0.  1.
         22    1    1    0    0    0 -0.20532591751E+02 -0.15533643338E+02  0.22157105011E+02  0.33967906939E+02  0.00000000000E+00 0.  1.
</event>
<event>
 5    1  0.6650580E-004  0.9118800E+02  0.7818608E-02  0.1130116E+00
         25   -1    0    0    0    0  0.00000000000E+00  0.00000000000E+00  0.99999998245E-14  0.12500000000E+03  0.12500000000E+03 0.  0.
        -11    1    3    3    0    0  0.30865968773E+02 -0.45342131753E+01  0.19095987382E+02  0.36577641419E+02  0.51100000000E-03 0.  1.
         23    2    1    0    0    0 -0.56579558240E+01  0.11256479089E+02 -0.25629300138E+02  0.96441606993E+02  0.92116240415E+02 0.  0.
         11    1    3    3    0    0 -0.36523924597E+02  0.15790692264E+02 -0.44725287520E+02  0.59863965574E+02  0.51100000000E-03 0. -1.
         22    1    1    0    0    0  0.56579558240E+01 -0.11256479089E+02  0.25629300138E+02  0.28558393007E+02  0.00000000000E+00 0. -1.
</event>
<event>
 5    1  0.6650580E-004  0.9118800E+02  0.7818608E-02  0.1130116E+00
         25   -1    0    0    0    0  0.00000000000E+00  0.00000000000E+00  0.99999998245E-14  0.12500000000E+03  0.12500000000E+03 0.  0.
        -11    1    3    3    0    0  0.33561496574E+02 -0.68265818058E+01  0.10652114204E+02  0.35867029550E+02  0.51100000000E-03 0. -1.
         23    2    1    0    0    0 -0.14398650850E+02 -0.35407397084E-01 -0.25094781707E+02  0.96067829862E+02  0.91607627769E+02 0.  0.
         11    1    3    3    0    0 -0.47960147424E+02  0.67911744087E+01 -0.35746895910E+02  0.60200800312E+02  0.51100000000E-03 0.  1.
         22    1    1    0    0    0  0.14398650850E+02  0.35407397084E-01  0.25094781707E+02  0.28932170138E+02  0.00000000000E+00 0.  1.
</event>
<event>
 5    1  0.6650580E-004  0.9118800E+02  0.7818608E-02  0.1130116E+00
         25   -1    0    0    0    0  0.00000000000E+00  0.00000000000E+00  0.99999998245E-14  0.12500000000E+03  0.12500000000E+03 0.  0.
        -11    1    3    3    0    0  0.29315972733E+02  0.27354427055E+02  0.20889388452E+02  0.45211253986E+02  0.51100000000E-03 0.  1.
         23    2    1    0    0    0  0.11656460820E+02 -0.15321786724E+02  0.27042183988E+02  0.91804971123E+02  0.85593473938E+02 0.  0.
         11    1    3    3    0    0 -0.17659511913E+02 -0.42676213779E+02  0.61527955360E+01  0.46593717137E+02  0.51100000000E-03 0. -1.
         22    1    1    0    0    0 -0.11656460820E+02  0.15321786724E+02 -0.27042183988E+02  0.33195028877E+02  0.00000000000E+00 0.  1.
</event>
<event>
 5    1  0.6650580E-004  0.9118800E+02  0.7818608E-02  0.1130116E+00
         25   -1    0    0    0    0  0.00000000000E+00  0.00000000000E+00  0.99999998245E-14  0.12500000000E+03  0.12500000000E+03 0.  0.
        -11    1    3    3    0    0 -0.33212469181E+02  0.13971310829E+02  0.21962738754E+02  0.42197482499E+02  0.51100000000E-03 0.  1.
         23    2    1    0    0    0  0.12923520294E+02  0.28476865531E+02  0.57622343008E+01  0.93201374379E+02  0.87609038316E+02 0.  0.
         11    1    3    3    0    0  0.46135989476E+02  0.14505554701E+02 -0.16200504453E+02  0.51003891880E+02  0.51100000000E-03 0. -1.
         22    1    1    0    0    0 -0.12923520294E+02 -0.28476865531E+02 -0.57622343008E+01  0.31798625621E+02  0.00000000000E+00 0. -1.
</event>
<event>
 5    1  0.6650580E-004  0.9118800E+02  0.7818608E-02  0.1130116E+00
         25   -1    0    0    0    0  0.00000000000E+00  0.00000000000E+00  0.99999998245E-14  0.12500000000E+03  0.12500000000E+03 0.  0.
        -11    1    3    3    0    0  0.25112117474E+02 -0.50315574883E+02  0.81265750193E+01  0.56818278235E+02  0.51100000000E-03 0.  1.
         23    2    1    0    0    0 -0.20345784726E+01 -0.27114167702E+02 -0.89131978447E+01  0.96385970302E+02  0.92040711511E+02 0.  0.
         11    1    3    3    0    0 -0.27146695946E+02  0.23201407181E+02 -0.17039772864E+02  0.39567692067E+02  0.51100000000E-03 0. -1.
         22    1    1    0    0    0  0.20345784726E+01  0.27114167702E+02  0.89131978447E+01  0.28614029698E+02  0.00000000000E+00 0.  1.
</event>
<event>
 5    1  0.6650580E-004  0.9118800E+02  0.7818608E-02  0.1130116E+00
         25   -1    0    0    0    0  0.00000000000E+00  0.00000000000E+00  0.99999998245E-14  0.12500000000E+03  0.12500000000E+03 0.  0.
        -11    1    3    3    0    0 -0.35066413074E+02 -0.26094831400E+02 -0.27821497137E+02  0.51813408061E+02  0.51100000000E-03 0.  1.
         23    2    1    0    0    0  0.39003387949E+01 -0.60778531542E+01 -0.28472799077E+02  0.95625636535E+02  0.91002247960E+02 0.  0.
         11    1    3    3    0    0  0.38966751869E+02  0.20016978246E+02 -0.65130193996E+00  0.43812228474E+02  0.51100000000E-03 0. -1.
         22    1    1    0    0    0 -0.39003387949E+01  0.60778531542E+01  0.28472799077E+02  0.29374363465E+02  0.00000000000E+00 0.  1.
</event>
<event>
 5    1  0.6650580E-004  0.9118800E+02  0.7818608E-02  0.1130116E+00
         25   -1    0    0    0    0  0.00000000000E+00  0.00000000000E+00  0.99999998245E-14  0.12500000000E+03  0.12500000000E+03 0.  0.
        -11    1    3    3    0    0 -0.11711388393E+02  0.16933897872E+02  0.44150497197E+02  0.48715294501E+02  0.51100000000E-03 0.  1.
         23    2    1    0    0    0  0.18543953541E+02 -0.99626425304E+01  0.20586517505E+02  0.95556203334E+02  0.90906825011E+02 0.  0.
         11    1    3    3    0    0  0.30255341934E+02 -0.26896540403E+02 -0.23563979693E+02  0.46840908834E+02  0.51100000000E-03 0. -1.
         22    1    1    0    0    0 -0.18543953541E+02  0.99626425304E+01 -0.20586517505E+02  0.29443796666E+02  0.00000000000E+00 0. -1.
</event>
<event>
 5    1  0.6650580E-004  0.9118800E+02  0.7818608E-02  0.1130116E+00
         25   -1    0    0    0    0  0.00000000000E+00  0.00000000000E+00  0.99999998245E-14  0.12500000000E+03  0.12500000000E+03 0.  0.
        -11    1    3    3    0    0 -0.58725856507E+02 -0.84045853596E+01  0.91216717054E+00  0.59331233990E+02  0.51100000000E-03 0.  1.
         23    2    1    0    0    0 -0.26821904513E+02  0.10215215118E+02 -0.42845781889E+00  0.96295492380E+02  0.91917751794E+02 0.  0.
         11    1    3    3    0    0  0.31903951994E+02  0.18619800477E+02 -0.13406249894E+01  0.36964258389E+02  0.51100000000E-03 0. -1.
         22    1    1    0    0    0  0.26821904513E+02 -0.10215215118E+02  0.42845781889E+00  0.28704507620E+02  0.00000000000E+00 0.  1.
</event>
<event>
 5    1  0.6650580E-004  0.9118800E+02  0.7818608E-02  0.1130116E+00
         25   -1    0    0    0    0  0.00000000000E+00  0.00000000000E+00  0.99999998245E-14  0.12500000000E+03  0.12500000000E+03 0.  0.
        -11    1    3    3    0    0  0.17722225373E+02  0.67932000529E+01  0.36268693093E+02  0.40934617845E+02  0.51100000000E-03 0. -1.
         23    2    1    0    0    0 -0.28612612775E+02  0.19484047921E+01  0.88740355980E+01  0.94979566978E+02  0.90110441928E+02 0.  0.
         11    1    3    3    0    0 -0.46334838148E+02 -0.48447952607E+01 -0.27394657495E+02  0.54044949133E+02  0.51100000000E-03 0.  1.
         22    1    1    0    0    0  0.28612612775E+02 -0.19484047921E+01 -0.88740355980E+01  0.30020433022E+02  0.00000000000E+00 0.  1.
</event>
<event>
 5    1  0.6650580E-004  0.9118800E+02  0.7818608E-02  0.1130116E+00
         25   -1    0    0    0    0  0.00000000000E+00  0.00000000000E+00  0.99999998245E-14  0.12500000000E+03  0.12500000000E+03 0.  0.
        -11    1    3    3    0    0  0.27078936414E+02 -0.19361522044E+02  0.43309441098E+02  0.54624582576E+02  0.51100000000E-03 0. -1.
         23    2    1    0    0    0  0.49972343824E+01 -0.27157317897E+02  0.94069829679E+01  0.95828376881E+02  0.91280305763E+02 0.  0.
         11    1    3    3    0    0 -0.22081702032E+02 -0.77957958533E+01 -0.33902458130E+02  0.41203794305E+02  0.51100000000E-03 0.  1.
         22    1    1    0    0    0 -0.49972343824E+01  0.27157317897E+02 -0.94069829679E+01  0.29171623119E+02  0.00000000000E+00 0. -1.
</event>
<event>
 5    1  0.6650580E-004  0.9118800E+02  0.7818608E-02  0.1130116E+00
         25   -1    0    0    0    0  0.00000000000E+00  0.00000000000E+00  0.99999998245E-14  0.12500000000E+03  0.12500000000E+03 0.  0.
        -11    1    3    3    0    0  0.77033983263E+01  0.23716398822E+02 -0.30593771981E+02  0.39468833313E+02  0.51100000000E-03 0.  1.
         23    2    1    0    0    0  0.16760293196E+02  0.11943065061E+02  0.22444830412E+02  0.94548158622E+02  0.89509997518E+02 0.  0.
         11    1    3    3    0    0  0.90568948700E+01 -0.11773333761E+02  0.53038602392E+02  0.55079325309E+02  0.51100000000E-03 0. -1.
         22    1    1    0    0    0 -0.16760293196E+02 -0.11943065061E+02 -0.22444830412E+02  0.30451841378E+02  0.00000000000E+00 0. -1.
</event>
<event>
 5    1  0.6650580E-004  0.9118800E+02  0.7818608E-02  0.1130116E+00
         25   -1    0    0    0    0  0.00000000000E+00  0.00000000000E+00  0.99999998245E-14  0.12500000000E+03  0.12500000000E+03 0.  0.
        -11    1    3    3    0    0 -0.16758041889E+02 -0.40840327066E+02 -0.37619301338E+02  0.57999794105E+02  0.51100000000E-03 0.  1.
         23    2    1    0    0    0  0.42691790347E+01 -0.12460030041E+02 -0.27123929587E+02  0.94847292086E+02  0.89926764768E+02 0.  0.
         11    1    3    3    0    0  0.21027220924E+02  0.28380297026E+02  0.10495371750E+02  0.36847497981E+02  0.51100000000E-03 0. -1.
         22    1    1    0    0    0 -0.42691790347E+01  0.12460030041E+02  0.27123929587E+02  0.30152707914E+02  0.00000000000E+00 0.  1.
</event>
<event>
 5    1  0.6650580E-004  0.9118800E+02  0.7818608E-02  0.1130116E+00
         25   -1    0    0    0    0  0.00000000000E+00  0.00000000000E+00  0.99999998245E-14  0.12500000000E+03  0.12500000000E+03 0.  0.
        -11    1    3    3    0    0  0.75570960049E+01  0.13065811664E+02 -0.42802358801E+02  0.45385758269E+02  0.51100000000E-03 0.  1.
         23    2    1    0    0    0  0.17552890835E+02  0.31624899082E+02 -0.52481900441E+01  0.88451652331E+02  0.80547582724E+02 0.  0.
         11    1    3    3    0    0  0.99957948304E+01  0.18559087418E+02  0.37554168757E+02  0.43065894062E+02  0.51100000000E-03 0. -1.
         22    1    1    0    0    0 -0.17552890835E+02 -0.31624899082E+02  0.52481900441E+01  0.36548347669E+02  0.00000000000E+00 0. -1.
</event>
<event>
 5    1  0.6650580E-004  0.9118800E+02  0.7818608E-02  0.1130116E+00
         25   -1    0    0    0    0  0.00000000000E+00  0.00000000000E+00  0.99999998245E-14  0.12500000000E+03  0.12500000000E+03 0.  0.
        -11    1    3    3    0    0  0.31190305195E+02  0.29406609135E+01  0.14423394248E+02  0.34489374113E+02  0.51100000000E-03 0. -1.
         23    2    1    0    0    0 -0.29408444981E+00  0.29648123262E+02 -0.20818481989E+02  0.88771463031E+02  0.81042370139E+02 0.  0.
         11    1    3    3    0    0 -0.31484389645E+02  0.26707462348E+02 -0.35241876237E+02  0.54282088918E+02  0.51100000000E-03 0.  1.
         22    1    1    0    0    0  0.29408444981E+00 -0.29648123262E+02  0.20818481989E+02  0.36228536969E+02  0.00000000000E+00 0.  1.
</event>
<event>
 5    1  0.6650580E-004  0.9118800E+02  0.7818608E-02  0.1130116E+00
         25   -1    0    0    0    0  0.00000000000E+00  0.00000000000E+00  0.99999998245E-14  0.12500000000E+03  0.12500000000E+03 0.  0.
        -11    1    3    3    0    0  0.63282298904E+01  0.52926047932E+02 -0.70650260206E+01  0.53769207137E+02  0.51100000000E-03 0. -1.
         23    2    1    0    0    0  0.22783268265E+02  0.14768462242E+02  0.57338395200E+01  0.97250014316E+02  0.93206778611E+02 0.  0.
         11    1    3    3    0    0  0.16455038374E+02 -0.38157585689E+02  0.12798865541E+02  0.43480807179E+02  0.51100000000E-03 0.  1.
         22    1    1    0    0    0 -0.22783268265E+02 -0.14768462242E+02 -0.57338395200E+01  0.27749985684E+02  0.00000000000E+00 0. -1.
</event>
<event>
 5    1  0.6650580E-004  0.9118800E+02  0.7818608E-02  0.1130116E+00
         25   -1    0    0    0    0  0.00000000000E+00  0.00000000000E+00  0.99999998245E-14  0.12500000000E+03  0.12500000000E+03 0.  0.
        -11    1    3    3    0    0 -0.54594492806E+01  0.24818648228E+02 -0.25747561737E+02  0.36176066978E+02  0.51100000000E-03 0. -1.
         23    2    1    0    0    0  0.68970779322E+01 -0.28374607261E+02 -0.19845349334E+01  0.95731819323E+02  0.91147983142E+02 0.  0.
         11    1    3    3    0    0  0.12356527213E+02 -0.53193255489E+02  0.23763026804E+02  0.59555752345E+02  0.51100000000E-03 0.  1.
         22    1    1    0    0    0 -0.68970779322E+01  0.28374607261E+02  0.19845349334E+01  0.29268180677E+02  0.00000000000E+00 0.  1.
</event>
<event>
 5    1  0.6650580E-004  0.9118800E+02  0.7818608E-02  0.1130116E+00
         25   -1    0    0    0    0  0.00000000000E+00  0.00000000000E+00  0.99999998245E-14  0.12500000000E+03  0.12500000000E+03 0.  0.
        -11    1    3    3    0    0  0.15003537305E+02 -0.98274547650E+01  0.31732516365E+02  0.36450481395E+02  0.51100000000E-03 0. -1.
         23    2    1    0    0    0  0.22194841231E+01  0.75656537470E+01 -0.25864959361E+02  0.97960004639E+02  0.94154135117E+02 0.  0.
         11    1    3    3    0    0 -0.12784053182E+02  0.17393108512E+02 -0.57597475726E+02  0.61509523244E+02  0.51100000000E-03 0.  1.
         22    1    1    0    0    0 -0.22194841231E+01 -0.75656537470E+01  0.25864959361E+02  0.27039995361E+02  0.00000000000E+00 0.  1.
</event>
<event>
 5    1  0.6650580E-004  0.9118800E+02  0.7818608E-02  0.1130116E+00
         25   -1    0    0    0    0  0.00000000000E+00  0.00000000000E+00  0.99999998245E-14  0.12500000000E+03  0.12500000000E+03 0.  0.
        -11    1    3    3    0    0  0.19920532950E+01 -0.54750103329E+02 -0.16801875006E+02  0.57304843555E+02  0.51100000000E-03 0.  1.
         23    2    1    0    0    0 -0.16896464612E+02 -0.27707839991E+02 -0.61391640699E+01  0.91971160347E+02  0.85835832184E+02 0.  0.
         11    1    3    3    0    0 -0.18888517907E+02  0.27042263338E+02  0.10662710936E+02  0.34666316792E+02  0.51100000000E-03 0. -1.
         22    1    1    0    0    0  0.16896464612E+02  0.27707839991E+02  0.61391640699E+01  0.33028839653E+02  0.00000000000E+00 0.  1.
</event>
<event>
 5    1  0.6650580E-004  0.9118800E+02  0.7818608E-02  0.1130116E+00
         25   -1    0    0    0    0  0.00000000000E+00  0.00000000000E+00  0.99999998245E-14  0.12500000000E+03  0.12500000000E+03 0.  0.
        -11    1    3    3    0    0 -0.22795254953E+02  0.15940509585E+02  0.55013542289E+02  0.61645870338E+02  0.51100000000E-03 0.  1.
         23    2    1    0    0    0 -0.45179479348E+01  0.11170718811E+02  0.27002274548E+02  0.95431103452E+02  0.90734645329E+02 0.  0.
         11    1    3    3    0    0  0.18277307018E+02 -0.47697907746E+01 -0.28011267741E+02  0.33785233114E+02  0.51100000000E-03 0. -1.
         22    1    1    0    0    0  0.45179479348E+01 -0.11170718811E+02 -0.27002274548E+02  0.29568896548E+02  0.00000000000E+00 0.  1.
</event>
<event>
 5    1  0.6650580E-004  0.9118800E+02  0.7818608E-02  0.1130116E+00
         25   -1    0    0    0    0  0.00000000000E+00  0.00000000000E+00  0.99999998245E-14  0.12500000000E+03  0.12500000000E+03 0.  0.
        -11    1    3    3    0    0  0.14669338813E+02  0.21647546341E+02  0.18437205475E+01  0.26214596498E+02  0.51100000000E-03 0.  1.
         23    2    1    0    0    0 -0.33553604352E+02 -0.45661084274E+01  0.21923824807E+02  0.84659600828E+02  0.74430505890E+02 0.  0.
         11    1    3    3    0    0 -0.48222943165E+02 -0.26213654769E+02  0.20080104260E+02  0.58445004330E+02  0.51100000000E-03 0. -1.
         22    1    1    0    0    0  0.33553604352E+02  0.45661084274E+01 -0.21923824807E+02  0.40340399172E+02  0.00000000000E+00 0. -1.
</event>
<event>
 5    1  0.6650580E-004  0.9118800E+02  0.7818608E-02  0.1130116E+00
         25   -1    0    0    0    0  0.00000000000E+00  0.00000000000E+00  0.99999998245E-14  0.12500000000E+03  0.12500000000E+03 0.  0.
        -11    1    3    3    0    0  0.32240495855E+02  0.10146668075E+02 -0.14284551125E+01  0.33829645731E+02  0.51100000000E-03 0. -1.
         23    2    1    0    0    0 -0.19474710754E+02 -0.64168835714E+01 -0.24690583649E+02  0.92905363772E+02  0.87185669366E+02 0.  0.
         11    1    3    3    0    0 -0.51715206609E+02 -0.16563551647E+02 -0.23262128536E+02  0.59075718041E+02  0.51100000000E-03 0.  1.
         22    1    1    0    0    0  0.19474710754E+02  0.64168835714E+01  0.24690583649E+02  0.32094636228E+02  0.00000000000E+00 0.  1.
</event>
<event>
 5    1  0.6650580E-004  0.9118800E+02  0.7818608E-02  0.1130116E+00
         25   -1    0    0    0    0  0.00000000000E+00  0.00000000000E+00  0.99999998245E-14  0.12500000000E+03  0.12500000000E+03 0.  0.
        -11    1    3    3    0    0  0.21230825713E+02  0.61686772267E+01 -0.17654736885E+02  0.28292936821E+02  0.51100000000E-03 0. -1.
         23    2    1    0    0    0  0.19317250253E+02 -0.41141684425E+02  0.18721984169E+01  0.79510446456E+02  0.65212051141E+02 0.  0.
         11    1    3    3    0    0 -0.19135754604E+01 -0.47310361652E+02  0.19526935302E+02  0.51217509635E+02  0.51100000000E-03 0.  1.
         22    1    1    0    0    0 -0.19317250253E+02  0.41141684425E+02 -0.18721984169E+01  0.45489553544E+02  0.00000000000E+00 0.  1.
</event>
<event>
 5    1  0.6650580E-004  0.9118800E+02  0.7818608E-02  0.1130116E+00
         25   -1    0    0    0    0  0.00000000000E+00  0.00000000000E+00  0.99999998245E-14  0.12500000000E+03  0.12500000000E+03 0.  0.
        -11    1    3    3    0    0  0.15110376391E+02 -0.29879467737E+02  0.28626279458E+02  0.44051900558E+02  0.51100000000E-03 0.  1.
         23    2    1    0    0    0 -0.97461455414E+01 -0.23096532085E+02 -0.15770423455E+02  0.95383393118E+02  0.90668893671E+02 0.  0.
         11    1    3    3    0    0 -0.24856521932E+02  0.67829356523E+01 -0.44396702913E+02  0.51331492560E+02  0.51100000000E-03 0. -1.
         22    1    1    0    0    0  0.97461455414E+01  0.23096532085E+02  0.15770423455E+02  0.29616606882E+02  0.00000000000E+00 0. -1.
</event>
<event>
 5    1  0.6650580E-004  0.9118800E+02  0.7818608E-02  0.1130116E+00
         25   -1    0    0    0    0  0.00000000000E+00  0.00000000000E+00  0.99999998245E-14  0.12500000000E+03  0.12500000000E+03 0.  0.
        -11    1    3    3    0    0  0.27909286415E+02  0.44854535785E+02 -0.38535023505E+01  0.52968926073E+02  0.51100000000E-03 0.  1.
         23    2    1    0    0    0  0.27908315719E+02  0.24368443984E+02  0.18750992446E+02  0.83475370367E+02  0.72414381111E+02 0.  0.
         11    1    3    3    0    0 -0.97069652175E-03 -0.20486091801E+02  0.22604494796E+02  0.30506444294E+02  0.51100000000E-03 0. -1.
         22    1    1    0    0    0 -0.27908315719E+02 -0.24368443984E+02 -0.18750992446E+02  0.41524629633E+02  0.00000000000E+00 0. -1.
</event>
<event>
 5    1  0.6650580E-004  0.9118800E+02  0.7818608E-02  0.1130116E+00
         25   -1    0    0    0    0  0.00000000000E+00  0.00000000000E+00  0.99999998245E-14  0.12500000000E+03  0.12500000000E+03 0.  0.
        -11    1    3    3    0    0 -0.47839696461E+02 -0.11527431300E+02 -0.26174191293E+02  0.55736940353E+02  0.51100000000E-03 0.  1.
         23    2    1    0    0    0 -0.28274612927E+02  0.28189763507E+01  0.59256785075E+01  0.95973907779E+02  0.91479379889E+02 0.  0.
         11    1    3    3    0    0  0.19565083534E+02  0.14346407650E+02  0.32099869801E+02  0.40236967426E+02  0.51100000000E-03 0. -1.
         22    1    1    0    0    0  0.28274612927E+02 -0.28189763507E+01 -0.59256785075E+01  0.29026092221E+02  0.00000000000E+00 0.  1.
</event>
<event>
 5    1  0.6650580E-004  0.9118800E+02  0.7818608E-02  0.1130116E+00
         25   -1    0    0    0    0  0.00000000000E+00  0.00000000000E+00  0.99999998245E-14  0.12500000000E+03  0.12500000000E+03 0.  0.
        -11    1    3    3    0    0  0.23219405803E+02 -0.42604808095E+02 -0.14831954292E+02  0.50737533908E+02  0.51100000000E-03 0.  1.
         23    2    1    0    0    0  0.28921645197E+02 -0.36018779648E+01  0.58835026366E+01  0.95267010089E+02  0.90508300847E+02 0.  0.
         11    1    3    3    0    0  0.57022393944E+01  0.39002930131E+02  0.20715456929E+02  0.44529476181E+02  0.51100000000E-03 0. -1.
         22    1    1    0    0    0 -0.28921645197E+02  0.36018779648E+01 -0.58835026366E+01  0.29732989911E+02  0.00000000000E+00 0.  1.
</event>
<event>
 5    1  0.6650580E-004  0.9118800E+02  0.7818608E-02  0.1130116E+00
         25   -1    0    0    0    0  0.00000000000E+00  0.00000000000E+00  0.99999998245E-14  0.12500000000E+03  0.12500000000E+03 0.  0.
        -11    1    3    3    0    0 -0.16004982631E+02 -0.49707034099E+02 -0.94953651711E+01  0.53076460582E+02  0.51100000000E-03 0.  1.
         23    2    1    0    0    0 -0.27091993174E+02 -0.87243842637E+01 -0.20374613054E+00  0.96537173588E+02  0.92245831325E+02 0.  0.
         11    1    3    3    0    0 -0.11087010543E+02  0.40982649835E+02  0.92916190406E+01  0.43460713006E+02  0.51100000000E-03 0. -1.
         22    1    1    0    0    0  0.27091993174E+02  0.87243842637E+01  0.20374613054E+00  0.28462826412E+02  0.00000000000E+00 0.  1.
</event>
<event>
 5    1  0.6650580E-004  0.9118800E+02  0.7818608E-02  0.1130116E+00
         25   -1    0    0    0    0  0.00000000000E+00  0.00000000000E+00  0.99999998245E-14  0.12500000000E+03  0.12500000000E+03 0.  0.
        -11    1    3    3    0    0  0.49610346943E+02  0.27472260211E+02 -0.30465591235E+01  0.56790783827E+02  0.51100000000E-03 0.  1.
         23    2    1    0    0    0  0.10864226799E+02  0.14741163755E+02  0.14941577810E+02  0.10136561657E+03  0.98571822251E+02 0.  0.
         11    1    3    3    0    0 -0.38746120145E+02 -0.12731096455E+02  0.17988136934E+02  0.44574832740E+02  0.51100000000E-03 0. -1.
         22    1    1    0    0    0 -0.10864226799E+02 -0.14741163755E+02 -0.14941577810E+02  0.23634383433E+02  0.00000000000E+00 0.  1.
</event>
<event>
 5    1  0.6650580E-004  0.9118800E+02  0.7818608E-02  0.1130116E+00
         25   -1    0    0    0    0  0.00000000000E+00  0.00000000000E+00  0.99999998245E-14  0.12500000000E+03  0.12500000000E+03 0.  0.
        -11    1    3    3    0    0 -0.81123181982E+01 -0.26612920514E+02  0.17661961218E+02  0.32954546260E+02  0.51100000000E-03 0. -1.
         23    2    1    0    0    0  0.80789714594E+00  0.29746687243E+02 -0.58549649658E+01  0.94671816499E+02  0.89682518501E+02 0.  0.
         11    1    3    3    0    0  0.89202153442E+01  0.56359607757E+02 -0.23516926184E+02  0.61717270239E+02  0.51100000000E-03 0.  1.
         22    1    1    0    0    0 -0.80789714594E+00 -0.29746687243E+02  0.58549649658E+01  0.30328183501E+02  0.00000000000E+00 0.  1.
</event>
<event>
 5    1  0.6650580E-004  0.9118800E+02  0.7818608E-02  0.1130116E+00
         25   -1    0    0    0    0  0.00000000000E+00  0.00000000000E+00  0.99999998245E-14  0.12500000000E+03  0.12500000000E+03 0.  0.
        -11    1    3    3    0    0 -0.11749783160E+02  0.28442457292E+02  0.17832215592E+02  0.35567101292E+02  0.51100000000E-03 0.  1.
         23    2    1    0    0    0 -0.85816381567E+01 -0.17215517026E+02 -0.21669564265E+02  0.96024345471E+02  0.91548273429E+02 0.  0.
         11    1    3    3    0    0  0.31681450032E+01 -0.45657974318E+02 -0.39501779857E+02  0.60457244179E+02  0.51100000000E-03 0. -1.
         22    1    1    0    0    0  0.85816381567E+01  0.17215517026E+02  0.21669564265E+02  0.28975654529E+02  0.00000000000E+00 0. -1.
</event>
<event>
 5    1  0.6650580E-004  0.9118800E+02  0.7818608E-02  0.1130116E+00
         25   -1    0    0    0    0  0.00000000000E+00  0.00000000000E+00  0.99999998245E-14  0.12500000000E+03  0.12500000000E+03 0.  0.
        -11    1    3    3    0    0  0.41622657121E+02  0.12516944998E+02 -0.57096060636E+01  0.43837416662E+02  0.51100000000E-03 0.  1.
         23    2    1    0    0    0  0.73666329569E+01 -0.59216142212E+01  0.28083743893E+02  0.95368437990E+02  0.90648273550E+02 0.  0.
         11    1    3    3    0    0 -0.34256024164E+02 -0.18438559219E+02  0.33793349956E+02  0.51531021329E+02  0.51100000000E-03 0. -1.
         22    1    1    0    0    0 -0.73666329569E+01  0.59216142212E+01 -0.28083743893E+02  0.29631562010E+02  0.00000000000E+00 0. -1.
</event>
<event>
 5    1  0.6650580E-004  0.9118800E+02  0.7818608E-02  0.1130116E+00
         25   -1    0    0    0    0  0.00000000000E+00  0.00000000000E+00  0.99999998245E-14  0.12500000000E+03  0.12500000000E+03 0.  0.
        -11    1    3    3    0    0 -0.38020426910E+02  0.33633600144E+02  0.59609895275E+01  0.51110716268E+02  0.51100000000E-03 0.  1.
         23    2    1    0    0    0 -0.29635909861E+02 -0.83830174832E+01  0.20822034622E+01  0.94130958767E+02  0.88925472682E+02 0.  0.
         11    1    3    3    0    0  0.83845170488E+01 -0.42016617628E+02 -0.38787860654E+01  0.43020242498E+02  0.51100000000E-03 0. -1.
         22    1    1    0    0    0  0.29635909861E+02  0.83830174832E+01 -0.20822034622E+01  0.30869041233E+02  0.00000000000E+00 0. -1.
</event>
<event>
 5    1  0.6650580E-004  0.9118800E+02  0.7818608E-02  0.1130116E+00
         25   -1    0    0    0    0  0.00000000000E+00  0.00000000000E+00  0.99999998245E-14  0.12500000000E+03  0.12500000000E+03 0.  0.
        -11    1    3    3    0    0  0.29199040349E+02  0.20492973657E+02  0.46684818707E+02  0.58753878378E+02  0.51100000000E-03 0.  1.
         23    2    1    0    0    0  0.23641539544E+02  0.11382389897E+02  0.10065243629E+02  0.96896791623E+02  0.92731860252E+02 0.  0.
         11    1    3    3    0    0 -0.55575008048E+01 -0.91105837597E+01 -0.36619575078E+02  0.38142913245E+02  0.51100000000E-03 0. -1.
         22    1    1    0    0    0 -0.23641539544E+02 -0.11382389897E+02 -0.10065243629E+02  0.28103208377E+02  0.00000000000E+00 0.  1.
</event>
<event>
 5    1  0.6650580E-004  0.9118800E+02  0.7818608E-02  0.1130116E+00
         25   -1    0    0    0    0  0.00000000000E+00  0.00000000000E+00  0.99999998245E-14  0.12500000000E+03  0.12500000000E+03 0.  0.
        -11    1    3    3    0    0  0.63639320578E+01 -0.38842969745E+02  0.29726777492E+02  0.49325016271E+02  0.51100000000E-03 0.  1.
         23    2    1    0    0    0  0.77096302576E+01  0.10574740260E+02  0.22057575122E+02  0.99352385090E+02  0.95984875228E+02 0.  0.
         11    1    3    3    0    0  0.13456981998E+01  0.49417710005E+02 -0.76692023692E+01  0.50027368820E+02  0.51100000000E-03 0. -1.
         22    1    1    0    0    0 -0.77096302576E+01 -0.10574740260E+02 -0.22057575122E+02  0.25647614910E+02  0.00000000000E+00 0. -1.
</event>
<event>
 5    1  0.6650580E-004  0.9118800E+02  0.7818608E-02  0.1130116E+00
         25   -1    0    0    0    0  0.00000000000E+00  0.00000000000E+00  0.99999998245E-14  0.12500000000E+03  0.12500000000E+03 0.  0.
        -11    1    3    3    0    0 -0.14374643807E+02  0.72693179734E+01  0.35808731435E+02  0.39264979506E+02  0.51100000000E-03 0.  1.
         23    2    1    0    0    0  0.23297144600E+01 -0.19129832210E+02 -0.16126114908E+02  0.99871736394E+02  0.96658854217E+02 0.  0.
         11    1    3    3    0    0  0.16704358266E+02 -0.26399150183E+02 -0.51934846343E+02  0.60606756888E+02  0.51100000000E-03 0. -1.
         22    1    1    0    0    0 -0.23297144600E+01  0.19129832210E+02  0.16126114908E+02  0.25128263606E+02  0.00000000000E+00 0. -1.
</event>
<event>
 5    1  0.6650580E-004  0.9118800E+02  0.7818608E-02  0.1130116E+00
         25   -1    0    0    0    0  0.00000000000E+00  0.00000000000E+00  0.99999998245E-14  0.12500000000E+03  0.12500000000E+03 0.  0.
        -11    1    3    3    0    0  0.45805132948E+02 -0.29748180010E+02  0.26155390981E+01  0.54680028012E+02  0.51100000000E-03 0.  1.
         23    2    1    0    0    0  0.10031703270E+02 -0.18997684512E+02  0.19787807800E+02  0.95792048603E+02  0.91230543957E+02 0.  0.
         11    1    3    3    0    0 -0.35773429679E+02  0.10750495498E+02  0.17172268702E+02  0.41112020591E+02  0.51100000000E-03 0. -1.
         22    1    1    0    0    0 -0.10031703270E+02  0.18997684512E+02 -0.19787807800E+02  0.29207951397E+02  0.00000000000E+00 0.  1.
</event>
<event>
 5    1  0.6650580E-004  0.9118800E+02  0.7818608E-02  0.1130116E+00
         25   -1    0    0    0    0  0.00000000000E+00  0.00000000000E+00  0.99999998245E-14  0.12500000000E+03  0.12500000000E+03 0.  0.
        -11    1    3    3    0    0 -0.13757894678E+02  0.20809721541E+01 -0.41218329146E+02  0.43503571910E+02  0.51100000000E-03 0. -1.
         23    2    1    0    0    0 -0.13874193994E+02  0.23918717980E+02  0.70343413062E+01  0.96467907781E+02  0.92151923178E+02 0.  0.
         11    1    3    3    0    0 -0.11629931576E+00  0.21837745826E+02  0.48252670452E+02  0.52964335871E+02  0.51100000000E-03 0.  1.
         22    1    1    0    0    0  0.13874193994E+02 -0.23918717980E+02 -0.70343413062E+01  0.28532092219E+02  0.00000000000E+00 0. -1.
</event>
<event>
 5    1  0.6650580E-004  0.9118800E+02  0.7818608E-02  0.1130116E+00
         25   -1    0    0    0    0  0.00000000000E+00  0.00000000000E+00  0.99999998245E-14  0.12500000000E+03  0.12500000000E+03 0.  0.
        -11    1    3    3    0    0 -0.52258207744E-01 -0.43785866078E+02  0.35259303737E+02  0.56217642243E+02  0.51100000000E-03 0.  1.
         23    2    1    0    0    0  0.26538956527E+01 -0.50558482279E+01  0.28877839550E+02  0.95563043967E+02  0.90916230628E+02 0.  0.
         11    1    3    3    0    0  0.27061538605E+01  0.38730017850E+02 -0.63814641871E+01  0.39345401724E+02  0.51100000000E-03 0. -1.
         22    1    1    0    0    0 -0.26538956527E+01  0.50558482279E+01 -0.28877839550E+02  0.29436956033E+02  0.00000000000E+00 0. -1.
</event>
<event>
 5    1  0.6650580E-004  0.9118800E+02  0.7818608E-02  0.1130116E+00
         25   -1    0    0    0    0  0.00000000000E+00  0.00000000000E+00  0.99999998245E-14  0.12500000000E+03  0.12500000000E+03 0.  0.
        -11    1    3    3    0    0 -0.44060998367E+01  0.16854499431E+02  0.52610179870E+02  0.55419481169E+02  0.51100000000E-03 0.  1.
         23    2    1    0    0    0 -0.22305395711E+02  0.74046033237E+01  0.18470846606E+02  0.95108011064E+02  0.90288442040E+02 0.  0.
         11    1    3    3    0    0 -0.17899295875E+02 -0.94498961077E+01 -0.34139333264E+02  0.39688529895E+02  0.51100000000E-03 0. -1.
         22    1    1    0    0    0  0.22305395711E+02 -0.74046033237E+01 -0.18470846606E+02  0.29891988936E+02  0.00000000000E+00 0. -1.
</event>
<event>
 5    1  0.6650580E-004  0.9118800E+02  0.7818608E-02  0.1130116E+00
         25   -1    0    0    0    0  0.00000000000E+00  0.00000000000E+00  0.99999998245E-14  0.12500000000E+03  0.12500000000E+03 0.  0.
        -11    1    3    3    0    0 -0.27390902231E+02 -0.25518308558E+02 -0.62665614256E+01  0.37956756830E+02  0.51100000000E-03 0.  1.
         23    2    1    0    0    0  0.23183294194E+02 -0.12050791721E+01 -0.18411172518E+02  0.95370814743E+02  0.90651550929E+02 0.  0.
         11    1    3    3    0    0  0.50574196425E+02  0.24313229386E+02 -0.12144611093E+02  0.57414057913E+02  0.51100000000E-03 0. -1.
         22    1    1    0    0    0 -0.23183294194E+02  0.12050791721E+01  0.18411172518E+02  0.29629185257E+02  0.00000000000E+00 0. -1.
</event>
<event>
 5    1  0.6650580E-004  0.9118800E+02  0.7818608E-02  0.1130116E+00
         25   -1    0    0    0    0  0.00000000000E+00  0.00000000000E+00  0.99999998245E-14  0.12500000000E+03  0.12500000000E+03 0.  0.
        -11    1    3    3    0    0 -0.27679043035E+02 -0.37761748103E+02  0.30370319245E+02  0.55807126198E+02  0.51100000000E-03 0. -1.
         23    2    1    0    0    0  0.72526994545E+01 -0.18855125540E+02  0.19346230091E+02  0.97028692786E+02  0.92909489271E+02 0.  0.
         11    1    3    3    0    0  0.34931742489E+02  0.18906622563E+02 -0.11024089155E+02  0.41221566589E+02  0.51100000000E-03 0.  1.
         22    1    1    0    0    0 -0.72526994545E+01  0.18855125540E+02 -0.19346230091E+02  0.27971307214E+02  0.00000000000E+00 0. -1.
</event>
<event>
 5    1  0.6650580E-004  0.9118800E+02  0.7818608E-02  0.1130116E+00
         25   -1    0    0    0    0  0.00000000000E+00  0.00000000000E+00  0.99999998245E-14  0.12500000000E+03  0.12500000000E+03 0.  0.
        -11    1    3    3    0    0  0.19514446775E+02 -0.21499681635E+02 -0.40572559496E+01  0.29317422626E+02  0.51100000000E-03 0. -1.
         23    2    1    0    0    0 -0.28719695275E+02  0.15048251304E+02  0.92561198646E+01  0.91281362439E+02  0.84825353579E+02 0.  0.
         11    1    3    3    0    0 -0.48234142049E+02  0.36547932939E+02  0.13313375814E+02  0.61963939814E+02  0.51100000000E-03 0.  1.
         22    1    1    0    0    0  0.28719695275E+02 -0.15048251304E+02 -0.92561198646E+01  0.33718637561E+02  0.00000000000E+00 0.  1.
</event>
<event>
 5    1  0.6650580E-004  0.9118800E+02  0.7818608E-02  0.1130116E+00
         25   -1    0    0    0    0  0.00000000000E+00  0.00000000000E+00  0.99999998245E-14  0.12500000000E+03  0.12500000000E+03 0.  0.
        -11    1    3    3    0    0  0.45276474080E+02 -0.65818999862E+01 -0.18868940921E+02  0.49490579348E+02  0.51100000000E-03 0. -1.
         23    2    1    0    0    0  0.14564982366E+02 -0.25911659963E+02  0.74953754756E+01  0.94344927224E+02  0.89225735110E+02 0.  0.
         11    1    3    3    0    0 -0.30711491713E+02 -0.19329759977E+02  0.26364316396E+02  0.44854347875E+02  0.51100000000E-03 0.  1.
         22    1    1    0    0    0 -0.14564982366E+02  0.25911659963E+02 -0.74953754756E+01  0.30655072776E+02  0.00000000000E+00 0.  1.
</event>
<event>
 5    1  0.6650580E-004  0.9118800E+02  0.7818608E-02  0.1130116E+00
         25   -1    0    0    0    0  0.00000000000E+00  0.00000000000E+00  0.99999998245E-14  0.12500000000E+03  0.12500000000E+03 0.  0.
        -11    1    3    3    0    0 -0.35802962389E+02 -0.47214264745E+02 -0.10903674672E+02  0.60248892379E+02  0.51100000000E-03 0. -1.
         23    2    1    0    0    0 -0.24219429044E+02 -0.12550147176E+02 -0.45840735149E+01  0.97339546870E+02  0.93326773852E+02 0.  0.
         11    1    3    3    0    0  0.11583533345E+02  0.34664117569E+02  0.63196011574E+01  0.37090654492E+02  0.51100000000E-03 0.  1.
         22    1    1    0    0    0  0.24219429044E+02  0.12550147176E+02  0.45840735149E+01  0.27660453130E+02  0.00000000000E+00 0. -1.
</event>
<event>
 5    1  0.6650580E-004  0.9118800E+02  0.7818608E-02  0.1130116E+00
         25   -1    0    0    0    0  0.00000000000E+00  0.00000000000E+00  0.99999998245E-14  0.12500000000E+03  0.12500000000E+03 0.  0.
        -11    1    3    3    0    0  0.35135157677E+02 -0.17244553758E+02 -0.45255367964E+02  0.59832284505E+02  0.51100000000E-03 0.  1.
         23    2    1    0    0    0  0.89223694193E+01 -0.71297127694E+01 -0.32239411563E+02  0.90797351884E+02  0.84109083760E+02 0.  0.
         11    1    3    3    0    0 -0.26212788257E+02  0.10114840989E+02  0.13015956401E+02  0.30965067378E+02  0.51100000000E-03 0. -1.
         22    1    1    0    0    0 -0.89223694193E+01  0.71297127694E+01  0.32239411563E+02  0.34202648116E+02  0.00000000000E+00 0.  1.
</event>
<event>
 5    1  0.6650580E-004  0.9118800E+02  0.7818608E-02  0.1130116E+00
         25   -1    0    0    0    0  0.00000000000E+00  0.00000000000E+00  0.99999998245E-14  0.12500000000E+03  0.12500000000E+03 0.  0.
        -11    1    3    3    0    0 -0.30747380243E+02  0.50143435306E+02  0.60352646389E+01  0.59128587973E+02  0.51100000000E-03 0.  1.
         23    2    1    0    0    0 -0.74744160308E+01  0.30303047345E+02 -0.80031987090E+01  0.92779001211E+02  0.87004311978E+02 0.  0.
         11    1    3    3    0    0  0.23272964212E+02 -0.19840387961E+02 -0.14038463348E+02  0.33650413238E+02  0.51100000000E-03 0. -1.
         22    1    1    0    0    0  0.74744160308E+01 -0.30303047345E+02  0.80031987090E+01  0.32220998789E+02  0.00000000000E+00 0.  1.
</event>
<event>
 5    1  0.6650580E-004  0.9118800E+02  0.7818608E-02  0.1130116E+00
         25   -1    0    0    0    0  0.00000000000E+00  0.00000000000E+00  0.99999998245E-14  0.12500000000E+03  0.12500000000E+03 0.  0.
        -11    1    3    3    0    0  0.35952919046E+02  0.11390391290E+02  0.15234257570E+02  0.40674758827E+02  0.51100000000E-03 0.  1.
         23    2    1    0    0    0  0.71394090192E+01 -0.22552700522E+02 -0.17193740176E+02  0.95755852497E+02  0.91180936188E+02 0.  0.
         11    1    3    3    0    0 -0.28813510027E+02 -0.33943091812E+02 -0.32427997745E+02  0.55081093670E+02  0.51100000000E-03 0. -1.
         22    1    1    0    0    0 -0.71394090192E+01  0.22552700522E+02  0.17193740176E+02  0.29244147503E+02  0.00000000000E+00 0. -1.
</event>
<event>
 5    1  0.6650580E-004  0.9118800E+02  0.7818608E-02  0.1130116E+00
         25   -1    0    0    0    0  0.00000000000E+00  0.00000000000E+00  0.99999998245E-14  0.12500000000E+03  0.12500000000E+03 0.  0.
        -11    1    3    3    0    0  0.48164139851E+00 -0.25686671185E+02 -0.51785232225E+02  0.57807848359E+02  0.51100000000E-03 0. -1.
         23    2    1    0    0    0  0.15617373306E+02 -0.38847305608E+01 -0.22588081974E+02  0.97265275776E+02  0.93227243572E+02 0.  0.
         11    1    3    3    0    0  0.15135731907E+02  0.21801940624E+02  0.29197150251E+02  0.39457427417E+02  0.51100000000E-03 0.  1.
         22    1    1    0    0    0 -0.15617373306E+02  0.38847305608E+01  0.22588081974E+02  0.27734724224E+02  0.00000000000E+00 0. -1.
</event>
<event>
 5    1  0.6650580E-004  0.9118800E+02  0.7818608E-02  0.1130116E+00
         25   -1    0    0    0    0  0.00000000000E+00  0.00000000000E+00  0.99999998245E-14  0.12500000000E+03  0.12500000000E+03 0.  0.
        -11    1    3    3    0    0  0.48836869833E+02 -0.21647313153E+01  0.31765105897E+01  0.48987918271E+02  0.51100000000E-03 0. -1.
         23    2    1    0    0    0  0.14972290462E+02  0.21275551248E+02 -0.16040968415E+02  0.94436439503E+02  0.89353846452E+02 0.  0.
         11    1    3    3    0    0 -0.33864579371E+02  0.23440282563E+02 -0.19217479004E+02  0.45448521232E+02  0.51100000000E-03 0.  1.
         22    1    1    0    0    0 -0.14972290462E+02 -0.21275551248E+02  0.16040968415E+02  0.30563560497E+02  0.00000000000E+00 0. -1.
</event>
<event>
 5    1  0.6650580E-004  0.9118800E+02  0.7818608E-02  0.1130116E+00
         25   -1    0    0    0    0  0.00000000000E+00  0.00000000000E+00  0.99999998245E-14  0.12500000000E+03  0.12500000000E+03 0.  0.
        -11    1    3    3    0    0 -0.32507718445E+02 -0.80119105127E+01 -0.16282046771E+00  0.33480874829E+02  0.51100000000E-03 0.  1.
         23    2    1    0    0    0  0.23744385770E+02  0.13222441601E+02  0.12752858011E+02  0.94978937312E+02  0.90109568459E+02 0.  0.
         11    1    3    3    0    0  0.56252104215E+02  0.21234352114E+02  0.12915678479E+02  0.61498062483E+02  0.51100000000E-03 0. -1.
         22    1    1    0    0    0 -0.23744385770E+02 -0.13222441601E+02 -0.12752858011E+02  0.30021062688E+02  0.00000000000E+00 0. -1.
</event>
<event>
 5    1  0.6650580E-004  0.9118800E+02  0.7818608E-02  0.1130116E+00
         25   -1    0    0    0    0  0.00000000000E+00  0.00000000000E+00  0.99999998245E-14  0.12500000000E+03  0.12500000000E+03 0.  0.
        -11    1    3    3    0    0 -0.46250293344E+02  0.10348436825E+02 -0.36687571559E+02  0.59934611756E+02  0.51100000000E-03 0. -1.
         23    2    1    0    0    0 -0.13757260526E+02 -0.98374210800E-01 -0.25801608918E+02  0.95759703875E+02  0.91186215893E+02 0.  0.
         11    1    3    3    0    0  0.32493032818E+02 -0.10446811036E+02  0.10885962640E+02  0.35825092120E+02  0.51100000000E-03 0.  1.
         22    1    1    0    0    0  0.13757260526E+02  0.98374210800E-01  0.25801608918E+02  0.29240296125E+02  0.00000000000E+00 0. -1.
</event>
<event>
 5    1  0.6650580E-004  0.9118800E+02  0.7818608E-02  0.1130116E+00
         25   -1    0    0    0    0  0.00000000000E+00  0.00000000000E+00  0.99999998245E-14  0.12500000000E+03  0.12500000000E+03 0.  0.
        -11    1    3    3    0    0 -0.32157128130E+02 -0.12942142431E+02 -0.73024209326E+01  0.35424642440E+02  0.51100000000E-03 0. -1.
         23    2    1    0    0    0  0.17878547605E+02  0.83612857676E+01  0.20535266137E+02  0.96517536633E+02  0.92219217944E+02 0.  0.
         11    1    3    3    0    0  0.50035675734E+02  0.21303428198E+02  0.27837687070E+02  0.61092894193E+02  0.51100000000E-03 0.  1.
         22    1    1    0    0    0 -0.17878547605E+02 -0.83612857676E+01 -0.20535266137E+02  0.28482463367E+02  0.00000000000E+00 0.  1.
</event>
<event>
 5    1  0.6650580E-004  0.9118800E+02  0.7818608E-02  0.1130116E+00
         25   -1    0    0    0    0  0.00000000000E+00  0.00000000000E+00  0.99999998245E-14  0.12500000000E+03  0.12500000000E+03 0.  0.
        -11    1    3    3    0    0 -0.13719049902E+02  0.31535439442E+02 -0.16304210035E+02  0.38059473671E+02  0.51100000000E-03 0. -1.
         23    2    1    0    0    0  0.18815107078E+02 -0.15648905904E+02 -0.16696893790E+02  0.95374288657E+02  0.90656341004E+02 0.  0.
         11    1    3    3    0    0  0.32534156980E+02 -0.47184345346E+02 -0.39268375507E+00  0.57314814986E+02  0.51100000000E-03 0.  1.
         22    1    1    0    0    0 -0.18815107078E+02  0.15648905904E+02  0.16696893790E+02  0.29625711343E+02  0.00000000000E+00 0.  1.
</event>
<event>
 5    1  0.6650580E-004  0.9118800E+02  0.7818608E-02  0.1130116E+00
         25   -1    0    0    0    0  0.00000000000E+00  0.00000000000E+00  0.99999998245E-14  0.12500000000E+03  0.12500000000E+03 0.  0.
        -11    1    3    3    0    0  0.10811246832E+01  0.12141175033E+02 -0.42345544587E+02  0.44064975983E+02  0.51100000000E-03 0.  1.
         23    2    1    0    0    0 -0.29809420829E+02  0.30902306794E+01 -0.30283798393E+01  0.94878210872E+02  0.89969732232E+02 0.  0.
         11    1    3    3    0    0 -0.30890545513E+02 -0.90509443540E+01  0.39317164748E+02  0.50813234888E+02  0.51100000000E-03 0. -1.
         22    1    1    0    0    0  0.29809420829E+02 -0.30902306794E+01  0.30283798393E+01  0.30121789128E+02  0.00000000000E+00 0. -1.
</event>
<event>
 5    1  0.6650580E-004  0.9118800E+02  0.7818608E-02  0.1130116E+00
         25   -1    0    0    0    0  0.00000000000E+00  0.00000000000E+00  0.99999998245E-14  0.12500000000E+03  0.12500000000E+03 0.  0.
        -11    1    3    3    0    0  0.52310126379E+01 -0.36029133437E+02  0.46061026195E+02  0.58711839384E+02  0.51100000000E-03 0. -1.
         23    2    1    0    0    0 -0.30767381352E+01 -0.50145242836E+01  0.29652267189E+02  0.94769738327E+02  0.89818898801E+02 0.  0.
         11    1    3    3    0    0 -0.83077507731E+01  0.31014609154E+02 -0.16408759006E+02  0.36057898944E+02  0.51100000000E-03 0.  1.
         22    1    1    0    0    0  0.30767381352E+01  0.50145242836E+01 -0.29652267189E+02  0.30230261673E+02  0.00000000000E+00 0. -1.
</event>
<event>
 5    1  0.6650580E-004  0.9118800E+02  0.7818608E-02  0.1130116E+00
         25   -1    0    0    0    0  0.00000000000E+00  0.00000000000E+00  0.99999998245E-14  0.12500000000E+03  0.12500000000E+03 0.  0.
        -11    1    3    3    0    0  0.47389859686E+02  0.10945162964E+01  0.17964757745E+01  0.47436526986E+02  0.51100000000E-03 0. -1.
         23    2    1    0    0    0 -0.75075922531E+01 -0.17883682649E+02  0.17913976274E+01  0.10552182883E+03  0.10370852042E+03 0.  0.
         11    1    3    3    0    0 -0.54897451939E+02 -0.18978198946E+02 -0.50781470801E-02  0.58085301847E+02  0.51100000000E-03 0.  1.
         22    1    1    0    0    0  0.75075922531E+01  0.17883682649E+02 -0.17913976274E+01  0.19478171167E+02  0.00000000000E+00 0.  1.
</event>
<event>
 5    1  0.6650580E-004  0.9118800E+02  0.7818608E-02  0.1130116E+00
         25   -1    0    0    0    0  0.00000000000E+00  0.00000000000E+00  0.99999998245E-14  0.12500000000E+03  0.12500000000E+03 0.  0.
        -11    1    3    3    0    0  0.11314932863E+02 -0.41968270616E+02 -0.43019664398E+01  0.43679175355E+02  0.51100000000E-03 0.  1.
         23    2    1    0    0    0 -0.19726480747E+02  0.79573271374E-01 -0.18624198803E+02  0.97870658769E+02  0.94035443808E+02 0.  0.
         11    1    3    3    0    0 -0.31041413610E+02  0.42047843887E+02 -0.14322232364E+02  0.54191483414E+02  0.51100000000E-03 0. -1.
         22    1    1    0    0    0  0.19726480747E+02 -0.79573271374E-01  0.18624198803E+02  0.27129341231E+02  0.00000000000E+00 0. -1.
</event>
<event>
 5    1  0.6650580E-004  0.9118800E+02  0.7818608E-02  0.1130116E+00
         25   -1    0    0    0    0  0.00000000000E+00  0.00000000000E+00  0.99999998245E-14  0.12500000000E+03  0.12500000000E+03 0.  0.
        -11    1    3    3    0    0 -0.28538489438E+02 -0.49781204450E+01  0.24550615168E+02  0.37973145353E+02  0.51100000000E-03 0.  1.
         23    2    1    0    0    0  0.27222443291E+02  0.18376469320E-01  0.11435634763E+02  0.95473139366E+02  0.90792537367E+02 0.  0.
         11    1    3    3    0    0  0.55760932730E+02  0.49964969144E+01 -0.13114980405E+02  0.57499994014E+02  0.51100000000E-03 0. -1.
         22    1    1    0    0    0 -0.27222443291E+02 -0.18376469320E-01 -0.11435634763E+02  0.29526860634E+02  0.00000000000E+00 0. -1.
</event>
<event>
 5    1  0.6650580E-004  0.9118800E+02  0.7818608E-02  0.1130116E+00
         25   -1    0    0    0    0  0.00000000000E+00  0.00000000000E+00  0.99999998245E-14  0.12500000000E+03  0.12500000000E+03 0.  0.
        -11    1    3    3    0    0 -0.44170675111E+02 -0.49526529973E+01 -0.34646308521E+02  0.56355514423E+02  0.51100000000E-03 0. -1.
         23    2    1    0    0    0 -0.17278182081E+02  0.17126055333E+02 -0.11973636643E+02  0.97885330138E+02  0.94054944232E+02 0.  0.
         11    1    3    3    0    0  0.26892493031E+02  0.22078708330E+02  0.22672671878E+02  0.41529815715E+02  0.51100000000E-03 0.  1.
         22    1    1    0    0    0  0.17278182081E+02 -0.17126055333E+02  0.11973636643E+02  0.27114669862E+02  0.00000000000E+00 0. -1.
</event>
<event>
 5    1  0.6650580E-004  0.9118800E+02  0.7818608E-02  0.1130116E+00
         25   -1    0    0    0    0  0.00000000000E+00  0.00000000000E+00  0.99999998245E-14  0.12500000000E+03  0.12500000000E+03 0.  0.
        -11    1    3    3    0    0  0.19077512264E+02  0.11823899850E+02 -0.24061601735E+02  0.32904661679E+02  0.51100000000E-03 0. -1.
         23    2    1    0    0    0  0.13909108287E+02 -0.33914248511E+02  0.59654737086E+01  0.87862062228E+02  0.79627354326E+02 0.  0.
         11    1    3    3    0    0 -0.51684039771E+01 -0.45738148361E+02  0.30027075444E+02  0.54957400549E+02  0.51100000000E-03 0.  1.
         22    1    1    0    0    0 -0.13909108287E+02  0.33914248511E+02 -0.59654737086E+01  0.37137937772E+02  0.00000000000E+00 0.  1.
</event>
<event>
 5    1  0.6650580E-004  0.9118800E+02  0.7818608E-02  0.1130116E+00
         25   -1    0    0    0    0  0.00000000000E+00  0.00000000000E+00  0.99999998245E-14  0.12500000000E+03  0.12500000000E+03 0.  0.
        -11    1    3    3    0    0  0.49025867321E+01  0.13053011178E+02  0.37704312007E+02  0.40199895543E+02  0.51100000000E-03 0.  1.
         23    2    1    0    0    0  0.22345016360E+02 -0.16291284644E+02 -0.70258452009E+01  0.96468119370E+02  0.92152210188E+02 0.  0.
         11    1    3    3    0    0  0.17442429628E+02 -0.29344295822E+02 -0.44730157208E+02  0.56268223828E+02  0.51100000000E-03 0. -1.
         22    1    1    0    0    0 -0.22345016360E+02  0.16291284644E+02  0.70258452009E+01  0.28531880630E+02  0.00000000000E+00 0. -1.
</event>
<event>
 4    1  0.6650580E-004  0.9118800E+02  0.7818608E-02  0.1130116E+00
         25   -1    0    0    0    0  0.00000000000E+00  0.00000000000E+00  0.99999998245E-14  0.12500000000E+03  0.12500000000E+03 0.  0.
        -11    1    1    0    0    0  0.11740734532E+02  0.11718098514E+02  0.55076263952E+02  0.57520027219E+02  0.51100000000E-03 0.  1.
         11    1    1    0    0    0  0.44195960774E+01 -0.10641325258E+02 -0.16345877004E+01  0.11637977056E+02  0.51100000000E-03 0. -1.
         22    1    1    0    0    0 -0.16160330609E+02 -0.10767732552E+01 -0.53441676251E+02  0.55841995725E+02  0.00000000000E+00 0.  1.
</event>
<event>
 5    1  0.6650580E-004  0.9118800E+02  0.7818608E-02  0.1130116E+00
         25   -1    0    0    0    0  0.00000000000E+00  0.00000000000E+00  0.99999998245E-14  0.12500000000E+03  0.12500000000E+03 0.  0.
        -11    1    3    3    0    0 -0.39304223381E+02 -0.46222315283E+01 -0.41491063904E+01  0.39791985173E+02  0.51100000000E-03 0.  1.
         23    2    1    0    0    0  0.21721466296E+02 -0.91474075124E+01  0.22748512589E+01  0.10132148420E+03  0.98515841619E+02 0.  0.
         11    1    3    3    0    0  0.61025689678E+02 -0.45251759841E+01  0.64239576494E+01  0.61529499027E+02  0.51100000000E-03 0. -1.
         22    1    1    0    0    0 -0.21721466296E+02  0.91474075124E+01 -0.22748512589E+01  0.23678515800E+02  0.00000000000E+00 0. -1.
</event>
<event>
 5    1  0.6650580E-004  0.9118800E+02  0.7818608E-02  0.1130116E+00
         25   -1    0    0    0    0  0.00000000000E+00  0.00000000000E+00  0.99999998245E-14  0.12500000000E+03  0.12500000000E+03 0.  0.
        -11    1    3    3    0    0  0.16326182220E+02  0.20663564896E+02  0.50230079749E+02  0.56714972026E+02  0.51100000000E-03 0.  1.
         23    2    1    0    0    0  0.21897470225E+02  0.14478802681E+02  0.11481443474E+02  0.96347627086E+02  0.91988623055E+02 0.  0.
         11    1    3    3    0    0  0.55712880056E+01 -0.61847622153E+01 -0.38748636274E+02  0.39632655060E+02  0.51100000000E-03 0. -1.
         22    1    1    0    0    0 -0.21897470225E+02 -0.14478802681E+02 -0.11481443474E+02  0.28652372914E+02  0.00000000000E+00 0.  1.
</event>
<event>
 5    1  0.6650580E-004  0.9118800E+02  0.7818608E-02  0.1130116E+00
         25   -1    0    0    0    0  0.00000000000E+00  0.00000000000E+00  0.99999998245E-14  0.12500000000E+03  0.12500000000E+03 0.  0.
        -11    1    3    3    0    0  0.41553141676E+02 -0.37800428803E+02 -0.18809890694E+02  0.59239750075E+02  0.51100000000E-03 0. -1.
         23    2    1    0    0    0  0.14607484065E+02 -0.11567523641E+02 -0.21019312649E+02  0.96910897164E+02  0.92750872185E+02 0.  0.
         11    1    3    3    0    0 -0.26945657612E+02  0.26232905162E+02 -0.22094219554E+01  0.37671147089E+02  0.51100000000E-03 0.  1.
         22    1    1    0    0    0 -0.14607484065E+02  0.11567523641E+02  0.21019312649E+02  0.28089102836E+02  0.00000000000E+00 0. -1.
</event>
<event>
 5    1  0.6650580E-004  0.9118800E+02  0.7818608E-02  0.1130116E+00
         25   -1    0    0    0    0  0.00000000000E+00  0.00000000000E+00  0.99999998245E-14  0.12500000000E+03  0.12500000000E+03 0.  0.
        -11    1    3    3    0    0 -0.46157972190E+02  0.20148608753E+02 -0.25442800079E+02  0.56425711404E+02  0.51100000000E-03 0.  1.
         23    2    1    0    0    0 -0.28956319245E+02 -0.19437343162E+01  0.23582445886E+01  0.95882859947E+02  0.91354884855E+02 0.  0.
         11    1    3    3    0    0  0.17201652945E+02 -0.22092343069E+02  0.27801044667E+02  0.39457148543E+02  0.51100000000E-03 0. -1.
         22    1    1    0    0    0  0.28956319245E+02  0.19437343162E+01 -0.23582445886E+01  0.29117140053E+02  0.00000000000E+00 0.  1.
</event>
<event>
 5    1  0.6650580E-004  0.9118800E+02  0.7818608E-02  0.1130116E+00
         25   -1    0    0    0    0  0.00000000000E+00  0.00000000000E+00  0.99999998245E-14  0.12500000000E+03  0.12500000000E+03 0.  0.
        -11    1    3    3    0    0  0.19571646115E+02  0.38805867676E+02  0.11619321324E+02  0.44988368786E+02  0.51100000000E-03 0. -1.
         23    2    1    0    0    0  0.15590311387E+02 -0.89779121835E+01  0.24468484271E+02  0.94629497224E+02  0.89623514248E+02 0.  0.
         11    1    3    3    0    0 -0.39813347276E+01 -0.47783779860E+02  0.12849162947E+02  0.49641128438E+02  0.51100000000E-03 0.  1.
         22    1    1    0    0    0 -0.15590311387E+02  0.89779121835E+01 -0.24468484271E+02  0.30370502776E+02  0.00000000000E+00 0.  1.
</event>
<event>
 5    1  0.6650580E-004  0.9118800E+02  0.7818608E-02  0.1130116E+00
         25   -1    0    0    0    0  0.00000000000E+00  0.00000000000E+00  0.99999998245E-14  0.12500000000E+03  0.12500000000E+03 0.  0.
        -11    1    3    3    0    0  0.45019198970E+02  0.10657708706E+02 -0.32299346040E+02  0.56423069622E+02  0.51100000000E-03 0. -1.
         23    2    1    0    0    0  0.17989908811E+02  0.11223260637E+01 -0.35423038033E+02  0.85254710237E+02  0.75423322383E+02 0.  0.
         11    1    3    3    0    0 -0.27029290159E+02 -0.95353826421E+01 -0.31236919933E+01  0.28831640615E+02  0.51100000000E-03 0.  1.
         22    1    1    0    0    0 -0.17989908811E+02 -0.11223260637E+01  0.35423038033E+02  0.39745289763E+02  0.00000000000E+00 0. -1.
</event>
<event>
 5    1  0.6650580E-004  0.9118800E+02  0.7818608E-02  0.1130116E+00
         25   -1    0    0    0    0  0.00000000000E+00  0.00000000000E+00  0.99999998245E-14  0.12500000000E+03  0.12500000000E+03 0.  0.
        -11    1    3    3    0    0 -0.42472463511E+02  0.16068993829E+02  0.18193116735E+02  0.48919446196E+02  0.51100000000E-03 0.  1.
         23    2    1    0    0    0 -0.24222700245E+02 -0.18232018052E+02 -0.51530534816E+01  0.94247770006E+02  0.89089519594E+02 0.  0.
         11    1    3    3    0    0  0.18249763266E+02 -0.34301011881E+02 -0.23346170217E+02  0.45328323809E+02  0.51100000000E-03 0. -1.
         22    1    1    0    0    0  0.24222700245E+02  0.18232018052E+02  0.51530534816E+01  0.30752229994E+02  0.00000000000E+00 0.  1.
</event>
<event>
 5    1  0.6650580E-004  0.9118800E+02  0.7818608E-02  0.1130116E+00
         25   -1    0    0    0    0  0.00000000000E+00  0.00000000000E+00  0.99999998245E-14  0.12500000000E+03  0.12500000000E+03 0.  0.
        -11    1    3    3    0    0 -0.15172657048E+02 -0.23664856798E+02  0.26061098083E+02  0.38332959744E+02  0.51100000000E-03 0. -1.
         23    2    1    0    0    0  0.16453908427E+02  0.21775109808E+02  0.87553031449E+01  0.96337448773E+02  0.91974791075E+02 0.  0.
         11    1    3    3    0    0  0.31626565474E+02  0.45439966606E+02 -0.17305794939E+02  0.58004489029E+02  0.51100000000E-03 0.  1.
         22    1    1    0    0    0 -0.16453908427E+02 -0.21775109808E+02 -0.87553031449E+01  0.28662551227E+02  0.00000000000E+00 0.  1.
</event>
<event>
 5    1  0.6650580E-004  0.9118800E+02  0.7818608E-02  0.1130116E+00
         25   -1    0    0    0    0  0.00000000000E+00  0.00000000000E+00  0.99999998245E-14  0.12500000000E+03  0.12500000000E+03 0.  0.
        -11    1    3    3    0    0 -0.20350391213E+02 -0.16464389274E+02  0.47564199747E+02  0.54291506099E+02  0.51100000000E-03 0.  1.
         23    2    1    0    0    0 -0.10836507170E+02  0.15384078146E+02  0.20662410992E+02  0.97052997012E+02  0.92942182312E+02 0.  0.
         11    1    3    3    0    0  0.95138840434E+01  0.31848467420E+02 -0.26901788755E+02  0.42761490913E+02  0.51100000000E-03 0. -1.
         22    1    1    0    0    0  0.10836507170E+02 -0.15384078146E+02 -0.20662410992E+02  0.27947002988E+02  0.00000000000E+00 0. -1.
</event>
<event>
 5    1  0.6650580E-004  0.9118800E+02  0.7818608E-02  0.1130116E+00
         25   -1    0    0    0    0  0.00000000000E+00  0.00000000000E+00  0.99999998245E-14  0.12500000000E+03  0.12500000000E+03 0.  0.
        -11    1    3    3    0    0 -0.42865178758E+02  0.17277309636E+02  0.78567713892E+01  0.46879183388E+02  0.51100000000E-03 0.  1.
         23    2    1    0    0    0 -0.68639282543E+01 -0.35613534191E+01  0.30011349312E+02  0.94008423132E+02  0.88753060697E+02 0.  0.
         11    1    3    3    0    0  0.36001250503E+02 -0.20838663055E+02  0.22154577922E+02  0.47129239745E+02  0.51100000000E-03 0. -1.
         22    1    1    0    0    0  0.68639282543E+01  0.35613534191E+01 -0.30011349312E+02  0.30991576868E+02  0.00000000000E+00 0.  1.
</event>
<event>
 5    1  0.6650580E-004  0.9118800E+02  0.7818608E-02  0.1130116E+00
         25   -1    0    0    0    0  0.00000000000E+00  0.00000000000E+00  0.99999998245E-14  0.12500000000E+03  0.12500000000E+03 0.  0.
        -11    1    3    3    0    0 -0.15802289776E+02 -0.51708728861E+02  0.82743818299E+01  0.54698906731E+02  0.51100000000E-03 0. -1.
         23    2    1    0    0    0  0.54410092398E+01 -0.34958247031E+02 -0.11039306212E+02  0.87938565885E+02  0.79747360277E+02 0.  0.
         11    1    3    3    0    0  0.21243299016E+02  0.16750481830E+02 -0.19313688042E+02  0.33239659154E+02  0.51100000000E-03 0.  1.
         22    1    1    0    0    0 -0.54410092398E+01  0.34958247031E+02  0.11039306212E+02  0.37061434115E+02  0.00000000000E+00 0.  1.
</event>
<event>
 5    1  0.6650580E-004  0.9118800E+02  0.7818608E-02  0.1130116E+00
         25   -1    0    0    0    0  0.00000000000E+00  0.00000000000E+00  0.99999998245E-14  0.12500000000E+03  0.12500000000E+03 0.  0.
        -11    1    3    3    0    0 -0.31830686338E+02  0.81984630007E+01  0.79762250175E+01  0.33823476375E+02  0.51100000000E-03 0. -1.
         23    2    1    0    0    0  0.21486142229E+02 -0.36111407709E+01 -0.20214135603E+02  0.95279536953E+02  0.90525599906E+02 0.  0.
         11    1    3    3    0    0  0.53316828566E+02 -0.11809603772E+02 -0.28190360621E+02  0.61456060578E+02  0.51100000000E-03 0.  1.
         22    1    1    0    0    0 -0.21486142229E+02  0.36111407709E+01  0.20214135603E+02  0.29720463047E+02  0.00000000000E+00 0.  1.
</event>
<event>
 5    1  0.6650580E-004  0.9118800E+02  0.7818608E-02  0.1130116E+00
         25   -1    0    0    0    0  0.00000000000E+00  0.00000000000E+00  0.99999998245E-14  0.12500000000E+03  0.12500000000E+03 0.  0.
        -11    1    3    3    0    0 -0.25760548274E+02  0.14043258035E+02 -0.10593411772E+02  0.31193578135E+02  0.51100000000E-03 0.  1.
         23    2    1    0    0    0  0.28734313648E+02 -0.49363699655E+01  0.12407959891E+02  0.93314261916E+02  0.87769957725E+02 0.  0.
         11    1    3    3    0    0  0.54494861921E+02 -0.18979628001E+02  0.23001371663E+02  0.62120683782E+02  0.51100000000E-03 0. -1.
         22    1    1    0    0    0 -0.28734313648E+02  0.49363699655E+01 -0.12407959891E+02  0.31685738084E+02  0.00000000000E+00 0. -1.
</event>
<event>
 5    1  0.6650580E-004  0.9118800E+02  0.7818608E-02  0.1130116E+00
         25   -1    0    0    0    0  0.00000000000E+00  0.00000000000E+00  0.99999998245E-14  0.12500000000E+03  0.12500000000E+03 0.  0.
        -11    1    3    3    0    0 -0.20230035208E+02 -0.21042443352E+02 -0.51635625664E+02  0.59315062039E+02  0.51100000000E-03 0. -1.
         23    2    1    0    0    0 -0.10257274342E+02  0.37736944221E+01 -0.27757079117E+02  0.95168676066E+02  0.90372390787E+02 0.  0.
         11    1    3    3    0    0  0.99727608657E+01  0.24816137774E+02  0.23878546547E+02  0.35853614027E+02  0.51100000000E-03 0.  1.
         22    1    1    0    0    0  0.10257274342E+02 -0.37736944221E+01  0.27757079117E+02  0.29831323934E+02  0.00000000000E+00 0. -1.
</event>
<event>
 5    1  0.6650580E-004  0.9118800E+02  0.7818608E-02  0.1130116E+00
         25   -1    0    0    0    0  0.00000000000E+00  0.00000000000E+00  0.99999998245E-14  0.12500000000E+03  0.12500000000E+03 0.  0.
        -11    1    3    3    0    0  0.52886769549E+02 -0.28886721646E+02 -0.73139171353E+01  0.60703759891E+02  0.51100000000E-03 0. -1.
         23    2    1    0    0    0  0.19196246804E+02 -0.19472191499E+02 -0.10228306999E+02  0.95806158231E+02  0.91249874290E+02 0.  0.
         11    1    3    3    0    0 -0.33690522745E+02  0.94145301465E+01 -0.29143898634E+01  0.35102398340E+02  0.51100000000E-03 0.  1.
         22    1    1    0    0    0 -0.19196246804E+02  0.19472191499E+02  0.10228306999E+02  0.29193841769E+02  0.00000000000E+00 0. -1.
</event>
<event>
 5    1  0.6650580E-004  0.9118800E+02  0.7818608E-02  0.1130116E+00
         25   -1    0    0    0    0  0.00000000000E+00  0.00000000000E+00  0.99999998245E-14  0.12500000000E+03  0.12500000000E+03 0.  0.
        -11    1    3    3    0    0  0.13855217154E+02  0.22870821014E+02 -0.21982846011E+02  0.34616282517E+02  0.51100000000E-03 0.  1.
         23    2    1    0    0    0 -0.20860981184E+02 -0.22403339572E+02 -0.81570831541E+01  0.93319909004E+02  0.87777999811E+02 0.  0.
         11    1    3    3    0    0 -0.34716198338E+02 -0.45274160587E+02  0.13825762857E+02  0.58703626487E+02  0.51100000000E-03 0. -1.
         22    1    1    0    0    0  0.20860981184E+02  0.22403339572E+02  0.81570831541E+01  0.31680090996E+02  0.00000000000E+00 0. -1.
</event>
<event>
 5    1  0.6650580E-004  0.9118800E+02  0.7818608E-02  0.1130116E+00
         25   -1    0    0    0    0  0.00000000000E+00  0.00000000000E+00  0.99999998245E-14  0.12500000000E+03  0.12500000000E+03 0.  0.
        -11    1    3    3    0    0 -0.30835097407E+01  0.29648175803E+02  0.14045501359E+02  0.32951456257E+02  0.51100000000E-03 0. -1.
         23    2    1    0    0    0  0.11723245295E+02 -0.27712346976E+02  0.13053588728E+02  0.92200536073E+02  0.86169217348E+02 0.  0.
         11    1    3    3    0    0  0.14806755036E+02 -0.57360522779E+02 -0.99191263116E+00  0.59249079817E+02  0.51100000000E-03 0.  1.
         22    1    1    0    0    0 -0.11723245295E+02  0.27712346976E+02 -0.13053588728E+02  0.32799463927E+02  0.00000000000E+00 0.  1.
</event>
<event>
 5    1  0.6650580E-004  0.9118800E+02  0.7818608E-02  0.1130116E+00
         25   -1    0    0    0    0  0.00000000000E+00  0.00000000000E+00  0.99999998245E-14  0.12500000000E+03  0.12500000000E+03 0.  0.
        -11    1    3    3    0    0 -0.39372600744E+01 -0.55951168947E+02  0.19437960920E+02  0.59362190394E+02  0.51100000000E-03 0.  1.
         23    2    1    0    0    0 -0.38956182064E+01 -0.29484482627E+02 -0.43435724859E+01  0.94943766388E+02  0.90060766136E+02 0.  0.
         11    1    3    3    0    0  0.41641868002E-01  0.26466686320E+02 -0.23781533405E+02  0.35581575993E+02  0.51100000000E-03 0. -1.
         22    1    1    0    0    0  0.38956182064E+01  0.29484482627E+02  0.43435724859E+01  0.30056233612E+02  0.00000000000E+00 0.  1.
</event>
<event>
 5    1  0.6650580E-004  0.9118800E+02  0.7818608E-02  0.1130116E+00
         25   -1    0    0    0    0  0.00000000000E+00  0.00000000000E+00  0.99999998245E-14  0.12500000000E+03  0.12500000000E+03 0.  0.
        -11    1    3    3    0    0  0.15085283831E+02 -0.48960755510E+02  0.14429681380E+02  0.53225342397E+02  0.51100000000E-03 0.  1.
         23    2    1    0    0    0 -0.45250570294E+01 -0.67258494013E+01 -0.14743672178E+02  0.10817474932E+03  0.10685825812E+03 0.  0.
         11    1    3    3    0    0 -0.19610340860E+02  0.42234906108E+02 -0.29173353558E+02  0.54949406919E+02  0.51100000000E-03 0. -1.
         22    1    1    0    0    0  0.45250570294E+01  0.67258494013E+01  0.14743672178E+02  0.16825250684E+02  0.00000000000E+00 0. -1.
</event>
<event>
 5    1  0.6650580E-004  0.9118800E+02  0.7818608E-02  0.1130116E+00
         25   -1    0    0    0    0  0.00000000000E+00  0.00000000000E+00  0.99999998245E-14  0.12500000000E+03  0.12500000000E+03 0.  0.
        -11    1    3    3    0    0  0.42674970085E+02 -0.32932292262E+01  0.29216452019E+02  0.51822770085E+02  0.51100000000E-03 0.  1.
         23    2    1    0    0    0  0.10386975232E+02  0.22486630095E+02  0.17172986397E+02  0.94859508144E+02  0.89943743730E+02 0.  0.
         11    1    3    3    0    0 -0.32287994854E+02  0.25779859321E+02 -0.12043465621E+02  0.43036738059E+02  0.51100000000E-03 0. -1.
         22    1    1    0    0    0 -0.10386975232E+02 -0.22486630095E+02 -0.17172986397E+02  0.30140491856E+02  0.00000000000E+00 0.  1.
</event>
<event>
 5    1  0.6650580E-004  0.9118800E+02  0.7818608E-02  0.1130116E+00
         25   -1    0    0    0    0  0.00000000000E+00  0.00000000000E+00  0.99999998245E-14  0.12500000000E+03  0.12500000000E+03 0.  0.
        -11    1    3    3    0    0 -0.74874925307E+01 -0.33425569948E+02 -0.12762444955E+02  0.36554223727E+02  0.51100000000E-03 0.  1.
         23    2    1    0    0    0 -0.66506762659E+00  0.91792784883E+01  0.27764371059E+02  0.95750012499E+02  0.91172929780E+02 0.  0.
         11    1    3    3    0    0  0.68224249041E+01  0.42604848437E+02  0.40526816014E+02  0.59195788772E+02  0.51100000000E-03 0. -1.
         22    1    1    0    0    0  0.66506762659E+00 -0.91792784883E+01 -0.27764371059E+02  0.29249987501E+02  0.00000000000E+00 0. -1.
</event>
<event>
 5    1  0.6650580E-004  0.9118800E+02  0.7818608E-02  0.1130116E+00
         25   -1    0    0    0    0  0.00000000000E+00  0.00000000000E+00  0.99999998245E-14  0.12500000000E+03  0.12500000000E+03 0.  0.
        -11    1    3    3    0    0  0.35277621165E+01 -0.66155938812E+01 -0.46715097479E+02  0.47312910719E+02  0.51100000000E-03 0.  1.
         23    2    1    0    0    0  0.11661470828E+02 -0.26308866886E+02 -0.28466150261E+01  0.96082019507E+02  0.91626987710E+02 0.  0.
         11    1    3    3    0    0  0.81337087112E+01 -0.19693273005E+02  0.43868482453E+02  0.48769108788E+02  0.51100000000E-03 0. -1.
         22    1    1    0    0    0 -0.11661470828E+02  0.26308866886E+02  0.28466150261E+01  0.28917980493E+02  0.00000000000E+00 0.  1.
</event>
<event>
 5    1  0.6650580E-004  0.9118800E+02  0.7818608E-02  0.1130116E+00
         25   -1    0    0    0    0  0.00000000000E+00  0.00000000000E+00  0.99999998245E-14  0.12500000000E+03  0.12500000000E+03 0.  0.
        -11    1    3    3    0    0  0.72167588732E+01 -0.50352929500E+02  0.28486642624E+02  0.58300839841E+02  0.51100000000E-03 0. -1.
         23    2    1    0    0    0 -0.10460306315E+02 -0.27606301491E+02  0.59306131477E+01  0.94888572559E+02  0.89984127155E+02 0.  0.
         11    1    3    3    0    0 -0.17677065188E+02  0.22746628009E+02 -0.22556029477E+02  0.36587732718E+02  0.51100000000E-03 0.  1.
         22    1    1    0    0    0  0.10460306315E+02  0.27606301491E+02 -0.59306131477E+01  0.30111427441E+02  0.00000000000E+00 0. -1.
</event>
<event>
 5    1  0.6650580E-004  0.9118800E+02  0.7818608E-02  0.1130116E+00
         25   -1    0    0    0    0  0.00000000000E+00  0.00000000000E+00  0.99999998245E-14  0.12500000000E+03  0.12500000000E+03 0.  0.
        -11    1    3    3    0    0  0.89552475392E+01  0.43124952304E+02  0.32075458666E+02  0.54486631559E+02  0.51100000000E-03 0. -1.
         23    2    1    0    0    0  0.84974438875E+00  0.30196778815E+02 -0.48164800211E+01  0.94409707486E+02  0.89316442335E+02 0.  0.
         11    1    3    3    0    0 -0.81055031505E+01 -0.12928173490E+02 -0.36891938687E+02  0.39923075927E+02  0.51100000000E-03 0.  1.
         22    1    1    0    0    0 -0.84974438875E+00 -0.30196778815E+02  0.48164800211E+01  0.30590292514E+02  0.00000000000E+00 0. -1.
</event>
<event>
 5    1  0.6650580E-004  0.9118800E+02  0.7818608E-02  0.1130116E+00
         25   -1    0    0    0    0  0.00000000000E+00  0.00000000000E+00  0.99999998245E-14  0.12500000000E+03  0.12500000000E+03 0.  0.
        -11    1    3    3    0    0  0.18384896426E+02 -0.63732471184E+01  0.52466627026E+02  0.55958642292E+02  0.51100000000E-03 0. -1.
         23    2    1    0    0    0  0.25455323042E+02 -0.12950928362E+01  0.12973161946E+02  0.96400110708E+02  0.92059913519E+02 0.  0.
         11    1    3    3    0    0  0.70704266157E+01  0.50781542822E+01 -0.39493465080E+02  0.40441468417E+02  0.51100000000E-03 0.  1.
         22    1    1    0    0    0 -0.25455323042E+02  0.12950928362E+01 -0.12973161946E+02  0.28599889292E+02  0.00000000000E+00 0. -1.
</event>
<event>
 5    1  0.6650580E-004  0.9118800E+02  0.7818608E-02  0.1130116E+00
         25   -1    0    0    0    0  0.00000000000E+00  0.00000000000E+00  0.99999998245E-14  0.12500000000E+03  0.12500000000E+03 0.  0.
        -11    1    3    3    0    0 -0.94863429496E+01  0.14123309768E+02  0.40180913392E+02  0.43634440327E+02  0.51100000000E-03 0. -1.
         23    2    1    0    0    0  0.18693530547E+02  0.18747816904E+02 -0.59271952699E+01  0.97869567516E+02  0.94033993210E+02 0.  0.
         11    1    3    3    0    0  0.28179873497E+02  0.46245071360E+01 -0.46108108662E+02  0.54235127189E+02  0.51100000000E-03 0.  1.
         22    1    1    0    0    0 -0.18693530547E+02 -0.18747816904E+02  0.59271952699E+01  0.27130432484E+02  0.00000000000E+00 0.  1.
</event>
<event>
 5    1  0.6650580E-004  0.9118800E+02  0.7818608E-02  0.1130116E+00
         25   -1    0    0    0    0  0.00000000000E+00  0.00000000000E+00  0.99999998245E-14  0.12500000000E+03  0.12500000000E+03 0.  0.
        -11    1    3    3    0    0 -0.33638209750E+01 -0.33255678217E+01  0.52667292905E+02  0.52879281719E+02  0.51100000000E-03 0. -1.
         23    2    1    0    0    0 -0.25102338536E+02 -0.42715522768E+01  0.17971725332E+02  0.93833407786E+02  0.88506225467E+02 0.  0.
         11    1    3    3    0    0 -0.21738517561E+02 -0.94598445511E+00 -0.34695567574E+02  0.40954126067E+02  0.51100000000E-03 0.  1.
         22    1    1    0    0    0  0.25102338536E+02  0.42715522768E+01 -0.17971725332E+02  0.31166592214E+02  0.00000000000E+00 0. -1.
</event>
<event>
 5    1  0.6650580E-004  0.9118800E+02  0.7818608E-02  0.1130116E+00
         25   -1    0    0    0    0  0.00000000000E+00  0.00000000000E+00  0.99999998245E-14  0.12500000000E+03  0.12500000000E+03 0.  0.
        -11    1    3    3    0    0 -0.38455518503E+02 -0.17304303854E+02  0.41265192125E+02  0.59000694205E+02  0.51100000000E-03 0. -1.
         23    2    1    0    0    0 -0.25971732898E+02  0.19891034674E+01  0.11703204755E+02  0.96443872044E+02  0.92119313995E+02 0.  0.
         11    1    3    3    0    0  0.12483785606E+02  0.19293407322E+02 -0.29561987370E+02  0.37443177839E+02  0.51100000000E-03 0.  1.
         22    1    1    0    0    0  0.25971732898E+02 -0.19891034674E+01 -0.11703204755E+02  0.28556127956E+02  0.00000000000E+00 0. -1.
</event>
<event>
 5    1  0.6650580E-004  0.9118800E+02  0.7818608E-02  0.1130116E+00
         25   -1    0    0    0    0  0.00000000000E+00  0.00000000000E+00  0.99999998245E-14  0.12500000000E+03  0.12500000000E+03 0.  0.
        -11    1    3    3    0    0 -0.13418013968E+02 -0.41843663360E+02  0.36878038589E+02  0.57366584286E+02  0.51100000000E-03 0.  1.
         23    2    1    0    0    0 -0.22650267057E+02 -0.12686834476E+02  0.14491201161E+02  0.95268110086E+02  0.90509820028E+02 0.  0.
         11    1    3    3    0    0 -0.92322530889E+01  0.29156828884E+02 -0.22386837428E+02  0.37901525800E+02  0.51100000000E-03 0. -1.
         22    1    1    0    0    0  0.22650267057E+02  0.12686834476E+02 -0.14491201161E+02  0.29731889914E+02  0.00000000000E+00 0.  1.
</event>
<event>
 5    1  0.6650580E-004  0.9118800E+02  0.7818608E-02  0.1130116E+00
         25   -1    0    0    0    0  0.00000000000E+00  0.00000000000E+00  0.99999998245E-14  0.12500000000E+03  0.12500000000E+03 0.  0.
        -11    1    3    3    0    0  0.28542366891E+00 -0.88665743788E+01  0.42180018702E+02  0.43102802528E+02  0.51100000000E-03 0.  1.
         23    2    1    0    0    0 -0.32234361239E+02  0.58850483698E+01  0.11218233345E+02  0.90365673124E+02  0.83465072222E+02 0.  0.
         11    1    3    3    0    0 -0.32519784908E+02  0.14751622749E+02 -0.30961785357E+02  0.47262870595E+02  0.51100000000E-03 0. -1.
         22    1    1    0    0    0  0.32234361239E+02 -0.58850483698E+01 -0.11218233345E+02  0.34634326876E+02  0.00000000000E+00 0. -1.
</event>
<event>
 5    1  0.6650580E-004  0.9118800E+02  0.7818608E-02  0.1130116E+00
         25   -1    0    0    0    0  0.00000000000E+00  0.00000000000E+00  0.99999998245E-14  0.12500000000E+03  0.12500000000E+03 0.  0.
        -11    1    3    3    0    0 -0.13073801871E+01 -0.34224762462E+02  0.93929757362E+01  0.35514385845E+02  0.51100000000E-03 0.  1.
         23    2    1    0    0    0  0.12814852388E+02  0.24917028170E+02  0.55204552824E+01  0.96442091094E+02  0.92116897330E+02 0.  0.
         11    1    3    3    0    0  0.14122232575E+02  0.59141790632E+02 -0.38725204538E+01  0.60927705249E+02  0.51100000000E-03 0. -1.
         22    1    1    0    0    0 -0.12814852388E+02 -0.24917028170E+02 -0.55204552824E+01  0.28557908906E+02  0.00000000000E+00 0. -1.
</event>
<event>
 5    1  0.6650580E-004  0.9118800E+02  0.7818608E-02  0.1130116E+00
         25   -1    0    0    0    0  0.00000000000E+00  0.00000000000E+00  0.99999998245E-14  0.12500000000E+03  0.12500000000E+03 0.  0.
        -11    1    3    3    0    0  0.29948278237E+02  0.26014654756E+02  0.35270734514E+00  0.39670972185E+02  0.51100000000E-03 0. -1.
         23    2    1    0    0    0 -0.23481805873E+02  0.14955158885E+02 -0.10396378456E+02  0.95282384528E+02  0.90529531823E+02 0.  0.
         11    1    3    3    0    0 -0.53430084110E+02 -0.11059495871E+02 -0.10749085802E+02  0.55611412343E+02  0.51100000000E-03 0.  1.
         22    1    1    0    0    0  0.23481805873E+02 -0.14955158885E+02  0.10396378456E+02  0.29717615472E+02  0.00000000000E+00 0.  1.
</event>
<event>
 5    1  0.6650580E-004  0.9118800E+02  0.7818608E-02  0.1130116E+00
         25   -1    0    0    0    0  0.00000000000E+00  0.00000000000E+00  0.99999998245E-14  0.12500000000E+03  0.12500000000E+03 0.  0.
        -11    1    3    3    0    0  0.39764107532E+02 -0.24447048105E+02  0.18181373591E+01  0.46713467358E+02  0.51100000000E-03 0. -1.
         23    2    1    0    0    0  0.30527105649E+01 -0.10414332828E+02 -0.27296875728E+02  0.95624894986E+02  0.91001229368E+02 0.  0.
         11    1    3    3    0    0 -0.36711396967E+02  0.14032715277E+02 -0.29115013087E+02  0.48911427629E+02  0.51100000000E-03 0.  1.
         22    1    1    0    0    0 -0.30527105649E+01  0.10414332828E+02  0.27296875728E+02  0.29375105014E+02  0.00000000000E+00 0. -1.
</event>
<event>
 5    1  0.6650580E-004  0.9118800E+02  0.7818608E-02  0.1130116E+00
         25   -1    0    0    0    0  0.00000000000E+00  0.00000000000E+00  0.99999998245E-14  0.12500000000E+03  0.12500000000E+03 0.  0.
        -11    1    3    3    0    0 -0.40872861920E+02  0.28483950902E+02  0.10865506345E+02  0.50990053235E+02  0.51100000000E-03 0. -1.
         23    2    1    0    0    0  0.64222216761E+01  0.24889517043E+02  0.22572010029E+01  0.99196357888E+02  0.95781467267E+02 0.  0.
         11    1    3    3    0    0  0.47295083596E+02 -0.35944338591E+01 -0.86083053417E+01  0.48206304653E+02  0.51100000000E-03 0.  1.
         22    1    1    0    0    0 -0.64222216761E+01 -0.24889517043E+02 -0.22572010029E+01  0.25803642112E+02  0.00000000000E+00 0.  1.
</event>
<event>
 5    1  0.6650580E-004  0.9118800E+02  0.7818608E-02  0.1130116E+00
         25   -1    0    0    0    0  0.00000000000E+00  0.00000000000E+00  0.99999998245E-14  0.12500000000E+03  0.12500000000E+03 0.  0.
        -11    1    3    3    0    0 -0.42480886480E+01 -0.11319291217E+02  0.58461052356E+02  0.59698134423E+02  0.51100000000E-03 0.  1.
         23    2    1    0    0    0 -0.14623600157E+02 -0.17058280900E+01  0.25712993722E+02  0.95370326071E+02  0.90650877093E+02 0.  0.
         11    1    3    3    0    0 -0.10375511509E+02  0.96134631267E+01 -0.32748058634E+02  0.35672191648E+02  0.51100000000E-03 0. -1.
         22    1    1    0    0    0  0.14623600157E+02  0.17058280900E+01 -0.25712993722E+02  0.29629673929E+02  0.00000000000E+00 0.  1.
</event>
<event>
 5    1  0.6650580E-004  0.9118800E+02  0.7818608E-02  0.1130116E+00
         25   -1    0    0    0    0  0.00000000000E+00  0.00000000000E+00  0.99999998245E-14  0.12500000000E+03  0.12500000000E+03 0.  0.
        -11    1    3    3    0    0  0.20529306472E+01  0.41183445161E+02 -0.35156336022E+02  0.54187255349E+02  0.51100000000E-03 0.  1.
         23    2    1    0    0    0  0.10723968633E+02  0.37773675256E+02 -0.54051908173E+01  0.85363272924E+02  0.75603030567E+02 0.  0.
         11    1    3    3    0    0  0.86710379858E+01 -0.34097699054E+01  0.29751145204E+02  0.31176017574E+02  0.51100000000E-03 0. -1.
         22    1    1    0    0    0 -0.10723968633E+02 -0.37773675256E+02  0.54051908173E+01  0.39636727076E+02  0.00000000000E+00 0.  1.
</event>
<event>
 5    1  0.6650580E-004  0.9118800E+02  0.7818608E-02  0.1130116E+00
         25   -1    0    0    0    0  0.00000000000E+00  0.00000000000E+00  0.99999998245E-14  0.12500000000E+03  0.12500000000E+03 0.  0.
        -11    1    3    3    0    0  0.31083590488E+02 -0.30664806543E+02 -0.28752615992E+01  0.43758280217E+02  0.51100000000E-03 0.  1.
         23    2    1    0    0    0  0.15037272572E+02  0.15368925511E+02 -0.20202570901E+02  0.95496317031E+02  0.90824441962E+02 0.  0.
         11    1    3    3    0    0 -0.16046317916E+02  0.46033732054E+02 -0.17327309301E+02  0.51738036814E+02  0.51100000000E-03 0. -1.
         22    1    1    0    0    0 -0.15037272572E+02 -0.15368925511E+02  0.20202570901E+02  0.29503682969E+02  0.00000000000E+00 0. -1.
</event>
<event>
 5    1  0.6650580E-004  0.9118800E+02  0.7818608E-02  0.1130116E+00
         25   -1    0    0    0    0  0.00000000000E+00  0.00000000000E+00  0.99999998245E-14  0.12500000000E+03  0.12500000000E+03 0.  0.
        -11    1    3    3    0    0 -0.38969199794E+02 -0.18176121989E+02  0.46651360645E+01  0.43251976116E+02  0.51100000000E-03 0.  1.
         23    2    1    0    0    0 -0.55724521096E+00  0.15019595674E+02  0.23249808177E+02  0.97315124044E+02  0.93294056676E+02 0.  0.
         11    1    3    3    0    0  0.38411954584E+02  0.33195717663E+02  0.18584672112E+02  0.54063147928E+02  0.51100000000E-03 0. -1.
         22    1    1    0    0    0  0.55724521096E+00 -0.15019595674E+02 -0.23249808177E+02  0.27684875956E+02  0.00000000000E+00 0. -1.
</event>
<event>
 5    1  0.6650580E-004  0.9118800E+02  0.7818608E-02  0.1130116E+00
         25   -1    0    0    0    0  0.00000000000E+00  0.00000000000E+00  0.99999998245E-14  0.12500000000E+03  0.12500000000E+03 0.  0.
        -11    1    3    3    0    0  0.32171530075E+02 -0.58146241042E+01  0.36891602319E+02  0.49293077838E+02  0.51100000000E-03 0.  1.
         23    2    1    0    0    0 -0.83671576569E+01 -0.20410435676E+02  0.18773850704E+02  0.96033593906E+02  0.91560900369E+02 0.  0.
         11    1    3    3    0    0 -0.40538687732E+02 -0.14595811572E+02 -0.18117751615E+02  0.46740516068E+02  0.51100000000E-03 0. -1.
         22    1    1    0    0    0  0.83671576569E+01  0.20410435676E+02 -0.18773850704E+02  0.28966406094E+02  0.00000000000E+00 0.  1.
</event>
<event>
 5    1  0.6650580E-004  0.9118800E+02  0.7818608E-02  0.1130116E+00
         25   -1    0    0    0    0  0.00000000000E+00  0.00000000000E+00  0.99999998245E-14  0.12500000000E+03  0.12500000000E+03 0.  0.
        -11    1    3    3    0    0  0.42201785390E+02  0.98346305948E+01  0.83594214663E+01  0.44131514551E+02  0.51100000000E-03 0.  1.
         23    2    1    0    0    0  0.35134636726E+00  0.23640493864E+02  0.24395582135E+02  0.91027351853E+02  0.84450209966E+02 0.  0.
         11    1    3    3    0    0 -0.41850439023E+02  0.13805863269E+02  0.16036160669E+02  0.46895837302E+02  0.51100000000E-03 0. -1.
         22    1    1    0    0    0 -0.35134636726E+00 -0.23640493864E+02 -0.24395582135E+02  0.33972648147E+02  0.00000000000E+00 0.  1.
</event>
<event>
 5    1  0.6650580E-004  0.9118800E+02  0.7818608E-02  0.1130116E+00
         25   -1    0    0    0    0  0.00000000000E+00  0.00000000000E+00  0.99999998245E-14  0.12500000000E+03  0.12500000000E+03 0.  0.
        -11    1    3    3    0    0  0.20735670264E+02 -0.37669179842E+02 -0.20665576271E+02  0.47707454073E+02  0.51100000000E-03 0. -1.
         23    2    1    0    0    0 -0.82891920245E+01 -0.24779743164E+01 -0.29574719207E+02  0.94185797474E+02  0.89002524506E+02 0.  0.
         11    1    3    3    0    0 -0.29024862288E+02  0.35191205526E+02 -0.89091429368E+01  0.46478343401E+02  0.51100000000E-03 0.  1.
         22    1    1    0    0    0  0.82891920245E+01  0.24779743164E+01  0.29574719207E+02  0.30814202526E+02  0.00000000000E+00 0.  1.
</event>
<event>
 5    1  0.6650580E-004  0.9118800E+02  0.7818608E-02  0.1130116E+00
         25   -1    0    0    0    0  0.00000000000E+00  0.00000000000E+00  0.99999998245E-14  0.12500000000E+03  0.12500000000E+03 0.  0.
        -11    1    3    3    0    0  0.39249860275E+02  0.11190285217E+02 -0.12429846231E+02  0.42664682027E+02  0.51100000000E-03 0.  1.
         23    2    1    0    0    0 -0.59313194023E+01  0.26209403891E+02  0.11283214154E+02  0.95855114963E+02  0.91316913771E+02 0.  0.
         11    1    3    3    0    0 -0.45181179678E+02  0.15019118674E+02  0.23713060385E+02  0.53190432936E+02  0.51100000000E-03 0. -1.
         22    1    1    0    0    0  0.59313194023E+01 -0.26209403891E+02 -0.11283214154E+02  0.29144885037E+02  0.00000000000E+00 0. -1.
</event>
<event>
 5    1  0.6650580E-004  0.9118800E+02  0.7818608E-02  0.1130116E+00
         25   -1    0    0    0    0  0.00000000000E+00  0.00000000000E+00  0.99999998245E-14  0.12500000000E+03  0.12500000000E+03 0.  0.
        -11    1    3    3    0    0 -0.23578466362E+02 -0.60934961805E+01 -0.32275543737E+02  0.40432480699E+02  0.51100000000E-03 0. -1.
         23    2    1    0    0    0  0.14121685172E+02 -0.22174926772E+02  0.76180788607E+01  0.97628765191E+02  0.93713346423E+02 0.  0.
         11    1    3    3    0    0  0.37700151534E+02 -0.16081430591E+02  0.39893622598E+02  0.57196284492E+02  0.51100000000E-03 0.  1.
         22    1    1    0    0    0 -0.14121685172E+02  0.22174926772E+02 -0.76180788607E+01  0.27371234809E+02  0.00000000000E+00 0.  1.
</event>
<event>
 5    1  0.6650580E-004  0.9118800E+02  0.7818608E-02  0.1130116E+00
         25   -1    0    0    0    0  0.00000000000E+00  0.00000000000E+00  0.99999998245E-14  0.12500000000E+03  0.12500000000E+03 0.  0.
        -11    1    3    3    0    0 -0.34448382953E+02 -0.34010792364E+02 -0.36432210021E+02  0.60586558018E+02  0.51100000000E-03 0.  1.
         23    2    1    0    0    0 -0.22259669545E+02 -0.15693602794E+02 -0.78513589707E+01  0.96655231618E+02  0.92405670305E+02 0.  0.
         11    1    3    3    0    0  0.12188713408E+02  0.18317189569E+02  0.28580851050E+02  0.36068673600E+02  0.51100000000E-03 0. -1.
         22    1    1    0    0    0  0.22259669545E+02  0.15693602794E+02  0.78513589707E+01  0.28344768382E+02  0.00000000000E+00 0.  1.
</event>
<event>
 5    1  0.6650580E-004  0.9118800E+02  0.7818608E-02  0.1130116E+00
         25   -1    0    0    0    0  0.00000000000E+00  0.00000000000E+00  0.99999998245E-14  0.12500000000E+03  0.12500000000E+03 0.  0.
        -11    1    3    3    0    0 -0.30334804033E+02  0.41017609834E+01  0.14158168529E+02  0.33726525395E+02  0.51100000000E-03 0. -1.
         23    2    1    0    0    0  0.29104918993E+02  0.59413641737E+01 -0.16150141611E+01  0.95250976679E+02  0.90486154575E+02 0.  0.
         11    1    3    3    0    0  0.59439723026E+02  0.18396031903E+01 -0.15773182690E+02  0.61524451283E+02  0.51100000000E-03 0.  1.
         22    1    1    0    0    0 -0.29104918993E+02 -0.59413641737E+01  0.16150141611E+01  0.29749023321E+02  0.00000000000E+00 0.  1.
</event>
<event>
 5    1  0.6650580E-004  0.9118800E+02  0.7818608E-02  0.1130116E+00
         25   -1    0    0    0    0  0.00000000000E+00  0.00000000000E+00  0.99999998245E-14  0.12500000000E+03  0.12500000000E+03 0.  0.
        -11    1    3    3    0    0 -0.30013013061E+02  0.11664368532E+02 -0.11169923012E+02  0.34082335991E+02  0.51100000000E-03 0.  1.
         23    2    1    0    0    0  0.21238562314E+02 -0.15604294853E+02  0.11288688582E+02  0.96329369785E+02  0.91963810525E+02 0.  0.
         11    1    3    3    0    0  0.51251575375E+02 -0.27268663385E+02  0.22458611593E+02  0.62247033794E+02  0.51100000000E-03 0. -1.
         22    1    1    0    0    0 -0.21238562314E+02  0.15604294853E+02 -0.11288688582E+02  0.28670630215E+02  0.00000000000E+00 0. -1.
</event>
<event>
 5    1  0.6650580E-004  0.9118800E+02  0.7818608E-02  0.1130116E+00
         25   -1    0    0    0    0  0.00000000000E+00  0.00000000000E+00  0.99999998245E-14  0.12500000000E+03  0.12500000000E+03 0.  0.
        -11    1    3    3    0    0  0.18966786773E+02  0.42690424968E+02 -0.11578055436E+02  0.48127567489E+02  0.51100000000E-03 0.  1.
         23    2    1    0    0    0 -0.17207359109E+02  0.19368757399E+02 -0.20352989756E+02  0.92053282976E+02  0.85955341567E+02 0.  0.
         11    1    3    3    0    0 -0.36174145881E+02 -0.23321667570E+02 -0.87749343203E+01  0.43925715487E+02  0.51100000000E-03 0. -1.
         22    1    1    0    0    0  0.17207359109E+02 -0.19368757399E+02  0.20352989756E+02  0.32946717024E+02  0.00000000000E+00 0. -1.
</event>
<event>
 5    1  0.6650580E-004  0.9118800E+02  0.7818608E-02  0.1130116E+00
         25   -1    0    0    0    0  0.00000000000E+00  0.00000000000E+00  0.99999998245E-14  0.12500000000E+03  0.12500000000E+03 0.  0.
        -11    1    3    3    0    0  0.56344089021E+01 -0.61819971496E+02  0.20081976448E+01  0.62108681337E+02  0.51100000000E-03 0.  1.
         23    2    1    0    0    0 -0.12565407734E+01 -0.26458952100E+02 -0.23959961974E+01  0.98403085917E+02  0.94740548232E+02 0.  0.
         11    1    3    3    0    0 -0.68909496755E+01  0.35361019395E+02 -0.44041938421E+01  0.36294404579E+02  0.51100000000E-03 0. -1.
         22    1    1    0    0    0  0.12565407734E+01  0.26458952100E+02  0.23959961974E+01  0.26596914083E+02  0.00000000000E+00 0.  1.
</event>
<event>
 5    1  0.6650580E-004  0.9118800E+02  0.7818608E-02  0.1130116E+00
         25   -1    0    0    0    0  0.00000000000E+00  0.00000000000E+00  0.99999998245E-14  0.12500000000E+03  0.12500000000E+03 0.  0.
        -11    1    3    3    0    0  0.32987004728E+02  0.46355816964E+02  0.19820844067E+02  0.60248403358E+02  0.51100000000E-03 0. -1.
         23    2    1    0    0    0  0.61043611728E+01  0.24026592827E+02  0.16208957823E+02  0.95381244085E+02  0.90665930875E+02 0.  0.
         11    1    3    3    0    0 -0.26882643555E+02 -0.22329224137E+02 -0.36118862443E+01  0.35132840728E+02  0.51100000000E-03 0.  1.
         22    1    1    0    0    0 -0.61043611728E+01 -0.24026592827E+02 -0.16208957823E+02  0.29618755915E+02  0.00000000000E+00 0. -1.
</event>
<event>
 5    1  0.6650580E-004  0.9118800E+02  0.7818608E-02  0.1130116E+00
         25   -1    0    0    0    0  0.00000000000E+00  0.00000000000E+00  0.99999998245E-14  0.12500000000E+03  0.12500000000E+03 0.  0.
        -11    1    3    3    0    0  0.27856291173E+02  0.18296767762E+01 -0.23261884031E+02  0.36337802960E+02  0.51100000000E-03 0. -1.
         23    2    1    0    0    0 -0.91283908009E+01 -0.11486082623E+01  0.25660931864E+02  0.97739584675E+02  0.93861047133E+02 0.  0.
         11    1    3    3    0    0 -0.36984681974E+02 -0.29782850385E+01  0.48922815895E+02  0.61401781715E+02  0.51100000000E-03 0.  1.
         22    1    1    0    0    0  0.91283908009E+01  0.11486082623E+01 -0.25660931864E+02  0.27260415325E+02  0.00000000000E+00 0.  1.
</event>
<event>
 5    1  0.6650580E-004  0.9118800E+02  0.7818608E-02  0.1130116E+00
         25   -1    0    0    0    0  0.00000000000E+00  0.00000000000E+00  0.99999998245E-14  0.12500000000E+03  0.12500000000E+03 0.  0.
        -11    1    3    3    0    0 -0.10466615695E+02 -0.34108824125E+02  0.10878768708E+01  0.35695173395E+02  0.51100000000E-03 0.  1.
         23    2    1    0    0    0  0.23357081706E+02  0.13286061595E+02  0.13033822599E+02  0.95134413951E+02  0.90324988169E+02 0.  0.
         11    1    3    3    0    0  0.33823697401E+02  0.47394885720E+02  0.11945945728E+02  0.59439240556E+02  0.51100000000E-03 0. -1.
         22    1    1    0    0    0 -0.23357081706E+02 -0.13286061595E+02 -0.13033822599E+02  0.29865586049E+02  0.00000000000E+00 0. -1.
</event>
<event>
 5    1  0.6650580E-004  0.9118800E+02  0.7818608E-02  0.1130116E+00
         25   -1    0    0    0    0  0.00000000000E+00  0.00000000000E+00  0.99999998245E-14  0.12500000000E+03  0.12500000000E+03 0.  0.
        -11    1    3    3    0    0  0.32224733803E+02  0.88041509770E+01 -0.43535821572E+02  0.54875443537E+02  0.51100000000E-03 0.  1.
         23    2    1    0    0    0  0.28676903219E+02 -0.62828151082E+01 -0.66298729814E+01  0.94903592247E+02  0.90004989094E+02 0.  0.
         11    1    3    3    0    0 -0.35478305844E+01 -0.15086966085E+02  0.36905948591E+02  0.40028148710E+02  0.51100000000E-03 0. -1.
         22    1    1    0    0    0 -0.28676903219E+02  0.62828151082E+01  0.66298729814E+01  0.30096407753E+02  0.00000000000E+00 0. -1.
</event>
<event>
 5    1  0.6650580E-004  0.9118800E+02  0.7818608E-02  0.1130116E+00
         25   -1    0    0    0    0  0.00000000000E+00  0.00000000000E+00  0.99999998245E-14  0.12500000000E+03  0.12500000000E+03 0.  0.
        -11    1    3    3    0    0 -0.30959431284E+02  0.13837732716E+02  0.19025590448E+02  0.38883702554E+02  0.51100000000E-03 0.  1.
         23    2    1    0    0    0  0.13767649080E+02  0.25290004448E+02 -0.11239881596E+02  0.94089363894E+02  0.88866984722E+02 0.  0.
         11    1    3    3    0    0  0.44727080364E+02  0.11452271732E+02 -0.30265472044E+02  0.55205661340E+02  0.51100000000E-03 0. -1.
         22    1    1    0    0    0 -0.13767649080E+02 -0.25290004448E+02  0.11239881596E+02  0.30910636106E+02  0.00000000000E+00 0. -1.
</event>
<event>
 5    1  0.6650580E-004  0.9118800E+02  0.7818608E-02  0.1130116E+00
         25   -1    0    0    0    0  0.00000000000E+00  0.00000000000E+00  0.99999998245E-14  0.12500000000E+03  0.12500000000E+03 0.  0.
        -11    1    3    3    0    0 -0.16604803015E+02  0.27072059742E+02 -0.31860652776E+02  0.44985743268E+02  0.51100000000E-03 0.  1.
         23    2    1    0    0    0 -0.23427428873E+02 -0.15845514224E+02 -0.44386516105E+01  0.96370882432E+02  0.92020218474E+02 0.  0.
         11    1    3    3    0    0 -0.68226258579E+01 -0.42917573966E+02  0.27422001165E+02  0.51385139164E+02  0.51100000000E-03 0. -1.
         22    1    1    0    0    0  0.23427428873E+02  0.15845514224E+02  0.44386516105E+01  0.28629117568E+02  0.00000000000E+00 0. -1.
</event>
<event>
 5    1  0.6650580E-004  0.9118800E+02  0.7818608E-02  0.1130116E+00
         25   -1    0    0    0    0  0.00000000000E+00  0.00000000000E+00  0.99999998245E-14  0.12500000000E+03  0.12500000000E+03 0.  0.
        -11    1    3    3    0    0 -0.12561634119E+02  0.28188814400E+02 -0.32079380402E+02  0.44513936652E+02  0.51100000000E-03 0. -1.
         23    2    1    0    0    0 -0.29452146564E+02 -0.48202156991E+01  0.22848002747E+01  0.95068683141E+02  0.90233977997E+02 0.  0.
         11    1    3    3    0    0 -0.16890512446E+02 -0.33009030099E+02  0.34364180677E+02  0.50554746489E+02  0.51100000000E-03 0.  1.
         22    1    1    0    0    0  0.29452146564E+02  0.48202156991E+01 -0.22848002747E+01  0.29931316859E+02  0.00000000000E+00 0.  1.
</event>
<event>
 5    1  0.6650580E-004  0.9118800E+02  0.7818608E-02  0.1130116E+00
         25   -1    0    0    0    0  0.00000000000E+00  0.00000000000E+00  0.99999998245E-14  0.12500000000E+03  0.12500000000E+03 0.  0.
        -11    1    3    3    0    0  0.22754143258E+01  0.15800012058E+02 -0.55742978916E+02  0.57983597595E+02  0.51100000000E-03 0. -1.
         23    2    1    0    0    0  0.97408732945E+01 -0.71794912296E+01 -0.26138281350E+02  0.96196537382E+02  0.91783083112E+02 0.  0.
         11    1    3    3    0    0  0.74654589687E+01 -0.22979503288E+02  0.29604697566E+02  0.38212939787E+02  0.51100000000E-03 0.  1.
         22    1    1    0    0    0 -0.97408732945E+01  0.71794912296E+01  0.26138281350E+02  0.28803462618E+02  0.00000000000E+00 0. -1.
</event>
<event>
 5    1  0.6650580E-004  0.9118800E+02  0.7818608E-02  0.1130116E+00
         25   -1    0    0    0    0  0.00000000000E+00  0.00000000000E+00  0.99999998245E-14  0.12500000000E+03  0.12500000000E+03 0.  0.
        -11    1    3    3    0    0  0.29932791636E+02 -0.70349159373E+01 -0.40043406770E+02  0.50486993210E+02  0.51100000000E-03 0.  1.
         23    2    1    0    0    0 -0.21391237834E+01 -0.25454630958E+02 -0.12763625318E+02  0.96444366247E+02  0.92119984595E+02 0.  0.
         11    1    3    3    0    0 -0.32071915420E+02 -0.18419715020E+02  0.27279781452E+02  0.45957373037E+02  0.51100000000E-03 0. -1.
         22    1    1    0    0    0  0.21391237834E+01  0.25454630958E+02  0.12763625318E+02  0.28555633753E+02  0.00000000000E+00 0. -1.
</event>
<event>
 5    1  0.6650580E-004  0.9118800E+02  0.7818608E-02  0.1130116E+00
         25   -1    0    0    0    0  0.00000000000E+00  0.00000000000E+00  0.99999998245E-14  0.12500000000E+03  0.12500000000E+03 0.  0.
        -11    1    3    3    0    0  0.16693214070E+01 -0.62704944510E+01 -0.57682067075E+02  0.58045900776E+02  0.51100000000E-03 0. -1.
         23    2    1    0    0    0  0.16755577026E+02  0.66122370292E+00 -0.22597562523E+02  0.96860412045E+02  0.92682808607E+02 0.  0.
         11    1    3    3    0    0  0.15086255619E+02  0.69317181539E+01  0.35084504552E+02  0.38814511269E+02  0.51100000000E-03 0.  1.
         22    1    1    0    0    0 -0.16755577026E+02 -0.66122370292E+00  0.22597562523E+02  0.28139587955E+02  0.00000000000E+00 0. -1.
</event>
<event>
 5    1  0.6650580E-004  0.9118800E+02  0.7818608E-02  0.1130116E+00
         25   -1    0    0    0    0  0.00000000000E+00  0.00000000000E+00  0.99999998245E-14  0.12500000000E+03  0.12500000000E+03 0.  0.
        -11    1    3    3    0    0  0.17110652171E+01 -0.14961170019E+02 -0.45359656263E+02  0.47793961638E+02  0.51100000000E-03 0. -1.
         23    2    1    0    0    0  0.19713463795E+02  0.15930784673E+02 -0.11040832924E+02  0.97353833055E+02  0.93345906518E+02 0.  0.
         11    1    3    3    0    0  0.18002398578E+02  0.30891954692E+02  0.34318823338E+02  0.49559871417E+02  0.51100000000E-03 0.  1.
         22    1    1    0    0    0 -0.19713463795E+02 -0.15930784673E+02  0.11040832924E+02  0.27646166945E+02  0.00000000000E+00 0.  1.
</event>
<event>
 5    1  0.6650580E-004  0.9118800E+02  0.7818608E-02  0.1130116E+00
         25   -1    0    0    0    0  0.00000000000E+00  0.00000000000E+00  0.99999998245E-14  0.12500000000E+03  0.12500000000E+03 0.  0.
        -11    1    3    3    0    0 -0.39221784816E+02  0.89021964546E+00 -0.39969013341E+01  0.39434960577E+02  0.51100000000E-03 0. -1.
         23    2    1    0    0    0  0.14468161494E+02  0.20335701612E+02 -0.12364634896E+02  0.97147663416E+02  0.93069414170E+02 0.  0.
         11    1    3    3    0    0  0.53689946310E+02  0.19445481967E+02 -0.83677335616E+01  0.57712702839E+02  0.51100000000E-03 0.  1.
         22    1    1    0    0    0 -0.14468161494E+02 -0.20335701612E+02  0.12364634896E+02  0.27852336584E+02  0.00000000000E+00 0.  1.
</event>
<event>
 5    1  0.6650580E-004  0.9118800E+02  0.7818608E-02  0.1130116E+00
         25   -1    0    0    0    0  0.00000000000E+00  0.00000000000E+00  0.99999998245E-14  0.12500000000E+03  0.12500000000E+03 0.  0.
        -11    1    3    3    0    0 -0.51168973184E+02 -0.78576791335E+01 -0.17849101415E+02  0.54759449957E+02  0.51100000000E-03 0. -1.
         23    2    1    0    0    0 -0.10998778042E+02 -0.14809867696E+02 -0.22627245430E+02  0.95805864709E+02  0.91249472203E+02 0.  0.
         11    1    3    3    0    0  0.40170195142E+02 -0.69521885628E+01 -0.47781440155E+01  0.41046414752E+02  0.51100000000E-03 0.  1.
         22    1    1    0    0    0  0.10998778042E+02  0.14809867696E+02  0.22627245430E+02  0.29194135291E+02  0.00000000000E+00 0. -1.
</event>
<event>
 5    1  0.6650580E-004  0.9118800E+02  0.7818608E-02  0.1130116E+00
         25   -1    0    0    0    0  0.00000000000E+00  0.00000000000E+00  0.99999998245E-14  0.12500000000E+03  0.12500000000E+03 0.  0.
        -11    1    3    3    0    0  0.33121598667E+02  0.12715441411E+02  0.45828729804E+01  0.35773250811E+02  0.51100000000E-03 0.  1.
         23    2    1    0    0    0 -0.19314989607E+02 -0.19297540797E+02  0.51660227137E+01  0.97212382344E+02  0.93156296545E+02 0.  0.
         11    1    3    3    0    0 -0.52436588274E+02 -0.32012982208E+02  0.58314973329E+00  0.61439131533E+02  0.51100000000E-03 0. -1.
         22    1    1    0    0    0  0.19314989607E+02  0.19297540797E+02 -0.51660227137E+01  0.27787617656E+02  0.00000000000E+00 0. -1.
</event>
<event>
 5    1  0.6650580E-004  0.9118800E+02  0.7818608E-02  0.1130116E+00
         25   -1    0    0    0    0  0.00000000000E+00  0.00000000000E+00  0.99999998245E-14  0.12500000000E+03  0.12500000000E+03 0.  0.
        -11    1    3    3    0    0 -0.46682482439E+02 -0.99363146157E+01 -0.59089451876E-01  0.47728272613E+02  0.51100000000E-03 0.  1.
         23    2    1    0    0    0 -0.31120403894E+01 -0.24743489397E+02  0.14695784553E+02  0.96053650549E+02  0.91588277837E+02 0.  0.
         11    1    3    3    0    0  0.43570442050E+02 -0.14807174781E+02  0.14754874005E+02  0.48325377935E+02  0.51100000000E-03 0. -1.
         22    1    1    0    0    0  0.31120403894E+01  0.24743489397E+02 -0.14695784553E+02  0.28946349451E+02  0.00000000000E+00 0. -1.
</event>
<event>
 5    1  0.6650580E-004  0.9118800E+02  0.7818608E-02  0.1130116E+00
         25   -1    0    0    0    0  0.00000000000E+00  0.00000000000E+00  0.99999998245E-14  0.12500000000E+03  0.12500000000E+03 0.  0.
        -11    1    3    3    0    0 -0.37134809873E+02  0.64282262060E+01 -0.14061003136E+02  0.40224718842E+02  0.51100000000E-03 0.  1.
         23    2    1    0    0    0  0.30547412514E+01  0.34330692048E+02 -0.28688314482E+01  0.90414482012E+02  0.83538138015E+02 0.  0.
         11    1    3    3    0    0  0.40189551125E+02  0.27902465842E+02  0.11192171688E+02  0.50189763170E+02  0.51100000000E-03 0. -1.
         22    1    1    0    0    0 -0.30547412514E+01 -0.34330692048E+02  0.28688314482E+01  0.34585517988E+02  0.00000000000E+00 0. -1.
</event>
<event>
 5    1  0.6650580E-004  0.9118800E+02  0.7818608E-02  0.1130116E+00
         25   -1    0    0    0    0  0.00000000000E+00  0.00000000000E+00  0.99999998245E-14  0.12500000000E+03  0.12500000000E+03 0.  0.
        -11    1    3    3    0    0  0.18829504825E+02 -0.25058043417E+02  0.54059833408E+02  0.62489370137E+02  0.51100000000E-03 0. -1.
         23    2    1    0    0    0  0.84542147704E+01 -0.11253801303E+02  0.25898762392E+02  0.95523438386E+02  0.90861760915E+02 0.  0.
         11    1    3    3    0    0 -0.10375290054E+02  0.13804242114E+02 -0.28161071016E+02  0.33034068249E+02  0.51100000000E-03 0.  1.
         22    1    1    0    0    0 -0.84542147704E+01  0.11253801303E+02 -0.25898762392E+02  0.29476561614E+02  0.00000000000E+00 0. -1.
</event>
<event>
 5    1  0.6650580E-004  0.9118800E+02  0.7818608E-02  0.1130116E+00
         25   -1    0    0    0    0  0.00000000000E+00  0.00000000000E+00  0.99999998245E-14  0.12500000000E+03  0.12500000000E+03 0.  0.
        -11    1    3    3    0    0  0.30831928545E+02  0.33579109930E+02 -0.40734484175E+02  0.61134790772E+02  0.51100000000E-03 0. -1.
         23    2    1    0    0    0  0.22546682783E+02  0.13590081720E+02 -0.15212039547E+02  0.94595240951E+02  0.89575723484E+02 0.  0.
         11    1    3    3    0    0 -0.82852457615E+01 -0.19989028209E+02  0.25522444628E+02  0.33460450179E+02  0.51100000000E-03 0.  1.
         22    1    1    0    0    0 -0.22546682783E+02 -0.13590081720E+02  0.15212039547E+02  0.30404759049E+02  0.00000000000E+00 0. -1.
</event>
<event>
 5    1  0.6650580E-004  0.9118800E+02  0.7818608E-02  0.1130116E+00
         25   -1    0    0    0    0  0.00000000000E+00  0.00000000000E+00  0.99999998245E-14  0.12500000000E+03  0.12500000000E+03 0.  0.
        -11    1    3    3    0    0 -0.42272794326E+02 -0.25038504494E+02  0.24156475394E+02  0.54748983105E+02  0.51100000000E-03 0. -1.
         23    2    1    0    0    0 -0.21805472701E+02 -0.14532618154E+02 -0.10849596048E+02  0.96638241159E+02  0.92382683929E+02 0.  0.
         11    1    3    3    0    0  0.20467321624E+02  0.10505886340E+02 -0.35006071442E+02  0.41889258054E+02  0.51100000000E-03 0.  1.
         22    1    1    0    0    0  0.21805472701E+02  0.14532618154E+02  0.10849596048E+02  0.28361758841E+02  0.00000000000E+00 0. -1.
</event>
<event>
 5    1  0.6650580E-004  0.9118800E+02  0.7818608E-02  0.1130116E+00
         25   -1    0    0    0    0  0.00000000000E+00  0.00000000000E+00  0.99999998245E-14  0.12500000000E+03  0.12500000000E+03 0.  0.
        -11    1    3    3    0    0  0.11955583313E+02  0.27123100622E+02 -0.24933235464E+02  0.38733251744E+02  0.51100000000E-03 0.  1.
         23    2    1    0    0    0 -0.14133172696E+02 -0.22471400871E+02 -0.81936159764E+01  0.97217887584E+02  0.93163683353E+02 0.  0.
         11    1    3    3    0    0 -0.26088756008E+02 -0.49594501493E+02  0.16739619487E+02  0.58484635840E+02  0.51100000000E-03 0. -1.
         22    1    1    0    0    0  0.14133172696E+02  0.22471400871E+02  0.81936159764E+01  0.27782112416E+02  0.00000000000E+00 0. -1.
</event>
<event>
 5    1  0.6650580E-004  0.9118800E+02  0.7818608E-02  0.1130116E+00
         25   -1    0    0    0    0  0.00000000000E+00  0.00000000000E+00  0.99999998245E-14  0.12500000000E+03  0.12500000000E+03 0.  0.
        -11    1    3    3    0    0  0.68048140916E+00  0.39082596060E+02 -0.22567654570E+02  0.45135478315E+02  0.51100000000E-03 0. -1.
         23    2    1    0    0    0 -0.21638742037E+02 -0.26037799089E+00  0.10284958428E+02  0.10103996403E+03  0.98157990039E+02 0.  0.
         11    1    3    3    0    0 -0.22319223446E+02 -0.39342974051E+02  0.32852612998E+02  0.55904485718E+02  0.51100000000E-03 0.  1.
         22    1    1    0    0    0  0.21638742037E+02  0.26037799089E+00 -0.10284958428E+02  0.23960035966E+02  0.00000000000E+00 0.  1.
</event>
<event>
 5    1  0.6650580E-004  0.9118800E+02  0.7818608E-02  0.1130116E+00
         25   -1    0    0    0    0  0.00000000000E+00  0.00000000000E+00  0.99999998245E-14  0.12500000000E+03  0.12500000000E+03 0.  0.
        -11    1    3    3    0    0 -0.35669662756E+02  0.81836839788E+01 -0.34386664170E+01  0.36757610798E+02  0.51100000000E-03 0. -1.
         23    2    1    0    0    0  0.20037219217E+02  0.11587271164E+02  0.17094207354E+02  0.96225585461E+02  0.91822635365E+02 0.  0.
         11    1    3    3    0    0  0.55706881974E+02  0.34035871849E+01  0.20532873771E+02  0.59467974663E+02  0.51100000000E-03 0.  1.
         22    1    1    0    0    0 -0.20037219217E+02 -0.11587271164E+02 -0.17094207354E+02  0.28774414539E+02  0.00000000000E+00 0.  1.
</event>
<event>
 5    1  0.6650580E-004  0.9118800E+02  0.7818608E-02  0.1130116E+00
         25   -1    0    0    0    0  0.00000000000E+00  0.00000000000E+00  0.99999998245E-14  0.12500000000E+03  0.12500000000E+03 0.  0.
        -11    1    3    3    0    0  0.40983108407E+02  0.27797165565E+02 -0.86004617914E+01  0.50261969037E+02  0.51100000000E-03 0. -1.
         23    2    1    0    0    0  0.16716349313E+02  0.72809095961E+01  0.23383438575E+02  0.95348133642E+02  0.90620270418E+02 0.  0.
         11    1    3    3    0    0 -0.24266759094E+02 -0.20516255969E+02  0.31983900366E+02  0.45086164605E+02  0.51100000000E-03 0.  1.
         22    1    1    0    0    0 -0.16716349313E+02 -0.72809095961E+01 -0.23383438575E+02  0.29651866358E+02  0.00000000000E+00 0. -1.
</event>
<event>
 5    1  0.6650580E-004  0.9118800E+02  0.7818608E-02  0.1130116E+00
         25   -1    0    0    0    0  0.00000000000E+00  0.00000000000E+00  0.99999998245E-14  0.12500000000E+03  0.12500000000E+03 0.  0.
        -11    1    3    3    0    0 -0.32843410451E+02 -0.32340329149E+02  0.82967683875E+01  0.46833992628E+02  0.51100000000E-03 0. -1.
         23    2    1    0    0    0 -0.11093784273E+02 -0.82500036883E+01 -0.26927271456E+02  0.94730996739E+02  0.89764966355E+02 0.  0.
         11    1    3    3    0    0  0.21749626178E+02  0.24090325460E+02 -0.35224039843E+02  0.47897004111E+02  0.51100000000E-03 0.  1.
         22    1    1    0    0    0  0.11093784273E+02  0.82500036883E+01  0.26927271456E+02  0.30269003261E+02  0.00000000000E+00 0. -1.
</event>
<event>
 5    1  0.6650580E-004  0.9118800E+02  0.7818608E-02  0.1130116E+00
         25   -1    0    0    0    0  0.00000000000E+00  0.00000000000E+00  0.99999998245E-14  0.12500000000E+03  0.12500000000E+03 0.  0.
        -11    1    3    3    0    0  0.12602208218E+02 -0.29264364474E+02  0.37015238155E+02  0.48840009582E+02  0.51100000000E-03 0. -1.
         23    2    1    0    0    0  0.14099313034E+02 -0.23263353838E+02 -0.98180750731E+01  0.96079957504E+02  0.91624174627E+02 0.  0.
         11    1    3    3    0    0  0.14971048158E+01  0.60010106360E+01 -0.46833313228E+02  0.47239947922E+02  0.51100000000E-03 0.  1.
         22    1    1    0    0    0 -0.14099313034E+02  0.23263353838E+02  0.98180750731E+01  0.28920042496E+02  0.00000000000E+00 0. -1.
</event>
<event>
 5    1  0.6650580E-004  0.9118800E+02  0.7818608E-02  0.1130116E+00
         25   -1    0    0    0    0  0.00000000000E+00  0.00000000000E+00  0.99999998245E-14  0.12500000000E+03  0.12500000000E+03 0.  0.
        -11    1    3    3    0    0 -0.14187827396E+02 -0.33295789483E+02  0.69439430558E+00  0.36199257275E+02  0.51100000000E-03 0.  1.
         23    2    1    0    0    0 -0.80818923362E+01  0.19391925442E+02  0.23097898288E+02  0.93776985069E+02  0.88426502063E+02 0.  0.
         11    1    3    3    0    0  0.61059350597E+01  0.52687714925E+02  0.22403503982E+02  0.57577727794E+02  0.51100000000E-03 0. -1.
         22    1    1    0    0    0  0.80818923362E+01 -0.19391925442E+02 -0.23097898288E+02  0.31223014931E+02  0.00000000000E+00 0. -1.
</event>
<event>
 5    1  0.6650580E-004  0.9118800E+02  0.7818608E-02  0.1130116E+00
         25   -1    0    0    0    0  0.00000000000E+00  0.00000000000E+00  0.99999998245E-14  0.12500000000E+03  0.12500000000E+03 0.  0.
        -11    1    3    3    0    0 -0.33641243742E+02  0.31274186725E+02 -0.30358130249E+01  0.46032859968E+02  0.51100000000E-03 0.  1.
         23    2    1    0    0    0 -0.88342458012E+01  0.20795064352E+01  0.28144425047E+02  0.95428444290E+02  0.90730981878E+02 0.  0.
         11    1    3    3    0    0  0.24806997940E+02 -0.29194680290E+02  0.31180238072E+02  0.49395584322E+02  0.51100000000E-03 0. -1.
         22    1    1    0    0    0  0.88342458012E+01 -0.20795064352E+01 -0.28144425047E+02  0.29571555710E+02  0.00000000000E+00 0.  1.
</event>
<event>
 5    1  0.6650580E-004  0.9118800E+02  0.7818608E-02  0.1130116E+00
         25   -1    0    0    0    0  0.00000000000E+00  0.00000000000E+00  0.99999998245E-14  0.12500000000E+03  0.12500000000E+03 0.  0.
        -11    1    3    3    0    0  0.13337001912E+02 -0.39897588880E+02  0.42439159653E+02  0.59755966152E+02  0.51100000000E-03 0.  1.
         23    2    1    0    0    0  0.91582060049E+01 -0.26749488179E+02  0.99950741391E+01  0.95011512841E+02  0.90154745911E+02 0.  0.
         11    1    3    3    0    0 -0.41787959070E+01  0.13148100701E+02 -0.32444085514E+02  0.35255546689E+02  0.51100000000E-03 0. -1.
         22    1    1    0    0    0 -0.91582060049E+01  0.26749488179E+02 -0.99950741391E+01  0.29988487159E+02  0.00000000000E+00 0.  1.
</event>
<event>
 5    1  0.6650580E-004  0.9118800E+02  0.7818608E-02  0.1130116E+00
         25   -1    0    0    0    0  0.00000000000E+00  0.00000000000E+00  0.99999998245E-14  0.12500000000E+03  0.12500000000E+03 0.  0.
        -11    1    3    3    0    0  0.45341246764E+02  0.36203133711E+02 -0.11378489911E+02  0.59126690940E+02  0.51100000000E-03 0. -1.
         23    2    1    0    0    0  0.26379995378E+02  0.63328562582E+01 -0.13747436728E+02  0.94586166944E+02  0.89563060109E+02 0.  0.
         11    1    3    3    0    0 -0.18961251386E+02 -0.29870277453E+02 -0.23689468173E+01  0.35459476004E+02  0.51100000000E-03 0.  1.
         22    1    1    0    0    0 -0.26379995378E+02 -0.63328562582E+01  0.13747436728E+02  0.30413833056E+02  0.00000000000E+00 0. -1.
</event>
<event>
 5    1  0.6650580E-004  0.9118800E+02  0.7818608E-02  0.1130116E+00
         25   -1    0    0    0    0  0.00000000000E+00  0.00000000000E+00  0.99999998245E-14  0.12500000000E+03  0.12500000000E+03 0.  0.
        -11    1    3    3    0    0  0.40234900715E+02  0.18751743733E+02 -0.36110850988E+02  0.57222973428E+02  0.51100000000E-03 0. -1.
         23    2    1    0    0    0  0.26996598788E+02  0.11362734233E+02 -0.74649598346E+00  0.95700079665E+02  0.91104445097E+02 0.  0.
         11    1    3    3    0    0 -0.13238301927E+02 -0.73890095000E+01  0.35364355004E+02  0.38477106238E+02  0.51100000000E-03 0.  1.
         22    1    1    0    0    0 -0.26996598788E+02 -0.11362734233E+02  0.74649598346E+00  0.29299920335E+02  0.00000000000E+00 0. -1.
</event>
<event>
 5    1  0.6650580E-004  0.9118800E+02  0.7818608E-02  0.1130116E+00
         25   -1    0    0    0    0  0.00000000000E+00  0.00000000000E+00  0.99999998245E-14  0.12500000000E+03  0.12500000000E+03 0.  0.
        -11    1    3    3    0    0 -0.37221442565E+02 -0.44791997071E+01 -0.39679090405E+02  0.54588728070E+02  0.51100000000E-03 0.  1.
         23    2    1    0    0    0 -0.16181844391E+02 -0.22270688845E+02 -0.85204435889E+01  0.96182754669E+02  0.91764310422E+02 0.  0.
         11    1    3    3    0    0  0.21039598174E+02 -0.17791489138E+02  0.31158646816E+02  0.41594026599E+02  0.51100000000E-03 0. -1.
         22    1    1    0    0    0  0.16181844391E+02  0.22270688845E+02  0.85204435889E+01  0.28817245331E+02  0.00000000000E+00 0. -1.
</event>
<event>
 5    1  0.6650580E-004  0.9118800E+02  0.7818608E-02  0.1130116E+00
         25   -1    0    0    0    0  0.00000000000E+00  0.00000000000E+00  0.99999998245E-14  0.12500000000E+03  0.12500000000E+03 0.  0.
        -11    1    3    3    0    0  0.30956567878E+02  0.44581039982E+02 -0.27190543792E+02  0.60705056565E+02  0.51100000000E-03 0.  1.
         23    2    1    0    0    0  0.14677956964E+02  0.15124575647E+02 -0.21599627663E+02  0.94821545362E+02  0.89890969183E+02 0.  0.
         11    1    3    3    0    0 -0.16278610914E+02 -0.29456464335E+02  0.55909161286E+01  0.34116488797E+02  0.51100000000E-03 0. -1.
         22    1    1    0    0    0 -0.14677956964E+02 -0.15124575647E+02  0.21599627663E+02  0.30178454638E+02  0.00000000000E+00 0.  1.
</event>
<event>
 5    1  0.6650580E-004  0.9118800E+02  0.7818608E-02  0.1130116E+00
         25   -1    0    0    0    0  0.00000000000E+00  0.00000000000E+00  0.99999998245E-14  0.12500000000E+03  0.12500000000E+03 0.  0.
        -11    1    3    3    0    0 -0.22589391667E+02 -0.38494159031E+01  0.31159928178E+02  0.38678672974E+02  0.51100000000E-03 0.  1.
         23    2    1    0    0    0  0.26917013833E+02  0.91257487064E+01  0.50492269639E+01  0.96133070546E+02  0.91696606462E+02 0.  0.
         11    1    3    3    0    0  0.49506405501E+02  0.12975164609E+02 -0.26110701214E+02  0.57454397572E+02  0.51100000000E-03 0. -1.
         22    1    1    0    0    0 -0.26917013833E+02 -0.91257487064E+01 -0.50492269639E+01  0.28866929454E+02  0.00000000000E+00 0. -1.
</event>
<event>
 5    1  0.6650580E-004  0.9118800E+02  0.7818608E-02  0.1130116E+00
         25   -1    0    0    0    0  0.00000000000E+00  0.00000000000E+00  0.99999998245E-14  0.12500000000E+03  0.12500000000E+03 0.  0.
        -11    1    3    3    0    0  0.30911677011E+02  0.88972594046E+01  0.93539164210E+01  0.33499085857E+02  0.51100000000E-03 0. -1.
         23    2    1    0    0    0 -0.24335146072E+02 -0.16225466656E+02 -0.35212444694E+01  0.95540463935E+02  0.90885180220E+02 0.  0.
         11    1    3    3    0    0 -0.55246823084E+02 -0.25122726061E+02 -0.12875160890E+02  0.62041378078E+02  0.51100000000E-03 0.  1.
         22    1    1    0    0    0  0.24335146072E+02  0.16225466656E+02  0.35212444694E+01  0.29459536065E+02  0.00000000000E+00 0.  1.
</event>
<event>
 5    1  0.6650580E-004  0.9118800E+02  0.7818608E-02  0.1130116E+00
         25   -1    0    0    0    0  0.00000000000E+00  0.00000000000E+00  0.99999998245E-14  0.12500000000E+03  0.12500000000E+03 0.  0.
        -11    1    3    3    0    0 -0.32960951661E+02  0.16935313096E+02  0.74037257315E+01  0.37789473653E+02  0.51100000000E-03 0. -1.
         23    2    1    0    0    0  0.24832745423E+02  0.14939640317E+02  0.43168151704E+01  0.95699948954E+02  0.91104265754E+02 0.  0.
         11    1    3    3    0    0  0.57793697084E+02 -0.19956727787E+01 -0.30869105611E+01  0.57910475301E+02  0.51100000000E-03 0.  1.
         22    1    1    0    0    0 -0.24832745423E+02 -0.14939640317E+02 -0.43168151704E+01  0.29300051046E+02  0.00000000000E+00 0.  1.
</event>
<event>
 5    1  0.6650580E-004  0.9118800E+02  0.7818608E-02  0.1130116E+00
         25   -1    0    0    0    0  0.00000000000E+00  0.00000000000E+00  0.99999998245E-14  0.12500000000E+03  0.12500000000E+03 0.  0.
        -11    1    3    3    0    0 -0.92302819401E+01  0.13662104498E+02 -0.32099286671E+02  0.36086221873E+02  0.51100000000E-03 0.  1.
         23    2    1    0    0    0  0.39260289986E+01 -0.23402370201E+02  0.14598310657E+02  0.97139718078E+02  0.93058742305E+02 0.  0.
         11    1    3    3    0    0  0.13156310939E+02 -0.37064474699E+02  0.46697597329E+02  0.61053496205E+02  0.51100000000E-03 0. -1.
         22    1    1    0    0    0 -0.39260289986E+01  0.23402370201E+02 -0.14598310657E+02  0.27860281922E+02  0.00000000000E+00 0. -1.
</event>
<event>
 5    1  0.6650580E-004  0.9118800E+02  0.7818608E-02  0.1130116E+00
         25   -1    0    0    0    0  0.00000000000E+00  0.00000000000E+00  0.99999998245E-14  0.12500000000E+03  0.12500000000E+03 0.  0.
        -11    1    3    3    0    0  0.28770413130E+02  0.50870241101E+02 -0.10326678251E+02  0.59347774898E+02  0.51100000000E-03 0.  1.
         23    2    1    0    0    0  0.16101661044E+02  0.28236785377E+02  0.85047360650E+01  0.91400742979E+02  0.85001092610E+02 0.  0.
         11    1    3    3    0    0 -0.12668752086E+02 -0.22633455724E+02  0.18831414316E+02  0.32052968082E+02  0.51100000000E-03 0. -1.
         22    1    1    0    0    0 -0.16101661044E+02 -0.28236785377E+02 -0.85047360650E+01  0.33599257021E+02  0.00000000000E+00 0.  1.
</event>
<event>
 5    1  0.6650580E-004  0.9118800E+02  0.7818608E-02  0.1130116E+00
         25   -1    0    0    0    0  0.00000000000E+00  0.00000000000E+00  0.99999998245E-14  0.12500000000E+03  0.12500000000E+03 0.  0.
        -11    1    3    3    0    0  0.32110176849E+02 -0.19742754777E+02  0.93857628263E+01  0.38844978666E+02  0.51100000000E-03 0.  1.
         23    2    1    0    0    0  0.41025909892E+01  0.27400059638E+02 -0.76366727262E+01  0.96261292803E+02  0.91871231628E+02 0.  0.
         11    1    3    3    0    0 -0.28007585860E+02  0.47142814415E+02 -0.17022435552E+02  0.57416314137E+02  0.51100000000E-03 0. -1.
         22    1    1    0    0    0 -0.41025909892E+01 -0.27400059638E+02  0.76366727262E+01  0.28738707197E+02  0.00000000000E+00 0. -1.
</event>
<event>
 5    1  0.6650580E-004  0.9118800E+02  0.7818608E-02  0.1130116E+00
         25   -1    0    0    0    0  0.00000000000E+00  0.00000000000E+00  0.99999998245E-14  0.12500000000E+03  0.12500000000E+03 0.  0.
        -11    1    3    3    0    0 -0.17974461901E+02 -0.23916299847E+02 -0.16621825850E+02  0.34225075220E+02  0.51100000000E-03 0. -1.
         23    2    1    0    0    0  0.17799044462E+02  0.12906020126E+02  0.18366250770E+02  0.96352303643E+02  0.91994977638E+02 0.  0.
         11    1    3    3    0    0  0.35773506363E+02  0.36822319972E+02  0.34988076620E+02  0.62127228422E+02  0.51100000000E-03 0.  1.
         22    1    1    0    0    0 -0.17799044462E+02 -0.12906020126E+02 -0.18366250770E+02  0.28647696357E+02  0.00000000000E+00 0.  1.
</event>
<event>
 5    1  0.6650580E-004  0.9118800E+02  0.7818608E-02  0.1130116E+00
         25   -1    0    0    0    0  0.00000000000E+00  0.00000000000E+00  0.99999998245E-14  0.12500000000E+03  0.12500000000E+03 0.  0.
        -11    1    3    3    0    0 -0.80884966290E+01  0.34730789072E+02  0.48453897160E+02  0.60161712389E+02  0.51100000000E-03 0.  1.
         23    2    1    0    0    0 -0.15347257471E+02  0.16756699974E+02  0.19218607720E+02  0.95239620490E+02  0.90470465470E+02 0.  0.
         11    1    3    3    0    0 -0.72587608420E+01 -0.17974089099E+02 -0.29235289439E+02  0.35077908101E+02  0.51100000000E-03 0. -1.
         22    1    1    0    0    0  0.15347257471E+02 -0.16756699974E+02 -0.19218607720E+02  0.29760379510E+02  0.00000000000E+00 0.  1.
</event>
<event>
 5    1  0.6650580E-004  0.9118800E+02  0.7818608E-02  0.1130116E+00
         25   -1    0    0    0    0  0.00000000000E+00  0.00000000000E+00  0.99999998245E-14  0.12500000000E+03  0.12500000000E+03 0.  0.
        -11    1    3    3    0    0 -0.53550201559E+02  0.10480004978E+02 -0.12836776868E+02  0.56055663692E+02  0.51100000000E-03 0. -1.
         23    2    1    0    0    0 -0.21982074500E+02 -0.14359874505E+02 -0.11735470015E+02  0.96239978240E+02  0.91842226455E+02 0.  0.
         11    1    3    3    0    0  0.31568127058E+02 -0.24839879483E+02  0.11013068535E+01  0.40184314549E+02  0.51100000000E-03 0.  1.
         22    1    1    0    0    0  0.21982074500E+02  0.14359874505E+02  0.11735470015E+02  0.28760021760E+02  0.00000000000E+00 0. -1.
</event>
<event>
 5    1  0.6650580E-004  0.9118800E+02  0.7818608E-02  0.1130116E+00
         25   -1    0    0    0    0  0.00000000000E+00  0.00000000000E+00  0.99999998245E-14  0.12500000000E+03  0.12500000000E+03 0.  0.
        -11    1    3    3    0    0  0.10268660238E+02  0.31816272043E+02  0.19492869131E+02  0.38700032261E+02  0.51100000000E-03 0. -1.
         23    2    1    0    0    0 -0.28282693653E+02  0.21311823388E+01 -0.91952204493E+01  0.95183816851E+02  0.90393330577E+02 0.  0.
         11    1    3    3    0    0 -0.38551353891E+02 -0.29685089705E+02 -0.28688089580E+02  0.56483784590E+02  0.51100000000E-03 0.  1.
         22    1    1    0    0    0  0.28282693653E+02 -0.21311823388E+01  0.91952204493E+01  0.29816183149E+02  0.00000000000E+00 0.  1.
</event>
<event>
 5    1  0.6650580E-004  0.9118800E+02  0.7818608E-02  0.1130116E+00
         25   -1    0    0    0    0  0.00000000000E+00  0.00000000000E+00  0.99999998245E-14  0.12500000000E+03  0.12500000000E+03 0.  0.
        -11    1    3    3    0    0 -0.13208453604E+02  0.33188927112E+02 -0.50006379403E+02  0.61454097591E+02  0.51100000000E-03 0.  1.
         23    2    1    0    0    0 -0.65780360331E+01  0.77829603483E+01 -0.26166976912E+02  0.96918765865E+02  0.92761476197E+02 0.  0.
         11    1    3    3    0    0  0.66304175711E+01 -0.25405966764E+02  0.23839402491E+02  0.35464668274E+02  0.51100000000E-03 0. -1.
         22    1    1    0    0    0  0.65780360331E+01 -0.77829603483E+01  0.26166976912E+02  0.28081234135E+02  0.00000000000E+00 0.  1.
</event>
<event>
 5    1  0.6650580E-004  0.9118800E+02  0.7818608E-02  0.1130116E+00
         25   -1    0    0    0    0  0.00000000000E+00  0.00000000000E+00  0.99999998245E-14  0.12500000000E+03  0.12500000000E+03 0.  0.
        -11    1    3    3    0    0  0.39533548821E+02 -0.95579021444E+01 -0.53161155316E+01  0.41018484375E+02  0.51100000000E-03 0.  1.
         23    2    1    0    0    0  0.11981846637E+02  0.20527133601E+02  0.23975300729E+02  0.91239921390E+02  0.84764263387E+02 0.  0.
         11    1    3    3    0    0 -0.27551702185E+02  0.30085035745E+02  0.29291416261E+02  0.50221437015E+02  0.51100000000E-03 0. -1.
         22    1    1    0    0    0 -0.11981846637E+02 -0.20527133601E+02 -0.23975300729E+02  0.33760078610E+02  0.00000000000E+00 0. -1.
</event>
<event>
 5    1  0.6650580E-004  0.9118800E+02  0.7818608E-02  0.1130116E+00
         25   -1    0    0    0    0  0.00000000000E+00  0.00000000000E+00  0.99999998245E-14  0.12500000000E+03  0.12500000000E+03 0.  0.
        -11    1    3    3    0    0  0.24577952116E+02  0.54626986178E+01  0.40119589349E+02  0.47365580923E+02  0.51100000000E-03 0.  1.
         23    2    1    0    0    0 -0.80702433165E+01 -0.22078629730E+02  0.11104659205E+02  0.99001765945E+02  0.95527176690E+02 0.  0.
         11    1    3    3    0    0 -0.32648195432E+02 -0.27541328347E+02 -0.29014930144E+02  0.51636185022E+02  0.51100000000E-03 0. -1.
         22    1    1    0    0    0  0.80702433165E+01  0.22078629730E+02 -0.11104659205E+02  0.25998234055E+02  0.00000000000E+00 0.  1.
</event>
<event>
 5    1  0.6650580E-004  0.9118800E+02  0.7818608E-02  0.1130116E+00
         25   -1    0    0    0    0  0.00000000000E+00  0.00000000000E+00  0.99999998245E-14  0.12500000000E+03  0.12500000000E+03 0.  0.
        -11    1    3    3    0    0  0.34909413534E+02 -0.25609595480E+02  0.32612769742E+02  0.54204347469E+02  0.51100000000E-03 0.  1.
         23    2    1    0    0    0  0.23213717881E+01 -0.29471693963E+02  0.11210444248E+02  0.93382859518E+02  0.87867598575E+02 0.  0.
         11    1    3    3    0    0 -0.32588041746E+02 -0.38620984831E+01 -0.21402325495E+02  0.39178512049E+02  0.51100000000E-03 0. -1.
         22    1    1    0    0    0 -0.23213717881E+01  0.29471693963E+02 -0.11210444248E+02  0.31617140482E+02  0.00000000000E+00 0.  1.
</event>
<event>
 5    1  0.6650580E-004  0.9118800E+02  0.7818608E-02  0.1130116E+00
         25   -1    0    0    0    0  0.00000000000E+00  0.00000000000E+00  0.99999998245E-14  0.12500000000E+03  0.12500000000E+03 0.  0.
        -11    1    3    3    0    0  0.53817466472E+02  0.15226613598E+02  0.12924373628E+02  0.57403910085E+02  0.51100000000E-03 0.  1.
         23    2    1    0    0    0  0.18850006579E+02  0.42149451736E+00  0.21572818139E+02  0.96348876320E+02  0.91990320578E+02 0.  0.
         11    1    3    3    0    0 -0.34967459893E+02 -0.14805119080E+02  0.86484445117E+01  0.38944966236E+02  0.51100000000E-03 0. -1.
         22    1    1    0    0    0 -0.18850006579E+02 -0.42149451736E+00 -0.21572818139E+02  0.28651123680E+02  0.00000000000E+00 0.  1.
</event>
<event>
 5    1  0.6650580E-004  0.9118800E+02  0.7818608E-02  0.1130116E+00
         25   -1    0    0    0    0  0.00000000000E+00  0.00000000000E+00  0.99999998245E-14  0.12500000000E+03  0.12500000000E+03 0.  0.
        -11    1    3    3    0    0 -0.36102461526E+02 -0.35846851253E+02  0.63191561198E+00  0.50880092282E+02  0.51100000000E-03 0. -1.
         23    2    1    0    0    0  0.37242022700E+01 -0.27729949879E+02 -0.13529167819E+02  0.93921740964E+02  0.88630893265E+02 0.  0.
         11    1    3    3    0    0  0.39826663796E+02  0.81169013740E+01 -0.14161083431E+02  0.43041648682E+02  0.51100000000E-03 0.  1.
         22    1    1    0    0    0 -0.37242022700E+01  0.27729949879E+02  0.13529167819E+02  0.31078259036E+02  0.00000000000E+00 0.  1.
</event>
<event>
 5    1  0.6650580E-004  0.9118800E+02  0.7818608E-02  0.1130116E+00
         25   -1    0    0    0    0  0.00000000000E+00  0.00000000000E+00  0.99999998245E-14  0.12500000000E+03  0.12500000000E+03 0.  0.
        -11    1    3    3    0    0  0.35384762195E+02  0.45654764374E+01 -0.11993910383E+02  0.37640122970E+02  0.51100000000E-03 0.  1.
         23    2    1    0    0    0 -0.95396810481E+01  0.12428656907E+02  0.24409655919E+02  0.95994684468E+02  0.91507765337E+02 0.  0.
         11    1    3    3    0    0 -0.44924443243E+02  0.78631804696E+01  0.36403566303E+02  0.58354561498E+02  0.51100000000E-03 0. -1.
         22    1    1    0    0    0  0.95396810481E+01 -0.12428656907E+02 -0.24409655919E+02  0.29005315532E+02  0.00000000000E+00 0. -1.
</event>
<event>
 5    1  0.6650580E-004  0.9118800E+02  0.7818608E-02  0.1130116E+00
         25   -1    0    0    0    0  0.00000000000E+00  0.00000000000E+00  0.99999998245E-14  0.12500000000E+03  0.12500000000E+03 0.  0.
        -11    1    3    3    0    0  0.16165296884E+02  0.55475133945E+02  0.14262599468E+02  0.59516628378E+02  0.51100000000E-03 0. -1.
         23    2    1    0    0    0 -0.63115726154E+01  0.26494072639E+02  0.60543275704E+01  0.97099700428E+02  0.93004973560E+02 0.  0.
         11    1    3    3    0    0 -0.22476869499E+02 -0.28981061306E+02 -0.82082718975E+01  0.37583072050E+02  0.51100000000E-03 0.  1.
         22    1    1    0    0    0  0.63115726154E+01 -0.26494072639E+02 -0.60543275704E+01  0.27900299572E+02  0.00000000000E+00 0. -1.
</event>
<event>
 5    1  0.6650580E-004  0.9118800E+02  0.7818608E-02  0.1130116E+00
         25   -1    0    0    0    0  0.00000000000E+00  0.00000000000E+00  0.99999998245E-14  0.12500000000E+03  0.12500000000E+03 0.  0.
        -11    1    3    3    0    0 -0.95652183614E+01 -0.34911312982E+02  0.55674443192E+01  0.36623620969E+02  0.51100000000E-03 0.  1.
         23    2    1    0    0    0 -0.12178929704E+01  0.11614372170E+02 -0.28042436420E+02  0.94623114963E+02  0.89614612317E+02 0.  0.
         11    1    3    3    0    0  0.83473253910E+01  0.46525685151E+02 -0.33609880739E+02  0.57999493994E+02  0.51100000000E-03 0. -1.
         22    1    1    0    0    0  0.12178929704E+01 -0.11614372170E+02  0.28042436420E+02  0.30376885037E+02  0.00000000000E+00 0. -1.
</event>
<event>
 5    1  0.6650580E-004  0.9118800E+02  0.7818608E-02  0.1130116E+00
         25   -1    0    0    0    0  0.00000000000E+00  0.00000000000E+00  0.99999998245E-14  0.12500000000E+03  0.12500000000E+03 0.  0.
        -11    1    3    3    0    0 -0.20908539037E+02 -0.20348636134E+01 -0.83691152404E+01  0.22613044129E+02  0.51100000000E-03 0.  1.
         23    2    1    0    0    0 -0.60178340695E+01 -0.14045054594E+02  0.44029383983E+02  0.78394586802E+02  0.63036867787E+02 0.  0.
         11    1    3    3    0    0  0.14890704968E+02 -0.12010190981E+02  0.52398499224E+02  0.55781542673E+02  0.51100000000E-03 0. -1.
         22    1    1    0    0    0  0.60178340695E+01  0.14045054594E+02 -0.44029383983E+02  0.46605413198E+02  0.00000000000E+00 0. -1.
</event>
<event>
 5    1  0.6650580E-004  0.9118800E+02  0.7818608E-02  0.1130116E+00
         25   -1    0    0    0    0  0.00000000000E+00  0.00000000000E+00  0.99999998245E-14  0.12500000000E+03  0.12500000000E+03 0.  0.
        -11    1    3    3    0    0  0.28150844206E+02 -0.53070713236E+02 -0.61839377828E+01  0.60392149487E+02  0.51100000000E-03 0. -1.
         23    2    1    0    0    0  0.93418715992E+01 -0.26252900545E+02  0.78826874246E+01  0.96041027072E+02  0.91571047652E+02 0.  0.
         11    1    3    3    0    0 -0.18808972607E+02  0.26817812691E+02  0.14066625207E+02  0.35648877585E+02  0.51100000000E-03 0.  1.
         22    1    1    0    0    0 -0.93418715992E+01  0.26252900545E+02 -0.78826874246E+01  0.28958972928E+02  0.00000000000E+00 0. -1.
</event>
<event>
 5    1  0.6650580E-004  0.9118800E+02  0.7818608E-02  0.1130116E+00
         25   -1    0    0    0    0  0.00000000000E+00  0.00000000000E+00  0.99999998245E-14  0.12500000000E+03  0.12500000000E+03 0.  0.
        -11    1    3    3    0    0  0.12257609369E+02  0.57931105810E+02  0.67761121043E+01  0.59600148517E+02  0.51100000000E-03 0. -1.
         23    2    1    0    0    0  0.14735089855E+02  0.25075130913E+02 -0.66258211604E+01  0.95170709539E+02  0.90375203373E+02 0.  0.
         11    1    3    3    0    0  0.24774804853E+01 -0.32855974896E+02 -0.13401933265E+02  0.35570561022E+02  0.51100000000E-03 0.  1.
         22    1    1    0    0    0 -0.14735089855E+02 -0.25075130913E+02  0.66258211604E+01  0.29829290461E+02  0.00000000000E+00 0. -1.
</event>
<event>
 5    1  0.6650580E-004  0.9118800E+02  0.7818608E-02  0.1130116E+00
         25   -1    0    0    0    0  0.00000000000E+00  0.00000000000E+00  0.99999998245E-14  0.12500000000E+03  0.12500000000E+03 0.  0.
        -11    1    3    3    0    0 -0.32060515886E+01 -0.38705589078E+02  0.18599296006E+02  0.43061992579E+02  0.51100000000E-03 0.  1.
         23    2    1    0    0    0  0.42743014358E+01 -0.13985235954E+02 -0.26327594322E+02  0.94883580886E+02  0.89977192785E+02 0.  0.
         11    1    3    3    0    0  0.74803530244E+01  0.24720353124E+02 -0.44926890328E+02  0.51821588308E+02  0.51100000000E-03 0. -1.
         22    1    1    0    0    0 -0.42743014358E+01  0.13985235954E+02  0.26327594322E+02  0.30116419114E+02  0.00000000000E+00 0. -1.
</event>
<event>
 5    1  0.6650580E-004  0.9118800E+02  0.7818608E-02  0.1130116E+00
         25   -1    0    0    0    0  0.00000000000E+00  0.00000000000E+00  0.99999998245E-14  0.12500000000E+03  0.12500000000E+03 0.  0.
        -11    1    3    3    0    0  0.58409347809E+02 -0.20091993640E+01 -0.33009417868E+01  0.58537039646E+02  0.51100000000E-03 0. -1.
         23    2    1    0    0    0  0.24217551448E+02  0.35291962634E+01 -0.16368285145E+02  0.95557415484E+02  0.90908491743E+02 0.  0.
         11    1    3    3    0    0 -0.34191796361E+02  0.55383956274E+01 -0.13067343358E+02  0.37020375838E+02  0.51100000000E-03 0.  1.
         22    1    1    0    0    0 -0.24217551448E+02 -0.35291962634E+01  0.16368285145E+02  0.29442584516E+02  0.00000000000E+00 0. -1.
</event>
<event>
 5    1  0.6650580E-004  0.9118800E+02  0.7818608E-02  0.1130116E+00
         25   -1    0    0    0    0  0.00000000000E+00  0.00000000000E+00  0.99999998245E-14  0.12500000000E+03  0.12500000000E+03 0.  0.
        -11    1    3    3    0    0  0.59954778022E+01 -0.93237673138E+01  0.57590195864E+02  0.58647327739E+02  0.51100000000E-03 0.  1.
         23    2    1    0    0    0 -0.12701478193E+02 -0.37220257439E+01  0.26935539975E+02  0.94988263335E+02  0.90122504591E+02 0.  0.
         11    1    3    3    0    0 -0.18696955995E+02  0.56017415699E+01 -0.30654655889E+02  0.36340935596E+02  0.51100000000E-03 0. -1.
         22    1    1    0    0    0  0.12701478193E+02  0.37220257439E+01 -0.26935539975E+02  0.30011736665E+02  0.00000000000E+00 0.  1.
</event>
<event>
 5    1  0.6650580E-004  0.9118800E+02  0.7818608E-02  0.1130116E+00
         25   -1    0    0    0    0  0.00000000000E+00  0.00000000000E+00  0.99999998245E-14  0.12500000000E+03  0.12500000000E+03 0.  0.
        -11    1    3    3    0    0  0.23790969069E+02  0.36382931767E+02  0.40799503523E+02  0.59618180290E+02  0.51100000000E-03 0.  1.
         23    2    1    0    0    0  0.20772090299E+02  0.75768399253E+01  0.18456525695E+02  0.96198410124E+02  0.91785633577E+02 0.  0.
         11    1    3    3    0    0 -0.30188787698E+01 -0.28806091842E+02 -0.22342977828E+02  0.36580229834E+02  0.51100000000E-03 0. -1.
         22    1    1    0    0    0 -0.20772090299E+02 -0.75768399253E+01 -0.18456525695E+02  0.28801589876E+02  0.00000000000E+00 0.  1.
</event>
<event>
 5    1  0.6650580E-004  0.9118800E+02  0.7818608E-02  0.1130116E+00
         25   -1    0    0    0    0  0.00000000000E+00  0.00000000000E+00  0.99999998245E-14  0.12500000000E+03  0.12500000000E+03 0.  0.
        -11    1    3    3    0    0 -0.40789764451E+02  0.12413729867E+01 -0.11310643415E+02  0.42347096070E+02  0.51100000000E-03 0.  1.
         23    2    1    0    0    0  0.19109662799E+02  0.80790460571E+01 -0.81213172223E+01  0.10271982965E+03  0.10027441055E+03 0.  0.
         11    1    3    3    0    0  0.59899427250E+02  0.68376730705E+01  0.31893261924E+01  0.60372733578E+02  0.51100000000E-03 0. -1.
         22    1    1    0    0    0 -0.19109662799E+02 -0.80790460571E+01  0.81213172223E+01  0.22280170352E+02  0.00000000000E+00 0. -1.
</event>
<event>
 5    1  0.6650580E-004  0.9118800E+02  0.7818608E-02  0.1130116E+00
         25   -1    0    0    0    0  0.00000000000E+00  0.00000000000E+00  0.99999998245E-14  0.12500000000E+03  0.12500000000E+03 0.  0.
        -11    1    3    3    0    0  0.13576527637E+02  0.13781651563E+02  0.31925090202E+02  0.37329176352E+02  0.51100000000E-03 0.  1.
         23    2    1    0    0    0  0.10368349706E+02  0.32117079841E+01 -0.26276583078E+02  0.96569794899E+02  0.92290025056E+02 0.  0.
         11    1    3    3    0    0 -0.32081779307E+01 -0.10569943579E+02 -0.58201673281E+02  0.59240618547E+02  0.51100000000E-03 0. -1.
         22    1    1    0    0    0 -0.10368349706E+02 -0.32117079841E+01  0.26276583078E+02  0.28430205101E+02  0.00000000000E+00 0. -1.
</event>
<event>
 5    1  0.6650580E-004  0.9118800E+02  0.7818608E-02  0.1130116E+00
         25   -1    0    0    0    0  0.00000000000E+00  0.00000000000E+00  0.99999998245E-14  0.12500000000E+03  0.12500000000E+03 0.  0.
        -11    1    3    3    0    0  0.17073358323E+02 -0.30297088722E+02  0.30190274097E+01  0.34907415777E+02  0.51100000000E-03 0. -1.
         23    2    1    0    0    0 -0.83268503360E+00  0.25227529922E+02 -0.14587426692E+02  0.95846704340E+02  0.91305400087E+02 0.  0.
         11    1    3    3    0    0 -0.17906043357E+02  0.55524618644E+02 -0.17606454102E+02  0.60939288563E+02  0.51100000000E-03 0.  1.
         22    1    1    0    0    0  0.83268503360E+00 -0.25227529922E+02  0.14587426692E+02  0.29153295660E+02  0.00000000000E+00 0.  1.
</event>
<event>
 5    1  0.6650580E-004  0.9118800E+02  0.7818608E-02  0.1130116E+00
         25   -1    0    0    0    0  0.00000000000E+00  0.00000000000E+00  0.99999998245E-14  0.12500000000E+03  0.12500000000E+03 0.  0.
        -11    1    3    3    0    0 -0.25413589899E+02  0.51586587587E+02 -0.24132196248E+02  0.62364969866E+02  0.51100000000E-03 0. -1.
         23    2    1    0    0    0 -0.12018005883E+02  0.23891551915E+02 -0.14362195219E+02  0.94643594254E+02  0.89643173547E+02 0.  0.
         11    1    3    3    0    0  0.13395584017E+02 -0.27695035671E+02  0.97700010295E+01  0.32278624388E+02  0.51100000000E-03 0.  1.
         22    1    1    0    0    0  0.12018005883E+02 -0.23891551915E+02  0.14362195219E+02  0.30356405746E+02  0.00000000000E+00 0. -1.
</event>
<event>
 5    1  0.6650580E-004  0.9118800E+02  0.7818608E-02  0.1130116E+00
         25   -1    0    0    0    0  0.00000000000E+00  0.00000000000E+00  0.99999998245E-14  0.12500000000E+03  0.12500000000E+03 0.  0.
        -11    1    3    3    0    0 -0.43022685110E+02  0.11393173737E+02 -0.37386839446E+02  0.58125137470E+02  0.51100000000E-03 0.  1.
         23    2    1    0    0    0 -0.16730030519E+02 -0.34547195128E+01 -0.31898301304E+02  0.88815325977E+02  0.81109996266E+02 0.  0.
         11    1    3    3    0    0  0.26292654591E+02 -0.14847893250E+02  0.54885381423E+01  0.30690188507E+02  0.51100000000E-03 0. -1.
         22    1    1    0    0    0  0.16730030519E+02  0.34547195128E+01  0.31898301304E+02  0.36184674023E+02  0.00000000000E+00 0.  1.
</event>
<event>
 5    1  0.6650580E-004  0.9118800E+02  0.7818608E-02  0.1130116E+00
         25   -1    0    0    0    0  0.00000000000E+00  0.00000000000E+00  0.99999998245E-14  0.12500000000E+03  0.12500000000E+03 0.  0.
        -11    1    3    3    0    0  0.49652072118E+02 -0.21973052336E+02  0.30935475226E+02  0.62491174755E+02  0.51100000000E-03 0.  1.
         23    2    1    0    0    0  0.23106098727E+02 -0.10018695999E+02  0.13525088068E+02  0.96413393431E+02  0.92077947184E+02 0.  0.
         11    1    3    3    0    0 -0.26545973391E+02  0.11954356336E+02 -0.17410387157E+02  0.33922218676E+02  0.51100000000E-03 0. -1.
         22    1    1    0    0    0 -0.23106098727E+02  0.10018695999E+02 -0.13525088068E+02  0.28586606569E+02  0.00000000000E+00 0.  1.
</event>
<event>
 5    1  0.6650580E-004  0.9118800E+02  0.7818608E-02  0.1130116E+00
         25   -1    0    0    0    0  0.00000000000E+00  0.00000000000E+00  0.99999998245E-14  0.12500000000E+03  0.12500000000E+03 0.  0.
        -11    1    3    3    0    0 -0.25255853191E+02 -0.26426124238E+02 -0.19733907694E+02  0.41540646068E+02  0.51100000000E-03 0. -1.
         23    2    1    0    0    0  0.15186022134E+02 -0.22256860577E+02  0.14241075370E+02  0.94523921861E+02  0.89476144672E+02 0.  0.
         11    1    3    3    0    0  0.40441875325E+02  0.41692636608E+01  0.33974983064E+02  0.52983275793E+02  0.51100000000E-03 0.  1.
         22    1    1    0    0    0 -0.15186022134E+02  0.22256860577E+02 -0.14241075370E+02  0.30476078139E+02  0.00000000000E+00 0. -1.
</event>
<event>
 5    1  0.6650580E-004  0.9118800E+02  0.7818608E-02  0.1130116E+00
         25   -1    0    0    0    0  0.00000000000E+00  0.00000000000E+00  0.99999998245E-14  0.12500000000E+03  0.12500000000E+03 0.  0.
        -11    1    3    3    0    0 -0.30066019532E+02  0.39059280202E+02  0.37670331083E+02  0.62037462429E+02  0.51100000000E-03 0. -1.
         23    2    1    0    0    0 -0.11043070534E+02  0.22639983713E+02  0.16585253267E+02  0.94840608506E+02  0.89917473978E+02 0.  0.
         11    1    3    3    0    0  0.19022948998E+02 -0.16419296490E+02 -0.21085077816E+02  0.32803146077E+02  0.51100000000E-03 0.  1.
         22    1    1    0    0    0  0.11043070534E+02 -0.22639983713E+02 -0.16585253267E+02  0.30159391494E+02  0.00000000000E+00 0. -1.
</event>
<event>
 5    1  0.6650580E-004  0.9118800E+02  0.7818608E-02  0.1130116E+00
         25   -1    0    0    0    0  0.00000000000E+00  0.00000000000E+00  0.99999998245E-14  0.12500000000E+03  0.12500000000E+03 0.  0.
        -11    1    3    3    0    0  0.32635436938E+02 -0.33502911088E+01 -0.17427908616E+02  0.37148730714E+02  0.51100000000E-03 0.  1.
         23    2    1    0    0    0 -0.14198492689E+02  0.26508836727E+02 -0.16774163984E+01  0.94881411968E+02  0.89974179585E+02 0.  0.
         11    1    3    3    0    0 -0.46833929627E+02  0.29859127836E+02  0.15750492217E+02  0.57732681254E+02  0.51100000000E-03 0. -1.
         22    1    1    0    0    0  0.14198492689E+02 -0.26508836727E+02  0.16774163984E+01  0.30118588032E+02  0.00000000000E+00 0. -1.
</event>
<event>
 5    1  0.6650580E-004  0.9118800E+02  0.7818608E-02  0.1130116E+00
         25   -1    0    0    0    0  0.00000000000E+00  0.00000000000E+00  0.99999998245E-14  0.12500000000E+03  0.12500000000E+03 0.  0.
        -11    1    3    3    0    0 -0.21031304833E+02 -0.17239724288E+02  0.19888216537E+02  0.33690726228E+02  0.51100000000E-03 0. -1.
         23    2    1    0    0    0 -0.14212077363E-01  0.32620263691E+02 -0.25780677650E+01  0.92278015974E+02  0.86281539123E+02 0.  0.
         11    1    3    3    0    0  0.21017092755E+02  0.49859987978E+02 -0.22466284302E+02  0.58587289745E+02  0.51100000000E-03 0.  1.
         22    1    1    0    0    0  0.14212077363E-01 -0.32620263691E+02  0.25780677650E+01  0.32721984026E+02  0.00000000000E+00 0.  1.
</event>
<event>
 5    1  0.6650580E-004  0.9118800E+02  0.7818608E-02  0.1130116E+00
         25   -1    0    0    0    0  0.00000000000E+00  0.00000000000E+00  0.99999998245E-14  0.12500000000E+03  0.12500000000E+03 0.  0.
        -11    1    3    3    0    0 -0.21663421694E+02 -0.13750540528E+02 -0.30430994179E+02  0.39804856629E+02  0.51100000000E-03 0.  1.
         23    2    1    0    0    0 -0.11859227599E+02  0.25720722957E+02  0.77990456492E+01  0.95622764226E+02  0.90998302493E+02 0.  0.
         11    1    3    3    0    0  0.98041940950E+01  0.39471263485E+02  0.38230039828E+02  0.55817907597E+02  0.51100000000E-03 0. -1.
         22    1    1    0    0    0  0.11859227599E+02 -0.25720722957E+02 -0.77990456492E+01  0.29377235774E+02  0.00000000000E+00 0. -1.
</event>
<event>
 5    1  0.6650580E-004  0.9118800E+02  0.7818608E-02  0.1130116E+00
         25   -1    0    0    0    0  0.00000000000E+00  0.00000000000E+00  0.99999998245E-14  0.12500000000E+03  0.12500000000E+03 0.  0.
        -11    1    3    3    0    0 -0.79559554176E+01  0.30742990776E+02 -0.17204666782E+02  0.36116883417E+02  0.51100000000E-03 0.  1.
         23    2    1    0    0    0  0.17625763259E+02 -0.21328756599E+02 -0.13397330140E+02  0.94257979191E+02  0.89103842778E+02 0.  0.
         11    1    3    3    0    0  0.25581718677E+02 -0.52071747375E+02  0.38073366421E+01  0.58141095774E+02  0.51100000000E-03 0. -1.
         22    1    1    0    0    0 -0.17625763259E+02  0.21328756599E+02  0.13397330140E+02  0.30742020809E+02  0.00000000000E+00 0. -1.
</event>
<event>
 5    1  0.6650580E-004  0.9118800E+02  0.7818608E-02  0.1130116E+00
         25   -1    0    0    0    0  0.00000000000E+00  0.00000000000E+00  0.99999998245E-14  0.12500000000E+03  0.12500000000E+03 0.  0.
        -11    1    3    3    0    0  0.17129793987E+02  0.11082601545E+02 -0.26242140659E+02  0.33240093948E+02  0.51100000000E-03 0. -1.
         23    2    1    0    0    0 -0.32640408661E+02 -0.19382833741E+01 -0.23452691939E+02  0.84760939634E+02  0.74600502065E+02 0.  0.
         11    1    3    3    0    0 -0.49770202648E+02 -0.13020884920E+02  0.27894487201E+01  0.51520845686E+02  0.51100000000E-03 0.  1.
         22    1    1    0    0    0  0.32640408661E+02  0.19382833741E+01  0.23452691939E+02  0.40239060366E+02  0.00000000000E+00 0.  1.
</event>
<event>
 5    1  0.6650580E-004  0.9118800E+02  0.7818608E-02  0.1130116E+00
         25   -1    0    0    0    0  0.00000000000E+00  0.00000000000E+00  0.99999998245E-14  0.12500000000E+03  0.12500000000E+03 0.  0.
        -11    1    3    3    0    0 -0.19983819616E+02  0.15603358874E+02  0.22925270697E+02  0.34181660161E+02  0.51100000000E-03 0.  1.
         23    2    1    0    0    0  0.16911092910E+02 -0.39110369725E+01 -0.22964814550E+02  0.96213475706E+02  0.91806148632E+02 0.  0.
         11    1    3    3    0    0  0.36894912526E+02 -0.19514395847E+02 -0.45890085247E+02  0.62031815545E+02  0.51100000000E-03 0. -1.
         22    1    1    0    0    0 -0.16911092910E+02  0.39110369725E+01  0.22964814550E+02  0.28786524294E+02  0.00000000000E+00 0. -1.
</event>
<event>
 5    1  0.6650580E-004  0.9118800E+02  0.7818608E-02  0.1130116E+00
         25   -1    0    0    0    0  0.00000000000E+00  0.00000000000E+00  0.99999998245E-14  0.12500000000E+03  0.12500000000E+03 0.  0.
        -11    1    3    3    0    0 -0.27397829899E+01  0.44153532480E+02 -0.37198228554E+02  0.57799213222E+02  0.51100000000E-03 0.  1.
         23    2    1    0    0    0  0.40116685686E+01  0.90921374305E+01 -0.28875993572E+02  0.94461770638E+02  0.89389275977E+02 0.  0.
         11    1    3    3    0    0  0.67514515586E+01 -0.35061395050E+02  0.83222349814E+01  0.36662557416E+02  0.51100000000E-03 0. -1.
         22    1    1    0    0    0 -0.40116685686E+01 -0.90921374305E+01  0.28875993572E+02  0.30538229362E+02  0.00000000000E+00 0.  1.
</event>
<event>
 5    1  0.6650580E-004  0.9118800E+02  0.7818608E-02  0.1130116E+00
         25   -1    0    0    0    0  0.00000000000E+00  0.00000000000E+00  0.99999998245E-14  0.12500000000E+03  0.12500000000E+03 0.  0.
        -11    1    3    3    0    0  0.41550843377E+01 -0.31210785434E+02 -0.13771631234E+02  0.34366199678E+02  0.51100000000E-03 0.  1.
         23    2    1    0    0    0  0.12675615442E+02  0.27471155969E+02 -0.35523642601E+01  0.94537647350E+02  0.89495317405E+02 0.  0.
         11    1    3    3    0    0  0.85205311047E+01  0.58681941403E+02  0.10219266974E+02  0.60171447671E+02  0.51100000000E-03 0. -1.
         22    1    1    0    0    0 -0.12675615442E+02 -0.27471155969E+02  0.35523642601E+01  0.30462352650E+02  0.00000000000E+00 0. -1.
</event>
<event>
 5    1  0.6650580E-004  0.9118800E+02  0.7818608E-02  0.1130116E+00
         25   -1    0    0    0    0  0.00000000000E+00  0.00000000000E+00  0.99999998245E-14  0.12500000000E+03  0.12500000000E+03 0.  0.
        -11    1    3    3    0    0  0.57666532488E+02 -0.12566174780E+02 -0.15183377935E+02  0.60941551372E+02  0.51100000000E-03 0. -1.
         23    2    1    0    0    0  0.23094144353E+02 -0.61073984539E+01 -0.16217120944E+02  0.96127264920E+02  0.91688691942E+02 0.  0.
         11    1    3    3    0    0 -0.34572388136E+02  0.64587763264E+01 -0.10337430096E+01  0.35185713549E+02  0.51100000000E-03 0.  1.
         22    1    1    0    0    0 -0.23094144353E+02  0.61073984539E+01  0.16217120944E+02  0.28872735080E+02  0.00000000000E+00 0. -1.
</event>
<event>
 5    1  0.6650580E-004  0.9118800E+02  0.7818608E-02  0.1130116E+00
         25   -1    0    0    0    0  0.00000000000E+00  0.00000000000E+00  0.99999998245E-14  0.12500000000E+03  0.12500000000E+03 0.  0.
        -11    1    3    3    0    0  0.10063723988E+02 -0.43478824116E+02  0.28287921113E+02  0.52838368334E+02  0.51100000000E-03 0.  1.
         23    2    1    0    0    0 -0.50449957166E+01  0.32895877710E+00  0.25218291623E+02  0.99279921695E+02  0.95890460546E+02 0.  0.
         11    1    3    3    0    0 -0.15108719705E+02  0.43807782893E+02 -0.30696294906E+01  0.46441553361E+02  0.51100000000E-03 0. -1.
         22    1    1    0    0    0  0.50449957166E+01 -0.32895877710E+00 -0.25218291623E+02  0.25720078305E+02  0.00000000000E+00 0.  1.
</event>
<event>
 5    1  0.6650580E-004  0.9118800E+02  0.7818608E-02  0.1130116E+00
         25   -1    0    0    0    0  0.00000000000E+00  0.00000000000E+00  0.99999998245E-14  0.12500000000E+03  0.12500000000E+03 0.  0.
        -11    1    3    3    0    0  0.14638827217E+02  0.45198500067E+02 -0.33241636046E+02  0.57984532747E+02  0.51100000000E-03 0.  1.
         23    2    1    0    0    0 -0.47978165105E+01  0.13879659806E+02 -0.25386104620E+02  0.95672226348E+02  0.91066220889E+02 0.  0.
         11    1    3    3    0    0 -0.19436643728E+02 -0.31318840261E+02  0.78555314258E+01  0.37687693601E+02  0.51100000000E-03 0. -1.
         22    1    1    0    0    0  0.47978165105E+01 -0.13879659806E+02  0.25386104620E+02  0.29327773652E+02  0.00000000000E+00 0.  1.
</event>
<event>
 5    1  0.6650580E-004  0.9118800E+02  0.7818608E-02  0.1130116E+00
         25   -1    0    0    0    0  0.00000000000E+00  0.00000000000E+00  0.99999998245E-14  0.12500000000E+03  0.12500000000E+03 0.  0.
        -11    1    3    3    0    0  0.51692432480E+02  0.17179449208E+02  0.15169334068E+01  0.54493505466E+02  0.51100000000E-03 0.  1.
         23    2    1    0    0    0  0.14431054536E+02  0.27527093638E+02 -0.43813678132E+01  0.93612222074E+02  0.88193284997E+02 0.  0.
         11    1    3    3    0    0 -0.37261377944E+02  0.10347644431E+02 -0.58983012201E+01  0.39118716608E+02  0.51100000000E-03 0. -1.
         22    1    1    0    0    0 -0.14431054536E+02 -0.27527093638E+02  0.43813678132E+01  0.31387777926E+02  0.00000000000E+00 0. -1.
</event>
<event>
 5    1  0.6650580E-004  0.9118800E+02  0.7818608E-02  0.1130116E+00
         25   -1    0    0    0    0  0.00000000000E+00  0.00000000000E+00  0.99999998245E-14  0.12500000000E+03  0.12500000000E+03 0.  0.
        -11    1    3    3    0    0  0.54908384418E+02  0.26740381034E+01  0.38262164860E+01  0.55106452363E+02  0.51100000000E-03 0. -1.
         23    2    1    0    0    0  0.17342483430E+02  0.16333576542E+02 -0.12275725113E+02  0.98199983559E+02  0.94472196385E+02 0.  0.
         11    1    3    3    0    0 -0.37565900988E+02  0.13659538439E+02 -0.16101941599E+02  0.43093531196E+02  0.51100000000E-03 0.  1.
         22    1    1    0    0    0 -0.17342483430E+02 -0.16333576542E+02  0.12275725113E+02  0.26800016441E+02  0.00000000000E+00 0. -1.
</event>
<event>
 5    1  0.6650580E-004  0.9118800E+02  0.7818608E-02  0.1130116E+00
         25   -1    0    0    0    0  0.00000000000E+00  0.00000000000E+00  0.99999998245E-14  0.12500000000E+03  0.12500000000E+03 0.  0.
        -11    1    3    3    0    0 -0.29759916366E+02 -0.41404888628E+02  0.17082552798E+02  0.53775747645E+02  0.51100000000E-03 0. -1.
         23    2    1    0    0    0  0.24307253216E+01 -0.16791823452E+02  0.24726106672E+02  0.95012434050E+02  0.90156023162E+02 0.  0.
         11    1    3    3    0    0  0.32190641687E+02  0.24613065176E+02  0.76435538746E+01  0.41236686405E+02  0.51100000000E-03 0.  1.
         22    1    1    0    0    0 -0.24307253216E+01  0.16791823452E+02 -0.24726106672E+02  0.29987565950E+02  0.00000000000E+00 0. -1.
</event>
<event>
 5    1  0.6650580E-004  0.9118800E+02  0.7818608E-02  0.1130116E+00
         25   -1    0    0    0    0  0.00000000000E+00  0.00000000000E+00  0.99999998245E-14  0.12500000000E+03  0.12500000000E+03 0.  0.
        -11    1    3    3    0    0 -0.37799842819E+02  0.36338594277E+02 -0.15286167288E+02  0.54616741590E+02  0.51100000000E-03 0.  1.
         23    2    1    0    0    0 -0.57901892345E+01  0.14172160768E+02 -0.25847241719E+02  0.94959088950E+02  0.90082030603E+02 0.  0.
         11    1    3    3    0    0  0.32009653585E+02 -0.22166433509E+02 -0.10561074431E+02  0.40342347360E+02  0.51100000000E-03 0. -1.
         22    1    1    0    0    0  0.57901892345E+01 -0.14172160768E+02  0.25847241719E+02  0.30040911050E+02  0.00000000000E+00 0. -1.
</event>
<event>
 5    1  0.6650580E-004  0.9118800E+02  0.7818608E-02  0.1130116E+00
         25   -1    0    0    0    0  0.00000000000E+00  0.00000000000E+00  0.99999998245E-14  0.12500000000E+03  0.12500000000E+03 0.  0.
        -11    1    3    3    0    0 -0.24841749517E+02 -0.28458147055E+02  0.46489242101E+02  0.59901822045E+02  0.51100000000E-03 0. -1.
         23    2    1    0    0    0 -0.24324453924E+01 -0.10408875840E+02  0.30193918053E+02  0.92969792785E+02  0.87277993768E+02 0.  0.
         11    1    3    3    0    0  0.22409304125E+02  0.18049271215E+02 -0.16295324048E+02  0.33067970740E+02  0.51100000000E-03 0.  1.
         22    1    1    0    0    0  0.24324453924E+01  0.10408875840E+02 -0.30193918053E+02  0.32030207215E+02  0.00000000000E+00 0. -1.
</event>
<event>
 5    1  0.6650580E-004  0.9118800E+02  0.7818608E-02  0.1130116E+00
         25   -1    0    0    0    0  0.00000000000E+00  0.00000000000E+00  0.99999998245E-14  0.12500000000E+03  0.12500000000E+03 0.  0.
        -11    1    3    3    0    0  0.40706122321E+01  0.28659252949E+02 -0.34902585475E+02  0.45344383738E+02  0.51100000000E-03 0.  1.
         23    2    1    0    0    0 -0.27950340529E+02 -0.95026312567E+00 -0.12660437533E+02  0.94301283183E+02  0.89164571415E+02 0.  0.
         11    1    3    3    0    0 -0.32020952761E+02 -0.29609516074E+02  0.22242147942E+02  0.48956899445E+02  0.51100000000E-03 0. -1.
         22    1    1    0    0    0  0.27950340529E+02  0.95026312567E+00  0.12660437533E+02  0.30698716817E+02  0.00000000000E+00 0.  1.
</event>
<event>
 5    1  0.6650580E-004  0.9118800E+02  0.7818608E-02  0.1130116E+00
         25   -1    0    0    0    0  0.00000000000E+00  0.00000000000E+00  0.99999998245E-14  0.12500000000E+03  0.12500000000E+03 0.  0.
        -11    1    3    3    0    0 -0.40947435330E+02  0.30410487703E+02  0.12784143998E+02  0.52582549962E+02  0.51100000000E-03 0.  1.
         23    2    1    0    0    0  0.20957094184E+01  0.27656374424E+02  0.12179575255E+01  0.97237607006E+02  0.93190137630E+02 0.  0.
         11    1    3    3    0    0  0.43043144749E+02 -0.27541132788E+01 -0.11566186473E+02  0.44655057044E+02  0.51100000000E-03 0. -1.
         22    1    1    0    0    0 -0.20957094184E+01 -0.27656374424E+02 -0.12179575255E+01  0.27762392994E+02  0.00000000000E+00 0.  1.
</event>
<event>
 5    1  0.6650580E-004  0.9118800E+02  0.7818608E-02  0.1130116E+00
         25   -1    0    0    0    0  0.00000000000E+00  0.00000000000E+00  0.99999998245E-14  0.12500000000E+03  0.12500000000E+03 0.  0.
        -11    1    3    3    0    0  0.44149708229E+02 -0.39188810010E+02 -0.19385996196E+02  0.62135146378E+02  0.51100000000E-03 0. -1.
         23    2    1    0    0    0  0.23404838542E+02 -0.14416314390E+02 -0.91128092397E+01  0.96040375003E+02  0.91570157533E+02 0.  0.
         11    1    3    3    0    0 -0.20744869687E+02  0.24772495620E+02  0.10273186956E+02  0.33905228625E+02  0.51100000000E-03 0.  1.
         22    1    1    0    0    0 -0.23404838542E+02  0.14416314390E+02  0.91128092397E+01  0.28959624997E+02  0.00000000000E+00 0. -1.
</event>
<event>
 5    1  0.6650580E-004  0.9118800E+02  0.7818608E-02  0.1130116E+00
         25   -1    0    0    0    0  0.00000000000E+00  0.00000000000E+00  0.99999998245E-14  0.12500000000E+03  0.12500000000E+03 0.  0.
        -11    1    3    3    0    0 -0.81454067313E+01  0.26670717223E+02  0.32602797604E+02  0.42902415082E+02  0.51100000000E-03 0. -1.
         23    2    1    0    0    0  0.26342059868E+02 -0.68752273015E+01  0.12436988992E+02  0.95069220463E+02  0.90234722339E+02 0.  0.
         11    1    3    3    0    0  0.34487466599E+02 -0.33545944524E+02 -0.20165808611E+02  0.52166805381E+02  0.51100000000E-03 0.  1.
         22    1    1    0    0    0 -0.26342059868E+02  0.68752273015E+01 -0.12436988992E+02  0.29930779537E+02  0.00000000000E+00 0.  1.
</event>
<event>
 5    1  0.6650580E-004  0.9118800E+02  0.7818608E-02  0.1130116E+00
         25   -1    0    0    0    0  0.00000000000E+00  0.00000000000E+00  0.99999998245E-14  0.12500000000E+03  0.12500000000E+03 0.  0.
        -11    1    3    3    0    0  0.36284303011E+02  0.23582233505E+02 -0.16484496684E+02  0.46307785665E+02  0.51100000000E-03 0.  1.
         23    2    1    0    0    0  0.10157547312E+02 -0.18762276705E+02 -0.19419209406E+02  0.96150312159E+02  0.91720107064E+02 0.  0.
         11    1    3    3    0    0 -0.26126755699E+02 -0.42344510210E+02 -0.29347127223E+01  0.49842526494E+02  0.51100000000E-03 0. -1.
         22    1    1    0    0    0 -0.10157547312E+02  0.18762276705E+02  0.19419209406E+02  0.28849687841E+02  0.00000000000E+00 0. -1.
</event>
<event>
 5    1  0.6650580E-004  0.9118800E+02  0.7818608E-02  0.1130116E+00
         25   -1    0    0    0    0  0.00000000000E+00  0.00000000000E+00  0.99999998245E-14  0.12500000000E+03  0.12500000000E+03 0.  0.
        -11    1    3    3    0    0  0.23743149162E+02  0.21591096262E+02  0.94009337706E+01  0.33440845174E+02  0.51100000000E-03 0.  1.
         23    2    1    0    0    0 -0.17100378165E+02 -0.24247041680E+02  0.24326906296E+01  0.95229881638E+02  0.90457008626E+02 0.  0.
         11    1    3    3    0    0 -0.40843527327E+02 -0.45838137941E+02 -0.69682431410E+01  0.61789036464E+02  0.51100000000E-03 0. -1.
         22    1    1    0    0    0  0.17100378165E+02  0.24247041680E+02 -0.24326906296E+01  0.29770118362E+02  0.00000000000E+00 0. -1.
</event>
<event>
 5    1  0.6650580E-004  0.9118800E+02  0.7818608E-02  0.1130116E+00
         25   -1    0    0    0    0  0.00000000000E+00  0.00000000000E+00  0.99999998245E-14  0.12500000000E+03  0.12500000000E+03 0.  0.
        -11    1    3    3    0    0  0.21809485593E+02 -0.38371451721E+02 -0.40476518610E+01  0.44321613856E+02  0.51100000000E-03 0. -1.
         23    2    1    0    0    0  0.19349641521E+02  0.63027592781E+01  0.21132204325E+02  0.95662251942E+02  0.91052528715E+02 0.  0.
         11    1    3    3    0    0 -0.24598440725E+01  0.44674210999E+02  0.25179856186E+02  0.51340638085E+02  0.51100000000E-03 0.  1.
         22    1    1    0    0    0 -0.19349641521E+02 -0.63027592781E+01 -0.21132204325E+02  0.29337748058E+02  0.00000000000E+00 0.  1.
</event>
<event>
 5    1  0.6650580E-004  0.9118800E+02  0.7818608E-02  0.1130116E+00
         25   -1    0    0    0    0  0.00000000000E+00  0.00000000000E+00  0.99999998245E-14  0.12500000000E+03  0.12500000000E+03 0.  0.
        -11    1    3    3    0    0  0.35281604736E+02 -0.66288569977E+01 -0.24536466198E+02  0.43483003019E+02  0.51100000000E-03 0.  1.
         23    2    1    0    0    0 -0.13519634106E+02 -0.22622260587E+02 -0.73027079408E+01  0.97652665145E+02  0.93745220071E+02 0.  0.
         11    1    3    3    0    0 -0.48801238842E+02 -0.15993403589E+02  0.17233758257E+02  0.54169662125E+02  0.51100000000E-03 0. -1.
         22    1    1    0    0    0  0.13519634106E+02  0.22622260587E+02  0.73027079408E+01  0.27347334855E+02  0.00000000000E+00 0.  1.
</event>
<event>
 5    1  0.6650580E-004  0.9118800E+02  0.7818608E-02  0.1130116E+00
         25   -1    0    0    0    0  0.00000000000E+00  0.00000000000E+00  0.99999998245E-14  0.12500000000E+03  0.12500000000E+03 0.  0.
        -11    1    3    3    0    0 -0.22613887949E+02 -0.87892872681E+01 -0.31257635685E+02  0.39568665479E+02  0.51100000000E-03 0.  1.
         23    2    1    0    0    0 -0.36374961629E+02 -0.30158455517E+02 -0.28849832493E+01  0.77660868185E+02  0.61564738659E+02 0.  0.
         11    1    3    3    0    0 -0.13761073680E+02 -0.21369168249E+02  0.28372652436E+02  0.38092202706E+02  0.51100000000E-03 0. -1.
         22    1    1    0    0    0  0.36374961629E+02  0.30158455517E+02  0.28849832493E+01  0.47339131815E+02  0.00000000000E+00 0.  1.
</event>
<event>
 5    1  0.6650580E-004  0.9118800E+02  0.7818608E-02  0.1130116E+00
         25   -1    0    0    0    0  0.00000000000E+00  0.00000000000E+00  0.99999998245E-14  0.12500000000E+03  0.12500000000E+03 0.  0.
        -11    1    3    3    0    0 -0.22288342140E+02 -0.50551699811E+02  0.26113115669E+02  0.61107604759E+02  0.51100000000E-03 0.  1.
         23    2    1    0    0    0 -0.73961262226E+01 -0.19216994511E+02  0.19921505970E+02  0.96349311330E+02  0.91990911684E+02 0.  0.
         11    1    3    3    0    0  0.14892215917E+02  0.31334705299E+02 -0.61916096989E+01  0.35241706571E+02  0.51100000000E-03 0. -1.
         22    1    1    0    0    0  0.73961262226E+01  0.19216994511E+02 -0.19921505970E+02  0.28650688670E+02  0.00000000000E+00 0.  1.
</event>
<event>
 5    1  0.6650580E-004  0.9118800E+02  0.7818608E-02  0.1130116E+00
         25   -1    0    0    0    0  0.00000000000E+00  0.00000000000E+00  0.99999998245E-14  0.12500000000E+03  0.12500000000E+03 0.  0.
        -11    1    3    3    0    0 -0.20536090686E+02  0.11651363678E+02 -0.16223216571E+02  0.28647478988E+02  0.51100000000E-03 0. -1.
         23    2    1    0    0    0  0.34084621756E+02 -0.80121061717E+01  0.31446525330E+01  0.89845425261E+02  0.82682261188E+02 0.  0.
         11    1    3    3    0    0  0.54620712442E+02 -0.19663469849E+02  0.19367869104E+02  0.61197946273E+02  0.51100000000E-03 0.  1.
         22    1    1    0    0    0 -0.34084621756E+02  0.80121061717E+01 -0.31446525330E+01  0.35154574739E+02  0.00000000000E+00 0.  1.
</event>
<event>
 5    1  0.6650580E-004  0.9118800E+02  0.7818608E-02  0.1130116E+00
         25   -1    0    0    0    0  0.00000000000E+00  0.00000000000E+00  0.99999998245E-14  0.12500000000E+03  0.12500000000E+03 0.  0.
        -11    1    3    3    0    0  0.74434456945E+01 -0.56552823023E+02 -0.31439388954E+01  0.57127147905E+02  0.51100000000E-03 0.  1.
         23    2    1    0    0    0  0.21616511075E+02 -0.28824757770E+02  0.29190384094E+01  0.88852233862E+02  0.81166855708E+02 0.  0.
         11    1    3    3    0    0  0.14173065380E+02  0.27728065253E+02  0.60629773048E+01  0.31725085958E+02  0.51100000000E-03 0. -1.
         22    1    1    0    0    0 -0.21616511075E+02  0.28824757770E+02 -0.29190384094E+01  0.36147766138E+02  0.00000000000E+00 0.  1.
</event>
<event>
 5    1  0.6650580E-004  0.9118800E+02  0.7818608E-02  0.1130116E+00
         25   -1    0    0    0    0  0.00000000000E+00  0.00000000000E+00  0.99999998245E-14  0.12500000000E+03  0.12500000000E+03 0.  0.
        -11    1    3    3    0    0 -0.10234610641E+02  0.21856529419E+02  0.56746898667E+02  0.61665757450E+02  0.51100000000E-03 0.  1.
         23    2    1    0    0    0 -0.10428033054E+01  0.15992825911E+02  0.24341792466E+02  0.95855862000E+02  0.91317936354E+02 0.  0.
         11    1    3    3    0    0  0.91918073354E+01 -0.58637035083E+01 -0.32405106202E+02  0.34190104550E+02  0.51100000000E-03 0. -1.
         22    1    1    0    0    0  0.10428033054E+01 -0.15992825911E+02 -0.24341792466E+02  0.29144138000E+02  0.00000000000E+00 0.  1.
</event>
<event>
 5    1  0.6650580E-004  0.9118800E+02  0.7818608E-02  0.1130116E+00
         25   -1    0    0    0    0  0.00000000000E+00  0.00000000000E+00  0.99999998245E-14  0.12500000000E+03  0.12500000000E+03 0.  0.
        -11    1    3    3    0    0 -0.13782257081E+02 -0.33474539088E+02  0.10105208801E+02  0.37584712618E+02  0.51100000000E-03 0.  1.
         23    2    1    0    0    0  0.21009241881E+01  0.20501838969E+02 -0.15313007268E+02  0.99324574489E+02  0.95948650966E+02 0.  0.
         11    1    3    3    0    0  0.15883181269E+02  0.53976378058E+02 -0.25418216069E+02  0.61739861871E+02  0.51100000000E-03 0. -1.
         22    1    1    0    0    0 -0.21009241881E+01 -0.20501838969E+02  0.15313007268E+02  0.25675425511E+02  0.00000000000E+00 0. -1.
</event>
<event>
 5    1  0.6650580E-004  0.9118800E+02  0.7818608E-02  0.1130116E+00
         25   -1    0    0    0    0  0.00000000000E+00  0.00000000000E+00  0.99999998245E-14  0.12500000000E+03  0.12500000000E+03 0.  0.
        -11    1    3    3    0    0 -0.32228495441E+02  0.40926166345E+02 -0.20068191117E-01  0.52092489027E+02  0.51100000000E-03 0.  1.
         23    2    1    0    0    0 -0.41582190226E+01  0.43157860899E+02 -0.69430828439E+01  0.81089885651E+02  0.68172365462E+02 0.  0.
         11    1    3    3    0    0  0.28070276418E+02  0.22316945543E+01 -0.69230146528E+01  0.28997396623E+02  0.51100000000E-03 0. -1.
         22    1    1    0    0    0  0.41582190226E+01 -0.43157860899E+02  0.69430828439E+01  0.43910114349E+02  0.00000000000E+00 0.  1.
</event>
<event>
 5    1  0.6650580E-004  0.9118800E+02  0.7818608E-02  0.1130116E+00
         25   -1    0    0    0    0  0.00000000000E+00  0.00000000000E+00  0.99999998245E-14  0.12500000000E+03  0.12500000000E+03 0.  0.
        -11    1    3    3    0    0 -0.40433791299E+02  0.28903126080E+02  0.91975146097E+01  0.50545785693E+02  0.51100000000E-03 0.  1.
         23    2    1    0    0    0 -0.10655357631E+02  0.11630188164E+02 -0.22620413521E+02  0.97423179464E+02  0.93438722520E+02 0.  0.
         11    1    3    3    0    0  0.29778433668E+02 -0.17272937917E+02 -0.31817928131E+02  0.46877393771E+02  0.51100000000E-03 0. -1.
         22    1    1    0    0    0  0.10655357631E+02 -0.11630188164E+02  0.22620413521E+02  0.27576820536E+02  0.00000000000E+00 0. -1.
</event>
<event>
 5    1  0.6650580E-004  0.9118800E+02  0.7818608E-02  0.1130116E+00
         25   -1    0    0    0    0  0.00000000000E+00  0.00000000000E+00  0.99999998245E-14  0.12500000000E+03  0.12500000000E+03 0.  0.
        -11    1    3    3    0    0 -0.47531923040E+02  0.19567991609E+02  0.34638123668E+02  0.61983785097E+02  0.51100000000E-03 0.  1.
         23    2    1    0    0    0 -0.15730635446E+02  0.71088303046E+01  0.18292305677E+02  0.99848522771E+02  0.96628829511E+02 0.  0.
         11    1    3    3    0    0  0.31801287593E+02 -0.12459161305E+02 -0.16345817991E+02  0.37864737673E+02  0.51100000000E-03 0. -1.
         22    1    1    0    0    0  0.15730635446E+02 -0.71088303046E+01 -0.18292305677E+02  0.25151477229E+02  0.00000000000E+00 0.  1.
</event>
<event>
 5    1  0.6650580E-004  0.9118800E+02  0.7818608E-02  0.1130116E+00
         25   -1    0    0    0    0  0.00000000000E+00  0.00000000000E+00  0.99999998245E-14  0.12500000000E+03  0.12500000000E+03 0.  0.
        -11    1    3    3    0    0 -0.77214455782E+01  0.31366509780E+02  0.17621841641E+02  0.36796847157E+02  0.51100000000E-03 0.  1.
         23    2    1    0    0    0  0.20477647141E+02 -0.19430712565E+02  0.38161512542E+01  0.96514044977E+02  0.92214485002E+02 0.  0.
         11    1    3    3    0    0  0.28199092719E+02 -0.50797222345E+02 -0.13805690387E+02  0.59717197820E+02  0.51100000000E-03 0. -1.
         22    1    1    0    0    0 -0.20477647141E+02  0.19430712565E+02 -0.38161512542E+01  0.28485955023E+02  0.00000000000E+00 0. -1.
</event>
<event>
 5    1  0.6650580E-004  0.9118800E+02  0.7818608E-02  0.1130116E+00
         25   -1    0    0    0    0  0.00000000000E+00  0.00000000000E+00  0.99999998245E-14  0.12500000000E+03  0.12500000000E+03 0.  0.
        -11    1    3    3    0    0 -0.31700658469E+02 -0.97553047678E+01  0.17922743344E+02  0.37700430339E+02  0.51100000000E-03 0.  1.
         23    2    1    0    0    0 -0.14355749712E+02  0.11989757041E+02 -0.27962781487E+02  0.91358374412E+02  0.84938763842E+02 0.  0.
         11    1    3    3    0    0  0.17344908757E+02  0.21745061809E+02 -0.45885524831E+02  0.53657944073E+02  0.51100000000E-03 0. -1.
         22    1    1    0    0    0  0.14355749712E+02 -0.11989757041E+02  0.27962781487E+02  0.33641625588E+02  0.00000000000E+00 0. -1.
</event>
<event>
 5    1  0.6650580E-004  0.9118800E+02  0.7818608E-02  0.1130116E+00
         25   -1    0    0    0    0  0.00000000000E+00  0.00000000000E+00  0.99999998245E-14  0.12500000000E+03  0.12500000000E+03 0.  0.
        -11    1    3    3    0    0 -0.23390884279E+02 -0.24588106677E+02  0.45238884604E+01  0.34237027096E+02  0.51100000000E-03 0.  1.
         23    2    1    0    0    0  0.61345741750E+01  0.28512372637E+02  0.68611176158E+01  0.95038969833E+02  0.90192807132E+02 0.  0.
         11    1    3    3    0    0  0.29525458454E+02  0.53100479314E+02  0.23372291554E+01  0.60801942738E+02  0.51100000000E-03 0. -1.
         22    1    1    0    0    0 -0.61345741750E+01 -0.28512372637E+02 -0.68611176158E+01  0.29961030167E+02  0.00000000000E+00 0. -1.
</event>
<event>
 5    1  0.6650580E-004  0.9118800E+02  0.7818608E-02  0.1130116E+00
         25   -1    0    0    0    0  0.00000000000E+00  0.00000000000E+00  0.99999998245E-14  0.12500000000E+03  0.12500000000E+03 0.  0.
        -11    1    3    3    0    0 -0.19461438464E+02  0.31676667916E+02 -0.55649269174E+01  0.37591585351E+02  0.51100000000E-03 0. -1.
         23    2    1    0    0    0 -0.14455130064E+02 -0.25066514552E+02  0.53019674570E+01  0.95582457685E+02  0.90942918478E+02 0.  0.
         11    1    3    3    0    0  0.50063084006E+01 -0.56743182468E+02  0.10866894374E+02  0.57990872334E+02  0.51100000000E-03 0.  1.
         22    1    1    0    0    0  0.14455130064E+02  0.25066514552E+02 -0.53019674570E+01  0.29417542315E+02  0.00000000000E+00 0.  1.
</event>
<event>
 5    1  0.6650580E-004  0.9118800E+02  0.7818608E-02  0.1130116E+00
         25   -1    0    0    0    0  0.00000000000E+00  0.00000000000E+00  0.99999998245E-14  0.12500000000E+03  0.12500000000E+03 0.  0.
        -11    1    3    3    0    0 -0.21148372510E+02  0.48779632332E+02  0.23360876499E+02  0.58072684985E+02  0.51100000000E-03 0.  1.
         23    2    1    0    0    0  0.29906116317E+00  0.18820001362E+02  0.23465724348E+02  0.94918076724E+02  0.90025103060E+02 0.  0.
         11    1    3    3    0    0  0.21447433673E+02 -0.29959630971E+02  0.10484784888E+00  0.36845391739E+02  0.51100000000E-03 0. -1.
         22    1    1    0    0    0 -0.29906116317E+00 -0.18820001362E+02 -0.23465724348E+02  0.30081923276E+02  0.00000000000E+00 0.  1.
</event>
<event>
 5    1  0.6650580E-004  0.9118800E+02  0.7818608E-02  0.1130116E+00
         25   -1    0    0    0    0  0.00000000000E+00  0.00000000000E+00  0.99999998245E-14  0.12500000000E+03  0.12500000000E+03 0.  0.
        -11    1    3    3    0    0  0.50683049355E+02 -0.16115649552E+02  0.31342714075E+02  0.61732093584E+02  0.51100000000E-03 0. -1.
         23    2    1    0    0    0  0.25122177384E+02 -0.15200136719E+02  0.15925587589E+02  0.91596522744E+02  0.85288514385E+02 0.  0.
         11    1    3    3    0    0 -0.25560871972E+02  0.91551283356E+00 -0.15417126486E+02  0.29864429160E+02  0.51100000000E-03 0.  1.
         22    1    1    0    0    0 -0.25122177384E+02  0.15200136719E+02 -0.15925587589E+02  0.33403477256E+02  0.00000000000E+00 0. -1.
</event>
<event>
 5    1  0.6650580E-004  0.9118800E+02  0.7818608E-02  0.1130116E+00
         25   -1    0    0    0    0  0.00000000000E+00  0.00000000000E+00  0.99999998245E-14  0.12500000000E+03  0.12500000000E+03 0.  0.
        -11    1    3    3    0    0 -0.34470497129E+02  0.12499476930E+02  0.48099708670E+02  0.60481683758E+02  0.51100000000E-03 0.  1.
         23    2    1    0    0    0 -0.17503097617E+02  0.16051933513E+02  0.18061839830E+02  0.95162891331E+02  0.90364389185E+02 0.  0.
         11    1    3    3    0    0  0.16967399512E+02  0.35524565826E+01 -0.30037868840E+02  0.34681207572E+02  0.51100000000E-03 0. -1.
         22    1    1    0    0    0  0.17503097617E+02 -0.16051933513E+02 -0.18061839830E+02  0.29837108669E+02  0.00000000000E+00 0.  1.
</event>
<event>
 5    1  0.6650580E-004  0.9118800E+02  0.7818608E-02  0.1130116E+00
         25   -1    0    0    0    0  0.00000000000E+00  0.00000000000E+00  0.99999998245E-14  0.12500000000E+03  0.12500000000E+03 0.  0.
        -11    1    3    3    0    0 -0.16189982648E+02 -0.34914621988E+02  0.14242032440E+02  0.41036347973E+02  0.51100000000E-03 0.  1.
         23    2    1    0    0    0  0.11723507355E+01 -0.59579433074E+01 -0.28701534054E+02  0.95663170728E+02  0.91053790047E+02 0.  0.
         11    1    3    3    0    0  0.17362333384E+02  0.28956678680E+02 -0.42943566494E+02  0.54626822754E+02  0.51100000000E-03 0. -1.
         22    1    1    0    0    0 -0.11723507355E+01  0.59579433074E+01  0.28701534054E+02  0.29336829272E+02  0.00000000000E+00 0. -1.
</event>
<event>
 5    1  0.6650580E-004  0.9118800E+02  0.7818608E-02  0.1130116E+00
         25   -1    0    0    0    0  0.00000000000E+00  0.00000000000E+00  0.99999998245E-14  0.12500000000E+03  0.12500000000E+03 0.  0.
        -11    1    3    3    0    0 -0.80855120624E+01 -0.29508408061E+02  0.14200981285E+02  0.33731135784E+02  0.51100000000E-03 0.  1.
         23    2    1    0    0    0  0.26699534198E+02  0.90554475654E+01 -0.14741097411E+02  0.93185440285E+02  0.87586300705E+02 0.  0.
         11    1    3    3    0    0  0.34785046260E+02  0.38563855626E+02 -0.28942078696E+02  0.59454304500E+02  0.51100000000E-03 0. -1.
         22    1    1    0    0    0 -0.26699534198E+02 -0.90554475654E+01  0.14741097411E+02  0.31814559715E+02  0.00000000000E+00 0. -1.
</event>
<event>
 5    1  0.6650580E-004  0.9118800E+02  0.7818608E-02  0.1130116E+00
         25   -1    0    0    0    0  0.00000000000E+00  0.00000000000E+00  0.99999998245E-14  0.12500000000E+03  0.12500000000E+03 0.  0.
        -11    1    3    3    0    0 -0.10146608490E+01 -0.32588912552E+02 -0.25886578407E+02  0.41631498890E+02  0.51100000000E-03 0. -1.
         23    2    1    0    0    0  0.28585906252E+02  0.19244887412E+01  0.40418764889E+01  0.96065687174E+02  0.91604703993E+02 0.  0.
         11    1    3    3    0    0  0.29600567101E+02  0.34513401293E+02  0.29928454895E+02  0.54434188284E+02  0.51100000000E-03 0.  1.
         22    1    1    0    0    0 -0.28585906252E+02 -0.19244887412E+01 -0.40418764889E+01  0.28934312826E+02  0.00000000000E+00 0. -1.
</event>
<event>
 5    1  0.6650580E-004  0.9118800E+02  0.7818608E-02  0.1130116E+00
         25   -1    0    0    0    0  0.00000000000E+00  0.00000000000E+00  0.99999998245E-14  0.12500000000E+03  0.12500000000E+03 0.  0.
        -11    1    3    3    0    0  0.22090121285E+02 -0.19524548633E+02  0.30735200584E+02  0.42589130220E+02  0.51100000000E-03 0.  1.
         23    2    1    0    0    0 -0.13752409253E+02 -0.24606376730E+02 -0.80902750202E+01  0.95673304210E+02  0.91067700381E+02 0.  0.
         11    1    3    3    0    0 -0.35842530537E+02 -0.50818280966E+01 -0.38825475604E+02  0.53084173991E+02  0.51100000000E-03 0. -1.
         22    1    1    0    0    0  0.13752409253E+02  0.24606376730E+02  0.80902750202E+01  0.29326695790E+02  0.00000000000E+00 0. -1.
</event>
<event>
 5    1  0.6650580E-004  0.9118800E+02  0.7818608E-02  0.1130116E+00
         25   -1    0    0    0    0  0.00000000000E+00  0.00000000000E+00  0.99999998245E-14  0.12500000000E+03  0.12500000000E+03 0.  0.
        -11    1    3    3    0    0 -0.20439162873E+02  0.47484763123E+02  0.27052957132E+01  0.51767564488E+02  0.51100000000E-03 0.  1.
         23    2    1    0    0    0  0.14585798892E+02  0.24893836221E+02 -0.84921073271E+01  0.94924021247E+02  0.90033356661E+02 0.  0.
         11    1    3    3    0    0  0.35024961764E+02 -0.22590926902E+02 -0.11197403040E+02  0.43156456759E+02  0.51100000000E-03 0. -1.
         22    1    1    0    0    0 -0.14585798892E+02 -0.24893836221E+02  0.84921073271E+01  0.30075978753E+02  0.00000000000E+00 0. -1.
</event>
<event>
 5    1  0.6650580E-004  0.9118800E+02  0.7818608E-02  0.1130116E+00
         25   -1    0    0    0    0  0.00000000000E+00  0.00000000000E+00  0.99999998245E-14  0.12500000000E+03  0.12500000000E+03 0.  0.
        -11    1    3    3    0    0  0.28763428247E+02  0.35107678065E+02  0.13422121354E+01  0.45405785946E+02  0.51100000000E-03 0.  1.
         23    2    1    0    0    0 -0.97456858425E+01  0.11850429224E+02 -0.23604669240E+02  0.96846998823E+02  0.92664716618E+02 0.  0.
         11    1    3    3    0    0 -0.38509114090E+02 -0.23257248842E+02 -0.24946881375E+02  0.51441212877E+02  0.51100000000E-03 0. -1.
         22    1    1    0    0    0  0.97456858425E+01 -0.11850429224E+02  0.23604669240E+02  0.28153001177E+02  0.00000000000E+00 0. -1.
</event>
<event>
 5    1  0.6650580E-004  0.9118800E+02  0.7818608E-02  0.1130116E+00
         25   -1    0    0    0    0  0.00000000000E+00  0.00000000000E+00  0.99999998245E-14  0.12500000000E+03  0.12500000000E+03 0.  0.
        -11    1    3    3    0    0  0.31792021797E+02 -0.11033510971E+02 -0.40243005522E+02  0.52459227100E+02  0.51100000000E-03 0.  1.
         23    2    1    0    0    0 -0.10654737927E+01 -0.24719903433E+02 -0.17367488551E+02  0.94770237866E+02  0.89819594000E+02 0.  0.
         11    1    3    3    0    0 -0.32857495590E+02 -0.13686392462E+02  0.22875516971E+02  0.42311010766E+02  0.51100000000E-03 0. -1.
         22    1    1    0    0    0  0.10654737927E+01  0.24719903433E+02  0.17367488551E+02  0.30229762134E+02  0.00000000000E+00 0.  1.
</event>
<event>
 5    1  0.6650580E-004  0.9118800E+02  0.7818608E-02  0.1130116E+00
         25   -1    0    0    0    0  0.00000000000E+00  0.00000000000E+00  0.99999998245E-14  0.12500000000E+03  0.12500000000E+03 0.  0.
        -11    1    3    3    0    0  0.42549311923E+01  0.19540090166E+02  0.37407251325E+02  0.42417237240E+02  0.51100000000E-03 0.  1.
         23    2    1    0    0    0  0.13311453441E+01 -0.26946357951E+02  0.12028154917E+02  0.95460963702E+02  0.90775772789E+02 0.  0.
         11    1    3    3    0    0 -0.29237858482E+01 -0.46486448117E+02 -0.25379096408E+02  0.53043726462E+02  0.51100000000E-03 0. -1.
         22    1    1    0    0    0 -0.13311453441E+01  0.26946357951E+02 -0.12028154917E+02  0.29539036298E+02  0.00000000000E+00 0. -1.
</event>
<event>
 5    1  0.6650580E-004  0.9118800E+02  0.7818608E-02  0.1130116E+00
         25   -1    0    0    0    0  0.00000000000E+00  0.00000000000E+00  0.99999998245E-14  0.12500000000E+03  0.12500000000E+03 0.  0.
        -11    1    3    3    0    0  0.92471629235E+01 -0.30355027897E+02 -0.30288436001E+02  0.43867152819E+02  0.51100000000E-03 0. -1.
         23    2    1    0    0    0 -0.13872284117E+02  0.14781678364E+02 -0.21703426292E+02  0.95301902507E+02  0.90556477553E+02 0.  0.
         11    1    3    3    0    0 -0.23119447041E+02  0.45136706261E+02  0.85850097087E+01  0.51434749689E+02  0.51100000000E-03 0.  1.
         22    1    1    0    0    0  0.13872284117E+02 -0.14781678364E+02  0.21703426292E+02  0.29698097493E+02  0.00000000000E+00 0. -1.
</event>
<event>
 5    1  0.6650580E-004  0.9118800E+02  0.7818608E-02  0.1130116E+00
         25   -1    0    0    0    0  0.00000000000E+00  0.00000000000E+00  0.99999998245E-14  0.12500000000E+03  0.12500000000E+03 0.  0.
        -11    1    3    3    0    0 -0.15680433469E+02 -0.53700605757E+00  0.29293126167E+02  0.33230281524E+02  0.51100000000E-03 0.  1.
         23    2    1    0    0    0  0.13610974660E+02  0.32633234966E+01 -0.25746664998E+02  0.95694733068E+02  0.91097108994E+02 0.  0.
         11    1    3    3    0    0  0.29291408128E+02  0.38003295542E+01 -0.55039791165E+02  0.62464451544E+02  0.51100000000E-03 0. -1.
         22    1    1    0    0    0 -0.13610974660E+02 -0.32633234966E+01  0.25746664998E+02  0.29305266932E+02  0.00000000000E+00 0. -1.
</event>
<event>
 5    1  0.6650580E-004  0.9118800E+02  0.7818608E-02  0.1130116E+00
         25   -1    0    0    0    0  0.00000000000E+00  0.00000000000E+00  0.99999998245E-14  0.12500000000E+03  0.12500000000E+03 0.  0.
        -11    1    3    3    0    0  0.32071745863E+02 -0.17012541732E+02  0.75645437985E+01  0.37084306411E+02  0.51100000000E-03 0. -1.
         23    2    1    0    0    0  0.22757633472E+01  0.27317112062E+02  0.18922613673E+02  0.91691307164E+02  0.85427318762E+02 0.  0.
         11    1    3    3    0    0 -0.29795982515E+02  0.44329653795E+02  0.11358069875E+02  0.54607000752E+02  0.51100000000E-03 0.  1.
         22    1    1    0    0    0 -0.22757633472E+01 -0.27317112062E+02 -0.18922613673E+02  0.33308692836E+02  0.00000000000E+00 0.  1.
</event>
<event>
 5    1  0.6650580E-004  0.9118800E+02  0.7818608E-02  0.1130116E+00
         25   -1    0    0    0    0  0.00000000000E+00  0.00000000000E+00  0.99999998245E-14  0.12500000000E+03  0.12500000000E+03 0.  0.
        -11    1    3    3    0    0 -0.21180965554E+00 -0.42778489191E+02  0.57621113195E+00  0.42782894016E+02  0.51100000000E-03 0.  1.
         23    2    1    0    0    0  0.12796835747E+02  0.98925957273E+00 -0.26278356214E+02  0.95754664561E+02  0.91179307632E+02 0.  0.
         11    1    3    3    0    0  0.13008645402E+02  0.43767748764E+02 -0.26854567346E+02  0.52971770545E+02  0.51100000000E-03 0. -1.
         22    1    1    0    0    0 -0.12796835747E+02 -0.98925957273E+00  0.26278356214E+02  0.29245335439E+02  0.00000000000E+00 0.  1.
</event>
<event>
 5    1  0.6650580E-004  0.9118800E+02  0.7818608E-02  0.1130116E+00
         25   -1    0    0    0    0  0.00000000000E+00  0.00000000000E+00  0.99999998245E-14  0.12500000000E+03  0.12500000000E+03 0.  0.
        -11    1    3    3    0    0 -0.44724805986E+01 -0.18305266045E+02  0.31199378051E+02  0.36448416135E+02  0.51100000000E-03 0.  1.
         23    2    1    0    0    0  0.30628199604E+02  0.33932431772E+01 -0.77842613674E+01  0.93216428217E+02  0.87630514401E+02 0.  0.
         11    1    3    3    0    0  0.35100680203E+02  0.21698509223E+02 -0.38983639419E+02  0.56768012082E+02  0.51100000000E-03 0. -1.
         22    1    1    0    0    0 -0.30628199604E+02 -0.33932431772E+01  0.77842613674E+01  0.31783571783E+02  0.00000000000E+00 0. -1.
</event>
<event>
 5    1  0.6650580E-004  0.9118800E+02  0.7818608E-02  0.1130116E+00
         25   -1    0    0    0    0  0.00000000000E+00  0.00000000000E+00  0.99999998245E-14  0.12500000000E+03  0.12500000000E+03 0.  0.
        -11    1    3    3    0    0 -0.31509473640E+02 -0.50613578691E+02  0.82211752286E+01  0.60184458122E+02  0.51100000000E-03 0.  1.
         23    2    1    0    0    0 -0.23486393053E+02 -0.15475591572E+02  0.16157758155E+01  0.96827046221E+02  0.92637797659E+02 0.  0.
         11    1    3    3    0    0  0.80230805870E+01  0.35137987119E+02 -0.66053994131E+01  0.36642588099E+02  0.51100000000E-03 0. -1.
         22    1    1    0    0    0  0.23486393053E+02  0.15475591572E+02 -0.16157758155E+01  0.28172953779E+02  0.00000000000E+00 0.  1.
</event>
<event>
 5    1  0.6650580E-004  0.9118800E+02  0.7818608E-02  0.1130116E+00
         25   -1    0    0    0    0  0.00000000000E+00  0.00000000000E+00  0.99999998245E-14  0.12500000000E+03  0.12500000000E+03 0.  0.
        -11    1    3    3    0    0 -0.28594300285E+02 -0.10384850436E+02 -0.28128927926E+02  0.41433268202E+02  0.51100000000E-03 0.  1.
         23    2    1    0    0    0  0.39547299149E+01  0.27574246370E+02 -0.43378720484E+01  0.96807871923E+02  0.92611921375E+02 0.  0.
         11    1    3    3    0    0  0.32549030200E+02  0.37959096806E+02  0.23791055878E+02  0.55374603722E+02  0.51100000000E-03 0. -1.
         22    1    1    0    0    0 -0.39547299149E+01 -0.27574246370E+02  0.43378720484E+01  0.28192128077E+02  0.00000000000E+00 0. -1.
</event>
<event>
 5    1  0.6650580E-004  0.9118800E+02  0.7818608E-02  0.1130116E+00
         25   -1    0    0    0    0  0.00000000000E+00  0.00000000000E+00  0.99999998245E-14  0.12500000000E+03  0.12500000000E+03 0.  0.
        -11    1    3    3    0    0  0.17901973907E+02 -0.22678463531E+02  0.23392688833E+02  0.37175412156E+02  0.51100000000E-03 0.  1.
         23    2    1    0    0    0 -0.23978216414E+02  0.15012663641E+02  0.86837152638E+01  0.95407064310E+02  0.90701521913E+02 0.  0.
         11    1    3    3    0    0 -0.41880190321E+02  0.37691127172E+02 -0.14708973569E+02  0.58231652153E+02  0.51100000000E-03 0. -1.
         22    1    1    0    0    0  0.23978216414E+02 -0.15012663641E+02 -0.86837152638E+01  0.29592935690E+02  0.00000000000E+00 0. -1.
</event>
<event>
 5    1  0.6650580E-004  0.9118800E+02  0.7818608E-02  0.1130116E+00
         25   -1    0    0    0    0  0.00000000000E+00  0.00000000000E+00  0.99999998245E-14  0.12500000000E+03  0.12500000000E+03 0.  0.
        -11    1    3    3    0    0  0.14537756637E+01 -0.29019367780E+02 -0.25951704701E+02  0.38958030586E+02  0.51100000000E-03 0. -1.
         23    2    1    0    0    0 -0.25423800561E+02 -0.13256426770E+01  0.15179727722E+02  0.95359637364E+02  0.90636137059E+02 0.  0.
         11    1    3    3    0    0 -0.26877576225E+02  0.27693725103E+02  0.41131432422E+02  0.56401606778E+02  0.51100000000E-03 0.  1.
         22    1    1    0    0    0  0.25423800561E+02  0.13256426770E+01 -0.15179727722E+02  0.29640362636E+02  0.00000000000E+00 0.  1.
</event>
<event>
 5    1  0.6650580E-004  0.9118800E+02  0.7818608E-02  0.1130116E+00
         25   -1    0    0    0    0  0.00000000000E+00  0.00000000000E+00  0.99999998245E-14  0.12500000000E+03  0.12500000000E+03 0.  0.
        -11    1    3    3    0    0  0.30763517398E+00 -0.59398183752E+02 -0.16075883342E+02  0.61535948014E+02  0.51100000000E-03 0.  1.
         23    2    1    0    0    0 -0.47566630549E+01 -0.26881356261E+02 -0.13499876423E+02  0.94545446624E+02  0.89506210154E+02 0.  0.
         11    1    3    3    0    0 -0.50642982289E+01  0.32516827491E+02  0.25760069183E+01  0.33009498611E+02  0.51100000000E-03 0. -1.
         22    1    1    0    0    0  0.47566630549E+01  0.26881356261E+02  0.13499876423E+02  0.30454553376E+02  0.00000000000E+00 0.  1.
</event>
<event>
 5    1  0.6650580E-004  0.9118800E+02  0.7818608E-02  0.1130116E+00
         25   -1    0    0    0    0  0.00000000000E+00  0.00000000000E+00  0.99999998245E-14  0.12500000000E+03  0.12500000000E+03 0.  0.
        -11    1    3    3    0    0  0.94937655709E+01 -0.39954018455E+02 -0.41020538530E+02  0.58044291338E+02  0.51100000000E-03 0. -1.
         23    2    1    0    0    0  0.84584069544E+01 -0.40249793876E+02 -0.19692093017E+02  0.79399900409E+02  0.64999808479E+02 0.  0.
         11    1    3    3    0    0 -0.10353586165E+01 -0.29577542178E+00  0.21328445513E+02  0.21355609072E+02  0.51100000000E-03 0.  1.
         22    1    1    0    0    0 -0.84584069544E+01  0.40249793876E+02  0.19692093017E+02  0.45600099591E+02  0.00000000000E+00 0. -1.
</event>
<event>
 5    1  0.6650580E-004  0.9118800E+02  0.7818608E-02  0.1130116E+00
         25   -1    0    0    0    0  0.00000000000E+00  0.00000000000E+00  0.99999998245E-14  0.12500000000E+03  0.12500000000E+03 0.  0.
        -11    1    3    3    0    0  0.44727817328E+02  0.94929799297E+01  0.33292433836E+02  0.56560414265E+02  0.51100000000E-03 0. -1.
         23    2    1    0    0    0  0.30578488613E+02 -0.10864848639E+02  0.88768563145E+01  0.91356464517E+02  0.84935953101E+02 0.  0.
         11    1    3    3    0    0 -0.14149328715E+02 -0.20357828568E+02 -0.24415577522E+02  0.34796050251E+02  0.51100000000E-03 0.  1.
         22    1    1    0    0    0 -0.30578488613E+02  0.10864848639E+02 -0.88768563145E+01  0.33643535483E+02  0.00000000000E+00 0. -1.
</event>
<event>
 5    1  0.6650580E-004  0.9118800E+02  0.7818608E-02  0.1130116E+00
         25   -1    0    0    0    0  0.00000000000E+00  0.00000000000E+00  0.99999998245E-14  0.12500000000E+03  0.12500000000E+03 0.  0.
        -11    1    3    3    0    0  0.20194767713E+02  0.34694416233E+02 -0.32389401719E+02  0.51581047921E+02  0.51100000000E-03 0. -1.
         23    2    1    0    0    0  0.21131816919E+02 -0.74205273749E+01 -0.18541488169E+02  0.95924156137E+02  0.91411372565E+02 0.  0.
         11    1    3    3    0    0  0.93704920664E+00 -0.42114943607E+02  0.13847913550E+02  0.44343108216E+02  0.51100000000E-03 0.  1.
         22    1    1    0    0    0 -0.21131816919E+02  0.74205273749E+01  0.18541488169E+02  0.29075843863E+02  0.00000000000E+00 0. -1.
</event>
<event>
 5    1  0.6650580E-004  0.9118800E+02  0.7818608E-02  0.1130116E+00
         25   -1    0    0    0    0  0.00000000000E+00  0.00000000000E+00  0.99999998245E-14  0.12500000000E+03  0.12500000000E+03 0.  0.
        -11    1    3    3    0    0 -0.11910940743E+02  0.32930295245E+02  0.11948022443E+02  0.37000406685E+02  0.51100000000E-03 0.  1.
         23    2    1    0    0    0  0.33964638029E+02  0.16267684935E+02  0.10802858281E+02  0.85821741276E+02  0.76357287269E+02 0.  0.
         11    1    3    3    0    0  0.45875578772E+02 -0.16662610310E+02 -0.11451641613E+01  0.48821334591E+02  0.51100000000E-03 0. -1.
         22    1    1    0    0    0 -0.33964638029E+02 -0.16267684935E+02 -0.10802858281E+02  0.39178258724E+02  0.00000000000E+00 0.  1.
</event>
<event>
 5    1  0.6650580E-004  0.9118800E+02  0.7818608E-02  0.1130116E+00
         25   -1    0    0    0    0  0.00000000000E+00  0.00000000000E+00  0.99999998245E-14  0.12500000000E+03  0.12500000000E+03 0.  0.
        -11    1    3    3    0    0 -0.38861339325E+02  0.30641766605E+02 -0.14645520947E+02  0.51610200919E+02  0.51100000000E-03 0.  1.
         23    2    1    0    0    0 -0.12613681762E+02 -0.44748876751E+01 -0.24986041642E+02  0.96655126315E+02  0.92405527858E+02 0.  0.
         11    1    3    3    0    0  0.26247657564E+02 -0.35116654281E+02 -0.10340520695E+02  0.45044925396E+02  0.51100000000E-03 0. -1.
         22    1    1    0    0    0  0.12613681762E+02  0.44748876751E+01  0.24986041642E+02  0.28344873685E+02  0.00000000000E+00 0.  1.
</event>
<event>
 5    1  0.6650580E-004  0.9118800E+02  0.7818608E-02  0.1130116E+00
         25   -1    0    0    0    0  0.00000000000E+00  0.00000000000E+00  0.99999998245E-14  0.12500000000E+03  0.12500000000E+03 0.  0.
        -11    1    3    3    0    0 -0.33139887327E+02  0.38252378915E+02  0.32650701428E+02  0.60229269701E+02  0.51100000000E-03 0.  1.
         23    2    1    0    0    0 -0.24384221812E+02  0.11193000433E+02  0.10873404926E+02  0.96049966032E+02  0.91583249058E+02 0.  0.
         11    1    3    3    0    0  0.87556655149E+01 -0.27059378482E+02 -0.21777296502E+02  0.35820696331E+02  0.51100000000E-03 0. -1.
         22    1    1    0    0    0  0.24384221812E+02 -0.11193000433E+02 -0.10873404926E+02  0.28950033968E+02  0.00000000000E+00 0.  1.
</event>
<event>
 5    1  0.6650580E-004  0.9118800E+02  0.7818608E-02  0.1130116E+00
         25   -1    0    0    0    0  0.00000000000E+00  0.00000000000E+00  0.99999998245E-14  0.12500000000E+03  0.12500000000E+03 0.  0.
        -11    1    3    3    0    0 -0.35407460079E+01  0.17821707452E+02 -0.34581393612E+02  0.39064343374E+02  0.51100000000E-03 0.  1.
         23    2    1    0    0    0 -0.25467872891E+02 -0.49663509749E+01  0.12829011556E+02  0.96054175964E+02  0.91588994924E+02 0.  0.
         11    1    3    3    0    0 -0.21927126883E+02 -0.22788058427E+02  0.47410405168E+02  0.56989832591E+02  0.51100000000E-03 0. -1.
         22    1    1    0    0    0  0.25467872891E+02  0.49663509749E+01 -0.12829011556E+02  0.28945824036E+02  0.00000000000E+00 0. -1.
</event>
<event>
 5    1  0.6650580E-004  0.9118800E+02  0.7818608E-02  0.1130116E+00
         25   -1    0    0    0    0  0.00000000000E+00  0.00000000000E+00  0.99999998245E-14  0.12500000000E+03  0.12500000000E+03 0.  0.
        -11    1    3    3    0    0  0.15466533408E+02  0.25316432846E+02  0.16998143121E+02  0.34191699249E+02  0.51100000000E-03 0.  1.
         23    2    1    0    0    0  0.38451681050E+01 -0.28722541576E+02 -0.81191179937E+01  0.94905319584E+02  0.90007388009E+02 0.  0.
         11    1    3    3    0    0 -0.11621365303E+02 -0.54038974422E+02 -0.25117261115E+02  0.60713620335E+02  0.51100000000E-03 0. -1.
         22    1    1    0    0    0 -0.38451681050E+01  0.28722541576E+02  0.81191179937E+01  0.30094680416E+02  0.00000000000E+00 0. -1.
</event>
<event>
 5    1  0.6650580E-004  0.9118800E+02  0.7818608E-02  0.1130116E+00
         25   -1    0    0    0    0  0.00000000000E+00  0.00000000000E+00  0.99999998245E-14  0.12500000000E+03  0.12500000000E+03 0.  0.
        -11    1    3    3    0    0 -0.15231287069E+02  0.42279830634E+02  0.24308333594E+02  0.51092771178E+02  0.51100000000E-03 0.  1.
         23    2    1    0    0    0 -0.76150584023E+01 -0.13798676553E+01  0.28366060318E+02  0.95597168042E+02  0.90963135448E+02 0.  0.
         11    1    3    3    0    0  0.76162286671E+01 -0.43659698289E+02  0.40577267233E+01  0.44504396864E+02  0.51100000000E-03 0. -1.
         22    1    1    0    0    0  0.76150584023E+01  0.13798676553E+01 -0.28366060318E+02  0.29402831958E+02  0.00000000000E+00 0.  1.
</event>
<event>
 5    1  0.6650580E-004  0.9118800E+02  0.7818608E-02  0.1130116E+00
         25   -1    0    0    0    0  0.00000000000E+00  0.00000000000E+00  0.99999998245E-14  0.12500000000E+03  0.12500000000E+03 0.  0.
        -11    1    3    3    0    0  0.24216632516E+02 -0.92677144828E+01 -0.22679346098E+02  0.34448346286E+02  0.51100000000E-03 0.  1.
         23    2    1    0    0    0 -0.17825341133E+02  0.26564138026E+02 -0.12691039066E+02  0.90584034401E+02  0.83791458993E+02 0.  0.
         11    1    3    3    0    0 -0.42041973649E+02  0.35831852509E+02  0.99883070317E+01  0.56135688115E+02  0.51100000000E-03 0. -1.
         22    1    1    0    0    0  0.17825341133E+02 -0.26564138026E+02  0.12691039066E+02  0.34415965599E+02  0.00000000000E+00 0. -1.
</event>
<event>
 5    1  0.6650580E-004  0.9118800E+02  0.7818608E-02  0.1130116E+00
         25   -1    0    0    0    0  0.00000000000E+00  0.00000000000E+00  0.99999998245E-14  0.12500000000E+03  0.12500000000E+03 0.  0.
        -11    1    3    3    0    0 -0.41195903892E+01 -0.58938095256E+01  0.38115528127E+02  0.38787904047E+02  0.51100000000E-03 0. -1.
         23    2    1    0    0    0 -0.56803290379E+01  0.19505794926E+02 -0.16361032720E+02  0.98915031813E+02  0.95413615135E+02 0.  0.
         11    1    3    3    0    0 -0.15607386487E+01  0.25399604451E+02 -0.54476560847E+02  0.60127127766E+02  0.51100000000E-03 0.  1.
         22    1    1    0    0    0  0.56803290379E+01 -0.19505794926E+02  0.16361032720E+02  0.26084968187E+02  0.00000000000E+00 0.  1.
</event>
<event>
 5    1  0.6650580E-004  0.9118800E+02  0.7818608E-02  0.1130116E+00
         25   -1    0    0    0    0  0.00000000000E+00  0.00000000000E+00  0.99999998245E-14  0.12500000000E+03  0.12500000000E+03 0.  0.
        -11    1    3    3    0    0 -0.37478058366E+02 -0.14703919972E+02 -0.12083429939E+02  0.42033550894E+02  0.51100000000E-03 0.  1.
         23    2    1    0    0    0 -0.56487393958E+01  0.82821886521E+01  0.26247185629E+02  0.96903422645E+02  0.92740798256E+02 0.  0.
         11    1    3    3    0    0  0.31829318970E+02  0.22986108624E+02  0.38330615568E+02  0.54869871750E+02  0.51100000000E-03 0. -1.
         22    1    1    0    0    0  0.56487393958E+01 -0.82821886521E+01 -0.26247185629E+02  0.28096577355E+02  0.00000000000E+00 0.  1.
</event>
<event>
 5    1  0.6650580E-004  0.9118800E+02  0.7818608E-02  0.1130116E+00
         25   -1    0    0    0    0  0.00000000000E+00  0.00000000000E+00  0.99999998245E-14  0.12500000000E+03  0.12500000000E+03 0.  0.
        -11    1    3    3    0    0  0.19495208671E+02 -0.39074739261E+02 -0.35351901658E+02  0.56184120182E+02  0.51100000000E-03 0. -1.
         23    2    1    0    0    0 -0.11761525557E+02 -0.11447793175E+02 -0.15661293686E+02  0.10231384625E+03  0.99767036454E+02 0.  0.
         11    1    3    3    0    0 -0.31256734228E+02  0.27626946086E+02  0.19690607972E+02  0.46129726069E+02  0.51100000000E-03 0.  1.
         22    1    1    0    0    0  0.11761525557E+02  0.11447793175E+02  0.15661293686E+02  0.22686153749E+02  0.00000000000E+00 0.  1.
</event>
<event>
 5    1  0.6650580E-004  0.9118800E+02  0.7818608E-02  0.1130116E+00
         25   -1    0    0    0    0  0.00000000000E+00  0.00000000000E+00  0.99999998245E-14  0.12500000000E+03  0.12500000000E+03 0.  0.
        -11    1    3    3    0    0 -0.29018402225E+02  0.24903021571E+02  0.42840972081E+01  0.38478326890E+02  0.51100000000E-03 0. -1.
         23    2    1    0    0    0 -0.14090328471E+01 -0.79447242798E+01 -0.30333837605E+02  0.93611375925E+02  0.88192085706E+02 0.  0.
         11    1    3    3    0    0  0.27609369378E+02 -0.32847745851E+02 -0.34617934814E+02  0.55133049035E+02  0.51100000000E-03 0.  1.
         22    1    1    0    0    0  0.14090328471E+01  0.79447242798E+01  0.30333837605E+02  0.31388624075E+02  0.00000000000E+00 0.  1.
</event>
<event>
 5    1  0.6650580E-004  0.9118800E+02  0.7818608E-02  0.1130116E+00
         25   -1    0    0    0    0  0.00000000000E+00  0.00000000000E+00  0.99999998245E-14  0.12500000000E+03  0.12500000000E+03 0.  0.
        -11    1    3    3    0    0 -0.55671405476E+02  0.84455877274E+01  0.26010208733E+02  0.62025513286E+02  0.51100000000E-03 0. -1.
         23    2    1    0    0    0 -0.29695372093E+02 -0.30449528427E+00  0.10616956537E+02  0.93462282783E+02  0.87980513159E+02 0.  0.
         11    1    3    3    0    0  0.25976033383E+02 -0.87500830117E+01 -0.15393252196E+02  0.31436769498E+02  0.51100000000E-03 0.  1.
         22    1    1    0    0    0  0.29695372093E+02  0.30449528427E+00 -0.10616956537E+02  0.31537717217E+02  0.00000000000E+00 0. -1.
</event>
<event>
 5    1  0.6650580E-004  0.9118800E+02  0.7818608E-02  0.1130116E+00
         25   -1    0    0    0    0  0.00000000000E+00  0.00000000000E+00  0.99999998245E-14  0.12500000000E+03  0.12500000000E+03 0.  0.
        -11    1    3    3    0    0  0.14717184899E+02  0.39377203497E+02 -0.83726213635E+01  0.42863276536E+02  0.51100000000E-03 0.  1.
         23    2    1    0    0    0 -0.88329101381E+01  0.28082222432E+01  0.25419614955E+02  0.97943332834E+02  0.94131998856E+02 0.  0.
         11    1    3    3    0    0 -0.23550095037E+02 -0.36568981254E+02  0.33792236318E+02  0.55080056299E+02  0.51100000000E-03 0. -1.
         22    1    1    0    0    0  0.88329101381E+01 -0.28082222432E+01 -0.25419614955E+02  0.27056667166E+02  0.00000000000E+00 0. -1.
</event>
<event>
 5    1  0.6650580E-004  0.9118800E+02  0.7818608E-02  0.1130116E+00
         25   -1    0    0    0    0  0.00000000000E+00  0.00000000000E+00  0.99999998245E-14  0.12500000000E+03  0.12500000000E+03 0.  0.
        -11    1    3    3    0    0  0.15066775610E+02  0.48207667037E+02  0.17145632212E+02  0.53338162629E+02  0.51100000000E-03 0. -1.
         23    2    1    0    0    0 -0.10104867355E+02  0.25978879113E+02 -0.87931642419E+01  0.95771071836E+02  0.91201798003E+02 0.  0.
         11    1    3    3    0    0 -0.25171642965E+02 -0.22228787924E+02 -0.25938796454E+02  0.42432909208E+02  0.51100000000E-03 0.  1.
         22    1    1    0    0    0  0.10104867355E+02 -0.25978879113E+02  0.87931642419E+01  0.29228928164E+02  0.00000000000E+00 0.  1.
</event>
<event>
 5    1  0.6650580E-004  0.9118800E+02  0.7818608E-02  0.1130116E+00
         25   -1    0    0    0    0  0.00000000000E+00  0.00000000000E+00  0.99999998245E-14  0.12500000000E+03  0.12500000000E+03 0.  0.
        -11    1    3    3    0    0  0.43560913586E+02  0.99161021940E+01  0.11404867578E+02  0.46108060900E+02  0.51100000000E-03 0. -1.
         23    2    1    0    0    0 -0.31143721133E+01  0.27396869850E+02  0.89526603736E+01  0.96009692671E+02  0.91528264311E+02 0.  0.
         11    1    3    3    0    0 -0.46675285700E+02  0.17480767656E+02 -0.24522072042E+01  0.49901631771E+02  0.51100000000E-03 0.  1.
         22    1    1    0    0    0  0.31143721133E+01 -0.27396869850E+02 -0.89526603736E+01  0.28990307329E+02  0.00000000000E+00 0. -1.
</event>
<event>
 5    1  0.6650580E-004  0.9118800E+02  0.7818608E-02  0.1130116E+00
         25   -1    0    0    0    0  0.00000000000E+00  0.00000000000E+00  0.99999998245E-14  0.12500000000E+03  0.12500000000E+03 0.  0.
        -11    1    3    3    0    0  0.16722014128E+02  0.78545764634E+01 -0.31449079148E+02  0.36474164932E+02  0.51100000000E-03 0.  1.
         23    2    1    0    0    0 -0.58611348268E+01 -0.18356382053E+02  0.19190783293E+02  0.97804488846E+02  0.93947443879E+02 0.  0.
         11    1    3    3    0    0 -0.22583148955E+02 -0.26210958517E+02  0.50639862441E+02  0.61330323914E+02  0.51100000000E-03 0. -1.
         22    1    1    0    0    0  0.58611348268E+01  0.18356382053E+02 -0.19190783293E+02  0.27195511154E+02  0.00000000000E+00 0. -1.
</event>
<event>
 5    1  0.6650580E-004  0.9118800E+02  0.7818608E-02  0.1130116E+00
         25   -1    0    0    0    0  0.00000000000E+00  0.00000000000E+00  0.99999998245E-14  0.12500000000E+03  0.12500000000E+03 0.  0.
        -11    1    3    3    0    0  0.30179178518E+02  0.18013446019E+02  0.29165010752E+00  0.35147576212E+02  0.51100000000E-03 0.  1.
         23    2    1    0    0    0 -0.40604033719E+01 -0.30113524829E+02  0.41221119515E+01  0.94335638599E+02  0.89212721345E+02 0.  0.
         11    1    3    3    0    0 -0.34239581890E+02 -0.48126970848E+02  0.38304618440E+01  0.59188062388E+02  0.51100000000E-03 0. -1.
         22    1    1    0    0    0  0.40604033719E+01  0.30113524829E+02 -0.41221119515E+01  0.30664361401E+02  0.00000000000E+00 0. -1.
</event>
<event>
 5    1  0.6650580E-004  0.9118800E+02  0.7818608E-02  0.1130116E+00
         25   -1    0    0    0    0  0.00000000000E+00  0.00000000000E+00  0.99999998245E-14  0.12500000000E+03  0.12500000000E+03 0.  0.
        -11    1    3    3    0    0  0.96977924622E+01  0.28715449020E+02 -0.13817498371E+02  0.33309870197E+02  0.51100000000E-03 0. -1.
         23    2    1    0    0    0 -0.16547286118E+02 -0.16645931432E+02  0.18704320110E+02  0.94987480914E+02  0.90121419366E+02 0.  0.
         11    1    3    3    0    0 -0.26245078580E+02 -0.45361380452E+02  0.32521818481E+02  0.61677610717E+02  0.51100000000E-03 0.  1.
         22    1    1    0    0    0  0.16547286118E+02  0.16645931432E+02 -0.18704320110E+02  0.30012519086E+02  0.00000000000E+00 0.  1.
</event>
<event>
 5    1  0.6650580E-004  0.9118800E+02  0.7818608E-02  0.1130116E+00
         25   -1    0    0    0    0  0.00000000000E+00  0.00000000000E+00  0.99999998245E-14  0.12500000000E+03  0.12500000000E+03 0.  0.
        -11    1    3    3    0    0 -0.70985868514E+00  0.40755089116E+01 -0.45227878200E+02  0.45416677983E+02  0.51100000000E-03 0. -1.
         23    2    1    0    0    0  0.22114649286E+02 -0.14913012920E+02 -0.14830642680E+01  0.98285675247E+02  0.94585510580E+02 0.  0.
         11    1    3    3    0    0  0.22824507971E+02 -0.18988521832E+02  0.43744813932E+02  0.52868997264E+02  0.51100000000E-03 0.  1.
         22    1    1    0    0    0 -0.22114649286E+02  0.14913012920E+02  0.14830642680E+01  0.26714324753E+02  0.00000000000E+00 0.  1.
</event>
<event>
 5    1  0.6650580E-004  0.9118800E+02  0.7818608E-02  0.1130116E+00
         25   -1    0    0    0    0  0.00000000000E+00  0.00000000000E+00  0.99999998245E-14  0.12500000000E+03  0.12500000000E+03 0.  0.
        -11    1    3    3    0    0  0.40472516608E+02 -0.15419552357E+02 -0.18328372823E+02  0.47028889483E+02  0.51100000000E-03 0.  1.
         23    2    1    0    0    0 -0.38655260797E+01 -0.71126138184E+01 -0.30248706655E+02  0.93686810742E+02  0.88298939322E+02 0.  0.
         11    1    3    3    0    0 -0.44338042687E+02  0.83069385382E+01 -0.11920333832E+02  0.46657921258E+02  0.51100000000E-03 0. -1.
         22    1    1    0    0    0  0.38655260797E+01  0.71126138184E+01  0.30248706655E+02  0.31313189258E+02  0.00000000000E+00 0. -1.
</event>
<event>
 5    1  0.6650580E-004  0.9118800E+02  0.7818608E-02  0.1130116E+00
         25   -1    0    0    0    0  0.00000000000E+00  0.00000000000E+00  0.99999998245E-14  0.12500000000E+03  0.12500000000E+03 0.  0.
        -11    1    3    3    0    0  0.25986697203E+02  0.26990100582E+02 -0.18637996536E+02  0.41846730769E+02  0.51100000000E-03 0. -1.
         23    2    1    0    0    0  0.59287184791E+01  0.10085017765E+02  0.27608743214E+02  0.95015003952E+02  0.90159586224E+02 0.  0.
         11    1    3    3    0    0 -0.20057978724E+02 -0.16905082817E+02  0.46246739750E+02  0.53168273183E+02  0.51100000000E-03 0.  1.
         22    1    1    0    0    0 -0.59287184791E+01 -0.10085017765E+02 -0.27608743214E+02  0.29984996048E+02  0.00000000000E+00 0.  1.
</event>
<event>
 5    1  0.6650580E-004  0.9118800E+02  0.7818608E-02  0.1130116E+00
         25   -1    0    0    0    0  0.00000000000E+00  0.00000000000E+00  0.99999998245E-14  0.12500000000E+03  0.12500000000E+03 0.  0.
        -11    1    3    3    0    0  0.32795150970E+02 -0.11375229909E+02 -0.12771425778E+02  0.36986850357E+02  0.51100000000E-03 0.  1.
         23    2    1    0    0    0 -0.21023266565E+02  0.10575224038E+02 -0.18039934493E+02  0.95347810586E+02  0.90619824798E+02 0.  0.
         11    1    3    3    0    0 -0.53818417535E+02  0.21950453947E+02 -0.52685087148E+01  0.58360960229E+02  0.51100000000E-03 0. -1.
         22    1    1    0    0    0  0.21023266565E+02 -0.10575224038E+02  0.18039934493E+02  0.29652189414E+02  0.00000000000E+00 0. -1.
</event>
<event>
 5    1  0.6650580E-004  0.9118800E+02  0.7818608E-02  0.1130116E+00
         25   -1    0    0    0    0  0.00000000000E+00  0.00000000000E+00  0.99999998245E-14  0.12500000000E+03  0.12500000000E+03 0.  0.
        -11    1    3    3    0    0 -0.57309717856E+02  0.15699411817E+01 -0.10823282978E+02  0.58343910828E+02  0.51100000000E-03 0. -1.
         23    2    1    0    0    0 -0.21586119344E+02  0.14373080262E+02 -0.12248993056E+02  0.96319277982E+02  0.91950092418E+02 0.  0.
         11    1    3    3    0    0  0.35723598512E+02  0.12803139081E+02 -0.14257100781E+01  0.37975367154E+02  0.51100000000E-03 0.  1.
         22    1    1    0    0    0  0.21586119344E+02 -0.14373080262E+02  0.12248993056E+02  0.28680722018E+02  0.00000000000E+00 0. -1.
</event>
<event>
 5    1  0.6650580E-004  0.9118800E+02  0.7818608E-02  0.1130116E+00
         25   -1    0    0    0    0  0.00000000000E+00  0.00000000000E+00  0.99999998245E-14  0.12500000000E+03  0.12500000000E+03 0.  0.
        -11    1    3    3    0    0 -0.47946886715E+02  0.20623091333E+02 -0.78945161514E+01  0.52787680640E+02  0.51100000000E-03 0.  1.
         23    2    1    0    0    0 -0.10272756622E+02  0.17159742463E+02 -0.23873166959E+02  0.93856551401E+02  0.88538905856E+02 0.  0.
         11    1    3    3    0    0  0.37674130093E+02 -0.34633488706E+01 -0.15978650808E+02  0.41068870761E+02  0.51100000000E-03 0. -1.
         22    1    1    0    0    0  0.10272756622E+02 -0.17159742463E+02  0.23873166959E+02  0.31143448599E+02  0.00000000000E+00 0.  1.
</event>
<event>
 5    1  0.6650580E-004  0.9118800E+02  0.7818608E-02  0.1130116E+00
         25   -1    0    0    0    0  0.00000000000E+00  0.00000000000E+00  0.99999998245E-14  0.12500000000E+03  0.12500000000E+03 0.  0.
        -11    1    3    3    0    0 -0.28544557536E+02  0.42335740885E+02 -0.12427819558E+02  0.52550522552E+02  0.51100000000E-03 0. -1.
         23    2    1    0    0    0 -0.26832855718E+02 -0.16461687099E+01 -0.67325405715E+00  0.98108267284E+02  0.94350764815E+02 0.  0.
         11    1    3    3    0    0  0.17117018180E+01 -0.43981909595E+02  0.11754565501E+02  0.45557744733E+02  0.51100000000E-03 0.  1.
         22    1    1    0    0    0  0.26832855718E+02  0.16461687099E+01  0.67325405715E+00  0.26891732716E+02  0.00000000000E+00 0. -1.
</event>
<event>
 5    1  0.6650580E-004  0.9118800E+02  0.7818608E-02  0.1130116E+00
         25   -1    0    0    0    0  0.00000000000E+00  0.00000000000E+00  0.99999998245E-14  0.12500000000E+03  0.12500000000E+03 0.  0.
        -11    1    3    3    0    0 -0.34179598022E+00  0.52246930760E+02 -0.19421118031E+02  0.55740814706E+02  0.51100000000E-03 0.  1.
         23    2    1    0    0    0  0.37539725762E+01  0.12886196752E+02 -0.25888488250E+02  0.95839063789E+02  0.91294939330E+02 0.  0.
         11    1    3    3    0    0  0.40957685564E+01 -0.39360734008E+02 -0.64673702188E+01  0.40098249083E+02  0.51100000000E-03 0. -1.
         22    1    1    0    0    0 -0.37539725762E+01 -0.12886196752E+02  0.25888488250E+02  0.29160936211E+02  0.00000000000E+00 0.  1.
</event>
<event>
 5    1  0.6650580E-004  0.9118800E+02  0.7818608E-02  0.1130116E+00
         25   -1    0    0    0    0  0.00000000000E+00  0.00000000000E+00  0.99999998245E-14  0.12500000000E+03  0.12500000000E+03 0.  0.
        -11    1    3    3    0    0  0.19114283235E+00 -0.32895329011E+02  0.77097381866E+01  0.33787264901E+02  0.51100000000E-03 0. -1.
         23    2    1    0    0    0 -0.19472025078E+02  0.13418783631E+02  0.28271741793E+02  0.88141962901E+02  0.80065540186E+02 0.  0.
         11    1    3    3    0    0 -0.19663167910E+02  0.46314112642E+02  0.20562003607E+02  0.54354698000E+02  0.51100000000E-03 0.  1.
         22    1    1    0    0    0  0.19472025078E+02 -0.13418783631E+02 -0.28271741793E+02  0.36858037099E+02  0.00000000000E+00 0.  1.
</event>
<event>
 5    1  0.6650580E-004  0.9118800E+02  0.7818608E-02  0.1130116E+00
         25   -1    0    0    0    0  0.00000000000E+00  0.00000000000E+00  0.99999998245E-14  0.12500000000E+03  0.12500000000E+03 0.  0.
        -11    1    3    3    0    0 -0.14604128977E+02  0.42076225238E+02  0.10091632136E+02  0.45667607261E+02  0.51100000000E-03 0.  1.
         23    2    1    0    0    0  0.11955731411E+02  0.40126500553E+01  0.27107597087E+02  0.95102463415E+02  0.90280761260E+02 0.  0.
         11    1    3    3    0    0  0.26559860388E+02 -0.38063575183E+02  0.17015964951E+02  0.49434856154E+02  0.51100000000E-03 0. -1.
         22    1    1    0    0    0 -0.11955731411E+02 -0.40126500553E+01 -0.27107597087E+02  0.29897536585E+02  0.00000000000E+00 0. -1.
</event>
<event>
 5    1  0.6650580E-004  0.9118800E+02  0.7818608E-02  0.1130116E+00
         25   -1    0    0    0    0  0.00000000000E+00  0.00000000000E+00  0.99999998245E-14  0.12500000000E+03  0.12500000000E+03 0.  0.
        -11    1    3    3    0    0  0.19408403775E+02  0.42589244381E+02  0.90806906770E+01  0.47675872488E+02  0.51100000000E-03 0.  1.
         23    2    1    0    0    0 -0.29021651255E+01  0.53013513495E+01  0.28928411761E+02  0.95446998535E+02  0.90756540447E+02 0.  0.
         11    1    3    3    0    0 -0.22310568901E+02 -0.37287893031E+02  0.19847721084E+02  0.47771126048E+02  0.51100000000E-03 0. -1.
         22    1    1    0    0    0  0.29021651255E+01 -0.53013513495E+01 -0.28928411761E+02  0.29553001465E+02  0.00000000000E+00 0. -1.
</event>
<event>
 5    1  0.6650580E-004  0.9118800E+02  0.7818608E-02  0.1130116E+00
         25   -1    0    0    0    0  0.00000000000E+00  0.00000000000E+00  0.99999998245E-14  0.12500000000E+03  0.12500000000E+03 0.  0.
        -11    1    3    3    0    0  0.43526070857E+02 -0.18752751623E+01  0.46815723627E+01  0.43817263964E+02  0.51100000000E-03 0. -1.
         23    2    1    0    0    0 -0.34447658187E+01 -0.12405391004E+02  0.25632563859E+02  0.96315710442E+02  0.91945242457E+02 0.  0.
         11    1    3    3    0    0 -0.46970836676E+02 -0.10530115842E+02  0.20950991496E+02  0.52498446478E+02  0.51100000000E-03 0.  1.
         22    1    1    0    0    0  0.34447658187E+01  0.12405391004E+02 -0.25632563859E+02  0.28684289558E+02  0.00000000000E+00 0.  1.
</event>
<event>
 5    1  0.6650580E-004  0.9118800E+02  0.7818608E-02  0.1130116E+00
         25   -1    0    0    0    0  0.00000000000E+00  0.00000000000E+00  0.99999998245E-14  0.12500000000E+03  0.12500000000E+03 0.  0.
        -11    1    3    3    0    0 -0.56620349667E+01 -0.51629007139E+02  0.12293782016E+02  0.53373683540E+02  0.51100000000E-03 0.  1.
         23    2    1    0    0    0  0.41372394443E+01 -0.93822651130E+01  0.24511490229E+02  0.98430152388E+02  0.94776252811E+02 0.  0.
         11    1    3    3    0    0  0.97992744110E+01  0.42246742026E+02  0.12217708213E+02  0.45056468848E+02  0.51100000000E-03 0. -1.
         22    1    1    0    0    0 -0.41372394443E+01  0.93822651130E+01 -0.24511490229E+02  0.26569847612E+02  0.00000000000E+00 0.  1.
</event>
<event>
 5    1  0.6650580E-004  0.9118800E+02  0.7818608E-02  0.1130116E+00
         25   -1    0    0    0    0  0.00000000000E+00  0.00000000000E+00  0.99999998245E-14  0.12500000000E+03  0.12500000000E+03 0.  0.
        -11    1    3    3    0    0  0.34067133701E+02  0.16553234013E+02  0.13142913246E+02  0.40091337266E+02  0.51100000000E-03 0.  1.
         23    2    1    0    0    0 -0.17618265391E+02  0.22308899676E+02  0.16370506181E+02  0.92196284467E+02  0.86163049602E+02 0.  0.
         11    1    3    3    0    0 -0.51685399092E+02  0.57556656623E+01  0.32275929354E+01  0.52104947202E+02  0.51100000000E-03 0. -1.
         22    1    1    0    0    0  0.17618265391E+02 -0.22308899676E+02 -0.16370506181E+02  0.32803715533E+02  0.00000000000E+00 0. -1.
</event>
<event>
 5    1  0.6650580E-004  0.9118800E+02  0.7818608E-02  0.1130116E+00
         25   -1    0    0    0    0  0.00000000000E+00  0.00000000000E+00  0.99999998245E-14  0.12500000000E+03  0.12500000000E+03 0.  0.
        -11    1    3    3    0    0 -0.27542206916E+02  0.16304627589E+02  0.80569927206E+01  0.33004987117E+02  0.51100000000E-03 0. -1.
         23    2    1    0    0    0  0.30059223930E+02  0.13905532147E+00 -0.57283624923E+01  0.94399503003E+02  0.89302159832E+02 0.  0.
         11    1    3    3    0    0  0.57601430846E+02 -0.16165572267E+02 -0.13785355213E+02  0.61394515886E+02  0.51100000000E-03 0.  1.
         22    1    1    0    0    0 -0.30059223930E+02 -0.13905532147E+00  0.57283624923E+01  0.30600496997E+02  0.00000000000E+00 0.  1.
</event>
<event>
 5    1  0.6650580E-004  0.9118800E+02  0.7818608E-02  0.1130116E+00
         25   -1    0    0    0    0  0.00000000000E+00  0.00000000000E+00  0.99999998245E-14  0.12500000000E+03  0.12500000000E+03 0.  0.
        -11    1    3    3    0    0 -0.18266534305E+02 -0.30288375051E+02 -0.95072485273E+01  0.36625670145E+02  0.51100000000E-03 0. -1.
         23    2    1    0    0    0  0.43908392530E+01  0.43787178090E+01  0.30301546366E+02  0.94070461510E+02  0.88840392714E+02 0.  0.
         11    1    3    3    0    0  0.22657373558E+02  0.34667092860E+02  0.39808794894E+02  0.57444791366E+02  0.51100000000E-03 0.  1.
         22    1    1    0    0    0 -0.43908392530E+01 -0.43787178090E+01 -0.30301546366E+02  0.30929538490E+02  0.00000000000E+00 0.  1.
</event>
<event>
 5    1  0.6650580E-004  0.9118800E+02  0.7818608E-02  0.1130116E+00
         25   -1    0    0    0    0  0.00000000000E+00  0.00000000000E+00  0.99999998245E-14  0.12500000000E+03  0.12500000000E+03 0.  0.
        -11    1    3    3    0    0  0.27837634020E+02 -0.48347223859E+02 -0.13122634788E+02  0.57311355478E+02  0.51100000000E-03 0.  1.
         23    2    1    0    0    0 -0.37914804627E+01 -0.28286517228E+02 -0.94094409656E+01  0.94949376707E+02  0.90068552652E+02 0.  0.
         11    1    3    3    0    0 -0.31629114482E+02  0.20060706631E+02  0.37131938223E+01  0.37638021230E+02  0.51100000000E-03 0. -1.
         22    1    1    0    0    0  0.37914804627E+01  0.28286517228E+02  0.94094409656E+01  0.30050623293E+02  0.00000000000E+00 0.  1.
</event>
<event>
 5    1  0.6650580E-004  0.9118800E+02  0.7818608E-02  0.1130116E+00
         25   -1    0    0    0    0  0.00000000000E+00  0.00000000000E+00  0.99999998245E-14  0.12500000000E+03  0.12500000000E+03 0.  0.
        -11    1    3    3    0    0  0.20559449373E+02  0.34171901147E+02  0.32957936469E+02  0.51736209400E+02  0.51100000000E-03 0. -1.
         23    2    1    0    0    0  0.53386218742E+00  0.11488281815E+01  0.34585749940E+02  0.90391057313E+02  0.83503079753E+02 0.  0.
         11    1    3    3    0    0 -0.20025587185E+02 -0.33023072966E+02  0.16278134707E+01  0.38654847913E+02  0.51100000000E-03 0.  1.
         22    1    1    0    0    0 -0.53386218742E+00 -0.11488281815E+01 -0.34585749940E+02  0.34608942687E+02  0.00000000000E+00 0. -1.
</event>
<event>
 5    1  0.6650580E-004  0.9118800E+02  0.7818608E-02  0.1130116E+00
         25   -1    0    0    0    0  0.00000000000E+00  0.00000000000E+00  0.99999998245E-14  0.12500000000E+03  0.12500000000E+03 0.  0.
        -11    1    3    3    0    0  0.12114748182E+02  0.12335973075E+02 -0.27968433385E+02  0.32881250303E+02  0.51100000000E-03 0. -1.
         23    2    1    0    0    0 -0.13790010604E+02 -0.12595043211E+02  0.23074052593E+02  0.95314794779E+02  0.90574271705E+02 0.  0.
         11    1    3    3    0    0 -0.25904758786E+02 -0.24931016286E+02  0.51042485978E+02  0.62433544476E+02  0.51100000000E-03 0.  1.
         22    1    1    0    0    0  0.13790010604E+02  0.12595043211E+02 -0.23074052593E+02  0.29685205221E+02  0.00000000000E+00 0.  1.
</event>
<event>
 5    1  0.6650580E-004  0.9118800E+02  0.7818608E-02  0.1130116E+00
         25   -1    0    0    0    0  0.00000000000E+00  0.00000000000E+00  0.99999998245E-14  0.12500000000E+03  0.12500000000E+03 0.  0.
        -11    1    3    3    0    0 -0.48997260934E+02  0.13588596388E+02  0.24402871665E+02  0.56399305639E+02  0.51100000000E-03 0.  1.
         23    2    1    0    0    0 -0.78149611016E+01  0.18810015093E+02 -0.15338042252E+00  0.10463056676E+03  0.10262865921E+03 0.  0.
         11    1    3    3    0    0  0.41182299833E+02  0.52214187053E+01 -0.24556252088E+02  0.48231261124E+02  0.51100000000E-03 0. -1.
         22    1    1    0    0    0  0.78149611016E+01 -0.18810015093E+02  0.15338042252E+00  0.20369433236E+02  0.00000000000E+00 0.  1.
</event>
<event>
 5    1  0.6650580E-004  0.9118800E+02  0.7818608E-02  0.1130116E+00
         25   -1    0    0    0    0  0.00000000000E+00  0.00000000000E+00  0.99999998245E-14  0.12500000000E+03  0.12500000000E+03 0.  0.
        -11    1    3    3    0    0  0.37288633556E+02  0.18485516868E+02  0.19652433322E+02  0.46025804307E+02  0.51100000000E-03 0.  1.
         23    2    1    0    0    0  0.24014787173E+02 -0.73062654285E+01 -0.18402428582E+02  0.93875397269E+02  0.88565508620E+02 0.  0.
         11    1    3    3    0    0 -0.13273846383E+02 -0.25791782296E+02 -0.38054861904E+02  0.47849592962E+02  0.51100000000E-03 0. -1.
         22    1    1    0    0    0 -0.24014787173E+02  0.73062654285E+01  0.18402428582E+02  0.31124602731E+02  0.00000000000E+00 0.  1.
</event>
<event>
 5    1  0.6650580E-004  0.9118800E+02  0.7818608E-02  0.1130116E+00
         25   -1    0    0    0    0  0.00000000000E+00  0.00000000000E+00  0.99999998245E-14  0.12500000000E+03  0.12500000000E+03 0.  0.
        -11    1    3    3    0    0 -0.90045095894E+01 -0.28957991557E+02 -0.15026149788E+02  0.33844226179E+02  0.51100000000E-03 0. -1.
         23    2    1    0    0    0  0.10176973959E+02  0.27499311179E+02  0.12459427199E+01  0.95651485770E+02  0.91037747349E+02 0.  0.
         11    1    3    3    0    0  0.19181483548E+02  0.56457302735E+02  0.16272092508E+02  0.61807259591E+02  0.51100000000E-03 0.  1.
         22    1    1    0    0    0 -0.10176973959E+02 -0.27499311179E+02 -0.12459427199E+01  0.29348514230E+02  0.00000000000E+00 0.  1.
</event>
<event>
 5    1  0.6650580E-004  0.9118800E+02  0.7818608E-02  0.1130116E+00
         25   -1    0    0    0    0  0.00000000000E+00  0.00000000000E+00  0.99999998245E-14  0.12500000000E+03  0.12500000000E+03 0.  0.
        -11    1    3    3    0    0 -0.21267294158E+02 -0.18535311000E+02  0.49181783343E+02  0.56698354189E+02  0.51100000000E-03 0. -1.
         23    2    1    0    0    0 -0.15038655655E+02 -0.21438798778E+02  0.92350936032E+01  0.97231848984E+02  0.93182413824E+02 0.  0.
         11    1    3    3    0    0  0.62286385025E+01 -0.29034877784E+01 -0.39946689740E+02  0.40533494795E+02  0.51100000000E-03 0.  1.
         22    1    1    0    0    0  0.15038655655E+02  0.21438798778E+02 -0.92350936032E+01  0.27768151016E+02  0.00000000000E+00 0. -1.
</event>
<event>
 5    1  0.6650580E-004  0.9118800E+02  0.7818608E-02  0.1130116E+00
         25   -1    0    0    0    0  0.00000000000E+00  0.00000000000E+00  0.99999998245E-14  0.12500000000E+03  0.12500000000E+03 0.  0.
        -11    1    3    3    0    0 -0.26696658379E+02 -0.10658268257E+01 -0.19441852312E+02  0.33042899041E+02  0.51100000000E-03 0. -1.
         23    2    1    0    0    0  0.23977382414E+02  0.21869230684E+02  0.15884918074E+01  0.92508440721E+02  0.86614722654E+02 0.  0.
         11    1    3    3    0    0  0.50674040794E+02  0.22935057509E+02  0.21030344120E+02  0.59465541680E+02  0.51100000000E-03 0.  1.
         22    1    1    0    0    0 -0.23977382414E+02 -0.21869230684E+02 -0.15884918074E+01  0.32491559279E+02  0.00000000000E+00 0.  1.
</event>
<event>
 5    1  0.6650580E-004  0.9118800E+02  0.7818608E-02  0.1130116E+00
         25   -1    0    0    0    0  0.00000000000E+00  0.00000000000E+00  0.99999998245E-14  0.12500000000E+03  0.12500000000E+03 0.  0.
        -11    1    3    3    0    0 -0.22425245374E+02 -0.87704215120E+01  0.29847762638E+02  0.38349717839E+02  0.51100000000E-03 0. -1.
         23    2    1    0    0    0 -0.11479093337E+02 -0.37653480612E+01 -0.26451018244E+02  0.95920732540E+02  0.91406690866E+02 0.  0.
         11    1    3    3    0    0  0.10946152037E+02  0.50050734509E+01 -0.56298780882E+02  0.57571014701E+02  0.51100000000E-03 0.  1.
         22    1    1    0    0    0  0.11479093337E+02  0.37653480612E+01  0.26451018244E+02  0.29079267460E+02  0.00000000000E+00 0.  1.
</event>
<event>
 5    1  0.6650580E-004  0.9118800E+02  0.7818608E-02  0.1130116E+00
         25   -1    0    0    0    0  0.00000000000E+00  0.00000000000E+00  0.99999998245E-14  0.12500000000E+03  0.12500000000E+03 0.  0.
        -11    1    3    3    0    0 -0.34070254883E+02 -0.15177907600E+02  0.13544902085E+02  0.39681425373E+02  0.51100000000E-03 0. -1.
         23    2    1    0    0    0  0.19599148041E+02 -0.21691211887E+02 -0.12717923429E+01  0.95738203527E+02  0.91156737994E+02 0.  0.
         11    1    3    3    0    0  0.53669402924E+02 -0.65133042871E+01 -0.14816694428E+02  0.56056778154E+02  0.51100000000E-03 0.  1.
         22    1    1    0    0    0 -0.19599148041E+02  0.21691211887E+02  0.12717923429E+01  0.29261796473E+02  0.00000000000E+00 0.  1.
</event>
<event>
 5    1  0.6650580E-004  0.9118800E+02  0.7818608E-02  0.1130116E+00
         25   -1    0    0    0    0  0.00000000000E+00  0.00000000000E+00  0.99999998245E-14  0.12500000000E+03  0.12500000000E+03 0.  0.
        -11    1    3    3    0    0  0.16648725686E+02  0.22051778014E+01 -0.22115337271E+02  0.27769245920E+02  0.51100000000E-03 0. -1.
         23    2    1    0    0    0 -0.38855645138E+02  0.45798969268E+01 -0.94859457365E+01  0.84741835841E+02  0.74568485034E+02 0.  0.
         11    1    3    3    0    0 -0.55504370824E+02  0.23747191255E+01  0.12629391534E+02  0.56972589921E+02  0.51100000000E-03 0.  1.
         22    1    1    0    0    0  0.38855645138E+02 -0.45798969268E+01  0.94859457365E+01  0.40258164159E+02  0.00000000000E+00 0.  1.
</event>
<event>
 5    1  0.6650580E-004  0.9118800E+02  0.7818608E-02  0.1130116E+00
         25   -1    0    0    0    0  0.00000000000E+00  0.00000000000E+00  0.99999998245E-14  0.12500000000E+03  0.12500000000E+03 0.  0.
        -11    1    3    3    0    0  0.26944426610E+02 -0.40409498350E+02  0.18749083179E+02  0.52062057225E+02  0.51100000000E-03 0. -1.
         23    2    1    0    0    0  0.98846522467E+01  0.42593316575E+01  0.22534114810E+02  0.10002732320E+03  0.96859851334E+02 0.  0.
         11    1    3    3    0    0 -0.17059774363E+02  0.44668830007E+02  0.37850316304E+01  0.47965265977E+02  0.51100000000E-03 0.  1.
         22    1    1    0    0    0 -0.98846522467E+01 -0.42593316575E+01 -0.22534114810E+02  0.24972676798E+02  0.00000000000E+00 0.  1.
</event>
<event>
 5    1  0.6650580E-004  0.9118800E+02  0.7818608E-02  0.1130116E+00
         25   -1    0    0    0    0  0.00000000000E+00  0.00000000000E+00  0.99999998245E-14  0.12500000000E+03  0.12500000000E+03 0.  0.
        -11    1    3    3    0    0  0.24014698006E+02 -0.16015859426E+02  0.37210801863E+02  0.47094131789E+02  0.51100000000E-03 0.  1.
         23    2    1    0    0    0 -0.16254454012E+02 -0.21414101456E+02  0.86475749886E+01  0.96759044464E+02  0.92545994597E+02 0.  0.
         11    1    3    3    0    0 -0.40269152018E+02 -0.53982420305E+01 -0.28563226874E+02  0.49664912674E+02  0.51100000000E-03 0. -1.
         22    1    1    0    0    0  0.16254454012E+02  0.21414101456E+02 -0.86475749886E+01  0.28240955536E+02  0.00000000000E+00 0. -1.
</event>
<event>
 5    1  0.6650580E-004  0.9118800E+02  0.7818608E-02  0.1130116E+00
         25   -1    0    0    0    0  0.00000000000E+00  0.00000000000E+00  0.99999998245E-14  0.12500000000E+03  0.12500000000E+03 0.  0.
        -11    1    3    3    0    0  0.71495179078E+00 -0.51824780883E+02 -0.24624132958E+02  0.57381765342E+02  0.51100000000E-03 0.  1.
         23    2    1    0    0    0 -0.17372151568E+02 -0.21206822742E+02 -0.10665804038E+02  0.95584351840E+02  0.90945521935E+02 0.  0.
         11    1    3    3    0    0 -0.18087103358E+02  0.30617958141E+02  0.13958328921E+02  0.38202586498E+02  0.51100000000E-03 0. -1.
         22    1    1    0    0    0  0.17372151568E+02  0.21206822742E+02  0.10665804038E+02  0.29415648160E+02  0.00000000000E+00 0.  1.
</event>
<event>
 5    1  0.6650580E-004  0.9118800E+02  0.7818608E-02  0.1130116E+00
         25   -1    0    0    0    0  0.00000000000E+00  0.00000000000E+00  0.99999998245E-14  0.12500000000E+03  0.12500000000E+03 0.  0.
        -11    1    3    3    0    0 -0.45582045787E+01 -0.10268651252E+02  0.34644754958E+02  0.36420893370E+02  0.51100000000E-03 0. -1.
         23    2    1    0    0    0 -0.15574148398E+02  0.52808172769E+01 -0.22768260593E+02  0.96913796628E+02  0.92754779699E+02 0.  0.
         11    1    3    3    0    0 -0.11015943819E+02  0.15549468529E+02 -0.57413015550E+02  0.60492903258E+02  0.51100000000E-03 0.  1.
         22    1    1    0    0    0  0.15574148398E+02 -0.52808172769E+01  0.22768260593E+02  0.28086203372E+02  0.00000000000E+00 0.  1.
</event>
<event>
 5    1  0.6650580E-004  0.9118800E+02  0.7818608E-02  0.1130116E+00
         25   -1    0    0    0    0  0.00000000000E+00  0.00000000000E+00  0.99999998245E-14  0.12500000000E+03  0.12500000000E+03 0.  0.
        -11    1    3    3    0    0  0.16453395320E+02  0.10295453307E+02 -0.59300916000E+02  0.62396387837E+02  0.51100000000E-03 0.  1.
         23    2    1    0    0    0  0.71041715628E+01  0.73117872553E+01 -0.27859059767E+02  0.95334216720E+02  0.90601071628E+02 0.  0.
         11    1    3    3    0    0 -0.93492237575E+01 -0.29836660520E+01  0.31441856232E+02  0.32937828884E+02  0.51100000000E-03 0. -1.
         22    1    1    0    0    0 -0.71041715628E+01 -0.73117872553E+01  0.27859059767E+02  0.29665783280E+02  0.00000000000E+00 0.  1.
</event>
<event>
 5    1  0.6650580E-004  0.9118800E+02  0.7818608E-02  0.1130116E+00
         25   -1    0    0    0    0  0.00000000000E+00  0.00000000000E+00  0.99999998245E-14  0.12500000000E+03  0.12500000000E+03 0.  0.
        -11    1    3    3    0    0 -0.12024000804E+02  0.30231092832E+02 -0.12603927307E+02  0.34890608378E+02  0.51100000000E-03 0.  1.
         23    2    1    0    0    0 -0.10736860693E+02 -0.28487822257E+02 -0.29247559469E+01  0.94415847374E+02  0.89325034808E+02 0.  0.
         11    1    3    3    0    0  0.12871401110E+01 -0.58718915090E+02  0.96791713603E+01  0.59525238996E+02  0.51100000000E-03 0. -1.
         22    1    1    0    0    0  0.10736860693E+02  0.28487822257E+02  0.29247559469E+01  0.30584152626E+02  0.00000000000E+00 0. -1.
</event>
<event>
 5    1  0.6650580E-004  0.9118800E+02  0.7818608E-02  0.1130116E+00
         25   -1    0    0    0    0  0.00000000000E+00  0.00000000000E+00  0.99999998245E-14  0.12500000000E+03  0.12500000000E+03 0.  0.
        -11    1    3    3    0    0 -0.36615309845E+02  0.16168256904E+02 -0.25052479464E+01  0.40104484960E+02  0.51100000000E-03 0. -1.
         23    2    1    0    0    0  0.78856444538E+00 -0.14680935798E+02  0.25110629538E+02  0.95901968700E+02  0.91381027434E+02 0.  0.
         11    1    3    3    0    0  0.37403874290E+02 -0.30849192701E+02  0.27615877484E+02  0.55797483740E+02  0.51100000000E-03 0.  1.
         22    1    1    0    0    0 -0.78856444538E+00  0.14680935798E+02 -0.25110629538E+02  0.29098031300E+02  0.00000000000E+00 0.  1.
</event>
<event>
 5    1  0.6650580E-004  0.9118800E+02  0.7818608E-02  0.1130116E+00
         25   -1    0    0    0    0  0.00000000000E+00  0.00000000000E+00  0.99999998245E-14  0.12500000000E+03  0.12500000000E+03 0.  0.
        -11    1    3    3    0    0 -0.50533410164E+02  0.16152291646E+02 -0.62958721475E+01  0.53424339720E+02  0.51100000000E-03 0. -1.
         23    2    1    0    0    0 -0.35308335658E+01  0.23459894624E+02 -0.16272707607E+01  0.10122014610E+03  0.98387176627E+02 0.  0.
         11    1    3    3    0    0  0.47002576598E+02  0.73076029782E+01  0.46686013868E+01  0.47795806378E+02  0.51100000000E-03 0.  1.
         22    1    1    0    0    0  0.35308335658E+01 -0.23459894624E+02  0.16272707607E+01  0.23779853902E+02  0.00000000000E+00 0. -1.
</event>
<event>
 5    1  0.6650580E-004  0.9118800E+02  0.7818608E-02  0.1130116E+00
         25   -1    0    0    0    0  0.00000000000E+00  0.00000000000E+00  0.99999998245E-14  0.12500000000E+03  0.12500000000E+03 0.  0.
        -11    1    3    3    0    0 -0.11216654172E+02  0.16702055223E+00  0.48756530137E+02  0.50030395341E+02  0.51100000000E-03 0.  1.
         23    2    1    0    0    0 -0.17980434315E+02 -0.21133835840E+02  0.86641871499E+01  0.95931061691E+02  0.91420815040E+02 0.  0.
         11    1    3    3    0    0 -0.67637801421E+01 -0.21300856393E+02 -0.40092342987E+02  0.45900666350E+02  0.51100000000E-03 0. -1.
         22    1    1    0    0    0  0.17980434315E+02  0.21133835840E+02 -0.86641871499E+01  0.29068938309E+02  0.00000000000E+00 0.  1.
</event>
<event>
 5    1  0.6650580E-004  0.9118800E+02  0.7818608E-02  0.1130116E+00
         25   -1    0    0    0    0  0.00000000000E+00  0.00000000000E+00  0.99999998245E-14  0.12500000000E+03  0.12500000000E+03 0.  0.
        -11    1    3    3    0    0  0.35026901576E+02 -0.23781743296E+02 -0.24304257593E+02  0.48817538709E+02  0.51100000000E-03 0. -1.
         23    2    1    0    0    0  0.16649908834E+02  0.18848076831E+02 -0.13402944853E+02  0.96502484404E+02  0.92198812905E+02 0.  0.
         11    1    3    3    0    0 -0.18376992742E+02  0.42629820126E+02  0.10901312740E+02  0.47684945695E+02  0.51100000000E-03 0.  1.
         22    1    1    0    0    0 -0.16649908834E+02 -0.18848076831E+02  0.13402944853E+02  0.28497515596E+02  0.00000000000E+00 0.  1.
</event>
<event>
 5    1  0.6650580E-004  0.9118800E+02  0.7818608E-02  0.1130116E+00
         25   -1    0    0    0    0  0.00000000000E+00  0.00000000000E+00  0.99999998245E-14  0.12500000000E+03  0.12500000000E+03 0.  0.
        -11    1    3    3    0    0 -0.46816653519E+02 -0.30170600503E+01 -0.70089113454E+01  0.47434444622E+02  0.51100000000E-03 0. -1.
         23    2    1    0    0    0 -0.62633321428E+01 -0.27962625846E+02 -0.86289537230E+01  0.95073479720E+02  0.90240622394E+02 0.  0.
         11    1    3    3    0    0  0.40553321376E+02 -0.24945565795E+02 -0.16200423776E+01  0.47639035098E+02  0.51100000000E-03 0.  1.
         22    1    1    0    0    0  0.62633321428E+01  0.27962625846E+02  0.86289537230E+01  0.29926520280E+02  0.00000000000E+00 0.  1.
</event>
<event>
 5    1  0.6650580E-004  0.9118800E+02  0.7818608E-02  0.1130116E+00
         25   -1    0    0    0    0  0.00000000000E+00  0.00000000000E+00  0.99999998245E-14  0.12500000000E+03  0.12500000000E+03 0.  0.
        -11    1    3    3    0    0  0.41037807134E+02  0.52519790479E+01 -0.42054478427E+02  0.58993762843E+02  0.51100000000E-03 0. -1.
         23    2    1    0    0    0  0.15479483372E+02 -0.11517588003E+02 -0.22846489513E+02  0.95096299193E+02  0.90272226063E+02 0.  0.
         11    1    3    3    0    0 -0.25558323762E+02 -0.16769567051E+02  0.19207988914E+02  0.36102536351E+02  0.51100000000E-03 0.  1.
         22    1    1    0    0    0 -0.15479483372E+02  0.11517588003E+02  0.22846489513E+02  0.29903700807E+02  0.00000000000E+00 0. -1.
</event>
<event>
 5    1  0.6650580E-004  0.9118800E+02  0.7818608E-02  0.1130116E+00
         25   -1    0    0    0    0  0.00000000000E+00  0.00000000000E+00  0.99999998245E-14  0.12500000000E+03  0.12500000000E+03 0.  0.
        -11    1    3    3    0    0 -0.24865331369E+02  0.16224184614E+02 -0.44387653867E+02  0.53401991410E+02  0.51100000000E-03 0.  1.
         23    2    1    0    0    0 -0.13225224360E+02  0.25743969639E+02 -0.49131566076E+01  0.95643609895E+02  0.91026932683E+02 0.  0.
         11    1    3    3    0    0  0.11640107009E+02  0.95197850254E+01  0.39474497259E+02  0.42241618485E+02  0.51100000000E-03 0. -1.
         22    1    1    0    0    0  0.13225224360E+02 -0.25743969639E+02  0.49131566076E+01  0.29356390105E+02  0.00000000000E+00 0. -1.
</event>
<event>
 5    1  0.6650580E-004  0.9118800E+02  0.7818608E-02  0.1130116E+00
         25   -1    0    0    0    0  0.00000000000E+00  0.00000000000E+00  0.99999998245E-14  0.12500000000E+03  0.12500000000E+03 0.  0.
        -11    1    3    3    0    0 -0.25006299411E+01 -0.89945889233E+01 -0.59215818255E+02  0.59947217716E+02  0.51100000000E-03 0.  1.
         23    2    1    0    0    0 -0.84144704209E+01  0.62508738241E+01 -0.25881488941E+02  0.97076386232E+02  0.92973633672E+02 0.  0.
         11    1    3    3    0    0 -0.59138404798E+01  0.15245462747E+02  0.33334329314E+02  0.37129168516E+02  0.51100000000E-03 0. -1.
         22    1    1    0    0    0  0.84144704209E+01 -0.62508738241E+01  0.25881488941E+02  0.27923613768E+02  0.00000000000E+00 0.  1.
</event>
<event>
 5    1  0.6650580E-004  0.9118800E+02  0.7818608E-02  0.1130116E+00
         25   -1    0    0    0    0  0.00000000000E+00  0.00000000000E+00  0.99999998245E-14  0.12500000000E+03  0.12500000000E+03 0.  0.
        -11    1    3    3    0    0  0.51466995658E+02 -0.29227543882E+01 -0.33790821223E+02  0.61637762244E+02  0.51100000000E-03 0.  1.
         23    2    1    0    0    0  0.23301496063E+02  0.57458865015E+01 -0.17378740172E+02  0.95369010472E+02  0.90649062973E+02 0.  0.
         11    1    3    3    0    0 -0.28165499595E+02  0.86686408897E+01  0.16412081051E+02  0.33731248228E+02  0.51100000000E-03 0. -1.
         22    1    1    0    0    0 -0.23301496063E+02 -0.57458865015E+01  0.17378740172E+02  0.29630989528E+02  0.00000000000E+00 0.  1.
</event>
<event>
 5    1  0.6650580E-004  0.9118800E+02  0.7818608E-02  0.1130116E+00
         25   -1    0    0    0    0  0.00000000000E+00  0.00000000000E+00  0.99999998245E-14  0.12500000000E+03  0.12500000000E+03 0.  0.
        -11    1    3    3    0    0 -0.70771788281E+01 -0.12893112871E+02  0.41752669666E+02  0.44267417410E+02  0.51100000000E-03 0.  1.
         23    2    1    0    0    0  0.28653858494E+02 -0.10777425497E+02  0.82497243570E+01  0.93294251958E+02  0.87741455365E+02 0.  0.
         11    1    3    3    0    0  0.35731037322E+02  0.21156873747E+01 -0.33502945309E+02  0.49026834548E+02  0.51100000000E-03 0. -1.
         22    1    1    0    0    0 -0.28653858494E+02  0.10777425497E+02 -0.82497243570E+01  0.31705748042E+02  0.00000000000E+00 0.  1.
</event>
<event>
 5    1  0.6650580E-004  0.9118800E+02  0.7818608E-02  0.1130116E+00
         25   -1    0    0    0    0  0.00000000000E+00  0.00000000000E+00  0.99999998245E-14  0.12500000000E+03  0.12500000000E+03 0.  0.
        -11    1    3    3    0    0  0.38947451697E+02  0.44489433994E+02  0.47843503226E+00  0.59130724933E+02  0.51100000000E-03 0. -1.
         23    2    1    0    0    0  0.12612591925E+02  0.25302660844E+02  0.12799650045E+02  0.93965613231E+02  0.88692746647E+02 0.  0.
         11    1    3    3    0    0 -0.26334859772E+02 -0.19186773150E+02  0.12321215012E+02  0.34834888298E+02  0.51100000000E-03 0.  1.
         22    1    1    0    0    0 -0.12612591925E+02 -0.25302660844E+02 -0.12799650045E+02  0.31034386769E+02  0.00000000000E+00 0. -1.
</event>
<event>
 5    1  0.6650580E-004  0.9118800E+02  0.7818608E-02  0.1130116E+00
         25   -1    0    0    0    0  0.00000000000E+00  0.00000000000E+00  0.99999998245E-14  0.12500000000E+03  0.12500000000E+03 0.  0.
        -11    1    3    3    0    0  0.48458860124E+02  0.12227379093E+02  0.85214353491E+01  0.50698962363E+02  0.51100000000E-03 0.  1.
         23    2    1    0    0    0  0.60167970525E+01  0.26055907575E+02  0.12435716141E+02  0.95508319779E+02  0.90840959620E+02 0.  0.
         11    1    3    3    0    0 -0.42442063071E+02  0.13828528482E+02  0.39142807918E+01  0.44809357416E+02  0.51100000000E-03 0. -1.
         22    1    1    0    0    0 -0.60167970525E+01 -0.26055907575E+02 -0.12435716141E+02  0.29491680221E+02  0.00000000000E+00 0. -1.
</event>
<event>
 5    1  0.6650580E-004  0.9118800E+02  0.7818608E-02  0.1130116E+00
         25   -1    0    0    0    0  0.00000000000E+00  0.00000000000E+00  0.99999998245E-14  0.12500000000E+03  0.12500000000E+03 0.  0.
        -11    1    3    3    0    0 -0.32864748761E+01 -0.54631708607E+02 -0.69176171944E+01  0.55165912757E+02  0.51100000000E-03 0. -1.
         23    2    1    0    0    0 -0.59349959077E+00 -0.22392998093E+02  0.18211746207E+02  0.96130183491E+02  0.91692670769E+02 0.  0.
         11    1    3    3    0    0  0.26929752853E+01  0.32238710514E+02  0.25129363402E+02  0.40964270734E+02  0.51100000000E-03 0.  1.
         22    1    1    0    0    0  0.59349959077E+00  0.22392998093E+02 -0.18211746207E+02  0.28869816509E+02  0.00000000000E+00 0. -1.
</event>
<event>
 5    1  0.6650580E-004  0.9118800E+02  0.7818608E-02  0.1130116E+00
         25   -1    0    0    0    0  0.00000000000E+00  0.00000000000E+00  0.99999998245E-14  0.12500000000E+03  0.12500000000E+03 0.  0.
        -11    1    3    3    0    0  0.11104230030E+02 -0.44603052832E+01 -0.34714580988E+02  0.36719209975E+02  0.51100000000E-03 0. -1.
         23    2    1    0    0    0 -0.21973811004E+02 -0.45133268988E+01  0.16125562331E+02  0.97372979708E+02  0.93371542383E+02 0.  0.
         11    1    3    3    0    0 -0.33078041034E+02 -0.53021615534E-01  0.50840143318E+02  0.60653769733E+02  0.51100000000E-03 0.  1.
         22    1    1    0    0    0  0.21973811004E+02  0.45133268988E+01 -0.16125562331E+02  0.27627020292E+02  0.00000000000E+00 0.  1.
</event>
<event>
 5    1  0.6650580E-004  0.9118800E+02  0.7818608E-02  0.1130116E+00
         25   -1    0    0    0    0  0.00000000000E+00  0.00000000000E+00  0.99999998245E-14  0.12500000000E+03  0.12500000000E+03 0.  0.
        -11    1    3    3    0    0 -0.24021762918E+02 -0.72663409416E+01 -0.41511308921E+02  0.48508077399E+02  0.51100000000E-03 0.  1.
         23    2    1    0    0    0 -0.91481357848E+00 -0.30912179673E+02 -0.23510710307E+02  0.86152178502E+02  0.76896323875E+02 0.  0.
         11    1    3    3    0    0  0.23106949339E+02 -0.23645838731E+02  0.18000598614E+02  0.37644101102E+02  0.51100000000E-03 0. -1.
         22    1    1    0    0    0  0.91481357848E+00  0.30912179673E+02  0.23510710307E+02  0.38847821498E+02  0.00000000000E+00 0.  1.
</event>
<event>
 5    1  0.6650580E-004  0.9118800E+02  0.7818608E-02  0.1130116E+00
         25   -1    0    0    0    0  0.00000000000E+00  0.00000000000E+00  0.99999998245E-14  0.12500000000E+03  0.12500000000E+03 0.  0.
        -11    1    3    3    0    0  0.26147656534E+02 -0.58779858012E+01 -0.24867580202E+02  0.36560186059E+02  0.51100000000E-03 0.  1.
         23    2    1    0    0    0 -0.88776272957E+01  0.26248948070E+02  0.10037352386E+02  0.95528522533E+02  0.90868754989E+02 0.  0.
         11    1    3    3    0    0 -0.35025283830E+02  0.32126933871E+02  0.34904932588E+02  0.58968336474E+02  0.51100000000E-03 0. -1.
         22    1    1    0    0    0  0.88776272957E+01 -0.26248948070E+02 -0.10037352386E+02  0.29471477467E+02  0.00000000000E+00 0. -1.
</event>
<event>
 5    1  0.6650580E-004  0.9118800E+02  0.7818608E-02  0.1130116E+00
         25   -1    0    0    0    0  0.00000000000E+00  0.00000000000E+00  0.99999998245E-14  0.12500000000E+03  0.12500000000E+03 0.  0.
        -11    1    3    3    0    0  0.27970548121E+01 -0.33661562606E+02 -0.27158446047E+02  0.43341729368E+02  0.51100000000E-03 0.  1.
         23    2    1    0    0    0  0.29203115423E+02  0.32668747698E+01 -0.13039662719E+01  0.95585807011E+02  0.90947521971E+02 0.  0.
         11    1    3    3    0    0  0.26406060611E+02  0.36928437376E+02  0.25854479775E+02  0.52244077642E+02  0.51100000000E-03 0. -1.
         22    1    1    0    0    0 -0.29203115423E+02 -0.32668747698E+01  0.13039662719E+01  0.29414192989E+02  0.00000000000E+00 0. -1.
</event>
<event>
 5    1  0.6650580E-004  0.9118800E+02  0.7818608E-02  0.1130116E+00
         25   -1    0    0    0    0  0.00000000000E+00  0.00000000000E+00  0.99999998245E-14  0.12500000000E+03  0.12500000000E+03 0.  0.
        -11    1    3    3    0    0 -0.92081792140E+00  0.39834608147E+02  0.46718228957E+02  0.61402254266E+02  0.51100000000E-03 0. -1.
         23    2    1    0    0    0  0.30869646597E+01  0.25539054863E+02  0.18414672388E+02  0.93363425703E+02  0.87839947778E+02 0.  0.
         11    1    3    3    0    0  0.40077825811E+01 -0.14295553284E+02 -0.28303556568E+02  0.31961171437E+02  0.51100000000E-03 0.  1.
         22    1    1    0    0    0 -0.30869646597E+01 -0.25539054863E+02 -0.18414672388E+02  0.31636574297E+02  0.00000000000E+00 0. -1.
</event>
<event>
 5    1  0.6650580E-004  0.9118800E+02  0.7818608E-02  0.1130116E+00
         25   -1    0    0    0    0  0.00000000000E+00  0.00000000000E+00  0.99999998245E-14  0.12500000000E+03  0.12500000000E+03 0.  0.
        -11    1    3    3    0    0  0.33735771878E+01  0.28197047336E+02  0.29820204914E+02  0.41178867430E+02  0.51100000000E-03 0.  1.
         23    2    1    0    0    0 -0.27094892633E+02  0.12059737616E+01 -0.79807442331E+01  0.96728462051E+02  0.92504678329E+02 0.  0.
         11    1    3    3    0    0 -0.30468469820E+02 -0.26991073574E+02 -0.37800949147E+02  0.55549594621E+02  0.51100000000E-03 0. -1.
         22    1    1    0    0    0  0.27094892633E+02 -0.12059737616E+01  0.79807442331E+01  0.28271537949E+02  0.00000000000E+00 0. -1.
</event>
<event>
 5    1  0.6650580E-004  0.9118800E+02  0.7818608E-02  0.1130116E+00
         25   -1    0    0    0    0  0.00000000000E+00  0.00000000000E+00  0.99999998245E-14  0.12500000000E+03  0.12500000000E+03 0.  0.
        -11    1    3    3    0    0  0.14878590216E+02  0.15571845301E+02 -0.47220118068E+02  0.51899849359E+02  0.51100000000E-03 0.  1.
         23    2    1    0    0    0  0.23871473843E+02 -0.11961436035E+02 -0.20097497689E+02  0.91580954101E+02  0.85265693718E+02 0.  0.
         11    1    3    3    0    0  0.89928836266E+01 -0.27533281336E+02  0.27122620379E+02  0.39681104742E+02  0.51100000000E-03 0. -1.
         22    1    1    0    0    0 -0.23871473843E+02  0.11961436035E+02  0.20097497689E+02  0.33419045899E+02  0.00000000000E+00 0.  1.
</event>
<event>
 5    1  0.6650580E-004  0.9118800E+02  0.7818608E-02  0.1130116E+00
         25   -1    0    0    0    0  0.00000000000E+00  0.00000000000E+00  0.99999998245E-14  0.12500000000E+03  0.12500000000E+03 0.  0.
        -11    1    3    3    0    0  0.37989868871E+02 -0.11217492516E+02  0.10284313514E+02  0.40924679350E+02  0.51100000000E-03 0.  1.
         23    2    1    0    0    0 -0.70729905975E+01  0.18853756754E+02  0.20732350068E+02  0.96098067901E+02  0.91648878745E+02 0.  0.
         11    1    3    3    0    0 -0.45062859468E+02  0.30071249270E+02  0.10448036554E+02  0.55173388551E+02  0.51100000000E-03 0. -1.
         22    1    1    0    0    0  0.70729905975E+01 -0.18853756754E+02 -0.20732350068E+02  0.28901932099E+02  0.00000000000E+00 0. -1.
</event>
<event>
 5    1  0.6650580E-004  0.9118800E+02  0.7818608E-02  0.1130116E+00
         25   -1    0    0    0    0  0.00000000000E+00  0.00000000000E+00  0.99999998245E-14  0.12500000000E+03  0.12500000000E+03 0.  0.
        -11    1    3    3    0    0 -0.14108823607E+02  0.29193334595E+02 -0.16870249243E+02  0.36550170973E+02  0.51100000000E-03 0. -1.
         23    2    1    0    0    0  0.37453930128E+01 -0.27260072501E+02 -0.73395910968E+01  0.96521778162E+02  0.92224967012E+02 0.  0.
         11    1    3    3    0    0  0.17854216620E+02 -0.56453407096E+02  0.95306581460E+01  0.59971607189E+02  0.51100000000E-03 0.  1.
         22    1    1    0    0    0 -0.37453930128E+01  0.27260072501E+02  0.73395910968E+01  0.28478221838E+02  0.00000000000E+00 0.  1.
</event>
<event>
 5    1  0.6650580E-004  0.9118800E+02  0.7818608E-02  0.1130116E+00
         25   -1    0    0    0    0  0.00000000000E+00  0.00000000000E+00  0.99999998245E-14  0.12500000000E+03  0.12500000000E+03 0.  0.
        -11    1    3    3    0    0  0.10012281841E+02  0.10219608564E+02  0.34089775770E+02  0.36970244781E+02  0.51100000000E-03 0.  1.
         23    2    1    0    0    0 -0.25048438201E+02  0.12052839997E+02 -0.11843732030E+02  0.94784619865E+02  0.89839606891E+02 0.  0.
         11    1    3    3    0    0 -0.35060720042E+02  0.18332314322E+01 -0.45933507800E+02  0.57814375084E+02  0.51100000000E-03 0. -1.
         22    1    1    0    0    0  0.25048438201E+02 -0.12052839997E+02  0.11843732030E+02  0.30215380135E+02  0.00000000000E+00 0. -1.
</event>
<event>
 5    1  0.6650580E-004  0.9118800E+02  0.7818608E-02  0.1130116E+00
         25   -1    0    0    0    0  0.00000000000E+00  0.00000000000E+00  0.99999998245E-14  0.12500000000E+03  0.12500000000E+03 0.  0.
        -11    1    3    3    0    0  0.21739647063E+02  0.23822428903E+02 -0.12360618830E+02  0.34538460756E+02  0.51100000000E-03 0. -1.
         23    2    1    0    0    0 -0.14581994463E+02 -0.24711398226E+02 -0.53040730005E+00  0.96302106406E+02  0.91926745845E+02 0.  0.
         11    1    3    3    0    0 -0.36321641526E+02 -0.48533827129E+02  0.11830211530E+02  0.61763645650E+02  0.51100000000E-03 0.  1.
         22    1    1    0    0    0  0.14581994463E+02  0.24711398226E+02  0.53040730005E+00  0.28697893594E+02  0.00000000000E+00 0.  1.
</event>
<event>
 5    1  0.6650580E-004  0.9118800E+02  0.7818608E-02  0.1130116E+00
         25   -1    0    0    0    0  0.00000000000E+00  0.00000000000E+00  0.99999998245E-14  0.12500000000E+03  0.12500000000E+03 0.  0.
        -11    1    3    3    0    0 -0.77069711359E+01 -0.20272389214E+02  0.42632228251E+02  0.47831726442E+02  0.51100000000E-03 0.  1.
         23    2    1    0    0    0 -0.27166367140E+02 -0.17554283508E+01  0.53159113347E+00  0.97771786298E+02  0.93903922040E+02 0.  0.
         11    1    3    3    0    0 -0.19459396004E+02  0.18516960863E+02 -0.42100637118E+02  0.49940059856E+02  0.51100000000E-03 0. -1.
         22    1    1    0    0    0  0.27166367140E+02  0.17554283508E+01 -0.53159113347E+00  0.27228213702E+02  0.00000000000E+00 0. -1.
</event>
<event>
 5    1  0.6650580E-004  0.9118800E+02  0.7818608E-02  0.1130116E+00
         25   -1    0    0    0    0  0.00000000000E+00  0.00000000000E+00  0.99999998245E-14  0.12500000000E+03  0.12500000000E+03 0.  0.
        -11    1    3    3    0    0 -0.33280975062E+01  0.20110363881E+02 -0.28425271231E+02  0.34978550760E+02  0.51100000000E-03 0.  1.
         23    2    1    0    0    0 -0.42364514502E+02  0.89960795477E+01 -0.23103704333E+02  0.75913721978E+02  0.57908811889E+02 0.  0.
         11    1    3    3    0    0 -0.39036416995E+02 -0.11114284334E+02  0.53215668986E+01  0.40935171218E+02  0.51100000000E-03 0. -1.
         22    1    1    0    0    0  0.42364514502E+02 -0.89960795477E+01  0.23103704333E+02  0.49086278022E+02  0.00000000000E+00 0.  1.
</event>
<event>
 5    1  0.6650580E-004  0.9118800E+02  0.7818608E-02  0.1130116E+00
         25   -1    0    0    0    0  0.00000000000E+00  0.00000000000E+00  0.99999998245E-14  0.12500000000E+03  0.12500000000E+03 0.  0.
        -11    1    3    3    0    0 -0.26956830674E+02  0.68799754986E+00  0.40264194387E+02  0.48459771053E+02  0.51100000000E-03 0.  1.
         23    2    1    0    0    0 -0.11828257531E+02  0.26485388678E+02  0.36049386787E+01  0.95770236530E+02  0.91200653136E+02 0.  0.
         11    1    3    3    0    0  0.15128573143E+02  0.25797391128E+02 -0.36659255708E+02  0.47310465477E+02  0.51100000000E-03 0. -1.
         22    1    1    0    0    0  0.11828257531E+02 -0.26485388678E+02 -0.36049386787E+01  0.29229763470E+02  0.00000000000E+00 0.  1.
</event>
<event>
 5    1  0.6650580E-004  0.9118800E+02  0.7818608E-02  0.1130116E+00
         25   -1    0    0    0    0  0.00000000000E+00  0.00000000000E+00  0.99999998245E-14  0.12500000000E+03  0.12500000000E+03 0.  0.
        -11    1    3    3    0    0  0.22498464311E+02  0.33280823526E+02 -0.29748954427E+01  0.40282056974E+02  0.51100000000E-03 0. -1.
         23    2    1    0    0    0 -0.24859212182E+02  0.83512768700E+01  0.12437464842E+02  0.95975617365E+02  0.91481715885E+02 0.  0.
         11    1    3    3    0    0 -0.47357676492E+02 -0.24929546656E+02  0.15412360285E+02  0.55693560391E+02  0.51100000000E-03 0.  1.
         22    1    1    0    0    0  0.24859212182E+02 -0.83512768700E+01 -0.12437464842E+02  0.29024382635E+02  0.00000000000E+00 0.  1.
</event>
<event>
 5    1  0.6650580E-004  0.9118800E+02  0.7818608E-02  0.1130116E+00
         25   -1    0    0    0    0  0.00000000000E+00  0.00000000000E+00  0.99999998245E-14  0.12500000000E+03  0.12500000000E+03 0.  0.
        -11    1    3    3    0    0 -0.25236515463E+02 -0.21154724020E+02 -0.62031163261E+01  0.33509442154E+02  0.51100000000E-03 0.  1.
         23    2    1    0    0    0  0.29957414605E+02 -0.19542697226E+02 -0.60294001864E+01  0.88727181371E+02  0.80974041166E+02 0.  0.
         11    1    3    3    0    0  0.55193930067E+02  0.16120267940E+01  0.17371613971E+00  0.55217739217E+02  0.51100000000E-03 0. -1.
         22    1    1    0    0    0 -0.29957414605E+02  0.19542697226E+02  0.60294001864E+01  0.36272818629E+02  0.00000000000E+00 0. -1.
</event>
<event>
 5    1  0.6650580E-004  0.9118800E+02  0.7818608E-02  0.1130116E+00
         25   -1    0    0    0    0  0.00000000000E+00  0.00000000000E+00  0.99999998245E-14  0.12500000000E+03  0.12500000000E+03 0.  0.
        -11    1    3    3    0    0  0.19508395198E+02 -0.15773400585E+02  0.50696784496E+02  0.56564490696E+02  0.51100000000E-03 0.  1.
         23    2    1    0    0    0 -0.66975953762E+01 -0.18449537671E+02  0.21531925192E+02  0.95864677339E+02  0.91330002380E+02 0.  0.
         11    1    3    3    0    0 -0.26205990575E+02 -0.26761370866E+01 -0.29164859304E+02  0.39300186643E+02  0.51100000000E-03 0. -1.
         22    1    1    0    0    0  0.66975953762E+01  0.18449537671E+02 -0.21531925192E+02  0.29135322661E+02  0.00000000000E+00 0.  1.
</event>
<event>
 5    1  0.6650580E-004  0.9118800E+02  0.7818608E-02  0.1130116E+00
         25   -1    0    0    0    0  0.00000000000E+00  0.00000000000E+00  0.99999998245E-14  0.12500000000E+03  0.12500000000E+03 0.  0.
        -11    1    3    3    0    0 -0.54123602617E+01 -0.45561855205E+02 -0.52329871264E+01  0.46179654047E+02  0.51100000000E-03 0. -1.
         23    2    1    0    0    0  0.19908259094E+02 -0.92399943981E+01  0.18391863886E+02  0.96364760629E+02  0.92011902259E+02 0.  0.
         11    1    3    3    0    0  0.25320619356E+02  0.36321860807E+02  0.23624851012E+02  0.50185106582E+02  0.51100000000E-03 0.  1.
         22    1    1    0    0    0 -0.19908259094E+02  0.92399943981E+01 -0.18391863886E+02  0.28635239371E+02  0.00000000000E+00 0.  1.
</event>
<event>
 5    1  0.6650580E-004  0.9118800E+02  0.7818608E-02  0.1130116E+00
         25   -1    0    0    0    0  0.00000000000E+00  0.00000000000E+00  0.99999998245E-14  0.12500000000E+03  0.12500000000E+03 0.  0.
        -11    1    3    3    0    0  0.28437019854E+01 -0.34829680404E+02 -0.36141137332E+02  0.50273005539E+02  0.51100000000E-03 0.  1.
         23    2    1    0    0    0 -0.13566849887E+02 -0.25623275342E+02  0.50608248613E+01  0.95568323130E+02  0.90923488619E+02 0.  0.
         11    1    3    3    0    0 -0.16410551872E+02  0.92064050623E+01  0.41201962193E+02  0.45295317592E+02  0.51100000000E-03 0. -1.
         22    1    1    0    0    0  0.13566849887E+02  0.25623275342E+02 -0.50608248613E+01  0.29431676870E+02  0.00000000000E+00 0.  1.
</event>
<event>
 5    1  0.6650580E-004  0.9118800E+02  0.7818608E-02  0.1130116E+00
         25   -1    0    0    0    0  0.00000000000E+00  0.00000000000E+00  0.99999998245E-14  0.12500000000E+03  0.12500000000E+03 0.  0.
        -11    1    3    3    0    0 -0.15407552655E+01  0.26469945036E+01  0.59697502501E+02  0.59776017865E+02  0.51100000000E-03 0.  1.
         23    2    1    0    0    0  0.10938740435E+02 -0.45652881211E+01  0.26133814514E+02  0.96303760543E+02  0.91928995076E+02 0.  0.
         11    1    3    3    0    0  0.12479495701E+02 -0.72122826247E+01 -0.33563687987E+02  0.36527742678E+02  0.51100000000E-03 0. -1.
         22    1    1    0    0    0 -0.10938740435E+02  0.45652881211E+01 -0.26133814514E+02  0.28696239457E+02  0.00000000000E+00 0.  1.
</event>
<event>
 5    1  0.6650580E-004  0.9118800E+02  0.7818608E-02  0.1130116E+00
         25   -1    0    0    0    0  0.00000000000E+00  0.00000000000E+00  0.99999998245E-14  0.12500000000E+03  0.12500000000E+03 0.  0.
        -11    1    3    3    0    0  0.32077662729E+01 -0.31714272413E+02 -0.45683665707E+02  0.55705315292E+02  0.51100000000E-03 0.  1.
         23    2    1    0    0    0 -0.13516980971E+02 -0.24163464125E+02 -0.10496561470E+02  0.95389873763E+02  0.90677827724E+02 0.  0.
         11    1    3    3    0    0 -0.16724747244E+02  0.75508082888E+01  0.35187104237E+02  0.39684558471E+02  0.51100000000E-03 0. -1.
         22    1    1    0    0    0  0.13516980971E+02  0.24163464125E+02  0.10496561470E+02  0.29610126237E+02  0.00000000000E+00 0.  1.
</event>
<event>
 5    1  0.6650580E-004  0.9118800E+02  0.7818608E-02  0.1130116E+00
         25   -1    0    0    0    0  0.00000000000E+00  0.00000000000E+00  0.99999998245E-14  0.12500000000E+03  0.12500000000E+03 0.  0.
        -11    1    3    3    0    0 -0.43971582097E+02  0.11856482793E+02  0.37350450262E+02  0.58899340840E+02  0.51100000000E-03 0. -1.
         23    2    1    0    0    0 -0.26104223503E+02 -0.63960016797E+01  0.99955291160E+01  0.96325099399E+02  0.91958005903E+02 0.  0.
         11    1    3    3    0    0  0.17867358594E+02 -0.18252484473E+02 -0.27354921146E+02  0.37425758559E+02  0.51100000000E-03 0.  1.
         22    1    1    0    0    0  0.26104223503E+02  0.63960016797E+01 -0.99955291160E+01  0.28674900601E+02  0.00000000000E+00 0. -1.
</event>
<event>
 5    1  0.6650580E-004  0.9118800E+02  0.7818608E-02  0.1130116E+00
         25   -1    0    0    0    0  0.00000000000E+00  0.00000000000E+00  0.99999998245E-14  0.12500000000E+03  0.12500000000E+03 0.  0.
        -11    1    3    3    0    0  0.38849767604E+02 -0.85033278922E+01  0.18956702555E+01  0.39814627891E+02  0.51100000000E-03 0. -1.
         23    2    1    0    0    0 -0.78996908832E+01  0.41147988649E+01  0.28553126629E+02  0.95089839083E+02  0.90263280302E+02 0.  0.
         11    1    3    3    0    0 -0.46749458487E+02  0.12618126757E+02  0.26657456374E+02  0.55275211192E+02  0.51100000000E-03 0.  1.
         22    1    1    0    0    0  0.78996908832E+01 -0.41147988649E+01 -0.28553126629E+02  0.29910160917E+02  0.00000000000E+00 0.  1.
</event>
<event>
 5    1  0.6650580E-004  0.9118800E+02  0.7818608E-02  0.1130116E+00
         25   -1    0    0    0    0  0.00000000000E+00  0.00000000000E+00  0.99999998245E-14  0.12500000000E+03  0.12500000000E+03 0.  0.
        -11    1    3    3    0    0  0.19393724687E+02  0.69346064253E+01 -0.28566182533E+02  0.35216929285E+02  0.51100000000E-03 0.  1.
         23    2    1    0    0    0 -0.23117425580E+02  0.16667435947E+02  0.11336817478E+02  0.94328478729E+02  0.89202688762E+02 0.  0.
         11    1    3    3    0    0 -0.42511150267E+02  0.97328295221E+01  0.39903000011E+02  0.59111549444E+02  0.51100000000E-03 0. -1.
         22    1    1    0    0    0  0.23117425580E+02 -0.16667435947E+02 -0.11336817478E+02  0.30671521271E+02  0.00000000000E+00 0. -1.
</event>
<event>
 5    1  0.6650580E-004  0.9118800E+02  0.7818608E-02  0.1130116E+00
         25   -1    0    0    0    0  0.00000000000E+00  0.00000000000E+00  0.99999998245E-14  0.12500000000E+03  0.12500000000E+03 0.  0.
        -11    1    3    3    0    0 -0.24067550951E+02  0.57278775583E+02 -0.24195617253E+01  0.62176839902E+02  0.51100000000E-03 0.  1.
         23    2    1    0    0    0 -0.99285541132E+01  0.21461073895E+02  0.33617359010E+01  0.10111579711E+03  0.98254512757E+02 0.  0.
         11    1    3    3    0    0  0.14138996838E+02 -0.35817701688E+02  0.57812976263E+01  0.38938957206E+02  0.51100000000E-03 0. -1.
         22    1    1    0    0    0  0.99285541132E+01 -0.21461073895E+02 -0.33617359010E+01  0.23884202891E+02  0.00000000000E+00 0.  1.
</event>
<event>
 5    1  0.6650580E-004  0.9118800E+02  0.7818608E-02  0.1130116E+00
         25   -1    0    0    0    0  0.00000000000E+00  0.00000000000E+00  0.99999998245E-14  0.12500000000E+03  0.12500000000E+03 0.  0.
        -11    1    3    3    0    0 -0.82723741034E+01 -0.88015555195E+01  0.16822528042E+02  0.20709828653E+02  0.51100000000E-03 0.  1.
         23    2    1    0    0    0  0.39858303460E+02 -0.13453540614E+01 -0.18660444814E+02  0.80969254686E+02  0.67950818034E+02 0.  0.
         11    1    3    3    0    0  0.48130677563E+02  0.74562014581E+01 -0.35482972856E+02  0.60259426033E+02  0.51100000000E-03 0. -1.
         22    1    1    0    0    0 -0.39858303460E+02  0.13453540614E+01  0.18660444814E+02  0.44030745314E+02  0.00000000000E+00 0. -1.
</event>
<event>
 5    1  0.6650580E-004  0.9118800E+02  0.7818608E-02  0.1130116E+00
         25   -1    0    0    0    0  0.00000000000E+00  0.00000000000E+00  0.99999998245E-14  0.12500000000E+03  0.12500000000E+03 0.  0.
        -11    1    3    3    0    0  0.55228780679E+02  0.25069554335E+02 -0.21704973293E+01  0.60691118203E+02  0.51100000000E-03 0. -1.
         23    2    1    0    0    0  0.29996625596E+02  0.20981402938E+01  0.58163810693E+00  0.94924461057E+02  0.90033967280E+02 0.  0.
         11    1    3    3    0    0 -0.25232155083E+02 -0.22971414041E+02  0.27521354362E+01  0.34233342853E+02  0.51100000000E-03 0.  1.
         22    1    1    0    0    0 -0.29996625596E+02 -0.20981402938E+01 -0.58163810693E+00  0.30075538943E+02  0.00000000000E+00 0. -1.
</event>
<event>
 5    1  0.6650580E-004  0.9118800E+02  0.7818608E-02  0.1130116E+00
         25   -1    0    0    0    0  0.00000000000E+00  0.00000000000E+00  0.99999998245E-14  0.12500000000E+03  0.12500000000E+03 0.  0.
        -11    1    3    3    0    0 -0.16147014692E+02 -0.13993517106E+02 -0.90365702185E+01  0.23199228565E+02  0.51100000000E-03 0. -1.
         23    2    1    0    0    0  0.28341441461E+02  0.19651522087E+02 -0.26344681958E+02  0.81601130293E+02  0.69103419403E+02 0.  0.
         11    1    3    3    0    0  0.44488456153E+02  0.33645039193E+02 -0.17308111739E+02  0.58401901727E+02  0.51100000000E-03 0.  1.
         22    1    1    0    0    0 -0.28341441461E+02 -0.19651522087E+02  0.26344681958E+02  0.43398869707E+02  0.00000000000E+00 0.  1.
</event>
<event>
 5    1  0.6650580E-004  0.9118800E+02  0.7818608E-02  0.1130116E+00
         25   -1    0    0    0    0  0.00000000000E+00  0.00000000000E+00  0.99999998245E-14  0.12500000000E+03  0.12500000000E+03 0.  0.
        -11    1    3    3    0    0 -0.36969656020E+02 -0.41155994660E+02  0.26642508895E+02  0.61403539337E+02  0.51100000000E-03 0.  1.
         23    2    1    0    0    0 -0.16751597785E+02 -0.11729917197E+02  0.17056480131E+02  0.98370495682E+02  0.94697539147E+02 0.  0.
         11    1    3    3    0    0  0.20218058235E+02  0.29426077462E+02 -0.95860287644E+01  0.36966956344E+02  0.51100000000E-03 0. -1.
         22    1    1    0    0    0  0.16751597785E+02  0.11729917197E+02 -0.17056480131E+02  0.26629504318E+02  0.00000000000E+00 0.  1.
</event>
<event>
 5    1  0.6650580E-004  0.9118800E+02  0.7818608E-02  0.1130116E+00
         25   -1    0    0    0    0  0.00000000000E+00  0.00000000000E+00  0.99999998245E-14  0.12500000000E+03  0.12500000000E+03 0.  0.
        -11    1    3    3    0    0 -0.29296020723E+02 -0.93505237144E+01  0.16867672161E+02  0.35074313797E+02  0.51100000000E-03 0.  1.
         23    2    1    0    0    0  0.25599491704E+02  0.42708138966E+00  0.22232520218E+02  0.91091279451E+02  0.84544780222E+02 0.  0.
         11    1    3    3    0    0  0.54895512427E+02  0.97776051040E+01  0.53648480570E+01  0.56016965654E+02  0.51100000000E-03 0. -1.
         22    1    1    0    0    0 -0.25599491704E+02 -0.42708138966E+00 -0.22232520218E+02  0.33908720549E+02  0.00000000000E+00 0. -1.
</event>
<event>
 5    1  0.6650580E-004  0.9118800E+02  0.7818608E-02  0.1130116E+00
         25   -1    0    0    0    0  0.00000000000E+00  0.00000000000E+00  0.99999998245E-14  0.12500000000E+03  0.12500000000E+03 0.  0.
        -11    1    3    3    0    0 -0.31484319494E+02 -0.34943811851E+01 -0.32342029847E+02  0.45271182542E+02  0.51100000000E-03 0. -1.
         23    2    1    0    0    0  0.15027691210E+02  0.10776828632E+02 -0.24109780175E+02  0.94614920790E+02  0.89603181850E+02 0.  0.
         11    1    3    3    0    0  0.46512010704E+02  0.14271209817E+02  0.82322496714E+01  0.49343738248E+02  0.51100000000E-03 0.  1.
         22    1    1    0    0    0 -0.15027691210E+02 -0.10776828632E+02  0.24109780175E+02  0.30385079210E+02  0.00000000000E+00 0.  1.
</event>
<event>
 5    1  0.6650580E-004  0.9118800E+02  0.7818608E-02  0.1130116E+00
         25   -1    0    0    0    0  0.00000000000E+00  0.00000000000E+00  0.99999998245E-14  0.12500000000E+03  0.12500000000E+03 0.  0.
        -11    1    3    3    0    0 -0.19973455932E+02  0.50778523419E+02 -0.25581305090E+02  0.60264421949E+02  0.51100000000E-03 0.  1.
         23    2    1    0    0    0 -0.12259935228E+02  0.27203671545E+02 -0.10618257099E+01  0.95142451019E+02  0.90336109916E+02 0.  0.
         11    1    3    3    0    0  0.77135207040E+01 -0.23574851874E+02  0.24519479380E+02  0.34878029071E+02  0.51100000000E-03 0. -1.
         22    1    1    0    0    0  0.12259935228E+02 -0.27203671545E+02  0.10618257099E+01  0.29857548981E+02  0.00000000000E+00 0.  1.
</event>
<event>
 5    1  0.6650580E-004  0.9118800E+02  0.7818608E-02  0.1130116E+00
         25   -1    0    0    0    0  0.00000000000E+00  0.00000000000E+00  0.99999998245E-14  0.12500000000E+03  0.12500000000E+03 0.  0.
        -11    1    3    3    0    0  0.40497542644E+00  0.44091390615E+02 -0.38316139235E+02  0.58415248503E+02  0.51100000000E-03 0. -1.
         23    2    1    0    0    0  0.14259416386E+02  0.13440056103E+02 -0.21108993153E+02  0.96197992160E+02  0.91785064362E+02 0.  0.
         11    1    3    3    0    0  0.13854440959E+02 -0.30651334512E+02  0.17207146082E+02  0.37782743657E+02  0.51100000000E-03 0.  1.
         22    1    1    0    0    0 -0.14259416386E+02 -0.13440056103E+02  0.21108993153E+02  0.28802007840E+02  0.00000000000E+00 0. -1.
</event>
<event>
 5    1  0.6650580E-004  0.9118800E+02  0.7818608E-02  0.1130116E+00
         25   -1    0    0    0    0  0.00000000000E+00  0.00000000000E+00  0.99999998245E-14  0.12500000000E+03  0.12500000000E+03 0.  0.
        -11    1    3    3    0    0 -0.41673917557E+00 -0.26167091936E+02 -0.53438827897E+02  0.59502930173E+02  0.51100000000E-03 0. -1.
         23    2    1    0    0    0 -0.11709443406E+02 -0.18460196235E+02 -0.21080683512E+02  0.94630852379E+02  0.89625404293E+02 0.  0.
         11    1    3    3    0    0 -0.11292704230E+02  0.77068957010E+01  0.32358144385E+02  0.35127922205E+02  0.51100000000E-03 0.  1.
         22    1    1    0    0    0  0.11709443406E+02  0.18460196235E+02  0.21080683512E+02  0.30369147621E+02  0.00000000000E+00 0. -1.
</event>
<event>
 5    1  0.6650580E-004  0.9118800E+02  0.7818608E-02  0.1130116E+00
         25   -1    0    0    0    0  0.00000000000E+00  0.00000000000E+00  0.99999998245E-14  0.12500000000E+03  0.12500000000E+03 0.  0.
        -11    1    3    3    0    0  0.24587968185E+02 -0.39283290538E+02  0.55953472411E+01  0.46680327826E+02  0.51100000000E-03 0.  1.
         23    2    1    0    0    0  0.27661124237E+02  0.54301538196E+01 -0.11372055809E+02  0.94603486748E+02  0.89587229486E+02 0.  0.
         11    1    3    3    0    0  0.30731560525E+01  0.44713444358E+02 -0.16967403050E+02  0.47923158921E+02  0.51100000000E-03 0. -1.
         22    1    1    0    0    0 -0.27661124237E+02 -0.54301538196E+01  0.11372055809E+02  0.30396513252E+02  0.00000000000E+00 0. -1.
</event>
<event>
 5    1  0.6650580E-004  0.9118800E+02  0.7818608E-02  0.1130116E+00
         25   -1    0    0    0    0  0.00000000000E+00  0.00000000000E+00  0.99999998245E-14  0.12500000000E+03  0.12500000000E+03 0.  0.
        -11    1    3    3    0    0 -0.40562117137E+02  0.22498753795E+02 -0.12605430641E+02  0.48066372349E+02  0.51100000000E-03 0.  1.
         23    2    1    0    0    0  0.10892879776E+02  0.43957676727E+01 -0.18662789164E+02  0.10294830386E+03  0.10055881844E+03 0.  0.
         11    1    3    3    0    0  0.51454996913E+02 -0.18102986122E+02 -0.60573585232E+01  0.54881931511E+02  0.51100000000E-03 0. -1.
         22    1    1    0    0    0 -0.10892879776E+02 -0.43957676727E+01  0.18662789164E+02  0.22051696139E+02  0.00000000000E+00 0. -1.
</event>
<event>
 5    1  0.6650580E-004  0.9118800E+02  0.7818608E-02  0.1130116E+00
         25   -1    0    0    0    0  0.00000000000E+00  0.00000000000E+00  0.99999998245E-14  0.12500000000E+03  0.12500000000E+03 0.  0.
        -11    1    3    3    0    0 -0.83056780113E+01 -0.56885065024E+02  0.89366934998E+01  0.58178685109E+02  0.51100000000E-03 0. -1.
         23    2    1    0    0    0  0.84852077163E+01 -0.28030844157E+02 -0.65648553759E+01  0.94986264807E+02  0.90119732588E+02 0.  0.
         11    1    3    3    0    0  0.16790885728E+02  0.28854220868E+02 -0.15501548876E+02  0.36807579698E+02  0.51100000000E-03 0.  1.
         22    1    1    0    0    0 -0.84852077163E+01  0.28030844157E+02  0.65648553759E+01  0.30013735193E+02  0.00000000000E+00 0. -1.
</event>
<event>
 5    1  0.6650580E-004  0.9118800E+02  0.7818608E-02  0.1130116E+00
         25   -1    0    0    0    0  0.00000000000E+00  0.00000000000E+00  0.99999998245E-14  0.12500000000E+03  0.12500000000E+03 0.  0.
        -11    1    3    3    0    0 -0.29715405810E+02 -0.32002501587E+02 -0.40963238346E+02  0.59876141712E+02  0.51100000000E-03 0.  1.
         23    2    1    0    0    0 -0.79779002905E+01 -0.25188066721E+02 -0.14260494930E+02  0.94975887792E+02  0.90105338066E+02 0.  0.
         11    1    3    3    0    0  0.21737505519E+02  0.68144348656E+01  0.26702743416E+02  0.35099746080E+02  0.51100000000E-03 0. -1.
         22    1    1    0    0    0  0.79779002905E+01  0.25188066721E+02  0.14260494930E+02  0.30024112208E+02  0.00000000000E+00 0.  1.
</event>
<event>
 5    1  0.6650580E-004  0.9118800E+02  0.7818608E-02  0.1130116E+00
         25   -1    0    0    0    0  0.00000000000E+00  0.00000000000E+00  0.99999998245E-14  0.12500000000E+03  0.12500000000E+03 0.  0.
        -11    1    3    3    0    0  0.16625805779E+02 -0.30692894201E+02  0.18490636393E+02  0.39501579800E+02  0.51100000000E-03 0.  1.
         23    2    1    0    0    0 -0.25154151398E+02 -0.86436249518E+01 -0.12096765892E+02  0.95780565887E+02  0.91214809498E+02 0.  0.
         11    1    3    3    0    0 -0.41779957177E+02  0.22049269249E+02 -0.30587402285E+02  0.56278986087E+02  0.51100000000E-03 0. -1.
         22    1    1    0    0    0  0.25154151398E+02  0.86436249518E+01  0.12096765892E+02  0.29219434113E+02  0.00000000000E+00 0. -1.
</event>
<event>
 5    1  0.6650580E-004  0.9118800E+02  0.7818608E-02  0.1130116E+00
         25   -1    0    0    0    0  0.00000000000E+00  0.00000000000E+00  0.99999998245E-14  0.12500000000E+03  0.12500000000E+03 0.  0.
        -11    1    3    3    0    0  0.24161295938E+02  0.46271811493E+02 -0.32364539597E+02  0.61419151604E+02  0.51100000000E-03 0.  1.
         23    2    1    0    0    0  0.79514854510E+01  0.30720777249E+02 -0.14543351770E+02  0.90092961221E+02  0.83055645836E+02 0.  0.
         11    1    3    3    0    0 -0.16209810487E+02 -0.15551034244E+02  0.17821187827E+02  0.28673809616E+02  0.51100000000E-03 0. -1.
         22    1    1    0    0    0 -0.79514854510E+01 -0.30720777249E+02  0.14543351770E+02  0.34907038779E+02  0.00000000000E+00 0.  1.
</event>
<event>
 5    1  0.6650580E-004  0.9118800E+02  0.7818608E-02  0.1130116E+00
         25   -1    0    0    0    0  0.00000000000E+00  0.00000000000E+00  0.99999998245E-14  0.12500000000E+03  0.12500000000E+03 0.  0.
        -11    1    3    3    0    0  0.14993306234E+01  0.42818662457E+02 -0.16161968010E+02  0.45791866714E+02  0.51100000000E-03 0. -1.
         23    2    1    0    0    0 -0.21413619023E+02 -0.14637566183E+01 -0.19819908600E+02  0.95785030549E+02  0.91220927628E+02 0.  0.
         11    1    3    3    0    0 -0.22912949647E+02 -0.44282419075E+02 -0.36579405901E+01  0.49993163836E+02  0.51100000000E-03 0.  1.
         22    1    1    0    0    0  0.21413619023E+02  0.14637566183E+01  0.19819908600E+02  0.29214969451E+02  0.00000000000E+00 0.  1.
</event>
<event>
 5    1  0.6650580E-004  0.9118800E+02  0.7818608E-02  0.1130116E+00
         25   -1    0    0    0    0  0.00000000000E+00  0.00000000000E+00  0.99999998245E-14  0.12500000000E+03  0.12500000000E+03 0.  0.
        -11    1    3    3    0    0 -0.26628120269E+02 -0.11234622888E+02 -0.24029062584E+02  0.37585494402E+02  0.51100000000E-03 0. -1.
         23    2    1    0    0    0 -0.95191061325E+01  0.15402520927E+02  0.23893449154E+02  0.95020874847E+02  0.90167725444E+02 0.  0.
         11    1    3    3    0    0  0.17109014137E+02  0.26637143815E+02  0.47922511738E+02  0.57435380445E+02  0.51100000000E-03 0.  1.
         22    1    1    0    0    0  0.95191061325E+01 -0.15402520927E+02 -0.23893449154E+02  0.29979125153E+02  0.00000000000E+00 0.  1.
</event>
<event>
 5    1  0.6650580E-004  0.9118800E+02  0.7818608E-02  0.1130116E+00
         25   -1    0    0    0    0  0.00000000000E+00  0.00000000000E+00  0.99999998245E-14  0.12500000000E+03  0.12500000000E+03 0.  0.
        -11    1    3    3    0    0 -0.31663168516E+02  0.14309842219E+02  0.10966064657E+02  0.36436004159E+02  0.51100000000E-03 0. -1.
         23    2    1    0    0    0  0.84747783200E+01 -0.26078136667E+02 -0.79729572292E+01  0.96443755033E+02  0.92119155219E+02 0.  0.
         11    1    3    3    0    0  0.40137946836E+02 -0.40387978886E+02 -0.18939021886E+02  0.60007750874E+02  0.51100000000E-03 0.  1.
         22    1    1    0    0    0 -0.84747783200E+01  0.26078136667E+02  0.79729572292E+01  0.28556244967E+02  0.00000000000E+00 0.  1.
</event>
<event>
 5    1  0.6650580E-004  0.9118800E+02  0.7818608E-02  0.1130116E+00
         25   -1    0    0    0    0  0.00000000000E+00  0.00000000000E+00  0.99999998245E-14  0.12500000000E+03  0.12500000000E+03 0.  0.
        -11    1    3    3    0    0 -0.17965616120E+02  0.42972095681E+02 -0.41574039095E+02  0.62432083873E+02  0.51100000000E-03 0. -1.
         23    2    1    0    0    0 -0.54702698750E+01  0.17397083827E+02 -0.17755797099E+02  0.99547088402E+02  0.96238101086E+02 0.  0.
         11    1    3    3    0    0  0.12495346245E+02 -0.25575011854E+02  0.23818241996E+02  0.37115004529E+02  0.51100000000E-03 0.  1.
         22    1    1    0    0    0  0.54702698750E+01 -0.17397083827E+02  0.17755797099E+02  0.25452911598E+02  0.00000000000E+00 0. -1.
</event>
<event>
 5    1  0.6650580E-004  0.9118800E+02  0.7818608E-02  0.1130116E+00
         25   -1    0    0    0    0  0.00000000000E+00  0.00000000000E+00  0.99999998245E-14  0.12500000000E+03  0.12500000000E+03 0.  0.
        -11    1    3    3    0    0  0.19847496456E+02  0.62349085309E+00  0.30785202501E+02  0.36633871617E+02  0.51100000000E-03 0.  1.
         23    2    1    0    0    0  0.13975598926E+01 -0.19733715528E+02 -0.21552593572E+02  0.95744453656E+02  0.91165308171E+02 0.  0.
         11    1    3    3    0    0 -0.18449936563E+02 -0.20357206381E+02 -0.52337796073E+02  0.59110582038E+02  0.51100000000E-03 0. -1.
         22    1    1    0    0    0 -0.13975598926E+01  0.19733715528E+02  0.21552593572E+02  0.29255546344E+02  0.00000000000E+00 0. -1.
</event>
<event>
 5    1  0.6650580E-004  0.9118800E+02  0.7818608E-02  0.1130116E+00
         25   -1    0    0    0    0  0.00000000000E+00  0.00000000000E+00  0.99999998245E-14  0.12500000000E+03  0.12500000000E+03 0.  0.
        -11    1    3    3    0    0 -0.33061255120E+02 -0.23850253126E+02  0.11939659966E+02  0.42478661051E+02  0.51100000000E-03 0.  1.
         23    2    1    0    0    0  0.17816909283E+02 -0.11233722387E+02  0.20518457064E+02  0.95595138917E+02  0.90960347015E+02 0.  0.
         11    1    3    3    0    0  0.50878164403E+02  0.12616530740E+02  0.85787970986E+01  0.53116477866E+02  0.51100000000E-03 0. -1.
         22    1    1    0    0    0 -0.17816909283E+02  0.11233722387E+02 -0.20518457064E+02  0.29404861083E+02  0.00000000000E+00 0.  1.
</event>
<event>
 5    1  0.6650580E-004  0.9118800E+02  0.7818608E-02  0.1130116E+00
         25   -1    0    0    0    0  0.00000000000E+00  0.00000000000E+00  0.99999998245E-14  0.12500000000E+03  0.12500000000E+03 0.  0.
        -11    1    3    3    0    0 -0.51404335886E+02 -0.25726866573E+01 -0.20337198516E+02  0.55340998439E+02  0.51100000000E-03 0. -1.
         23    2    1    0    0    0 -0.11094452234E+02 -0.11490593133E+02 -0.23321379926E+02  0.96733281715E+02  0.92511190830E+02 0.  0.
         11    1    3    3    0    0  0.40309883651E+02 -0.89179064761E+01 -0.29841814102E+01  0.41392283277E+02  0.51100000000E-03 0.  1.
         22    1    1    0    0    0  0.11094452234E+02  0.11490593133E+02  0.23321379926E+02  0.28266718285E+02  0.00000000000E+00 0.  1.
</event>
<event>
 5    1  0.6650580E-004  0.9118800E+02  0.7818608E-02  0.1130116E+00
         25   -1    0    0    0    0  0.00000000000E+00  0.00000000000E+00  0.99999998245E-14  0.12500000000E+03  0.12500000000E+03 0.  0.
        -11    1    3    3    0    0  0.92165672065E+01  0.47976504530E+02  0.26194475810E+02  0.55433209011E+02  0.51100000000E-03 0. -1.
         23    2    1    0    0    0  0.91472862289E+01  0.74929524773E+01  0.26569030418E+02  0.95918553002E+02  0.91403710266E+02 0.  0.
         11    1    3    3    0    0 -0.69280977528E-01 -0.40483552053E+02  0.37455460736E+00  0.40485343991E+02  0.51100000000E-03 0.  1.
         22    1    1    0    0    0 -0.91472862289E+01 -0.74929524773E+01 -0.26569030418E+02  0.29081446998E+02  0.00000000000E+00 0. -1.
</event>
<event>
 5    1  0.6650580E-004  0.9118800E+02  0.7818608E-02  0.1130116E+00
         25   -1    0    0    0    0  0.00000000000E+00  0.00000000000E+00  0.99999998245E-14  0.12500000000E+03  0.12500000000E+03 0.  0.
        -11    1    3    3    0    0  0.19089548852E+02  0.19666801443E+02 -0.29547138250E+02  0.40301703852E+02  0.51100000000E-03 0.  1.
         23    2    1    0    0    0 -0.23532546726E+02 -0.24512032893E+01  0.66359897264E+01  0.10042713870E+03  0.97374455963E+02 0.  0.
         11    1    3    3    0    0 -0.42622095578E+02 -0.22118004733E+02  0.36183127976E+02  0.60125434844E+02  0.51100000000E-03 0. -1.
         22    1    1    0    0    0  0.23532546726E+02  0.24512032893E+01 -0.66359897264E+01  0.24572861304E+02  0.00000000000E+00 0. -1.
</event>
<event>
 5    1  0.6650580E-004  0.9118800E+02  0.7818608E-02  0.1130116E+00
         25   -1    0    0    0    0  0.00000000000E+00  0.00000000000E+00  0.99999998245E-14  0.12500000000E+03  0.12500000000E+03 0.  0.
        -11    1    3    3    0    0  0.33007839642E+02  0.33135365385E+02 -0.83387446285E+01  0.47507942275E+02  0.51100000000E-03 0.  1.
         23    2    1    0    0    0  0.25272491806E+01  0.13188205500E+02  0.24828582561E+02  0.96772809833E+02  0.92564585335E+02 0.  0.
         11    1    3    3    0    0 -0.30480590461E+02 -0.19947159885E+02  0.33167327189E+02  0.49264867558E+02  0.51100000000E-03 0. -1.
         22    1    1    0    0    0 -0.25272491806E+01 -0.13188205500E+02 -0.24828582561E+02  0.28227190167E+02  0.00000000000E+00 0. -1.
</event>
<event>
 5    1  0.6650580E-004  0.9118800E+02  0.7818608E-02  0.1130116E+00
         25   -1    0    0    0    0  0.00000000000E+00  0.00000000000E+00  0.99999998245E-14  0.12500000000E+03  0.12500000000E+03 0.  0.
        -11    1    3    3    0    0  0.11181998529E+02 -0.32421841995E+02  0.90072773044E+01  0.35459046436E+02  0.51100000000E-03 0. -1.
         23    2    1    0    0    0 -0.11708045591E+02  0.23684207578E+02  0.11679081597E+02  0.96113654314E+02  0.91670134605E+02 0.  0.
         11    1    3    3    0    0 -0.22890044120E+02  0.56106049572E+02  0.26718042925E+01  0.60654607878E+02  0.51100000000E-03 0.  1.
         22    1    1    0    0    0  0.11708045591E+02 -0.23684207578E+02 -0.11679081597E+02  0.28886345686E+02  0.00000000000E+00 0.  1.
</event>
<event>
 5    1  0.6650580E-004  0.9118800E+02  0.7818608E-02  0.1130116E+00
         25   -1    0    0    0    0  0.00000000000E+00  0.00000000000E+00  0.99999998245E-14  0.12500000000E+03  0.12500000000E+03 0.  0.
        -11    1    3    3    0    0  0.15292122039E+02  0.33593223113E+02 -0.39363463526E+01  0.37119381170E+02  0.51100000000E-03 0.  1.
         23    2    1    0    0    0  0.51213991572E+00 -0.21552999355E+02  0.16597356177E+02  0.97792164722E+02  0.93931044817E+02 0.  0.
         11    1    3    3    0    0 -0.14779982123E+02 -0.55146222468E+02  0.20533702529E+02  0.60672783551E+02  0.51100000000E-03 0. -1.
         22    1    1    0    0    0 -0.51213991572E+00  0.21552999355E+02 -0.16597356177E+02  0.27207835278E+02  0.00000000000E+00 0. -1.
</event>
<event>
 5    1  0.6650580E-004  0.9118800E+02  0.7818608E-02  0.1130116E+00
         25   -1    0    0    0    0  0.00000000000E+00  0.00000000000E+00  0.99999998245E-14  0.12500000000E+03  0.12500000000E+03 0.  0.
        -11    1    3    3    0    0 -0.18070334174E+02  0.43069128776E+00 -0.27452311336E+02  0.32868706548E+02  0.51100000000E-03 0. -1.
         23    2    1    0    0    0  0.14202367975E+02  0.11586036411E+00  0.26037351472E+02  0.95340863947E+02  0.90610242174E+02 0.  0.
         11    1    3    3    0    0  0.32272702149E+02 -0.31483092364E+00  0.53489662809E+02  0.62472157399E+02  0.51100000000E-03 0.  1.
         22    1    1    0    0    0 -0.14202367975E+02 -0.11586036411E+00 -0.26037351472E+02  0.29659136053E+02  0.00000000000E+00 0.  1.
</event>
<event>
 5    1  0.6650580E-004  0.9118800E+02  0.7818608E-02  0.1130116E+00
         25   -1    0    0    0    0  0.00000000000E+00  0.00000000000E+00  0.99999998245E-14  0.12500000000E+03  0.12500000000E+03 0.  0.
        -11    1    3    3    0    0  0.19553668454E+01  0.65395191095E+01  0.26702318463E+02  0.27560888615E+02  0.51100000000E-03 0.  1.
         23    2    1    0    0    0  0.15595739000E+02 -0.19138771228E+01 -0.32500748753E+02  0.88900295430E+02  0.81240838606E+02 0.  0.
         11    1    3    3    0    0  0.13640372154E+02 -0.84533962322E+01 -0.59203067216E+02  0.61339406815E+02  0.51100000000E-03 0. -1.
         22    1    1    0    0    0 -0.15595739000E+02  0.19138771228E+01  0.32500748753E+02  0.36099704570E+02  0.00000000000E+00 0. -1.
</event>
<event>
 5    1  0.6650580E-004  0.9118800E+02  0.7818608E-02  0.1130116E+00
         25   -1    0    0    0    0  0.00000000000E+00  0.00000000000E+00  0.99999998245E-14  0.12500000000E+03  0.12500000000E+03 0.  0.
        -11    1    3    3    0    0  0.11482912744E+02  0.49071828570E+02  0.33697147789E+02  0.60625072484E+02  0.51100000000E-03 0.  1.
         23    2    1    0    0    0  0.17247261817E+02  0.30299036684E+02  0.24979219756E+02  0.82111061056E+02  0.70019749099E+02 0.  0.
         11    1    3    3    0    0  0.57643490728E+01 -0.18772791886E+02 -0.87179280329E+01  0.21485988571E+02  0.51100000000E-03 0. -1.
         22    1    1    0    0    0 -0.17247261817E+02 -0.30299036684E+02 -0.24979219756E+02  0.42888938944E+02  0.00000000000E+00 0.  1.
</event>
<event>
 5    1  0.6650580E-004  0.9118800E+02  0.7818608E-02  0.1130116E+00
         25   -1    0    0    0    0  0.00000000000E+00  0.00000000000E+00  0.99999998245E-14  0.12500000000E+03  0.12500000000E+03 0.  0.
        -11    1    3    3    0    0 -0.37734612101E+02 -0.98539249774E+00 -0.28066986030E+02  0.47038576231E+02  0.51100000000E-03 0. -1.
         23    2    1    0    0    0 -0.33102494062E+01 -0.28397213548E+02 -0.87074390957E+01  0.95113899819E+02  0.90296594369E+02 0.  0.
         11    1    3    3    0    0  0.34424362695E+02 -0.27411821051E+02  0.19359546935E+02  0.48075323587E+02  0.51100000000E-03 0.  1.
         22    1    1    0    0    0  0.33102494062E+01  0.28397213548E+02  0.87074390957E+01  0.29886100181E+02  0.00000000000E+00 0. -1.
</event>
<event>
 5    1  0.6650580E-004  0.9118800E+02  0.7818608E-02  0.1130116E+00
         25   -1    0    0    0    0  0.00000000000E+00  0.00000000000E+00  0.99999998245E-14  0.12500000000E+03  0.12500000000E+03 0.  0.
        -11    1    3    3    0    0  0.14461652326E+02  0.54065335844E+02 -0.26568401253E+02  0.61952238647E+02  0.51100000000E-03 0.  1.
         23    2    1    0    0    0  0.90977836497E+01  0.22297218725E+02 -0.16866410700E+02  0.95599125181E+02  0.90965824875E+02 0.  0.
         11    1    3    3    0    0 -0.53638686766E+01 -0.31768117119E+02  0.97019905524E+01  0.33646886534E+02  0.51100000000E-03 0. -1.
         22    1    1    0    0    0 -0.90977836497E+01 -0.22297218725E+02  0.16866410700E+02  0.29400874819E+02  0.00000000000E+00 0.  1.
</event>
<event>
 5    1  0.6650580E-004  0.9118800E+02  0.7818608E-02  0.1130116E+00
         25   -1    0    0    0    0  0.00000000000E+00  0.00000000000E+00  0.99999998245E-14  0.12500000000E+03  0.12500000000E+03 0.  0.
        -11    1    3    3    0    0 -0.40872121875E+02  0.20739924292E+02 -0.33094872990E+00  0.45834313931E+02  0.51100000000E-03 0. -1.
         23    2    1    0    0    0 -0.18448734891E+02 -0.20558568453E+02 -0.12949940760E+02  0.94492435010E+02  0.89432146080E+02 0.  0.
         11    1    3    3    0    0  0.22423386984E+02 -0.41298492745E+02 -0.12618992030E+02  0.48658121079E+02  0.51100000000E-03 0.  1.
         22    1    1    0    0    0  0.18448734891E+02  0.20558568453E+02  0.12949940760E+02  0.30507564990E+02  0.00000000000E+00 0. -1.
</event>
<event>
 5    1  0.6650580E-004  0.9118800E+02  0.7818608E-02  0.1130116E+00
         25   -1    0    0    0    0  0.00000000000E+00  0.00000000000E+00  0.99999998245E-14  0.12500000000E+03  0.12500000000E+03 0.  0.
        -11    1    3    3    0    0  0.55124382992E+01 -0.12450234417E+02 -0.39254455000E+02  0.41548857393E+02  0.51100000000E-03 0.  1.
         23    2    1    0    0    0  0.27984721168E+02  0.98797516007E+01  0.38829281907E+01  0.95069559945E+02  0.90235192615E+02 0.  0.
         11    1    3    3    0    0  0.22472282869E+02  0.22329986018E+02  0.43137383191E+02  0.53520702552E+02  0.51100000000E-03 0. -1.
         22    1    1    0    0    0 -0.27984721168E+02 -0.98797516007E+01 -0.38829281907E+01  0.29930440055E+02  0.00000000000E+00 0. -1.
</event>
<event>
 5    1  0.6650580E-004  0.9118800E+02  0.7818608E-02  0.1130116E+00
         25   -1    0    0    0    0  0.00000000000E+00  0.00000000000E+00  0.99999998245E-14  0.12500000000E+03  0.12500000000E+03 0.  0.
        -11    1    3    3    0    0  0.31281329528E+02  0.16501534166E+02  0.81468180472E+01  0.36293151577E+02  0.51100000000E-03 0. -1.
         23    2    1    0    0    0 -0.27609314687E+02  0.85337966351E+01  0.31764964268E+01  0.95927847138E+02  0.91416419666E+02 0.  0.
         11    1    3    3    0    0 -0.58890644214E+02 -0.79677375311E+01 -0.49703216204E+01  0.59634695561E+02  0.51100000000E-03 0.  1.
         22    1    1    0    0    0  0.27609314687E+02 -0.85337966351E+01 -0.31764964268E+01  0.29072152862E+02  0.00000000000E+00 0.  1.
</event>
<event>
 5    1  0.6650580E-004  0.9118800E+02  0.7818608E-02  0.1130116E+00
         25   -1    0    0    0    0  0.00000000000E+00  0.00000000000E+00  0.99999998245E-14  0.12500000000E+03  0.12500000000E+03 0.  0.
        -11    1    3    3    0    0  0.33005057423E+02  0.22436648757E+02  0.60103735096E+01  0.40359157734E+02  0.51100000000E-03 0.  1.
         23    2    1    0    0    0 -0.10001432643E+02  0.11002977193E+02 -0.25911708323E+02  0.95125080916E+02  0.90312071337E+02 0.  0.
         11    1    3    3    0    0 -0.43006490066E+02 -0.11433671565E+02 -0.31922081833E+02  0.54765923183E+02  0.51100000000E-03 0. -1.
         22    1    1    0    0    0  0.10001432643E+02 -0.11002977193E+02  0.25911708323E+02  0.29874919084E+02  0.00000000000E+00 0. -1.
</event>
<event>
 5    1  0.6650580E-004  0.9118800E+02  0.7818608E-02  0.1130116E+00
         25   -1    0    0    0    0  0.00000000000E+00  0.00000000000E+00  0.99999998245E-14  0.12500000000E+03  0.12500000000E+03 0.  0.
        -11    1    3    3    0    0  0.36206937448E+02  0.20288101627E+02  0.17048271537E+02  0.44868618762E+02  0.51100000000E-03 0.  1.
         23    2    1    0    0    0 -0.27095268175E+01  0.22508881698E+02 -0.17030235894E+02  0.96644749596E+02  0.92391489862E+02 0.  0.
         11    1    3    3    0    0 -0.38916464265E+02  0.22207800712E+01 -0.34078507432E+02  0.51776130833E+02  0.51100000000E-03 0. -1.
         22    1    1    0    0    0  0.27095268175E+01 -0.22508881698E+02  0.17030235894E+02  0.28355250404E+02  0.00000000000E+00 0. -1.
</event>
<event>
 5    1  0.6650580E-004  0.9118800E+02  0.7818608E-02  0.1130116E+00
         25   -1    0    0    0    0  0.00000000000E+00  0.00000000000E+00  0.99999998245E-14  0.12500000000E+03  0.12500000000E+03 0.  0.
        -11    1    3    3    0    0 -0.45899174875E+02  0.55669611201E+01 -0.27262528772E+02  0.53674675459E+02  0.51100000000E-03 0. -1.
         23    2    1    0    0    0 -0.54892923298E+01 -0.56958112125E+01 -0.28277373635E+02  0.95637022369E+02  0.91017886112E+02 0.  0.
         11    1    3    3    0    0  0.40409882545E+02 -0.11262772333E+02 -0.10148448631E+01  0.41962346911E+02  0.51100000000E-03 0.  1.
         22    1    1    0    0    0  0.54892923298E+01  0.56958112125E+01  0.28277373635E+02  0.29362977631E+02  0.00000000000E+00 0. -1.
</event>
<event>
 5    1  0.6650580E-004  0.9118800E+02  0.7818608E-02  0.1130116E+00
         25   -1    0    0    0    0  0.00000000000E+00  0.00000000000E+00  0.99999998245E-14  0.12500000000E+03  0.12500000000E+03 0.  0.
        -11    1    3    3    0    0  0.48439229481E+02 -0.72984258706E+01 -0.32345647845E+02  0.58701506860E+02  0.51100000000E-03 0. -1.
         23    2    1    0    0    0  0.15529513024E+02  0.72106260578E+01 -0.23820923506E+02  0.95664095385E+02  0.91055059422E+02 0.  0.
         11    1    3    3    0    0 -0.32909716457E+02  0.14509051928E+02  0.85247243389E+01  0.36962588525E+02  0.51100000000E-03 0.  1.
         22    1    1    0    0    0 -0.15529513024E+02 -0.72106260578E+01  0.23820923506E+02  0.29335904615E+02  0.00000000000E+00 0. -1.
</event>
<event>
 5    1  0.6650580E-004  0.9118800E+02  0.7818608E-02  0.1130116E+00
         25   -1    0    0    0    0  0.00000000000E+00  0.00000000000E+00  0.99999998245E-14  0.12500000000E+03  0.12500000000E+03 0.  0.
        -11    1    3    3    0    0  0.19683512927E+02  0.22293320587E+02  0.20759346355E+02  0.36268213153E+02  0.51100000000E-03 0.  1.
         23    2    1    0    0    0 -0.31235241775E+01 -0.91531921920E+01 -0.26117618674E+02  0.97149195060E+02  0.93071471274E+02 0.  0.
         11    1    3    3    0    0 -0.22807037105E+02 -0.31446512779E+02 -0.46876965029E+02  0.60880981908E+02  0.51100000000E-03 0. -1.
         22    1    1    0    0    0  0.31235241775E+01  0.91531921920E+01  0.26117618674E+02  0.27850804940E+02  0.00000000000E+00 0. -1.
</event>
<event>
 5    1  0.6650580E-004  0.9118800E+02  0.7818608E-02  0.1130116E+00
         25   -1    0    0    0    0  0.00000000000E+00  0.00000000000E+00  0.99999998245E-14  0.12500000000E+03  0.12500000000E+03 0.  0.
        -11    1    3    3    0    0 -0.72421740814E+01  0.39214271500E+01  0.60899549901E+02  0.61453900240E+02  0.51100000000E-03 0. -1.
         23    2    1    0    0    0 -0.10254349171E+02  0.60078633100E+01  0.27659760519E+02  0.94895042760E+02  0.89993114681E+02 0.  0.
         11    1    3    3    0    0 -0.30121750897E+01  0.20864361600E+01 -0.33239789382E+02  0.33441142520E+02  0.51100000000E-03 0.  1.
         22    1    1    0    0    0  0.10254349171E+02 -0.60078633100E+01 -0.27659760519E+02  0.30104957240E+02  0.00000000000E+00 0. -1.
</event>
<event>
 5    1  0.6650580E-004  0.9118800E+02  0.7818608E-02  0.1130116E+00
         25   -1    0    0    0    0  0.00000000000E+00  0.00000000000E+00  0.99999998245E-14  0.12500000000E+03  0.12500000000E+03 0.  0.
        -11    1    3    3    0    0 -0.22651721398E+02 -0.73394133671E+01 -0.47900092908E+02  0.53491928099E+02  0.51100000000E-03 0. -1.
         23    2    1    0    0    0 -0.86601125940E+01  0.20208877683E+02 -0.16813906528E+02  0.97321420917E+02  0.93302493156E+02 0.  0.
         11    1    3    3    0    0  0.13991608804E+02  0.27548291050E+02  0.31086186380E+02  0.43829492818E+02  0.51100000000E-03 0.  1.
         22    1    1    0    0    0  0.86601125940E+01 -0.20208877683E+02  0.16813906528E+02  0.27678579083E+02  0.00000000000E+00 0. -1.
</event>
<event>
 5    1  0.6650580E-004  0.9118800E+02  0.7818608E-02  0.1130116E+00
         25   -1    0    0    0    0  0.00000000000E+00  0.00000000000E+00  0.99999998245E-14  0.12500000000E+03  0.12500000000E+03 0.  0.
        -11    1    3    3    0    0  0.15455324843E+02  0.51621651007E+02 -0.21454067600E+02  0.57999473580E+02  0.51100000000E-03 0. -1.
         23    2    1    0    0    0 -0.95481403886E+01  0.25884771929E+02 -0.91878308066E+01  0.95920718069E+02  0.91406671076E+02 0.  0.
         11    1    3    3    0    0 -0.25003465231E+02 -0.25736879078E+02  0.12266236794E+02  0.37921244489E+02  0.51100000000E-03 0.  1.
         22    1    1    0    0    0  0.95481403886E+01 -0.25884771929E+02  0.91878308066E+01  0.29079281931E+02  0.00000000000E+00 0. -1.
</event>
<event>
 5    1  0.6650580E-004  0.9118800E+02  0.7818608E-02  0.1130116E+00
         25   -1    0    0    0    0  0.00000000000E+00  0.00000000000E+00  0.99999998245E-14  0.12500000000E+03  0.12500000000E+03 0.  0.
        -11    1    3    3    0    0  0.24160242648E+01  0.94010310817E+01  0.60446467583E+02  0.61220846141E+02  0.51100000000E-03 0.  1.
         23    2    1    0    0    0  0.63571532278E+01 -0.28486251355E+01  0.28486568428E+02  0.95674027840E+02  0.91068693632E+02 0.  0.
         11    1    3    3    0    0  0.39411289630E+01 -0.12249656217E+02 -0.31959899155E+02  0.34453181699E+02  0.51100000000E-03 0. -1.
         22    1    1    0    0    0 -0.63571532278E+01  0.28486251355E+01 -0.28486568428E+02  0.29325972160E+02  0.00000000000E+00 0.  1.
</event>
<event>
 5    1  0.6650580E-004  0.9118800E+02  0.7818608E-02  0.1130116E+00
         25   -1    0    0    0    0  0.00000000000E+00  0.00000000000E+00  0.99999998245E-14  0.12500000000E+03  0.12500000000E+03 0.  0.
        -11    1    3    3    0    0 -0.45011096034E+02  0.84028119048E+01 -0.35435699328E+02  0.57899005183E+02  0.51100000000E-03 0. -1.
         23    2    1    0    0    0 -0.13868095680E+02  0.19360144717E+02 -0.17282587607E+02  0.95575059632E+02  0.90932749370E+02 0.  0.
         11    1    3    3    0    0  0.31143000354E+02  0.10957332813E+02  0.18153111721E+02  0.37676054449E+02  0.51100000000E-03 0.  1.
         22    1    1    0    0    0  0.13868095680E+02 -0.19360144717E+02  0.17282587607E+02  0.29424940368E+02  0.00000000000E+00 0. -1.
</event>
<event>
 5    1  0.6650580E-004  0.9118800E+02  0.7818608E-02  0.1130116E+00
         25   -1    0    0    0    0  0.00000000000E+00  0.00000000000E+00  0.99999998245E-14  0.12500000000E+03  0.12500000000E+03 0.  0.
        -11    1    3    3    0    0 -0.15049263728E+02  0.92773070482E+01 -0.20149603977E+02  0.26805881920E+02  0.51100000000E-03 0. -1.
         23    2    1    0    0    0  0.31329193024E+02 -0.15814960460E+02  0.11211369497E+02  0.88158092939E+02  0.80090718780E+02 0.  0.
         11    1    3    3    0    0  0.46378456752E+02 -0.25092267508E+02  0.31360973474E+02  0.61352211019E+02  0.51100000000E-03 0.  1.
         22    1    1    0    0    0 -0.31329193024E+02  0.15814960460E+02 -0.11211369497E+02  0.36841907061E+02  0.00000000000E+00 0.  1.
</event>
<event>
 5    1  0.6650580E-004  0.9118800E+02  0.7818608E-02  0.1130116E+00
         25   -1    0    0    0    0  0.00000000000E+00  0.00000000000E+00  0.99999998245E-14  0.12500000000E+03  0.12500000000E+03 0.  0.
        -11    1    3    3    0    0 -0.28652864639E+02  0.54821210807E+02 -0.56183529369E+01  0.62112138076E+02  0.51100000000E-03 0. -1.
         23    2    1    0    0    0 -0.85314013704E+01  0.23766111418E+02 -0.56886258693E+01  0.99116157056E+02  0.95676743589E+02 0.  0.
         11    1    3    3    0    0  0.20121463269E+02 -0.31055099389E+02 -0.70272932347E-01  0.37004018980E+02  0.51100000000E-03 0.  1.
         22    1    1    0    0    0  0.85314013704E+01 -0.23766111418E+02  0.56886258693E+01  0.25883842944E+02  0.00000000000E+00 0. -1.
</event>
<event>
 5    1  0.6650580E-004  0.9118800E+02  0.7818608E-02  0.1130116E+00
         25   -1    0    0    0    0  0.00000000000E+00  0.00000000000E+00  0.99999998245E-14  0.12500000000E+03  0.12500000000E+03 0.  0.
        -11    1    3    3    0    0 -0.52671136141E+02 -0.14404773090E+02 -0.14813078630E+02  0.56578912759E+02  0.51100000000E-03 0. -1.
         23    2    1    0    0    0 -0.14752204950E+02 -0.15683778963E+02 -0.20886482319E+02  0.95002439814E+02  0.90142165236E+02 0.  0.
         11    1    3    3    0    0  0.37918931191E+02 -0.12790058731E+01 -0.60734036889E+01  0.38423527055E+02  0.51100000000E-03 0.  1.
         22    1    1    0    0    0  0.14752204950E+02  0.15683778963E+02  0.20886482319E+02  0.29997560186E+02  0.00000000000E+00 0. -1.
</event>
<event>
 5    1  0.6650580E-004  0.9118800E+02  0.7818608E-02  0.1130116E+00
         25   -1    0    0    0    0  0.00000000000E+00  0.00000000000E+00  0.99999998245E-14  0.12500000000E+03  0.12500000000E+03 0.  0.
        -11    1    3    3    0    0 -0.94410368658E+01 -0.58383756970E+02  0.27169765661E+01  0.59204545576E+02  0.51100000000E-03 0.  1.
         23    2    1    0    0    0  0.82735839562E+01 -0.27633727145E+02 -0.55086409064E+01  0.95633008461E+02  0.91012373418E+02 0.  0.
         11    1    3    3    0    0  0.17714620822E+02  0.30750029824E+02 -0.82256174725E+01  0.36428462885E+02  0.51100000000E-03 0. -1.
         22    1    1    0    0    0 -0.82735839562E+01  0.27633727145E+02  0.55086409064E+01  0.29366991539E+02  0.00000000000E+00 0.  1.
</event>
<event>
 5    1  0.6650580E-004  0.9118800E+02  0.7818608E-02  0.1130116E+00
         25   -1    0    0    0    0  0.00000000000E+00  0.00000000000E+00  0.99999998245E-14  0.12500000000E+03  0.12500000000E+03 0.  0.
        -11    1    3    3    0    0 -0.72141134887E+01 -0.54878685245E+02  0.15725503049E+02  0.57541332745E+02  0.51100000000E-03 0. -1.
         23    2    1    0    0    0 -0.54948758983E+01 -0.18091679776E+02  0.23150353119E+02  0.95109510077E+02  0.90290517328E+02 0.  0.
         11    1    3    3    0    0  0.17192375904E+01  0.36787005469E+02  0.74248500704E+01  0.37568177333E+02  0.51100000000E-03 0.  1.
         22    1    1    0    0    0  0.54948758983E+01  0.18091679776E+02 -0.23150353119E+02  0.29890489923E+02  0.00000000000E+00 0.  1.
</event>
<event>
 5    1  0.6650580E-004  0.9118800E+02  0.7818608E-02  0.1130116E+00
         25   -1    0    0    0    0  0.00000000000E+00  0.00000000000E+00  0.99999998245E-14  0.12500000000E+03  0.12500000000E+03 0.  0.
        -11    1    3    3    0    0 -0.48261166316E+01  0.27061268959E+02 -0.27403559659E+02  0.38814414354E+02  0.51100000000E-03 0.  1.
         23    2    1    0    0    0  0.26802478456E+02 -0.13149834869E+02 -0.47304954944E+01  0.94773048515E+02  0.89823505435E+02 0.  0.
         11    1    3    3    0    0  0.31628595088E+02 -0.40211103827E+02  0.22673064165E+02  0.55958634161E+02  0.51100000000E-03 0. -1.
         22    1    1    0    0    0 -0.26802478456E+02  0.13149834869E+02  0.47304954944E+01  0.30226951485E+02  0.00000000000E+00 0. -1.
</event>
<event>
 5    1  0.6650580E-004  0.9118800E+02  0.7818608E-02  0.1130116E+00
         25   -1    0    0    0    0  0.00000000000E+00  0.00000000000E+00  0.99999998245E-14  0.12500000000E+03  0.12500000000E+03 0.  0.
        -11    1    3    3    0    0  0.13119016359E+02  0.10805491619E+02 -0.49379494431E+02  0.52222616843E+02  0.51100000000E-03 0. -1.
         23    2    1    0    0    0 -0.47618758839E+01 -0.18207574285E+02 -0.22758447131E+02  0.95468014982E+02  0.90785482019E+02 0.  0.
         11    1    3    3    0    0 -0.17880892243E+02 -0.29013065905E+02  0.26621047300E+02  0.43245398139E+02  0.51100000000E-03 0.  1.
         22    1    1    0    0    0  0.47618758839E+01  0.18207574285E+02  0.22758447131E+02  0.29531985018E+02  0.00000000000E+00 0. -1.
</event>
<event>
 5    1  0.6650580E-004  0.9118800E+02  0.7818608E-02  0.1130116E+00
         25   -1    0    0    0    0  0.00000000000E+00  0.00000000000E+00  0.99999998245E-14  0.12500000000E+03  0.12500000000E+03 0.  0.
        -11    1    3    3    0    0  0.20744784611E+01 -0.10847444939E+01  0.44844333475E+02  0.44905393624E+02  0.51100000000E-03 0.  1.
         23    2    1    0    0    0 -0.17066527060E+02 -0.22244892804E+02  0.13417796418E+01  0.96930408369E+02  0.92777163635E+02 0.  0.
         11    1    3    3    0    0 -0.19141005521E+02 -0.21160148310E+02 -0.43502553833E+02  0.52025014744E+02  0.51100000000E-03 0. -1.
         22    1    1    0    0    0  0.17066527060E+02  0.22244892804E+02 -0.13417796418E+01  0.28069591631E+02  0.00000000000E+00 0. -1.
</event>
<event>
 5    1  0.6650580E-004  0.9118800E+02  0.7818608E-02  0.1130116E+00
         25   -1    0    0    0    0  0.00000000000E+00  0.00000000000E+00  0.99999998245E-14  0.12500000000E+03  0.12500000000E+03 0.  0.
        -11    1    3    3    0    0 -0.19643798841E+02 -0.38376519029E+02  0.43574990863E+02  0.61297764027E+02  0.51100000000E-03 0. -1.
         23    2    1    0    0    0 -0.48623094174E+01 -0.23937906653E+02  0.15827982351E+02  0.95893463739E+02  0.91369392767E+02 0.  0.
         11    1    3    3    0    0  0.14781489424E+02  0.14438612376E+02 -0.27747008512E+02  0.34595699712E+02  0.51100000000E-03 0.  1.
         22    1    1    0    0    0  0.48623094174E+01  0.23937906653E+02 -0.15827982351E+02  0.29106536261E+02  0.00000000000E+00 0. -1.
</event>
<event>
 5    1  0.6650580E-004  0.9118800E+02  0.7818608E-02  0.1130116E+00
         25   -1    0    0    0    0  0.00000000000E+00  0.00000000000E+00  0.99999998245E-14  0.12500000000E+03  0.12500000000E+03 0.  0.
        -11    1    3    3    0    0 -0.44888122704E+01 -0.50444506524E+02  0.19834014746E+01  0.50682655373E+02  0.51100000000E-03 0.  1.
         23    2    1    0    0    0  0.11610826827E+02 -0.13900546726E+02  0.22932938237E+02  0.95777471789E+02  0.91210569274E+02 0.  0.
         11    1    3    3    0    0  0.16099639097E+02  0.36543959798E+02  0.20949536762E+02  0.45094816416E+02  0.51100000000E-03 0. -1.
         22    1    1    0    0    0 -0.11610826827E+02  0.13900546726E+02 -0.22932938237E+02  0.29222528211E+02  0.00000000000E+00 0.  1.
</event>
<event>
 5    1  0.6650580E-004  0.9118800E+02  0.7818608E-02  0.1130116E+00
         25   -1    0    0    0    0  0.00000000000E+00  0.00000000000E+00  0.99999998245E-14  0.12500000000E+03  0.12500000000E+03 0.  0.
        -11    1    3    3    0    0  0.21270990809E+02  0.51626820660E+02 -0.18787600614E+02  0.58913136044E+02  0.51100000000E-03 0.  1.
         23    2    1    0    0    0  0.83665425762E+01  0.19911154693E+02 -0.23043981473E+02  0.93417121758E+02  0.87916326354E+02 0.  0.
         11    1    3    3    0    0 -0.12904448232E+02 -0.31715665967E+02 -0.42563808586E+01  0.34503985714E+02  0.51100000000E-03 0. -1.
         22    1    1    0    0    0 -0.83665425762E+01 -0.19911154693E+02  0.23043981473E+02  0.31582878242E+02  0.00000000000E+00 0.  1.
</event>
<event>
 5    1  0.6650580E-004  0.9118800E+02  0.7818608E-02  0.1130116E+00
         25   -1    0    0    0    0  0.00000000000E+00  0.00000000000E+00  0.99999998245E-14  0.12500000000E+03  0.12500000000E+03 0.  0.
        -11    1    3    3    0    0 -0.44035807592E+02 -0.14150666010E+02 -0.13740725859E+02  0.48251437763E+02  0.51100000000E-03 0. -1.
         23    2    1    0    0    0 -0.12885621415E+02  0.21765570812E+02 -0.14586388084E+02  0.95801677627E+02  0.91243736261E+02 0.  0.
         11    1    3    3    0    0  0.31150186177E+02  0.35916236822E+02 -0.84566222522E+00  0.47550239864E+02  0.51100000000E-03 0.  1.
         22    1    1    0    0    0  0.12885621415E+02 -0.21765570812E+02  0.14586388084E+02  0.29198322373E+02  0.00000000000E+00 0. -1.
</event>
<event>
 5    1  0.6650580E-004  0.9118800E+02  0.7818608E-02  0.1130116E+00
         25   -1    0    0    0    0  0.00000000000E+00  0.00000000000E+00  0.99999998245E-14  0.12500000000E+03  0.12500000000E+03 0.  0.
        -11    1    3    3    0    0  0.19739490539E+02 -0.45667635922E+02 -0.37540134083E+02  0.62325292817E+02  0.51100000000E-03 0.  1.
         23    2    1    0    0    0  0.12457018416E+02 -0.22127385878E+02 -0.16594810350E+02  0.94665428236E+02  0.89673614062E+02 0.  0.
         11    1    3    3    0    0 -0.72824721230E+01  0.23540250044E+02  0.20945323733E+02  0.32340135419E+02  0.51100000000E-03 0. -1.
         22    1    1    0    0    0 -0.12457018416E+02  0.22127385878E+02  0.16594810350E+02  0.30334571764E+02  0.00000000000E+00 0.  1.
</event>
<event>
 5    1  0.6650580E-004  0.9118800E+02  0.7818608E-02  0.1130116E+00
         25   -1    0    0    0    0  0.00000000000E+00  0.00000000000E+00  0.99999998245E-14  0.12500000000E+03  0.12500000000E+03 0.  0.
        -11    1    3    3    0    0 -0.47068769956E+02 -0.28728338829E+02  0.12088494094E+02  0.56452796625E+02  0.51100000000E-03 0.  1.
         23    2    1    0    0    0 -0.96609474584E+01 -0.21340109364E+02  0.18540834069E+02  0.95125316714E+02  0.90312397701E+02 0.  0.
         11    1    3    3    0    0  0.37407822497E+02  0.73882294646E+01  0.64523399747E+01  0.38672520089E+02  0.51100000000E-03 0. -1.
         22    1    1    0    0    0  0.96609474584E+01  0.21340109364E+02 -0.18540834069E+02  0.29874683286E+02  0.00000000000E+00 0.  1.
</event>
<event>
 5    1  0.6650580E-004  0.9118800E+02  0.7818608E-02  0.1130116E+00
         25   -1    0    0    0    0  0.00000000000E+00  0.00000000000E+00  0.99999998245E-14  0.12500000000E+03  0.12500000000E+03 0.  0.
        -11    1    3    3    0    0  0.35059806624E+02  0.22852844897E+02  0.13866011956E+02  0.44087513518E+02  0.51100000000E-03 0. -1.
         23    2    1    0    0    0  0.11179270989E+02 -0.22747404385E+02  0.14949300240E+02  0.95573785772E+02  0.90930998252E+02 0.  0.
         11    1    3    3    0    0 -0.23880535636E+02 -0.45600249282E+02  0.10832882840E+01  0.51486272254E+02  0.51100000000E-03 0.  1.
         22    1    1    0    0    0 -0.11179270989E+02  0.22747404385E+02 -0.14949300240E+02  0.29426214228E+02  0.00000000000E+00 0. -1.
</event>
<event>
 5    1  0.6650580E-004  0.9118800E+02  0.7818608E-02  0.1130116E+00
         25   -1    0    0    0    0  0.00000000000E+00  0.00000000000E+00  0.99999998245E-14  0.12500000000E+03  0.12500000000E+03 0.  0.
        -11    1    3    3    0    0 -0.25268293160E+02  0.27532921825E+02  0.24254405647E+02  0.44551370540E+02  0.51100000000E-03 0. -1.
         23    2    1    0    0    0  0.11342403557E+01 -0.15004202049E+02  0.26345834806E+02  0.94660000133E+02  0.89666047271E+02 0.  0.
         11    1    3    3    0    0  0.26402533516E+02 -0.42537123874E+02  0.20914291584E+01  0.50108629593E+02  0.51100000000E-03 0.  1.
         22    1    1    0    0    0 -0.11342403557E+01  0.15004202049E+02 -0.26345834806E+02  0.30339999867E+02  0.00000000000E+00 0.  1.
</event>
<event>
 5    1  0.6650580E-004  0.9118800E+02  0.7818608E-02  0.1130116E+00
         25   -1    0    0    0    0  0.00000000000E+00  0.00000000000E+00  0.99999998245E-14  0.12500000000E+03  0.12500000000E+03 0.  0.
        -11    1    3    3    0    0  0.42045353540E+02 -0.19067159403E+02 -0.41383061891E+02  0.61999404301E+02  0.51100000000E-03 0.  1.
         23    2    1    0    0    0  0.16027565392E+02 -0.19737320484E+01 -0.11299161052E+02  0.10529087747E+03  0.10342977988E+03 0.  0.
         11    1    3    3    0    0 -0.26017788148E+02  0.17093427355E+02  0.30083900839E+02  0.43291473164E+02  0.51100000000E-03 0. -1.
         22    1    1    0    0    0 -0.16027565392E+02  0.19737320484E+01  0.11299161052E+02  0.19709122534E+02  0.00000000000E+00 0.  1.
</event>
<event>
 5    1  0.6650580E-004  0.9118800E+02  0.7818608E-02  0.1130116E+00
         25   -1    0    0    0    0  0.00000000000E+00  0.00000000000E+00  0.99999998245E-14  0.12500000000E+03  0.12500000000E+03 0.  0.
        -11    1    3    3    0    0  0.40469207243E+02 -0.22703876975E+02  0.12355626476E+02  0.48019623806E+02  0.51100000000E-03 0.  1.
         23    2    1    0    0    0 -0.12392074777E+02 -0.18823762278E+02  0.75139827679E+01  0.10124379069E+03  0.98417212282E+02 0.  0.
         11    1    3    3    0    0 -0.52861282020E+02  0.38801146964E+01 -0.48416437080E+01  0.53224166888E+02  0.51100000000E-03 0. -1.
         22    1    1    0    0    0  0.12392074777E+02  0.18823762278E+02 -0.75139827679E+01  0.23756209306E+02  0.00000000000E+00 0. -1.
</event>
<event>
 5    1  0.6650580E-004  0.9118800E+02  0.7818608E-02  0.1130116E+00
         25   -1    0    0    0    0  0.00000000000E+00  0.00000000000E+00  0.99999998245E-14  0.12500000000E+03  0.12500000000E+03 0.  0.
        -11    1    3    3    0    0  0.15089785677E+02 -0.21858010152E+02  0.22100458355E+02  0.34552923166E+02  0.51100000000E-03 0. -1.
         23    2    1    0    0    0 -0.24455442584E+02  0.12085173077E+02 -0.10212407827E+02  0.95872463992E+02  0.91340659062E+02 0.  0.
         11    1    3    3    0    0 -0.39545228261E+02  0.33943183229E+02 -0.32312866182E+02  0.61319540826E+02  0.51100000000E-03 0.  1.
         22    1    1    0    0    0  0.24455442584E+02 -0.12085173077E+02  0.10212407827E+02  0.29127536008E+02  0.00000000000E+00 0.  1.
</event>
<event>
 5    1  0.6650580E-004  0.9118800E+02  0.7818608E-02  0.1130116E+00
         25   -1    0    0    0    0  0.00000000000E+00  0.00000000000E+00  0.99999998245E-14  0.12500000000E+03  0.12500000000E+03 0.  0.
        -11    1    3    3    0    0  0.14405447058E+01  0.58089567507E+02 -0.18472151671E+02  0.60972890778E+02  0.51100000000E-03 0. -1.
         23    2    1    0    0    0  0.10150013325E+02  0.25427005979E+02 -0.10283601133E+02  0.95754353216E+02  0.91178880800E+02 0.  0.
         11    1    3    3    0    0  0.87094686194E+01 -0.32662561527E+02  0.81885505374E+01  0.34781462438E+02  0.51100000000E-03 0.  1.
         22    1    1    0    0    0 -0.10150013325E+02 -0.25427005979E+02  0.10283601133E+02  0.29245646784E+02  0.00000000000E+00 0. -1.
</event>
<event>
 5    1  0.6650580E-004  0.9118800E+02  0.7818608E-02  0.1130116E+00
         25   -1    0    0    0    0  0.00000000000E+00  0.00000000000E+00  0.99999998245E-14  0.12500000000E+03  0.12500000000E+03 0.  0.
        -11    1    3    3    0    0 -0.43616613092E+02  0.14779298449E+02  0.32240310690E+02  0.56216316438E+02  0.51100000000E-03 0.  1.
         23    2    1    0    0    0 -0.28191026471E+02 -0.79329515832E+01  0.42795528186E+01  0.95403036192E+02  0.90695970407E+02 0.  0.
         11    1    3    3    0    0  0.15425586621E+02 -0.22712250032E+02 -0.27960757871E+02  0.39186719754E+02  0.51100000000E-03 0. -1.
         22    1    1    0    0    0  0.28191026471E+02  0.79329515832E+01 -0.42795528186E+01  0.29596963808E+02  0.00000000000E+00 0.  1.
</event>
<event>
 5    1  0.6650580E-004  0.9118800E+02  0.7818608E-02  0.1130116E+00
         25   -1    0    0    0    0  0.00000000000E+00  0.00000000000E+00  0.99999998245E-14  0.12500000000E+03  0.12500000000E+03 0.  0.
        -11    1    3    3    0    0  0.25144190710E+02 -0.28696542664E+02  0.84656556628E+01  0.39081827150E+02  0.51100000000E-03 0. -1.
         23    2    1    0    0    0 -0.20099474111E+02  0.10243803770E+02  0.13026940959E+02  0.98949557279E+02  0.95458835734E+02 0.  0.
         11    1    3    3    0    0 -0.45243664821E+02  0.38940346435E+02  0.45612852958E+01  0.59867730128E+02  0.51100000000E-03 0.  1.
         22    1    1    0    0    0  0.20099474111E+02 -0.10243803770E+02 -0.13026940959E+02  0.26050442721E+02  0.00000000000E+00 0.  1.
</event>
<event>
 5    1  0.6650580E-004  0.9118800E+02  0.7818608E-02  0.1130116E+00
         25   -1    0    0    0    0  0.00000000000E+00  0.00000000000E+00  0.99999998245E-14  0.12500000000E+03  0.12500000000E+03 0.  0.
        -11    1    3    3    0    0  0.29839536308E+02 -0.11262998960E+02 -0.48600319503E+02  0.58131266361E+02  0.51100000000E-03 0. -1.
         23    2    1    0    0    0  0.19866439919E+02  0.98067132699E+01 -0.18962459864E+02  0.95838005138E+02  0.91293489826E+02 0.  0.
         11    1    3    3    0    0 -0.99730963890E+01  0.21069712230E+02  0.29637859639E+02  0.37706738778E+02  0.51100000000E-03 0.  1.
         22    1    1    0    0    0 -0.19866439919E+02 -0.98067132699E+01  0.18962459864E+02  0.29161994862E+02  0.00000000000E+00 0. -1.
</event>
<event>
 5    1  0.6650580E-004  0.9118800E+02  0.7818608E-02  0.1130116E+00
         25   -1    0    0    0    0  0.00000000000E+00  0.00000000000E+00  0.99999998245E-14  0.12500000000E+03  0.12500000000E+03 0.  0.
        -11    1    3    3    0    0 -0.26577239205E+02 -0.92038516621E+01  0.23118690869E+02  0.36407889213E+02  0.51100000000E-03 0. -1.
         23    2    1    0    0    0  0.91152879179E-01  0.65469234500E+01 -0.28036689056E+02  0.96208917201E+02  0.91799941723E+02 0.  0.
         11    1    3    3    0    0  0.26668392084E+02  0.15750775112E+02 -0.51155379925E+02  0.59801027989E+02  0.51100000000E-03 0.  1.
         22    1    1    0    0    0 -0.91152879179E-01 -0.65469234500E+01  0.28036689056E+02  0.28791082799E+02  0.00000000000E+00 0.  1.
</event>
<event>
 5    1  0.6650580E-004  0.9118800E+02  0.7818608E-02  0.1130116E+00
         25   -1    0    0    0    0  0.00000000000E+00  0.00000000000E+00  0.99999998245E-14  0.12500000000E+03  0.12500000000E+03 0.  0.
        -11    1    3    3    0    0 -0.39602033699E+02  0.13641957665E+02  0.40005205812E+02  0.57920985613E+02  0.51100000000E-03 0.  1.
         23    2    1    0    0    0 -0.71664006316E+01 -0.10200654098E+01  0.28897902419E+02  0.95209286755E+02  0.90428544656E+02 0.  0.
         11    1    3    3    0    0  0.32435633067E+02 -0.14662023075E+02 -0.11107303393E+02  0.37288301142E+02  0.51100000000E-03 0. -1.
         22    1    1    0    0    0  0.71664006316E+01  0.10200654098E+01 -0.28897902419E+02  0.29790713245E+02  0.00000000000E+00 0.  1.
</event>
<event>
 5    1  0.6650580E-004  0.9118800E+02  0.7818608E-02  0.1130116E+00
         25   -1    0    0    0    0  0.00000000000E+00  0.00000000000E+00  0.99999998245E-14  0.12500000000E+03  0.12500000000E+03 0.  0.
        -11    1    3    3    0    0 -0.28080173660E+02  0.11690593477E+02 -0.22561183806E+02  0.37870478523E+02  0.51100000000E-03 0.  1.
         23    2    1    0    0    0  0.50549434223E+01 -0.28922886950E+02  0.16179822475E+01  0.95594155188E+02  0.90958995141E+02 0.  0.
         11    1    3    3    0    0  0.33135117082E+02 -0.40613480427E+02  0.24179166053E+02  0.57723676665E+02  0.51100000000E-03 0. -1.
         22    1    1    0    0    0 -0.50549434223E+01  0.28922886950E+02 -0.16179822475E+01  0.29405844812E+02  0.00000000000E+00 0. -1.
</event>
<event>
 5    1  0.6650580E-004  0.9118800E+02  0.7818608E-02  0.1130116E+00
         25   -1    0    0    0    0  0.00000000000E+00  0.00000000000E+00  0.99999998245E-14  0.12500000000E+03  0.12500000000E+03 0.  0.
        -11    1    3    3    0    0  0.29906585312E+02 -0.16577331054E+02 -0.21686277643E+02  0.40490818567E+02  0.51100000000E-03 0.  1.
         23    2    1    0    0    0  0.15736725992E+02  0.29112939281E+02 -0.32910712345E+01  0.91742836434E+02  0.85502684804E+02 0.  0.
         11    1    3    3    0    0 -0.14169859320E+02  0.45690270335E+02  0.18395206409E+02  0.51252017868E+02  0.51100000000E-03 0. -1.
         22    1    1    0    0    0 -0.15736725992E+02 -0.29112939281E+02  0.32910712345E+01  0.33257163566E+02  0.00000000000E+00 0. -1.
</event>
<event>
 5    1  0.6650580E-004  0.9118800E+02  0.7818608E-02  0.1130116E+00
         25   -1    0    0    0    0  0.00000000000E+00  0.00000000000E+00  0.99999998245E-14  0.12500000000E+03  0.12500000000E+03 0.  0.
        -11    1    3    3    0    0 -0.10578546690E-01 -0.35202132870E+02  0.72527208826E+01  0.35941511250E+02  0.51100000000E-03 0.  1.
         23    2    1    0    0    0  0.17075554330E+02  0.21555533573E+02 -0.63966604085E+01  0.96766458818E+02  0.92556008473E+02 0.  0.
         11    1    3    3    0    0  0.17086132876E+02  0.56757666443E+02 -0.13649381291E+02  0.60824947568E+02  0.51100000000E-03 0. -1.
         22    1    1    0    0    0 -0.17075554330E+02 -0.21555533573E+02  0.63966604085E+01  0.28233541182E+02  0.00000000000E+00 0. -1.
</event>
<event>
 5    1  0.6650580E-004  0.9118800E+02  0.7818608E-02  0.1130116E+00
         25   -1    0    0    0    0  0.00000000000E+00  0.00000000000E+00  0.99999998245E-14  0.12500000000E+03  0.12500000000E+03 0.  0.
        -11    1    3    3    0    0  0.37304038809E+02 -0.36653345990E+01  0.82386411720E+00  0.37492729183E+02  0.51100000000E-03 0.  1.
         23    2    1    0    0    0 -0.16713163190E+02 -0.11128259655E+02  0.21288107972E+02  0.95736515453E+02  0.91154423169E+02 0.  0.
         11    1    3    3    0    0 -0.54017202000E+02 -0.74629250563E+01  0.20464243855E+02  0.58243786270E+02  0.51100000000E-03 0. -1.
         22    1    1    0    0    0  0.16713163190E+02  0.11128259655E+02 -0.21288107972E+02  0.29263484547E+02  0.00000000000E+00 0. -1.
</event>
<event>
 5    1  0.6650580E-004  0.9118800E+02  0.7818608E-02  0.1130116E+00
         25   -1    0    0    0    0  0.00000000000E+00  0.00000000000E+00  0.99999998245E-14  0.12500000000E+03  0.12500000000E+03 0.  0.
        -11    1    3    3    0    0 -0.28157087511E+02 -0.91746664734E+01  0.17365716213E+02  0.34330222572E+02  0.51100000000E-03 0.  1.
         23    2    1    0    0    0  0.28482640556E+02  0.82005242326E+01  0.37048402114E+01  0.95129692808E+02  0.90318454382E+02 0.  0.
         11    1    3    3    0    0  0.56639728067E+02  0.17375190706E+02 -0.13660876001E+02  0.60799470236E+02  0.51100000000E-03 0. -1.
         22    1    1    0    0    0 -0.28482640556E+02 -0.82005242326E+01 -0.37048402114E+01  0.29870307192E+02  0.00000000000E+00 0. -1.
</event>
<event>
 5    1  0.6650580E-004  0.9118800E+02  0.7818608E-02  0.1130116E+00
         25   -1    0    0    0    0  0.00000000000E+00  0.00000000000E+00  0.99999998245E-14  0.12500000000E+03  0.12500000000E+03 0.  0.
        -11    1    3    3    0    0 -0.32847618749E+02  0.18512771327E+02  0.26200907059E+02  0.45914880928E+02  0.51100000000E-03 0. -1.
         23    2    1    0    0    0  0.11309049561E+01  0.29133876412E+02 -0.74558536195E+01  0.94905956503E+02  0.90008272541E+02 0.  0.
         11    1    3    3    0    0  0.33978523705E+02  0.10621105085E+02 -0.33656760678E+02  0.48991075575E+02  0.51100000000E-03 0.  1.
         22    1    1    0    0    0 -0.11309049561E+01 -0.29133876412E+02  0.74558536195E+01  0.30094043497E+02  0.00000000000E+00 0.  1.
</event>
<event>
 5    1  0.6650580E-004  0.9118800E+02  0.7818608E-02  0.1130116E+00
         25   -1    0    0    0    0  0.00000000000E+00  0.00000000000E+00  0.99999998245E-14  0.12500000000E+03  0.12500000000E+03 0.  0.
        -11    1    3    3    0    0  0.57884099748E+02  0.16233763159E+02  0.75338423084E+01  0.60587646019E+02  0.51100000000E-03 0. -1.
         23    2    1    0    0    0  0.29205043825E+02 -0.21950799080E+01 -0.87626927799E+00  0.95699474263E+02  0.91103614449E+02 0.  0.
         11    1    3    3    0    0 -0.28679055923E+02 -0.18428843067E+02 -0.84101115864E+01  0.35111828244E+02  0.51100000000E-03 0.  1.
         22    1    1    0    0    0 -0.29205043825E+02  0.21950799080E+01  0.87626927799E+00  0.29300525737E+02  0.00000000000E+00 0. -1.
</event>
<event>
 5    1  0.6650580E-004  0.9118800E+02  0.7818608E-02  0.1130116E+00
         25   -1    0    0    0    0  0.00000000000E+00  0.00000000000E+00  0.99999998245E-14  0.12500000000E+03  0.12500000000E+03 0.  0.
        -11    1    3    3    0    0 -0.18184608378E+02  0.20089400442E+02 -0.29083635333E+02  0.39750746363E+02  0.51100000000E-03 0. -1.
         23    2    1    0    0    0  0.10132775838E+02 -0.24940506478E+02 -0.10692360012E+02  0.96034010078E+02  0.91561468530E+02 0.  0.
         11    1    3    3    0    0  0.28317384216E+02 -0.45029906920E+02  0.18391275322E+02  0.56283263714E+02  0.51100000000E-03 0.  1.
         22    1    1    0    0    0 -0.10132775838E+02  0.24940506478E+02  0.10692360012E+02  0.28965989922E+02  0.00000000000E+00 0.  1.
</event>
<event>
 5    1  0.6650580E-004  0.9118800E+02  0.7818608E-02  0.1130116E+00
         25   -1    0    0    0    0  0.00000000000E+00  0.00000000000E+00  0.99999998245E-14  0.12500000000E+03  0.12500000000E+03 0.  0.
        -11    1    3    3    0    0  0.68396815852E+01  0.20533033080E+02  0.25499850818E+02  0.33445912809E+02  0.51100000000E-03 0. -1.
         23    2    1    0    0    0  0.72218150437E+01 -0.10308304988E+02 -0.27493916662E+02  0.94762089727E+02  0.89808253695E+02 0.  0.
         11    1    3    3    0    0  0.38213345850E+00 -0.30841338068E+02 -0.52993767480E+02  0.61316176918E+02  0.51100000000E-03 0.  1.
         22    1    1    0    0    0 -0.72218150437E+01  0.10308304988E+02  0.27493916662E+02  0.30237910273E+02  0.00000000000E+00 0.  1.
</event>
<event>
 5    1  0.6650580E-004  0.9118800E+02  0.7818608E-02  0.1130116E+00
         25   -1    0    0    0    0  0.00000000000E+00  0.00000000000E+00  0.99999998245E-14  0.12500000000E+03  0.12500000000E+03 0.  0.
        -11    1    3    3    0    0 -0.28937473480E+02  0.41989444473E+02 -0.45337347432E+00  0.50997023113E+02  0.51100000000E-03 0. -1.
         23    2    1    0    0    0 -0.10590727367E+02  0.10209460892E+02 -0.25594667113E+02  0.95479099227E+02  0.90800742324E+02 0.  0.
         11    1    3    3    0    0  0.18346746113E+02 -0.31779983581E+02 -0.25141293638E+02  0.44482076114E+02  0.51100000000E-03 0.  1.
         22    1    1    0    0    0  0.10590727367E+02 -0.10209460892E+02  0.25594667113E+02  0.29520900773E+02  0.00000000000E+00 0.  1.
</event>
<event>
 5    1  0.6650580E-004  0.9118800E+02  0.7818608E-02  0.1130116E+00
         25   -1    0    0    0    0  0.00000000000E+00  0.00000000000E+00  0.99999998245E-14  0.12500000000E+03  0.12500000000E+03 0.  0.
        -11    1    3    3    0    0 -0.12869877527E+02 -0.19591799091E+02 -0.46652875667E+02  0.52210757009E+02  0.51100000000E-03 0.  1.
         23    2    1    0    0    0  0.19306733723E+02 -0.11841005197E+02 -0.16561773991E+02  0.96941993498E+02  0.92792771133E+02 0.  0.
         11    1    3    3    0    0  0.32176611250E+02  0.77507938950E+01  0.30091101676E+02  0.44731236489E+02  0.51100000000E-03 0. -1.
         22    1    1    0    0    0 -0.19306733723E+02  0.11841005197E+02  0.16561773991E+02  0.28058006502E+02  0.00000000000E+00 0.  1.
</event>
<event>
 5    1  0.6650580E-004  0.9118800E+02  0.7818608E-02  0.1130116E+00
         25   -1    0    0    0    0  0.00000000000E+00  0.00000000000E+00  0.99999998245E-14  0.12500000000E+03  0.12500000000E+03 0.  0.
        -11    1    3    3    0    0 -0.26056036100E+02  0.19647133315E+02  0.29887296351E+01  0.32769793558E+02  0.51100000000E-03 0.  1.
         23    2    1    0    0    0  0.82019742973E+01 -0.16334939767E+02 -0.28173721056E+02  0.91416355205E+02  0.85024048370E+02 0.  0.
         11    1    3    3    0    0  0.34258010398E+02 -0.35982073082E+02 -0.31162450691E+02  0.58646561647E+02  0.51100000000E-03 0. -1.
         22    1    1    0    0    0 -0.82019742973E+01  0.16334939767E+02  0.28173721056E+02  0.33583644795E+02  0.00000000000E+00 0. -1.
</event>
<event>
 5    1  0.6650580E-004  0.9118800E+02  0.7818608E-02  0.1130116E+00
         25   -1    0    0    0    0  0.00000000000E+00  0.00000000000E+00  0.99999998245E-14  0.12500000000E+03  0.12500000000E+03 0.  0.
        -11    1    3    3    0    0  0.30640779633E+02 -0.35916695655E+02  0.16302990550E+01  0.47239012252E+02  0.51100000000E-03 0. -1.
         23    2    1    0    0    0  0.22879910404E+02  0.13872279899E+02  0.51500568585E+01  0.97751999425E+02  0.93877579092E+02 0.  0.
         11    1    3    3    0    0 -0.77608692287E+01  0.49788975554E+02  0.35197578035E+01  0.50512987173E+02  0.51100000000E-03 0.  1.
         22    1    1    0    0    0 -0.22879910404E+02 -0.13872279899E+02 -0.51500568585E+01  0.27248000575E+02  0.00000000000E+00 0.  1.
</event>
<event>
 5    1  0.6650580E-004  0.9118800E+02  0.7818608E-02  0.1130116E+00
         25   -1    0    0    0    0  0.00000000000E+00  0.00000000000E+00  0.99999998245E-14  0.12500000000E+03  0.12500000000E+03 0.  0.
        -11    1    3    3    0    0  0.56215180517E+02 -0.26034465097E+01  0.16631427652E+02  0.58681588597E+02  0.51100000000E-03 0.  1.
         23    2    1    0    0    0  0.26467543313E+02 -0.11044288432E+02 -0.42692228750E+01  0.96004596572E+02  0.91521304312E+02 0.  0.
         11    1    3    3    0    0 -0.29747637204E+02 -0.84408419227E+01 -0.20900650527E+02  0.37323007975E+02  0.51100000000E-03 0. -1.
         22    1    1    0    0    0 -0.26467543313E+02  0.11044288432E+02  0.42692228750E+01  0.28995403428E+02  0.00000000000E+00 0.  1.
</event>
<event>
 5    1  0.6650580E-004  0.9118800E+02  0.7818608E-02  0.1130116E+00
         25   -1    0    0    0    0  0.00000000000E+00  0.00000000000E+00  0.99999998245E-14  0.12500000000E+03  0.12500000000E+03 0.  0.
        -11    1    3    3    0    0  0.41956649577E+02 -0.19364511771E+02 -0.41716876809E+02  0.62254659029E+02  0.51100000000E-03 0.  1.
         23    2    1    0    0    0  0.17417006627E+02 -0.11864613650E+02 -0.21186452219E+02  0.95117113015E+02  0.90301042374E+02 0.  0.
         11    1    3    3    0    0 -0.24539642949E+02  0.74998981212E+01  0.20530424590E+02  0.32862453986E+02  0.51100000000E-03 0. -1.
         22    1    1    0    0    0 -0.17417006627E+02  0.11864613650E+02  0.21186452219E+02  0.29882886985E+02  0.00000000000E+00 0.  1.
</event>
<event>
 5    1  0.6650580E-004  0.9118800E+02  0.7818608E-02  0.1130116E+00
         25   -1    0    0    0    0  0.00000000000E+00  0.00000000000E+00  0.99999998245E-14  0.12500000000E+03  0.12500000000E+03 0.  0.
        -11    1    3    3    0    0  0.37186000729E+01  0.29214806522E+02 -0.28494052741E+02  0.40978579141E+02  0.51100000000E-03 0. -1.
         23    2    1    0    0    0 -0.84346477512E+00  0.17416471066E+02  0.24201527808E+02  0.95171174252E+02  0.90375846127E+02 0.  0.
         11    1    3    3    0    0 -0.45620648480E+01 -0.11798335456E+02  0.52695580549E+02  0.54192595111E+02  0.51100000000E-03 0.  1.
         22    1    1    0    0    0  0.84346477512E+00 -0.17416471066E+02 -0.24201527808E+02  0.29828825748E+02  0.00000000000E+00 0.  1.
</event>
<event>
 5    1  0.6650580E-004  0.9118800E+02  0.7818608E-02  0.1130116E+00
         25   -1    0    0    0    0  0.00000000000E+00  0.00000000000E+00  0.99999998245E-14  0.12500000000E+03  0.12500000000E+03 0.  0.
        -11    1    3    3    0    0  0.17198011716E+02  0.16828006801E+02 -0.34273454339E+02  0.41876283174E+02  0.51100000000E-03 0.  1.
         23    2    1    0    0    0  0.19154594353E+02  0.47403130425E+01  0.19637969013E+02  0.97160839102E+02  0.93087108535E+02 0.  0.
         11    1    3    3    0    0  0.19565826373E+01 -0.12087693758E+02  0.53911423352E+02  0.55284555928E+02  0.51100000000E-03 0. -1.
         22    1    1    0    0    0 -0.19154594353E+02 -0.47403130425E+01 -0.19637969013E+02  0.27839160898E+02  0.00000000000E+00 0. -1.
</event>
<event>
 5    1  0.6650580E-004  0.9118800E+02  0.7818608E-02  0.1130116E+00
         25   -1    0    0    0    0  0.00000000000E+00  0.00000000000E+00  0.99999998245E-14  0.12500000000E+03  0.12500000000E+03 0.  0.
        -11    1    3    3    0    0 -0.15335948830E+02  0.26538915171E+02 -0.51097390390E+02  0.59585641306E+02  0.51100000000E-03 0.  1.
         23    2    1    0    0    0 -0.19307057027E+02  0.13742350205E+02 -0.18160876198E+02  0.95143140411E+02  0.90337063838E+02 0.  0.
         11    1    3    3    0    0 -0.39711081975E+01 -0.12796564965E+02  0.32936514192E+02  0.35557499105E+02  0.51100000000E-03 0. -1.
         22    1    1    0    0    0  0.19307057027E+02 -0.13742350205E+02  0.18160876198E+02  0.29856859589E+02  0.00000000000E+00 0.  1.
</event>
<event>
 5    1  0.6650580E-004  0.9118800E+02  0.7818608E-02  0.1130116E+00
         25   -1    0    0    0    0  0.00000000000E+00  0.00000000000E+00  0.99999998245E-14  0.12500000000E+03  0.12500000000E+03 0.  0.
        -11    1    3    3    0    0  0.25872536376E+02 -0.16727155926E+02  0.12314623991E+02  0.33178846396E+02  0.51100000000E-03 0.  1.
         23    2    1    0    0    0 -0.18404051143E+02  0.12013803557E+02 -0.20177452768E+02  0.95164280223E+02  0.90366310403E+02 0.  0.
         11    1    3    3    0    0 -0.44276587519E+02  0.28740959483E+02 -0.32492076759E+02  0.61985433827E+02  0.51100000000E-03 0. -1.
         22    1    1    0    0    0  0.18404051143E+02 -0.12013803557E+02  0.20177452768E+02  0.29835719777E+02  0.00000000000E+00 0. -1.
</event>
<event>
 5    1  0.6650580E-004  0.9118800E+02  0.7818608E-02  0.1130116E+00
         25   -1    0    0    0    0  0.00000000000E+00  0.00000000000E+00  0.99999998245E-14  0.12500000000E+03  0.12500000000E+03 0.  0.
        -11    1    3    3    0    0  0.70576874307E+01 -0.28612277759E+02 -0.21194804280E+02  0.36300042963E+02  0.51100000000E-03 0.  1.
         23    2    1    0    0    0 -0.14572382677E+02  0.23814271064E+02  0.64568964065E+00  0.97073475721E+02  0.92969720503E+02 0.  0.
         11    1    3    3    0    0 -0.21630070108E+02  0.52426548822E+02  0.21840493920E+02  0.60773432758E+02  0.51100000000E-03 0. -1.
         22    1    1    0    0    0  0.14572382677E+02 -0.23814271064E+02 -0.64568964065E+00  0.27926524279E+02  0.00000000000E+00 0. -1.
</event>
<event>
 5    1  0.6650580E-004  0.9118800E+02  0.7818608E-02  0.1130116E+00
         25   -1    0    0    0    0  0.00000000000E+00  0.00000000000E+00  0.99999998245E-14  0.12500000000E+03  0.12500000000E+03 0.  0.
        -11    1    3    3    0    0 -0.57264950116E+02  0.16331009082E+01  0.23610769067E+02  0.61962972384E+02  0.51100000000E-03 0.  1.
         23    2    1    0    0    0 -0.17955353704E+02  0.19982351661E+01  0.13187551284E+02  0.10263263137E+03  0.10016565201E+03 0.  0.
         11    1    3    3    0    0  0.39309596412E+02  0.36513425795E+00 -0.10423217783E+02  0.40669658990E+02  0.51100000000E-03 0. -1.
         22    1    1    0    0    0  0.17955353704E+02 -0.19982351661E+01 -0.13187551284E+02  0.22367368627E+02  0.00000000000E+00 0.  1.
</event>
<event>
 5    1  0.6650580E-004  0.9118800E+02  0.7818608E-02  0.1130116E+00
         25   -1    0    0    0    0  0.00000000000E+00  0.00000000000E+00  0.99999998245E-14  0.12500000000E+03  0.12500000000E+03 0.  0.
        -11    1    3    3    0    0  0.29361902032E+01 -0.31191999253E+02  0.49560458514E+02  0.58632764549E+02  0.51100000000E-03 0.  1.
         23    2    1    0    0    0  0.29937641534E-01 -0.25851847127E+02  0.12326561304E+02  0.96359765892E+02  0.92005116559E+02 0.  0.
         11    1    3    3    0    0 -0.29062525616E+01  0.53401521260E+01 -0.37233897209E+02  0.37727001343E+02  0.51100000000E-03 0. -1.
         22    1    1    0    0    0 -0.29937641534E-01  0.25851847127E+02 -0.12326561304E+02  0.28640234108E+02  0.00000000000E+00 0.  1.
</event>
<event>
 5    1  0.6650580E-004  0.9118800E+02  0.7818608E-02  0.1130116E+00
         25   -1    0    0    0    0  0.00000000000E+00  0.00000000000E+00  0.99999998245E-14  0.12500000000E+03  0.12500000000E+03 0.  0.
        -11    1    3    3    0    0  0.16205111294E+02 -0.20164354800E+02 -0.28910556484E+02  0.38794678927E+02  0.51100000000E-03 0. -1.
         23    2    1    0    0    0 -0.46739538538E+01  0.16882775489E+02  0.16448141794E+02  0.10097053223E+03  0.98069531749E+02 0.  0.
         11    1    3    3    0    0 -0.20879065147E+02  0.37047130289E+02  0.45358698279E+02  0.62175853303E+02  0.51100000000E-03 0.  1.
         22    1    1    0    0    0  0.46739538538E+01 -0.16882775489E+02 -0.16448141794E+02  0.24029467770E+02  0.00000000000E+00 0.  1.
</event>
<event>
 5    1  0.6650580E-004  0.9118800E+02  0.7818608E-02  0.1130116E+00
         25   -1    0    0    0    0  0.00000000000E+00  0.00000000000E+00  0.99999998245E-14  0.12500000000E+03  0.12500000000E+03 0.  0.
        -11    1    3    3    0    0 -0.51647289999E+02  0.18165038985E+02  0.19554966307E+02  0.58136115394E+02  0.51100000000E-03 0.  1.
         23    2    1    0    0    0 -0.27502290151E+02 -0.71837888057E+01  0.45967846635E+01  0.96205673920E+02  0.91795525381E+02 0.  0.
         11    1    3    3    0    0  0.24144999848E+02 -0.25348827791E+02 -0.14958181643E+02  0.38069558526E+02  0.51100000000E-03 0. -1.
         22    1    1    0    0    0  0.27502290151E+02  0.71837888057E+01 -0.45967846635E+01  0.28794326080E+02  0.00000000000E+00 0.  1.
</event>
<event>
 5    1  0.6650580E-004  0.9118800E+02  0.7818608E-02  0.1130116E+00
         25   -1    0    0    0    0  0.00000000000E+00  0.00000000000E+00  0.99999998245E-14  0.12500000000E+03  0.12500000000E+03 0.  0.
        -11    1    3    3    0    0  0.16785894083E+02 -0.11438689374E+02  0.57962084007E+02  0.61418344470E+02  0.51100000000E-03 0.  1.
         23    2    1    0    0    0  0.96633817903E+01  0.26522627222E+01  0.27540709571E+02  0.95692899685E+02  0.91094593260E+02 0.  0.
         11    1    3    3    0    0 -0.71225122929E+01  0.14090952096E+02 -0.30421374436E+02  0.34274555215E+02  0.51100000000E-03 0. -1.
         22    1    1    0    0    0 -0.96633817903E+01 -0.26522627222E+01 -0.27540709571E+02  0.29307100315E+02  0.00000000000E+00 0.  1.
</event>
<event>
 5    1  0.6650580E-004  0.9118800E+02  0.7818608E-02  0.1130116E+00
         25   -1    0    0    0    0  0.00000000000E+00  0.00000000000E+00  0.99999998245E-14  0.12500000000E+03  0.12500000000E+03 0.  0.
        -11    1    3    3    0    0 -0.56287337930E+02 -0.15386152831E+02 -0.20285740776E+02  0.61777903730E+02  0.51100000000E-03 0. -1.
         23    2    1    0    0    0 -0.22657214006E+02 -0.35839244996E+01 -0.16374852393E+01  0.10200271278E+03  0.99376446889E+02 0.  0.
         11    1    3    3    0    0  0.33630123923E+02  0.11802228332E+02  0.18648255537E+02  0.40224809055E+02  0.51100000000E-03 0.  1.
         22    1    1    0    0    0  0.22657214006E+02  0.35839244996E+01  0.16374852393E+01  0.22997287215E+02  0.00000000000E+00 0. -1.
</event>
<event>
 5    1  0.6650580E-004  0.9118800E+02  0.7818608E-02  0.1130116E+00
         25   -1    0    0    0    0  0.00000000000E+00  0.00000000000E+00  0.99999998245E-14  0.12500000000E+03  0.12500000000E+03 0.  0.
        -11    1    3    3    0    0 -0.56429382430E+02  0.78558927286E+01  0.74147301485E+01  0.57454055343E+02  0.51100000000E-03 0.  1.
         23    2    1    0    0    0 -0.12667665167E+02  0.21797516020E+01  0.18045322198E+02  0.10284475884E+03  0.10043002394E+03 0.  0.
         11    1    3    3    0    0  0.43761717263E+02 -0.56761411266E+01  0.10630592050E+02  0.45390703492E+02  0.51100000000E-03 0. -1.
         22    1    1    0    0    0  0.12667665167E+02 -0.21797516020E+01 -0.18045322198E+02  0.22155241165E+02  0.00000000000E+00 0.  1.
</event>
<event>
 5    1  0.6650580E-004  0.9118800E+02  0.7818608E-02  0.1130116E+00
         25   -1    0    0    0    0  0.00000000000E+00  0.00000000000E+00  0.99999998245E-14  0.12500000000E+03  0.12500000000E+03 0.  0.
        -11    1    3    3    0    0  0.46047881334E+02  0.24990762878E+02  0.94093150210E+01  0.53230450064E+02  0.51100000000E-03 0. -1.
         23    2    1    0    0    0  0.24894351022E+02 -0.32080823338E+01 -0.14676024873E+02  0.95924130089E+02  0.91411336945E+02 0.  0.
         11    1    3    3    0    0 -0.21153530313E+02 -0.28198845212E+02 -0.24085339894E+02  0.42693680024E+02  0.51100000000E-03 0.  1.
         22    1    1    0    0    0 -0.24894351022E+02  0.32080823338E+01  0.14676024873E+02  0.29075869911E+02  0.00000000000E+00 0. -1.
</event>
<event>
 5    1  0.6650580E-004  0.9118800E+02  0.7818608E-02  0.1130116E+00
         25   -1    0    0    0    0  0.00000000000E+00  0.00000000000E+00  0.99999998245E-14  0.12500000000E+03  0.12500000000E+03 0.  0.
        -11    1    3    3    0    0  0.42691188967E+02  0.40287365790E+02  0.37542325157E+01  0.58819246167E+02  0.51100000000E-03 0.  1.
         23    2    1    0    0    0  0.26803504096E+02  0.69626305561E+01 -0.52358200192E+01  0.96816319130E+02  0.92623322023E+02 0.  0.
         11    1    3    3    0    0 -0.15887684870E+02 -0.33324735233E+02 -0.89900525349E+01  0.37997072963E+02  0.51100000000E-03 0. -1.
         22    1    1    0    0    0 -0.26803504096E+02 -0.69626305561E+01  0.52358200192E+01  0.28183680870E+02  0.00000000000E+00 0.  1.
</event>
<event>
 5    1  0.6650580E-004  0.9118800E+02  0.7818608E-02  0.1130116E+00
         25   -1    0    0    0    0  0.00000000000E+00  0.00000000000E+00  0.99999998245E-14  0.12500000000E+03  0.12500000000E+03 0.  0.
        -11    1    3    3    0    0  0.53086502169E+01  0.11782430563E+02 -0.33447230702E+02  0.35857003208E+02  0.51100000000E-03 0. -1.
         23    2    1    0    0    0  0.14252119114E+02 -0.15206608452E+02  0.19821008958E+02  0.96238285239E+02  0.91839922200E+02 0.  0.
         11    1    3    3    0    0  0.89434688976E+01 -0.26989039016E+02  0.53268239661E+02  0.60381282031E+02  0.51100000000E-03 0.  1.
         22    1    1    0    0    0 -0.14252119114E+02  0.15206608452E+02 -0.19821008958E+02  0.28761714761E+02  0.00000000000E+00 0.  1.
</event>
<event>
 5    1  0.6650580E-004  0.9118800E+02  0.7818608E-02  0.1130116E+00
         25   -1    0    0    0    0  0.00000000000E+00  0.00000000000E+00  0.99999998245E-14  0.12500000000E+03  0.12500000000E+03 0.  0.
        -11    1    3    3    0    0 -0.17201510162E+02  0.19970940935E+02 -0.54490671102E+02  0.60530683716E+02  0.51100000000E-03 0.  1.
         23    2    1    0    0    0 -0.18807055951E+02  0.11142837934E+02 -0.23025191367E+02  0.93250549166E+02  0.87679172507E+02 0.  0.
         11    1    3    3    0    0 -0.16055457888E+01 -0.88281030006E+01  0.31465479735E+02  0.32719865450E+02  0.51100000000E-03 0. -1.
         22    1    1    0    0    0  0.18807055951E+02 -0.11142837934E+02  0.23025191367E+02  0.31749450834E+02  0.00000000000E+00 0.  1.
</event>
<event>
 5    1  0.6650580E-004  0.9118800E+02  0.7818608E-02  0.1130116E+00
         25   -1    0    0    0    0  0.00000000000E+00  0.00000000000E+00  0.99999998245E-14  0.12500000000E+03  0.12500000000E+03 0.  0.
        -11    1    3    3    0    0 -0.36994725529E+02 -0.91466676838E+01  0.75498896043E+01  0.38849351088E+02  0.51100000000E-03 0. -1.
         23    2    1    0    0    0  0.13738800367E+02 -0.23911818176E+02 -0.11642515236E+02  0.95065440624E+02  0.90229486068E+02 0.  0.
         11    1    3    3    0    0  0.50733525896E+02 -0.14765150492E+02 -0.19192404841E+02  0.56216089536E+02  0.51100000000E-03 0.  1.
         22    1    1    0    0    0 -0.13738800367E+02  0.23911818176E+02  0.11642515236E+02  0.29934559376E+02  0.00000000000E+00 0.  1.
</event>
<event>
 5    1  0.6650580E-004  0.9118800E+02  0.7818608E-02  0.1130116E+00
         25   -1    0    0    0    0  0.00000000000E+00  0.00000000000E+00  0.99999998245E-14  0.12500000000E+03  0.12500000000E+03 0.  0.
        -11    1    3    3    0    0 -0.11046730484E+02 -0.50860388605E+01  0.56776758366E+02  0.58064604851E+02  0.51100000000E-03 0. -1.
         23    2    1    0    0    0 -0.19694122425E+02 -0.71131650284E+01  0.19492824927E+02  0.96391857829E+02  0.92048706983E+02 0.  0.
         11    1    3    3    0    0 -0.86473919417E+01 -0.20271261679E+01 -0.37283933439E+02  0.38327252978E+02  0.51100000000E-03 0.  1.
         22    1    1    0    0    0  0.19694122425E+02  0.71131650284E+01 -0.19492824927E+02  0.28608142171E+02  0.00000000000E+00 0. -1.
</event>
<event>
 5    1  0.6650580E-004  0.9118800E+02  0.7818608E-02  0.1130116E+00
         25   -1    0    0    0    0  0.00000000000E+00  0.00000000000E+00  0.99999998245E-14  0.12500000000E+03  0.12500000000E+03 0.  0.
        -11    1    3    3    0    0 -0.28239729077E+02  0.60386655642E+01  0.34567893530E+02  0.45043168666E+02  0.51100000000E-03 0.  1.
         23    2    1    0    0    0  0.12061436575E+02 -0.20500799910E+02  0.12926777152E+02  0.97928564561E+02  0.94112385690E+02 0.  0.
         11    1    3    3    0    0  0.40301165652E+02 -0.26539465474E+02 -0.21641116378E+02  0.52885395894E+02  0.51100000000E-03 0. -1.
         22    1    1    0    0    0 -0.12061436575E+02  0.20500799910E+02 -0.12926777152E+02  0.27071435439E+02  0.00000000000E+00 0. -1.
</event>
<event>
 5    1  0.6650580E-004  0.9118800E+02  0.7818608E-02  0.1130116E+00
         25   -1    0    0    0    0  0.00000000000E+00  0.00000000000E+00  0.99999998245E-14  0.12500000000E+03  0.12500000000E+03 0.  0.
        -11    1    3    3    0    0  0.20587624124E+02 -0.23953225454E+02 -0.10353085974E+02  0.33238436578E+02  0.51100000000E-03 0. -1.
         23    2    1    0    0    0 -0.31048330975E+02  0.55130897505E+01 -0.64107045990E+01  0.92820967255E+02  0.87064584153E+02 0.  0.
         11    1    3    3    0    0 -0.51635955099E+02  0.29466315204E+02  0.39423813746E+01  0.59582530677E+02  0.51100000000E-03 0.  1.
         22    1    1    0    0    0  0.31048330975E+02 -0.55130897505E+01  0.64107045990E+01  0.32179032745E+02  0.00000000000E+00 0.  1.
</event>
<event>
 5    1  0.6650580E-004  0.9118800E+02  0.7818608E-02  0.1130116E+00
         25   -1    0    0    0    0  0.00000000000E+00  0.00000000000E+00  0.99999998245E-14  0.12500000000E+03  0.12500000000E+03 0.  0.
        -11    1    3    3    0    0 -0.42974320526E+02  0.19329077265E+02 -0.23316288605E+02  0.52574278570E+02  0.51100000000E-03 0. -1.
         23    2    1    0    0    0 -0.22793281129E+02 -0.15934216416E+02 -0.72970365622E+01  0.96247962507E+02  0.91853092635E+02 0.  0.
         11    1    3    3    0    0  0.20181039397E+02 -0.35263293680E+02  0.16019252043E+02  0.43673683937E+02  0.51100000000E-03 0.  1.
         22    1    1    0    0    0  0.22793281129E+02  0.15934216416E+02  0.72970365622E+01  0.28752037493E+02  0.00000000000E+00 0. -1.
</event>
<event>
 5    1  0.6650580E-004  0.9118800E+02  0.7818608E-02  0.1130116E+00
         25   -1    0    0    0    0  0.00000000000E+00  0.00000000000E+00  0.99999998245E-14  0.12500000000E+03  0.12500000000E+03 0.  0.
        -11    1    3    3    0    0  0.53970932487E+02  0.20842029174E+02  0.18048744078E+02  0.60605353696E+02  0.51100000000E-03 0.  1.
         23    2    1    0    0    0  0.28806265493E+02  0.61948338257E+01 -0.12017058679E+01  0.95510663033E+02  0.90844183954E+02 0.  0.
         11    1    3    3    0    0 -0.25164666994E+02 -0.14647195349E+02 -0.19250449946E+02  0.34905309337E+02  0.51100000000E-03 0. -1.
         22    1    1    0    0    0 -0.28806265493E+02 -0.61948338257E+01  0.12017058679E+01  0.29489336967E+02  0.00000000000E+00 0.  1.
</event>
<event>
 5    1  0.6650580E-004  0.9118800E+02  0.7818608E-02  0.1130116E+00
         25   -1    0    0    0    0  0.00000000000E+00  0.00000000000E+00  0.99999998245E-14  0.12500000000E+03  0.12500000000E+03 0.  0.
        -11    1    3    3    0    0 -0.10857227242E+02  0.31771532055E+02 -0.84972291669E+01  0.34633979504E+02  0.51100000000E-03 0. -1.
         23    2    1    0    0    0  0.11222081686E+02 -0.16836104973E+02  0.21174459028E+02  0.95712677433E+02  0.91121728244E+02 0.  0.
         11    1    3    3    0    0  0.22079308928E+02 -0.48607637028E+02  0.29671688195E+02  0.61078697929E+02  0.51100000000E-03 0.  1.
         22    1    1    0    0    0 -0.11222081686E+02  0.16836104973E+02 -0.21174459028E+02  0.29287322567E+02  0.00000000000E+00 0.  1.
</event>
<event>
 5    1  0.6650580E-004  0.9118800E+02  0.7818608E-02  0.1130116E+00
         25   -1    0    0    0    0  0.00000000000E+00  0.00000000000E+00  0.99999998245E-14  0.12500000000E+03  0.12500000000E+03 0.  0.
        -11    1    3    3    0    0 -0.34719674989E+02  0.13306870873E+02  0.34739255140E+02  0.50885602008E+02  0.51100000000E-03 0.  1.
         23    2    1    0    0    0  0.78480492742E+00 -0.12026149467E+02  0.27336115854E+02  0.95125137327E+02  0.90312149414E+02 0.  0.
         11    1    3    3    0    0  0.35504479917E+02 -0.25333020339E+02 -0.74031392861E+01  0.44239535319E+02  0.51100000000E-03 0. -1.
         22    1    1    0    0    0 -0.78480492742E+00  0.12026149467E+02 -0.27336115854E+02  0.29874862673E+02  0.00000000000E+00 0.  1.
</event>
<event>
 5    1  0.6650580E-004  0.9118800E+02  0.7818608E-02  0.1130116E+00
         25   -1    0    0    0    0  0.00000000000E+00  0.00000000000E+00  0.99999998245E-14  0.12500000000E+03  0.12500000000E+03 0.  0.
        -11    1    3    3    0    0  0.92348463490E+01 -0.36804016316E+02  0.17449525432E+01  0.37985034734E+02  0.51100000000E-03 0. -1.
         23    2    1    0    0    0  0.20707412392E+02  0.19093570476E+02  0.88198684144E+01  0.95484725304E+02  0.90808487082E+02 0.  0.
         11    1    3    3    0    0  0.11472566043E+02  0.55897586793E+02  0.70749158712E+01  0.57499690570E+02  0.51100000000E-03 0.  1.
         22    1    1    0    0    0 -0.20707412392E+02 -0.19093570476E+02 -0.88198684144E+01  0.29515274696E+02  0.00000000000E+00 0.  1.
</event>
<event>
 5    1  0.6650580E-004  0.9118800E+02  0.7818608E-02  0.1130116E+00
         25   -1    0    0    0    0  0.00000000000E+00  0.00000000000E+00  0.99999998245E-14  0.12500000000E+03  0.12500000000E+03 0.  0.
        -11    1    3    3    0    0  0.35846005466E+02  0.11477900964E+02 -0.54266700705E+01  0.38027977421E+02  0.51100000000E-03 0. -1.
         23    2    1    0    0    0 -0.16100649730E+02 -0.68474215310E+01 -0.23230367380E+02  0.95917908054E+02  0.91402828258E+02 0.  0.
         11    1    3    3    0    0 -0.51946655196E+02 -0.18325322495E+02 -0.17803697309E+02  0.57889930633E+02  0.51100000000E-03 0.  1.
         22    1    1    0    0    0  0.16100649730E+02  0.68474215310E+01  0.23230367380E+02  0.29082091946E+02  0.00000000000E+00 0. -1.
</event>
<event>
 5    1  0.6650580E-004  0.9118800E+02  0.7818608E-02  0.1130116E+00
         25   -1    0    0    0    0  0.00000000000E+00  0.00000000000E+00  0.99999998245E-14  0.12500000000E+03  0.12500000000E+03 0.  0.
        -11    1    3    3    0    0  0.32957969028E+02  0.42366951655E+02  0.21416683791E+02  0.57791527579E+02  0.51100000000E-03 0. -1.
         23    2    1    0    0    0  0.20447083671E+02  0.21067982349E+02 -0.63571078668E+01  0.94960760140E+02  0.90084349557E+02 0.  0.
         11    1    3    3    0    0 -0.12510885357E+02 -0.21298969306E+02 -0.27773791658E+02  0.37169232562E+02  0.51100000000E-03 0.  1.
         22    1    1    0    0    0 -0.20447083671E+02 -0.21067982349E+02  0.63571078668E+01  0.30039239860E+02  0.00000000000E+00 0. -1.
</event>
<event>
 5    1  0.6650580E-004  0.9118800E+02  0.7818608E-02  0.1130116E+00
         25   -1    0    0    0    0  0.00000000000E+00  0.00000000000E+00  0.99999998245E-14  0.12500000000E+03  0.12500000000E+03 0.  0.
        -11    1    3    3    0    0  0.35872154647E+02  0.36446587425E+02  0.11748371375E+02  0.52470843754E+02  0.51100000000E-03 0.  1.
         23    2    1    0    0    0 -0.48427830758E+01  0.25804255583E+02  0.15144442366E+02  0.94690491778E+02  0.89708544434E+02 0.  0.
         11    1    3    3    0    0 -0.40714937723E+02 -0.10642331843E+02  0.33960709913E+01  0.42219648024E+02  0.51100000000E-03 0. -1.
         22    1    1    0    0    0  0.48427830758E+01 -0.25804255583E+02 -0.15144442366E+02  0.30309508222E+02  0.00000000000E+00 0.  1.
</event>
<event>
 5    1  0.6650580E-004  0.9118800E+02  0.7818608E-02  0.1130116E+00
         25   -1    0    0    0    0  0.00000000000E+00  0.00000000000E+00  0.99999998245E-14  0.12500000000E+03  0.12500000000E+03 0.  0.
        -11    1    3    3    0    0  0.45510139322E+02  0.29543798820E+02  0.13032909289E+02  0.55802021062E+02  0.51100000000E-03 0.  1.
         23    2    1    0    0    0  0.35084832294E+02  0.48429902542E+00  0.15221444477E+02  0.86752485380E+02  0.77866047447E+02 0.  0.
         11    1    3    3    0    0 -0.10425307028E+02 -0.29059499795E+02  0.21885351884E+01  0.30950464318E+02  0.51100000000E-03 0. -1.
         22    1    1    0    0    0 -0.35084832294E+02 -0.48429902542E+00 -0.15221444477E+02  0.38247514620E+02  0.00000000000E+00 0.  1.
</event>
<event>
 5    1  0.6650580E-004  0.9118800E+02  0.7818608E-02  0.1130116E+00
         25   -1    0    0    0    0  0.00000000000E+00  0.00000000000E+00  0.99999998245E-14  0.12500000000E+03  0.12500000000E+03 0.  0.
        -11    1    3    3    0    0 -0.23588612160E+02  0.19386071024E+02  0.33078378599E+02  0.45015791722E+02  0.51100000000E-03 0.  1.
         23    2    1    0    0    0 -0.30192392776E+02 -0.43931132565E+00 -0.10243653820E+02  0.93114172120E+02  0.87484530232E+02 0.  0.
         11    1    3    3    0    0 -0.66037806165E+01 -0.19825382350E+02 -0.43322032419E+02  0.48098380398E+02  0.51100000000E-03 0. -1.
         22    1    1    0    0    0  0.30192392776E+02  0.43931132565E+00  0.10243653820E+02  0.31885827880E+02  0.00000000000E+00 0. -1.
</event>
<event>
 5    1  0.6650580E-004  0.9118800E+02  0.7818608E-02  0.1130116E+00
         25   -1    0    0    0    0  0.00000000000E+00  0.00000000000E+00  0.99999998245E-14  0.12500000000E+03  0.12500000000E+03 0.  0.
        -11    1    3    3    0    0 -0.11397465091E+02  0.37237811113E+02 -0.33923523704E+02  0.51646512445E+02  0.51100000000E-03 0. -1.
         23    2    1    0    0    0 -0.22359324816E+02 -0.33084336133E+01 -0.15970070650E+02  0.97324590414E+02  0.93306739325E+02 0.  0.
         11    1    3    3    0    0 -0.10961859725E+02 -0.40546244727E+02  0.17953453054E+02  0.45678077968E+02  0.51100000000E-03 0.  1.
         22    1    1    0    0    0  0.22359324816E+02  0.33084336133E+01  0.15970070650E+02  0.27675409586E+02  0.00000000000E+00 0. -1.
</event>
<event>
 5    1  0.6650580E-004  0.9118800E+02  0.7818608E-02  0.1130116E+00
         25   -1    0    0    0    0  0.00000000000E+00  0.00000000000E+00  0.99999998245E-14  0.12500000000E+03  0.12500000000E+03 0.  0.
        -11    1    3    3    0    0 -0.81784563067E+00  0.16406693048E+01 -0.37239220422E+02  0.37284315807E+02  0.51100000000E-03 0. -1.
         23    2    1    0    0    0  0.11903569270E+02 -0.21093388145E+02  0.15595788031E+02  0.96192803172E+02  0.91777997325E+02 0.  0.
         11    1    3    3    0    0  0.12721414900E+02 -0.22734057450E+02  0.52835008453E+02  0.58908487365E+02  0.51100000000E-03 0.  1.
         22    1    1    0    0    0 -0.11903569270E+02  0.21093388145E+02 -0.15595788031E+02  0.28807196828E+02  0.00000000000E+00 0.  1.
</event>
<event>
 5    1  0.6650580E-004  0.9118800E+02  0.7818608E-02  0.1130116E+00
         25   -1    0    0    0    0  0.00000000000E+00  0.00000000000E+00  0.99999998245E-14  0.12500000000E+03  0.12500000000E+03 0.  0.
        -11    1    3    3    0    0  0.52514485874E+02 -0.14870028022E+02  0.75565771763E+00  0.54584429821E+02  0.51100000000E-03 0. -1.
         23    2    1    0    0    0  0.14930379089E+02 -0.10390430151E+02  0.20762110007E+02  0.97396694575E+02  0.93403284973E+02 0.  0.
         11    1    3    3    0    0 -0.37584106785E+02  0.44795978713E+01  0.20006452289E+02  0.42812264754E+02  0.51100000000E-03 0.  1.
         22    1    1    0    0    0 -0.14930379089E+02  0.10390430151E+02 -0.20762110007E+02  0.27603305425E+02  0.00000000000E+00 0. -1.
</event>
<event>
 5    1  0.6650580E-004  0.9118800E+02  0.7818608E-02  0.1130116E+00
         25   -1    0    0    0    0  0.00000000000E+00  0.00000000000E+00  0.99999998245E-14  0.12500000000E+03  0.12500000000E+03 0.  0.
        -11    1    3    3    0    0 -0.37326462781E+02  0.11263641459E+01 -0.92685704647E+01  0.38476485269E+02  0.51100000000E-03 0.  1.
         23    2    1    0    0    0  0.73438915305E+01  0.66877287870E+00  0.27620897874E+02  0.96411645739E+02  0.92075574583E+02 0.  0.
         11    1    3    3    0    0  0.44670354312E+02 -0.45759126716E+00  0.36889468339E+02  0.57935160470E+02  0.51100000000E-03 0. -1.
         22    1    1    0    0    0 -0.73438915305E+01 -0.66877287870E+00 -0.27620897874E+02  0.28588354261E+02  0.00000000000E+00 0. -1.
</event>
<event>
 5    1  0.6650580E-004  0.9118800E+02  0.7818608E-02  0.1130116E+00
         25   -1    0    0    0    0  0.00000000000E+00  0.00000000000E+00  0.99999998245E-14  0.12500000000E+03  0.12500000000E+03 0.  0.
        -11    1    3    3    0    0 -0.18793106500E+02  0.48919302711E+01  0.57197278810E+02  0.60403977827E+02  0.51100000000E-03 0. -1.
         23    2    1    0    0    0  0.22405823119E+01  0.41942730267E+01  0.29127177675E+02  0.95487212693E+02  0.90811910966E+02 0.  0.
         11    1    3    3    0    0  0.21033688812E+02 -0.69765724443E+00 -0.28070101136E+02  0.35083234866E+02  0.51100000000E-03 0.  1.
         22    1    1    0    0    0 -0.22405823119E+01 -0.41942730267E+01 -0.29127177675E+02  0.29512787307E+02  0.00000000000E+00 0. -1.
</event>
<event>
 5    1  0.6650580E-004  0.9118800E+02  0.7818608E-02  0.1130116E+00
         25   -1    0    0    0    0  0.00000000000E+00  0.00000000000E+00  0.99999998245E-14  0.12500000000E+03  0.12500000000E+03 0.  0.
        -11    1    3    3    0    0 -0.36632063507E+02  0.10835850797E+02  0.15862145264E+01  0.38234013863E+02  0.51100000000E-03 0. -1.
         23    2    1    0    0    0  0.55616517847E+01 -0.10475191948E+02 -0.28406902395E+02  0.94216664889E+02  0.89045865834E+02 0.  0.
         11    1    3    3    0    0  0.42193715292E+02 -0.21311042745E+02 -0.29993116921E+02  0.55982651026E+02  0.51100000000E-03 0.  1.
         22    1    1    0    0    0 -0.55616517847E+01  0.10475191948E+02  0.28406902395E+02  0.30783335111E+02  0.00000000000E+00 0.  1.
</event>
<event>
 5    1  0.6650580E-004  0.9118800E+02  0.7818608E-02  0.1130116E+00
         25   -1    0    0    0    0  0.00000000000E+00  0.00000000000E+00  0.99999998245E-14  0.12500000000E+03  0.12500000000E+03 0.  0.
        -11    1    3    3    0    0  0.11519575338E+01 -0.34796397043E+02 -0.16200361406E+02  0.38400103688E+02  0.51100000000E-03 0.  1.
         23    2    1    0    0    0  0.19074417283E+02  0.47366411129E+01  0.21484212006E+02  0.95882298696E+02  0.91354116896E+02 0.  0.
         11    1    3    3    0    0  0.17922459749E+02  0.39533038156E+02  0.37684573412E+02  0.57482195007E+02  0.51100000000E-03 0. -1.
         22    1    1    0    0    0 -0.19074417283E+02 -0.47366411129E+01 -0.21484212006E+02  0.29117701304E+02  0.00000000000E+00 0. -1.
</event>
<event>
 5    1  0.6650580E-004  0.9118800E+02  0.7818608E-02  0.1130116E+00
         25   -1    0    0    0    0  0.00000000000E+00  0.00000000000E+00  0.99999998245E-14  0.12500000000E+03  0.12500000000E+03 0.  0.
        -11    1    3    3    0    0 -0.11649058497E+01  0.77615168405E+01  0.42024048936E+02  0.42750658926E+02  0.51100000000E-03 0.  1.
         23    2    1    0    0    0 -0.15873125467E+01 -0.29205241617E+02  0.45344479079E+01  0.95402248112E+02  0.90694884243E+02 0.  0.
         11    1    3    3    0    0 -0.42240669693E+00 -0.36966758457E+02 -0.37489601029E+02  0.52651589186E+02  0.51100000000E-03 0. -1.
         22    1    1    0    0    0  0.15873125467E+01  0.29205241617E+02 -0.45344479079E+01  0.29597751888E+02  0.00000000000E+00 0. -1.
</event>
<event>
 5    1  0.6650580E-004  0.9118800E+02  0.7818608E-02  0.1130116E+00
         25   -1    0    0    0    0  0.00000000000E+00  0.00000000000E+00  0.99999998245E-14  0.12500000000E+03  0.12500000000E+03 0.  0.
        -11    1    3    3    0    0  0.32491915499E+02  0.19040450685E+02  0.50494248841E+01  0.37996842329E+02  0.51100000000E-03 0.  1.
         23    2    1    0    0    0  0.30589467647E+01 -0.23268933746E+02 -0.18935474933E+02  0.94844525474E+02  0.89922919039E+02 0.  0.
         11    1    3    3    0    0 -0.29432968734E+02 -0.42309384431E+02 -0.23984899817E+02  0.56847683145E+02  0.51100000000E-03 0. -1.
         22    1    1    0    0    0 -0.30589467647E+01  0.23268933746E+02  0.18935474933E+02  0.30155474526E+02  0.00000000000E+00 0. -1.
</event>
<event>
 5    1  0.6650580E-004  0.9118800E+02  0.7818608E-02  0.1130116E+00
         25   -1    0    0    0    0  0.00000000000E+00  0.00000000000E+00  0.99999998245E-14  0.12500000000E+03  0.12500000000E+03 0.  0.
        -11    1    3    3    0    0 -0.22405683452E+02 -0.35027356839E+01 -0.44863736261E+02  0.50269659237E+02  0.51100000000E-03 0. -1.
         23    2    1    0    0    0  0.12500675302E+02  0.14701020670E+02 -0.21758489945E+02  0.95917036320E+02  0.91401636090E+02 0.  0.
         11    1    3    3    0    0  0.34906358755E+02  0.18203756354E+02  0.23105246316E+02  0.45647377082E+02  0.51100000000E-03 0.  1.
         22    1    1    0    0    0 -0.12500675302E+02 -0.14701020670E+02  0.21758489945E+02  0.29082963680E+02  0.00000000000E+00 0. -1.
</event>
<event>
 5    1  0.6650580E-004  0.9118800E+02  0.7818608E-02  0.1130116E+00
         25   -1    0    0    0    0  0.00000000000E+00  0.00000000000E+00  0.99999998245E-14  0.12500000000E+03  0.12500000000E+03 0.  0.
        -11    1    3    3    0    0  0.14661571866E+02 -0.10057777769E+02  0.40965021626E+02  0.44657066409E+02  0.51100000000E-03 0. -1.
         23    2    1    0    0    0  0.61695008610E+01  0.27697800709E+02  0.79358421910E+01  0.95534622075E+02  0.90877145195E+02 0.  0.
         11    1    3    3    0    0 -0.84920710054E+01  0.37755578477E+02 -0.33029179435E+02  0.50877555666E+02  0.51100000000E-03 0.  1.
         22    1    1    0    0    0 -0.61695008610E+01 -0.27697800709E+02 -0.79358421910E+01  0.29465377925E+02  0.00000000000E+00 0.  1.
</event>
<event>
 5    1  0.6650580E-004  0.9118800E+02  0.7818608E-02  0.1130116E+00
         25   -1    0    0    0    0  0.00000000000E+00  0.00000000000E+00  0.99999998245E-14  0.12500000000E+03  0.12500000000E+03 0.  0.
        -11    1    3    3    0    0 -0.48109856201E+02  0.14152113232E+02 -0.18100465534E+02  0.53314795558E+02  0.51100000000E-03 0.  1.
         23    2    1    0    0    0 -0.14561881659E+02 -0.13273097194E+02 -0.20310695662E+02  0.96702511334E+02  0.92469604916E+02 0.  0.
         11    1    3    3    0    0  0.33547974542E+02 -0.27425210426E+02 -0.22102301280E+01  0.43387715776E+02  0.51100000000E-03 0. -1.
         22    1    1    0    0    0  0.14561881659E+02  0.13273097194E+02  0.20310695662E+02  0.28297488666E+02  0.00000000000E+00 0.  1.
</event>
<event>
 5    1  0.6650580E-004  0.9118800E+02  0.7818608E-02  0.1130116E+00
         25   -1    0    0    0    0  0.00000000000E+00  0.00000000000E+00  0.99999998245E-14  0.12500000000E+03  0.12500000000E+03 0.  0.
        -11    1    3    3    0    0 -0.30379041304E+02  0.22229460353E+02  0.32308346019E+02  0.49607099097E+02  0.51100000000E-03 0. -1.
         23    2    1    0    0    0  0.12341315144E+02  0.69319309875E+01  0.25968174300E+02  0.95424574337E+02  0.90725650090E+02 0.  0.
         11    1    3    3    0    0  0.42720356447E+02 -0.15297529365E+02 -0.63401717187E+01  0.45817475240E+02  0.51100000000E-03 0.  1.
         22    1    1    0    0    0 -0.12341315144E+02 -0.69319309875E+01 -0.25968174300E+02  0.29575425663E+02  0.00000000000E+00 0. -1.
</event>
<event>
 5    1  0.6650580E-004  0.9118800E+02  0.7818608E-02  0.1130116E+00
         25   -1    0    0    0    0  0.00000000000E+00  0.00000000000E+00  0.99999998245E-14  0.12500000000E+03  0.12500000000E+03 0.  0.
        -11    1    3    3    0    0 -0.46207276856E+02  0.22836243342E+02 -0.25908126283E+02  0.57687411557E+02  0.51100000000E-03 0. -1.
         23    2    1    0    0    0 -0.27607910710E+02 -0.53153279061E+01 -0.86583031767E+01  0.95582052104E+02  0.90942361010E+02 0.  0.
         11    1    3    3    0    0  0.18599366146E+02 -0.28151571248E+02  0.17249823106E+02  0.37894640547E+02  0.51100000000E-03 0.  1.
         22    1    1    0    0    0  0.27607910710E+02  0.53153279061E+01  0.86583031767E+01  0.29417947896E+02  0.00000000000E+00 0. -1.
</event>
<event>
 5    1  0.6650580E-004  0.9118800E+02  0.7818608E-02  0.1130116E+00
         25   -1    0    0    0    0  0.00000000000E+00  0.00000000000E+00  0.99999998245E-14  0.12500000000E+03  0.12500000000E+03 0.  0.
        -11    1    3    3    0    0 -0.20414311648E+02  0.23829298777E+02 -0.18422603349E+02  0.36386424868E+02  0.51100000000E-03 0.  1.
         23    2    1    0    0    0  0.10615969976E+02 -0.25895157181E+02 -0.77219239330E+01  0.95967499364E+02  0.91470622831E+02 0.  0.
         11    1    3    3    0    0  0.31030281624E+02 -0.49724455957E+02  0.10700679416E+02  0.59581074496E+02  0.51100000000E-03 0. -1.
         22    1    1    0    0    0 -0.10615969976E+02  0.25895157181E+02  0.77219239330E+01  0.29032500636E+02  0.00000000000E+00 0. -1.
</event>
<event>
 5    1  0.6650580E-004  0.9118800E+02  0.7818608E-02  0.1130116E+00
         25   -1    0    0    0    0  0.00000000000E+00  0.00000000000E+00  0.99999998245E-14  0.12500000000E+03  0.12500000000E+03 0.  0.
        -11    1    3    3    0    0  0.22051308925E+01 -0.26630618358E+02 -0.29833767390E+02  0.40051293528E+02  0.51100000000E-03 0.  1.
         23    2    1    0    0    0 -0.22416839585E+02 -0.88726411781E+01  0.16742750515E+02  0.95647689132E+02  0.91032534201E+02 0.  0.
         11    1    3    3    0    0 -0.24621970478E+02  0.17757977180E+02  0.46576517905E+02  0.55596395604E+02  0.51100000000E-03 0. -1.
         22    1    1    0    0    0  0.22416839585E+02  0.88726411781E+01 -0.16742750515E+02  0.29352310868E+02  0.00000000000E+00 0. -1.
</event>
<event>
 5    1  0.6650580E-004  0.9118800E+02  0.7818608E-02  0.1130116E+00
         25   -1    0    0    0    0  0.00000000000E+00  0.00000000000E+00  0.99999998245E-14  0.12500000000E+03  0.12500000000E+03 0.  0.
        -11    1    3    3    0    0 -0.55955380262E+02 -0.22818783119E+02  0.10983093559E+02  0.61419294914E+02  0.51100000000E-03 0. -1.
         23    2    1    0    0    0 -0.24386667969E+02 -0.15711326414E+02 -0.11231574339E+01  0.95968692159E+02  0.91472252841E+02 0.  0.
         11    1    3    3    0    0  0.31568712293E+02  0.71074567050E+01 -0.12106250993E+02  0.34549397246E+02  0.51100000000E-03 0.  1.
         22    1    1    0    0    0  0.24386667969E+02  0.15711326414E+02  0.11231574339E+01  0.29031307841E+02  0.00000000000E+00 0. -1.
</event>
<event>
 5    1  0.6650580E-004  0.9118800E+02  0.7818608E-02  0.1130116E+00
         25   -1    0    0    0    0  0.00000000000E+00  0.00000000000E+00  0.99999998245E-14  0.12500000000E+03  0.12500000000E+03 0.  0.
        -11    1    3    3    0    0  0.39231208073E+02 -0.23785133428E+01 -0.28188218750E+02  0.48366524468E+02  0.51100000000E-03 0.  1.
         23    2    1    0    0    0 -0.56716775210E+01  0.34861616251E+01 -0.30570109388E+02  0.93713376072E+02  0.88336538409E+02 0.  0.
         11    1    3    3    0    0 -0.44902885594E+02  0.58646749679E+01 -0.23818906387E+01  0.45346851604E+02  0.51100000000E-03 0. -1.
         22    1    1    0    0    0  0.56716775210E+01 -0.34861616251E+01  0.30570109388E+02  0.31286623928E+02  0.00000000000E+00 0. -1.
</event>
<event>
 5    1  0.6650580E-004  0.9118800E+02  0.7818608E-02  0.1130116E+00
         25   -1    0    0    0    0  0.00000000000E+00  0.00000000000E+00  0.99999998245E-14  0.12500000000E+03  0.12500000000E+03 0.  0.
        -11    1    3    3    0    0  0.33390003241E+02  0.57077463614E+01  0.82350948715E+01  0.34860973491E+02  0.51100000000E-03 0. -1.
         23    2    1    0    0    0 -0.21820431974E+02 -0.11035282231E+02 -0.14154565210E+02  0.96746497178E+02  0.92529045680E+02 0.  0.
         11    1    3    3    0    0 -0.55210435215E+02 -0.16743028593E+02 -0.22389660082E+02  0.61885523686E+02  0.51100000000E-03 0.  1.
         22    1    1    0    0    0  0.21820431974E+02  0.11035282231E+02  0.14154565210E+02  0.28253502822E+02  0.00000000000E+00 0.  1.
</event>
<event>
 5    1  0.6650580E-004  0.9118800E+02  0.7818608E-02  0.1130116E+00
         25   -1    0    0    0    0  0.00000000000E+00  0.00000000000E+00  0.99999998245E-14  0.12500000000E+03  0.12500000000E+03 0.  0.
        -11    1    3    3    0    0  0.57476727337E+02  0.13966592740E+02  0.17212961919E+02  0.61602970354E+02  0.51100000000E-03 0.  1.
         23    2    1    0    0    0  0.27534603366E+02  0.44945478439E+01  0.15569555399E+02  0.93050564979E+02  0.87393599563E+02 0.  0.
         11    1    3    3    0    0 -0.29942123971E+02 -0.94720448956E+01 -0.16434065192E+01  0.31447594624E+02  0.51100000000E-03 0. -1.
         22    1    1    0    0    0 -0.27534603366E+02 -0.44945478439E+01 -0.15569555399E+02  0.31949435021E+02  0.00000000000E+00 0.  1.
</event>
<event>
 5    1  0.6650580E-004  0.9118800E+02  0.7818608E-02  0.1130116E+00
         25   -1    0    0    0    0  0.00000000000E+00  0.00000000000E+00  0.99999998245E-14  0.12500000000E+03  0.12500000000E+03 0.  0.
        -11    1    3    3    0    0  0.42814061168E+01  0.31423969047E+02  0.39962018101E+02  0.51017243751E+02  0.51100000000E-03 0.  1.
         23    2    1    0    0    0  0.15219155355E+02 -0.88472198378E+01  0.22936084698E+02  0.96087027654E+02  0.91633819704E+02 0.  0.
         11    1    3    3    0    0  0.10937749239E+02 -0.40271188885E+02 -0.17025933403E+02  0.45069783903E+02  0.51100000000E-03 0. -1.
         22    1    1    0    0    0 -0.15219155355E+02  0.88472198378E+01 -0.22936084698E+02  0.28912972346E+02  0.00000000000E+00 0.  1.
</event>
<event>
 5    1  0.6650580E-004  0.9118800E+02  0.7818608E-02  0.1130116E+00
         25   -1    0    0    0    0  0.00000000000E+00  0.00000000000E+00  0.99999998245E-14  0.12500000000E+03  0.12500000000E+03 0.  0.
        -11    1    3    3    0    0 -0.40887141650E+02  0.20281686621E+02 -0.32045251901E+02  0.55767403868E+02  0.51100000000E-03 0. -1.
         23    2    1    0    0    0 -0.28804426644E+02  0.74318664942E+01  0.31007725348E+01  0.95091097911E+02  0.90265023557E+02 0.  0.
         11    1    3    3    0    0  0.12082715007E+02 -0.12849820127E+02  0.35146024436E+02  0.39323694043E+02  0.51100000000E-03 0.  1.
         22    1    1    0    0    0  0.28804426644E+02 -0.74318664942E+01 -0.31007725348E+01  0.29908902089E+02  0.00000000000E+00 0. -1.
</event>
<event>
 5    1  0.6650580E-004  0.9118800E+02  0.7818608E-02  0.1130116E+00
         25   -1    0    0    0    0  0.00000000000E+00  0.00000000000E+00  0.99999998245E-14  0.12500000000E+03  0.12500000000E+03 0.  0.
        -11    1    3    3    0    0  0.16223170117E+01 -0.26268856639E+02 -0.27328188209E+02  0.37940935843E+02  0.51100000000E-03 0.  1.
         23    2    1    0    0    0 -0.34556285724E+02 -0.14941830818E+01 -0.25858683920E+02  0.81813879542E+02  0.69487192242E+02 0.  0.
         11    1    3    3    0    0 -0.36178602736E+02  0.24774673557E+02  0.14695042889E+01  0.43872943700E+02  0.51100000000E-03 0. -1.
         22    1    1    0    0    0  0.34556285724E+02  0.14941830818E+01  0.25858683920E+02  0.43186120458E+02  0.00000000000E+00 0. -1.
</event>
<event>
 5    1  0.6650580E-004  0.9118800E+02  0.7818608E-02  0.1130116E+00
         25   -1    0    0    0    0  0.00000000000E+00  0.00000000000E+00  0.99999998245E-14  0.12500000000E+03  0.12500000000E+03 0.  0.
        -11    1    3    3    0    0  0.25429116506E+02 -0.51784054259E+02 -0.17590016535E+02  0.60312825533E+02  0.51100000000E-03 0. -1.
         23    2    1    0    0    0  0.15003109438E+02 -0.30323019815E+02 -0.22093003840E+02  0.84593569297E+02  0.74319528552E+02 0.  0.
         11    1    3    3    0    0 -0.10426007068E+02  0.21461034444E+02 -0.45029873054E+01  0.24280743764E+02  0.51100000000E-03 0.  1.
         22    1    1    0    0    0 -0.15003109438E+02  0.30323019815E+02  0.22093003840E+02  0.40406430703E+02  0.00000000000E+00 0. -1.
</event>
<event>
 5    1  0.6650580E-004  0.9118800E+02  0.7818608E-02  0.1130116E+00
         25   -1    0    0    0    0  0.00000000000E+00  0.00000000000E+00  0.99999998245E-14  0.12500000000E+03  0.12500000000E+03 0.  0.
        -11    1    3    3    0    0 -0.49148664003E+02 -0.30119713725E+02 -0.81507978619E+01  0.58217040754E+02  0.51100000000E-03 0.  1.
         23    2    1    0    0    0 -0.28175785018E+02 -0.39684176824E+01 -0.15590185804E+02  0.92555014352E+02  0.86681910385E+02 0.  0.
         11    1    3    3    0    0  0.20972878984E+02  0.26151296043E+02 -0.74393879416E+01  0.34337973598E+02  0.51100000000E-03 0. -1.
         22    1    1    0    0    0  0.28175785018E+02  0.39684176824E+01  0.15590185804E+02  0.32444985648E+02  0.00000000000E+00 0.  1.
</event>
<event>
 5    1  0.6650580E-004  0.9118800E+02  0.7818608E-02  0.1130116E+00
         25   -1    0    0    0    0  0.00000000000E+00  0.00000000000E+00  0.99999998245E-14  0.12500000000E+03  0.12500000000E+03 0.  0.
        -11    1    3    3    0    0  0.12666828081E+02 -0.25691284571E+02 -0.20142767105E+02  0.35017448557E+02  0.51100000000E-03 0. -1.
         23    2    1    0    0    0 -0.19180029325E+02  0.77555355640E+01  0.20011883227E+02  0.96216370502E+02  0.91810089999E+02 0.  0.
         11    1    3    3    0    0 -0.31846857406E+02  0.33446820135E+02  0.40154650331E+02  0.61198921945E+02  0.51100000000E-03 0.  1.
         22    1    1    0    0    0  0.19180029325E+02 -0.77555355640E+01 -0.20011883227E+02  0.28783629498E+02  0.00000000000E+00 0.  1.
</event>
<event>
 5    1  0.6650580E-004  0.9118800E+02  0.7818608E-02  0.1130116E+00
         25   -1    0    0    0    0  0.00000000000E+00  0.00000000000E+00  0.99999998245E-14  0.12500000000E+03  0.12500000000E+03 0.  0.
        -11    1    3    3    0    0 -0.18223748658E+02  0.44166197109E+02 -0.24895397022E+02  0.53875214852E+02  0.51100000000E-03 0. -1.
         23    2    1    0    0    0  0.80731181812E+01  0.27359112255E+02  0.37397262443E+01  0.96230540274E+02  0.91829380203E+02 0.  0.
         11    1    3    3    0    0  0.26296866839E+02 -0.16807084854E+02  0.28635123266E+02  0.42355325422E+02  0.51100000000E-03 0.  1.
         22    1    1    0    0    0 -0.80731181812E+01 -0.27359112255E+02 -0.37397262443E+01  0.28769459726E+02  0.00000000000E+00 0.  1.
</event>
<event>
 5    1  0.6650580E-004  0.9118800E+02  0.7818608E-02  0.1130116E+00
         25   -1    0    0    0    0  0.00000000000E+00  0.00000000000E+00  0.99999998245E-14  0.12500000000E+03  0.12500000000E+03 0.  0.
        -11    1    3    3    0    0  0.43653236861E+02 -0.35690286286E+02  0.22273091859E+01  0.56430156212E+02  0.51100000000E-03 0.  1.
         23    2    1    0    0    0  0.28051377718E+02 -0.57231348461E+00 -0.72742853980E+01  0.96015132178E+02  0.91535692736E+02 0.  0.
         11    1    3    3    0    0 -0.15601859143E+02  0.35117972801E+02 -0.95015945839E+01  0.39584975967E+02  0.51100000000E-03 0. -1.
         22    1    1    0    0    0 -0.28051377718E+02  0.57231348461E+00  0.72742853980E+01  0.28984867822E+02  0.00000000000E+00 0.  1.
</event>
<event>
 5    1  0.6650580E-004  0.9118800E+02  0.7818608E-02  0.1130116E+00
         25   -1    0    0    0    0  0.00000000000E+00  0.00000000000E+00  0.99999998245E-14  0.12500000000E+03  0.12500000000E+03 0.  0.
        -11    1    3    3    0    0  0.26478076695E+02 -0.31115195126E+02 -0.98241815965E+01  0.42020928803E+02  0.51100000000E-03 0.  1.
         23    2    1    0    0    0 -0.22280857972E+02 -0.19199845213E+02 -0.14073630995E+02  0.92394206381E+02  0.86449705582E+02 0.  0.
         11    1    3    3    0    0 -0.48758934667E+02  0.11915349913E+02 -0.42494493984E+01  0.50373277577E+02  0.51100000000E-03 0. -1.
         22    1    1    0    0    0  0.22280857972E+02  0.19199845213E+02  0.14073630995E+02  0.32605793619E+02  0.00000000000E+00 0. -1.
</event>
<event>
 5    1  0.6650580E-004  0.9118800E+02  0.7818608E-02  0.1130116E+00
         25   -1    0    0    0    0  0.00000000000E+00  0.00000000000E+00  0.99999998245E-14  0.12500000000E+03  0.12500000000E+03 0.  0.
        -11    1    3    3    0    0 -0.37556133141E+00  0.28818904595E+02 -0.22542200405E+02  0.36589904451E+02  0.51100000000E-03 0.  1.
         23    2    1    0    0    0  0.21131015130E+02 -0.21800570478E+02 -0.10345886283E+02  0.92924744170E+02  0.87213451041E+02 0.  0.
         11    1    3    3    0    0  0.21506576461E+02 -0.50619475073E+02  0.12196314123E+02  0.56334839719E+02  0.51100000000E-03 0. -1.
         22    1    1    0    0    0 -0.21131015130E+02  0.21800570478E+02  0.10345886283E+02  0.32075255830E+02  0.00000000000E+00 0. -1.
</event>
<event>
 5    1  0.6650580E-004  0.9118800E+02  0.7818608E-02  0.1130116E+00
         25   -1    0    0    0    0  0.00000000000E+00  0.00000000000E+00  0.99999998245E-14  0.12500000000E+03  0.12500000000E+03 0.  0.
        -11    1    3    3    0    0 -0.59028989499E+02 -0.47761930003E+01 -0.12191456641E+02  0.60463751423E+02  0.51100000000E-03 0.  1.
         23    2    1    0    0    0 -0.26795612397E+02 -0.13437386984E+02 -0.49317960109E+01  0.94620881768E+02  0.89611497264E+02 0.  0.
         11    1    3    3    0    0  0.32233377102E+02 -0.86611939834E+01  0.72596606304E+01  0.34157130344E+02  0.51100000000E-03 0. -1.
         22    1    1    0    0    0  0.26795612397E+02  0.13437386984E+02  0.49317960109E+01  0.30379118232E+02  0.00000000000E+00 0.  1.
</event>
<event>
 5    1  0.6650580E-004  0.9118800E+02  0.7818608E-02  0.1130116E+00
         25   -1    0    0    0    0  0.00000000000E+00  0.00000000000E+00  0.99999998245E-14  0.12500000000E+03  0.12500000000E+03 0.  0.
        -11    1    3    3    0    0 -0.18517595755E+02 -0.91495972409E+01  0.20580443391E+02  0.29157694228E+02  0.51100000000E-03 0.  1.
         23    2    1    0    0    0  0.21361752897E+01  0.11641998136E+02 -0.32841730357E+02  0.90090422256E+02  0.83051824567E+02 0.  0.
         11    1    3    3    0    0  0.20653771045E+02  0.20791595377E+02 -0.53422173748E+02  0.60932728028E+02  0.51100000000E-03 0. -1.
         22    1    1    0    0    0 -0.21361752897E+01 -0.11641998136E+02  0.32841730357E+02  0.34909577744E+02  0.00000000000E+00 0. -1.
</event>
<event>
 5    1  0.6650580E-004  0.9118800E+02  0.7818608E-02  0.1130116E+00
         25   -1    0    0    0    0  0.00000000000E+00  0.00000000000E+00  0.99999998245E-14  0.12500000000E+03  0.12500000000E+03 0.  0.
        -11    1    3    3    0    0 -0.94063079613E+01  0.12588726596E+02  0.47132964807E+02  0.49683709992E+02  0.51100000000E-03 0. -1.
         23    2    1    0    0    0 -0.31663654195E+02  0.96315706493E+01  0.15554047564E+02  0.88431125998E+02  0.80515722064E+02 0.  0.
         11    1    3    3    0    0 -0.22257346234E+02 -0.29571559467E+01 -0.31578917243E+02  0.38747416006E+02  0.51100000000E-03 0.  1.
         22    1    1    0    0    0  0.31663654195E+02 -0.96315706493E+01 -0.15554047564E+02  0.36568874002E+02  0.00000000000E+00 0. -1.
</event>
<event>
 5    1  0.6650580E-004  0.9118800E+02  0.7818608E-02  0.1130116E+00
         25   -1    0    0    0    0  0.00000000000E+00  0.00000000000E+00  0.99999998245E-14  0.12500000000E+03  0.12500000000E+03 0.  0.
        -11    1    3    3    0    0  0.19025316989E+01 -0.55623517387E+02 -0.52631305548E+01  0.55904345599E+02  0.51100000000E-03 0.  1.
         23    2    1    0    0    0 -0.17501532887E+02 -0.22312423245E+02 -0.10399806101E+02  0.94795631915E+02  0.89854927405E+02 0.  0.
         11    1    3    3    0    0 -0.19404064585E+02  0.33311094142E+02 -0.51366755460E+01  0.38891286316E+02  0.51100000000E-03 0. -1.
         22    1    1    0    0    0  0.17501532887E+02  0.22312423245E+02  0.10399806101E+02  0.30204368085E+02  0.00000000000E+00 0.  1.
</event>
<event>
 5    1  0.6650580E-004  0.9118800E+02  0.7818608E-02  0.1130116E+00
         25   -1    0    0    0    0  0.00000000000E+00  0.00000000000E+00  0.99999998245E-14  0.12500000000E+03  0.12500000000E+03 0.  0.
        -11    1    3    3    0    0 -0.34069596682E+02  0.10606687787E+02 -0.20688002271E+02  0.41246002014E+02  0.51100000000E-03 0. -1.
         23    2    1    0    0    0  0.18280032860E+02  0.20866729890E+02 -0.87550337202E+01  0.95909956461E+02  0.91391953230E+02 0.  0.
         11    1    3    3    0    0  0.52349629542E+02  0.10260042102E+02  0.11932968551E+02  0.54663954447E+02  0.51100000000E-03 0.  1.
         22    1    1    0    0    0 -0.18280032860E+02 -0.20866729890E+02  0.87550337202E+01  0.29090043539E+02  0.00000000000E+00 0.  1.
</event>
<event>
 5    1  0.6650580E-004  0.9118800E+02  0.7818608E-02  0.1130116E+00
         25   -1    0    0    0    0  0.00000000000E+00  0.00000000000E+00  0.99999998245E-14  0.12500000000E+03  0.12500000000E+03 0.  0.
        -11    1    3    3    0    0 -0.43640869468E+02  0.23536388335E+02  0.60111908005E+01  0.49946185829E+02  0.51100000000E-03 0. -1.
         23    2    1    0    0    0 -0.21718236042E+02 -0.16155064034E+02  0.11441229719E+02  0.95613445112E+02  0.90985500372E+02 0.  0.
         11    1    3    3    0    0  0.21922633425E+02 -0.39691452369E+02  0.54300389185E+01  0.45667259283E+02  0.51100000000E-03 0.  1.
         22    1    1    0    0    0  0.21718236042E+02  0.16155064034E+02 -0.11441229719E+02  0.29386554888E+02  0.00000000000E+00 0.  1.
</event>
<event>
 5    1  0.6650580E-004  0.9118800E+02  0.7818608E-02  0.1130116E+00
         25   -1    0    0    0    0  0.00000000000E+00  0.00000000000E+00  0.99999998245E-14  0.12500000000E+03  0.12500000000E+03 0.  0.
        -11    1    3    3    0    0 -0.31510580535E+02  0.24951427381E+02  0.46742988694E+02  0.61647363336E+02  0.51100000000E-03 0. -1.
         23    2    1    0    0    0 -0.20747879512E+02  0.13159683601E+02  0.17943376459E+02  0.94576053256E+02  0.89548943679E+02 0.  0.
         11    1    3    3    0    0  0.10762701022E+02 -0.11791743780E+02 -0.28799612235E+02  0.32928689920E+02  0.51100000000E-03 0.  1.
         22    1    1    0    0    0  0.20747879512E+02 -0.13159683601E+02 -0.17943376459E+02  0.30423946744E+02  0.00000000000E+00 0. -1.
</event>
<event>
 5    1  0.6650580E-004  0.9118800E+02  0.7818608E-02  0.1130116E+00
         25   -1    0    0    0    0  0.00000000000E+00  0.00000000000E+00  0.99999998245E-14  0.12500000000E+03  0.12500000000E+03 0.  0.
        -11    1    3    3    0    0  0.27969098596E+02 -0.44140803671E+02 -0.28377044239E+02  0.59463750849E+02  0.51100000000E-03 0. -1.
         23    2    1    0    0    0  0.12305520691E+02 -0.21569640483E+02  0.15868225632E+01  0.10011640629E+03  0.96974747087E+02 0.  0.
         11    1    3    3    0    0 -0.15663577905E+02  0.22571163188E+02  0.29963866802E+02  0.40652655441E+02  0.51100000000E-03 0.  1.
         22    1    1    0    0    0 -0.12305520691E+02  0.21569640483E+02 -0.15868225632E+01  0.24883593710E+02  0.00000000000E+00 0. -1.
</event>
<event>
 5    1  0.6650580E-004  0.9118800E+02  0.7818608E-02  0.1130116E+00
         25   -1    0    0    0    0  0.00000000000E+00  0.00000000000E+00  0.99999998245E-14  0.12500000000E+03  0.12500000000E+03 0.  0.
        -11    1    3    3    0    0 -0.37612417754E+02  0.30295198984E+02 -0.24195445888E+02  0.54017706845E+02  0.51100000000E-03 0.  1.
         23    2    1    0    0    0 -0.13341328370E+02  0.63592904224E+01 -0.32669003394E+02  0.89143405068E+02  0.81614038419E+02 0.  0.
         11    1    3    3    0    0  0.24271089385E+02 -0.23935908562E+02 -0.84735575062E+01  0.35125698223E+02  0.51100000000E-03 0. -1.
         22    1    1    0    0    0  0.13341328370E+02 -0.63592904224E+01  0.32669003394E+02  0.35856594932E+02  0.00000000000E+00 0.  1.
</event>
<event>
 5    1  0.6650580E-004  0.9118800E+02  0.7818608E-02  0.1130116E+00
         25   -1    0    0    0    0  0.00000000000E+00  0.00000000000E+00  0.99999998245E-14  0.12500000000E+03  0.12500000000E+03 0.  0.
        -11    1    3    3    0    0  0.39988515237E+02  0.35722376837E+02 -0.82214252882E+01  0.54247224738E+02  0.51100000000E-03 0.  1.
         23    2    1    0    0    0  0.23023740167E+02 -0.10155332475E+01 -0.17858113042E+02  0.95844621071E+02  0.91302547981E+02 0.  0.
         11    1    3    3    0    0 -0.16964775070E+02 -0.36737910085E+02 -0.96366877540E+01  0.41597396333E+02  0.51100000000E-03 0. -1.
         22    1    1    0    0    0 -0.23023740167E+02  0.10155332475E+01  0.17858113042E+02  0.29155378929E+02  0.00000000000E+00 0.  1.
</event>
<event>
 5    1  0.6650580E-004  0.9118800E+02  0.7818608E-02  0.1130116E+00
         25   -1    0    0    0    0  0.00000000000E+00  0.00000000000E+00  0.99999998245E-14  0.12500000000E+03  0.12500000000E+03 0.  0.
        -11    1    3    3    0    0  0.35411921669E+02 -0.12631268551E+02  0.35310284666E+01  0.37762697253E+02  0.51100000000E-03 0.  1.
         23    2    1    0    0    0 -0.17114856885E+02 -0.14397751031E+02 -0.19672798910E+02  0.95213550431E+02  0.90434438174E+02 0.  0.
         11    1    3    3    0    0 -0.52526778555E+02 -0.17664824800E+01 -0.23203827377E+02  0.57450853178E+02  0.51100000000E-03 0. -1.
         22    1    1    0    0    0  0.17114856885E+02  0.14397751031E+02  0.19672798910E+02  0.29786449569E+02  0.00000000000E+00 0. -1.
</event>
<event>
 5    1  0.6650580E-004  0.9118800E+02  0.7818608E-02  0.1130116E+00
         25   -1    0    0    0    0  0.00000000000E+00  0.00000000000E+00  0.99999998245E-14  0.12500000000E+03  0.12500000000E+03 0.  0.
        -11    1    3    3    0    0 -0.32542369405E+02 -0.51008561490E+02  0.10896286201E+02  0.61478518240E+02  0.51100000000E-03 0. -1.
         23    2    1    0    0    0 -0.19630017551E+02 -0.20124539636E+02 -0.62437772884E+00  0.96880175460E+02  0.92709459415E+02 0.  0.
         11    1    3    3    0    0  0.12912351854E+02  0.30884021854E+02 -0.11520663930E+02  0.35401657220E+02  0.51100000000E-03 0.  1.
         22    1    1    0    0    0  0.19630017551E+02  0.20124539636E+02  0.62437772884E+00  0.28119824540E+02  0.00000000000E+00 0. -1.
</event>
<event>
 5    1  0.6650580E-004  0.9118800E+02  0.7818608E-02  0.1130116E+00
         25   -1    0    0    0    0  0.00000000000E+00  0.00000000000E+00  0.99999998245E-14  0.12500000000E+03  0.12500000000E+03 0.  0.
        -11    1    3    3    0    0 -0.57360494566E+02 -0.90661444986E+00  0.17513763251E+02  0.59981498732E+02  0.51100000000E-03 0. -1.
         23    2    1    0    0    0 -0.22413685218E+02 -0.61772484943E+01  0.18424574366E+02  0.95335262945E+02  0.90602515065E+02 0.  0.
         11    1    3    3    0    0  0.34946809348E+02 -0.52706340444E+01  0.91081111453E+00  0.35353764213E+02  0.51100000000E-03 0.  1.
         22    1    1    0    0    0  0.22413685218E+02  0.61772484943E+01 -0.18424574366E+02  0.29664737055E+02  0.00000000000E+00 0. -1.
</event>
<event>
 5    1  0.6650580E-004  0.9118800E+02  0.7818608E-02  0.1130116E+00
         25   -1    0    0    0    0  0.00000000000E+00  0.00000000000E+00  0.99999998245E-14  0.12500000000E+03  0.12500000000E+03 0.  0.
        -11    1    3    3    0    0  0.25176570899E+02 -0.12549701521E+02  0.45563021247E+02  0.53547582914E+02  0.51100000000E-03 0. -1.
         23    2    1    0    0    0  0.27783061270E+02 -0.34984519227E+01  0.33509545200E+01  0.96797756196E+02  0.92598266987E+02 0.  0.
         11    1    3    3    0    0  0.26064903709E+01  0.90512495984E+01 -0.42212066727E+02  0.43250173282E+02  0.51100000000E-03 0.  1.
         22    1    1    0    0    0 -0.27783061270E+02  0.34984519227E+01 -0.33509545200E+01  0.28202243804E+02  0.00000000000E+00 0. -1.
</event>
<event>
 5    1  0.6650580E-004  0.9118800E+02  0.7818608E-02  0.1130116E+00
         25   -1    0    0    0    0  0.00000000000E+00  0.00000000000E+00  0.99999998245E-14  0.12500000000E+03  0.12500000000E+03 0.  0.
        -11    1    3    3    0    0  0.42548113601E+02 -0.20274067866E+02  0.11108052843E+02  0.48422811123E+02  0.51100000000E-03 0.  1.
         23    2    1    0    0    0  0.19372115616E+02 -0.16762669154E+01 -0.23800677066E+02  0.94266289469E+02  0.89115500151E+02 0.  0.
         11    1    3    3    0    0 -0.23175997985E+02  0.18597800950E+02 -0.34908729909E+02  0.45843478346E+02  0.51100000000E-03 0. -1.
         22    1    1    0    0    0 -0.19372115616E+02  0.16762669154E+01  0.23800677066E+02  0.30733710531E+02  0.00000000000E+00 0.  1.
</event>
<event>
 5    1  0.6650580E-004  0.9118800E+02  0.7818608E-02  0.1130116E+00
         25   -1    0    0    0    0  0.00000000000E+00  0.00000000000E+00  0.99999998245E-14  0.12500000000E+03  0.12500000000E+03 0.  0.
        -11    1    3    3    0    0 -0.40336062410E+02  0.37105918412E+02 -0.14263740079E+02  0.56633041532E+02  0.51100000000E-03 0.  1.
         23    2    1    0    0    0 -0.20730913019E+02  0.22511399822E+02 -0.26996112891E+02  0.84191618658E+02  0.73640373875E+02 0.  0.
         11    1    3    3    0    0  0.19605149391E+02 -0.14594518590E+02 -0.12732372812E+02  0.27558577126E+02  0.51100000000E-03 0. -1.
         22    1    1    0    0    0  0.20730913019E+02 -0.22511399822E+02  0.26996112891E+02  0.40808381342E+02  0.00000000000E+00 0.  1.
</event>
<event>
 5    1  0.6650580E-004  0.9118800E+02  0.7818608E-02  0.1130116E+00
         25   -1    0    0    0    0  0.00000000000E+00  0.00000000000E+00  0.99999998245E-14  0.12500000000E+03  0.12500000000E+03 0.  0.
        -11    1    3    3    0    0 -0.13263518647E+02  0.33634971941E+02 -0.17166917133E+02  0.40024184045E+02  0.51100000000E-03 0. -1.
         23    2    1    0    0    0  0.28471407516E+02 -0.17134493329E+01 -0.53296999535E+01  0.95983407227E+02  0.91492359281E+02 0.  0.
         11    1    3    3    0    0  0.41734926163E+02 -0.35348421274E+02  0.11837217179E+02  0.55959223182E+02  0.51100000000E-03 0.  1.
         22    1    1    0    0    0 -0.28471407516E+02  0.17134493329E+01  0.53296999535E+01  0.29016592773E+02  0.00000000000E+00 0.  1.
</event>
<event>
 5    1  0.6650580E-004  0.9118800E+02  0.7818608E-02  0.1130116E+00
         25   -1    0    0    0    0  0.00000000000E+00  0.00000000000E+00  0.99999998245E-14  0.12500000000E+03  0.12500000000E+03 0.  0.
        -11    1    3    3    0    0  0.26012586328E+02  0.24027448655E+01 -0.18581573848E+02  0.32057802752E+02  0.51100000000E-03 0.  1.
         23    2    1    0    0    0 -0.15496595485E+02 -0.66914985086E+01  0.26226417117E+02  0.93811130532E+02  0.88474757038E+02 0.  0.
         11    1    3    3    0    0 -0.41509181813E+02 -0.90942433741E+01  0.44807990965E+02  0.61753327780E+02  0.51100000000E-03 0. -1.
         22    1    1    0    0    0  0.15496595485E+02  0.66914985086E+01 -0.26226417117E+02  0.31188869468E+02  0.00000000000E+00 0. -1.
</event>
<event>
 5    1  0.6650580E-004  0.9118800E+02  0.7818608E-02  0.1130116E+00
         25   -1    0    0    0    0  0.00000000000E+00  0.00000000000E+00  0.99999998245E-14  0.12500000000E+03  0.12500000000E+03 0.  0.
        -11    1    3    3    0    0 -0.33123562514E+01 -0.10237570198E+02  0.22048767007E+02  0.24534214360E+02  0.51100000000E-03 0.  1.
         23    2    1    0    0    0 -0.21074259542E+02  0.20739077767E+02 -0.26835013813E+02  0.85070665818E+02  0.75117684034E+02 0.  0.
         11    1    3    3    0    0 -0.17761903290E+02  0.30976647965E+02 -0.48883780820E+02  0.60536451458E+02  0.51100000000E-03 0. -1.
         22    1    1    0    0    0  0.21074259542E+02 -0.20739077767E+02  0.26835013813E+02  0.39929334182E+02  0.00000000000E+00 0. -1.
</event>
<event>
 5    1  0.6650580E-004  0.9118800E+02  0.7818608E-02  0.1130116E+00
         25   -1    0    0    0    0  0.00000000000E+00  0.00000000000E+00  0.99999998245E-14  0.12500000000E+03  0.12500000000E+03 0.  0.
        -11    1    3    3    0    0 -0.12136451162E+02 -0.13295726012E+02  0.31726681061E+02  0.36478103959E+02  0.51100000000E-03 0. -1.
         23    2    1    0    0    0 -0.21496422629E+00  0.26396399132E+02 -0.11360599102E+02  0.96261884044E+02  0.91872036066E+02 0.  0.
         11    1    3    3    0    0  0.11921486936E+02  0.39692125144E+02 -0.43087280163E+02  0.59783780085E+02  0.51100000000E-03 0.  1.
         22    1    1    0    0    0  0.21496422629E+00 -0.26396399132E+02  0.11360599102E+02  0.28738115956E+02  0.00000000000E+00 0.  1.
</event>
<event>
 5    1  0.6650580E-004  0.9118800E+02  0.7818608E-02  0.1130116E+00
         25   -1    0    0    0    0  0.00000000000E+00  0.00000000000E+00  0.99999998245E-14  0.12500000000E+03  0.12500000000E+03 0.  0.
        -11    1    3    3    0    0  0.35625047569E+02 -0.45689808782E+02  0.41056677824E+00  0.57938512288E+02  0.51100000000E-03 0. -1.
         23    2    1    0    0    0  0.23425868620E+02 -0.11594089950E+02  0.12380814497E+02  0.96078056601E+02  0.91621581247E+02 0.  0.
         11    1    3    3    0    0 -0.12199178949E+02  0.34095718832E+02  0.11970247719E+02  0.38139544313E+02  0.51100000000E-03 0.  1.
         22    1    1    0    0    0 -0.23425868620E+02  0.11594089950E+02 -0.12380814497E+02  0.28921943399E+02  0.00000000000E+00 0. -1.
</event>
<event>
 5    1  0.6650580E-004  0.9118800E+02  0.7818608E-02  0.1130116E+00
         25   -1    0    0    0    0  0.00000000000E+00  0.00000000000E+00  0.99999998245E-14  0.12500000000E+03  0.12500000000E+03 0.  0.
        -11    1    3    3    0    0  0.14605123301E+02 -0.24278136518E+02  0.19573472758E+02  0.34436294451E+02  0.51100000000E-03 0.  1.
         23    2    1    0    0    0  0.23679201583E+01  0.30574195242E+02 -0.10886509999E+01  0.94314928359E+02  0.89183698566E+02 0.  0.
         11    1    3    3    0    0 -0.12237203143E+02  0.54852331760E+02 -0.20662123758E+02  0.59878633909E+02  0.51100000000E-03 0. -1.
         22    1    1    0    0    0 -0.23679201583E+01 -0.30574195242E+02  0.10886509999E+01  0.30685071641E+02  0.00000000000E+00 0. -1.
</event>
<event>
 5    1  0.6650580E-004  0.9118800E+02  0.7818608E-02  0.1130116E+00
         25   -1    0    0    0    0  0.00000000000E+00  0.00000000000E+00  0.99999998245E-14  0.12500000000E+03  0.12500000000E+03 0.  0.
        -11    1    3    3    0    0  0.20454137070E+02  0.14567694885E+02  0.53994208626E+02  0.59547997640E+02  0.51100000000E-03 0.  1.
         23    2    1    0    0    0  0.90211768254E+01  0.19465019416E+02  0.20300918564E+02  0.95463651094E+02  0.90779473304E+02 0.  0.
         11    1    3    3    0    0 -0.11432960245E+02  0.48973245305E+01 -0.33693290062E+02  0.35915653453E+02  0.51100000000E-03 0. -1.
         22    1    1    0    0    0 -0.90211768254E+01 -0.19465019416E+02 -0.20300918564E+02  0.29536348906E+02  0.00000000000E+00 0.  1.
</event>
<event>
 5    1  0.6650580E-004  0.9118800E+02  0.7818608E-02  0.1130116E+00
         25   -1    0    0    0    0  0.00000000000E+00  0.00000000000E+00  0.99999998245E-14  0.12500000000E+03  0.12500000000E+03 0.  0.
        -11    1    3    3    0    0 -0.80595597573E+01 -0.28674698053E+02 -0.25428835115E+02  0.39164020063E+02  0.51100000000E-03 0. -1.
         23    2    1    0    0    0  0.26958081442E+02 -0.21475651557E+01  0.10573752623E+02  0.95962878317E+02  0.91464307679E+02 0.  0.
         11    1    3    3    0    0  0.35017641199E+02  0.26527132897E+02  0.36002587738E+02  0.56798858254E+02  0.51100000000E-03 0.  1.
         22    1    1    0    0    0 -0.26958081442E+02  0.21475651557E+01 -0.10573752623E+02  0.29037121683E+02  0.00000000000E+00 0.  1.
</event>
<event>
 5    1  0.6650580E-004  0.9118800E+02  0.7818608E-02  0.1130116E+00
         25   -1    0    0    0    0  0.00000000000E+00  0.00000000000E+00  0.99999998245E-14  0.12500000000E+03  0.12500000000E+03 0.  0.
        -11    1    3    3    0    0 -0.18384613619E+02  0.37144041323E+02 -0.44061874475E+01  0.41678391425E+02  0.51100000000E-03 0. -1.
         23    2    1    0    0    0  0.10004091801E+02  0.65128993867E+01  0.28014071808E+02  0.94548597233E+02  0.89510610032E+02 0.  0.
         11    1    3    3    0    0  0.28388705420E+02 -0.30631141936E+02  0.32420259256E+02  0.52870205808E+02  0.51100000000E-03 0.  1.
         22    1    1    0    0    0 -0.10004091801E+02 -0.65128993867E+01 -0.28014071808E+02  0.30451402767E+02  0.00000000000E+00 0.  1.
</event>
<event>
 5    1  0.6650580E-004  0.9118800E+02  0.7818608E-02  0.1130116E+00
         25   -1    0    0    0    0  0.00000000000E+00  0.00000000000E+00  0.99999998245E-14  0.12500000000E+03  0.12500000000E+03 0.  0.
        -11    1    3    3    0    0  0.18725360363E+02  0.25949045856E+02 -0.47886045605E+02  0.57593970739E+02  0.51100000000E-03 0.  1.
         23    2    1    0    0    0 -0.91252071671E+01  0.14566855708E+02 -0.20148195360E+02  0.98515807218E+02  0.94889155357E+02 0.  0.
         11    1    3    3    0    0 -0.27850567530E+02 -0.11382190148E+02  0.27737850245E+02  0.40921836478E+02  0.51100000000E-03 0. -1.
         22    1    1    0    0    0  0.91252071671E+01 -0.14566855708E+02  0.20148195360E+02  0.26484192782E+02  0.00000000000E+00 0.  1.
</event>
<event>
 5    1  0.6650580E-004  0.9118800E+02  0.7818608E-02  0.1130116E+00
         25   -1    0    0    0    0  0.00000000000E+00  0.00000000000E+00  0.99999998245E-14  0.12500000000E+03  0.12500000000E+03 0.  0.
        -11    1    3    3    0    0 -0.18528444456E+02 -0.45932397020E+02  0.35898006885E+02  0.61169888414E+02  0.51100000000E-03 0.  1.
         23    2    1    0    0    0 -0.16488935423E+02 -0.16953961126E+02  0.17849844771E+02  0.95369968822E+02  0.90650384475E+02 0.  0.
         11    1    3    3    0    0  0.20395090321E+01  0.28978435894E+02 -0.18048162114E+02  0.34200080408E+02  0.51100000000E-03 0. -1.
         22    1    1    0    0    0  0.16488935423E+02  0.16953961126E+02 -0.17849844771E+02  0.29630031178E+02  0.00000000000E+00 0.  1.
</event>
<event>
 5    1  0.6650580E-004  0.9118800E+02  0.7818608E-02  0.1130116E+00
         25   -1    0    0    0    0  0.00000000000E+00  0.00000000000E+00  0.99999998245E-14  0.12500000000E+03  0.12500000000E+03 0.  0.
        -11    1    3    3    0    0 -0.35537953274E+02  0.45000312575E+02  0.24010313480E+00  0.57341362946E+02  0.51100000000E-03 0.  1.
         23    2    1    0    0    0 -0.22041375231E+02  0.13095460825E+02  0.15330952503E+02  0.95127748312E+02  0.90315763175E+02 0.  0.
         11    1    3    3    0    0  0.13496578043E+02 -0.31904851750E+02  0.15090849368E+02  0.37786385365E+02  0.51100000000E-03 0. -1.
         22    1    1    0    0    0  0.22041375231E+02 -0.13095460825E+02 -0.15330952503E+02  0.29872251688E+02  0.00000000000E+00 0.  1.
</event>
<event>
 5    1  0.6650580E-004  0.9118800E+02  0.7818608E-02  0.1130116E+00
         25   -1    0    0    0    0  0.00000000000E+00  0.00000000000E+00  0.99999998245E-14  0.12500000000E+03  0.12500000000E+03 0.  0.
        -11    1    3    3    0    0 -0.23054194977E+01  0.97894709235E+01 -0.51530920724E+02  0.52503185531E+02  0.51100000000E-03 0.  1.
         23    2    1    0    0    0  0.22566828873E+02  0.10996391386E+02 -0.18762211549E+02  0.93659882401E+02  0.88260810105E+02 0.  0.
         11    1    3    3    0    0  0.24872248371E+02  0.12069204624E+01  0.32768709175E+02  0.41156696870E+02  0.51100000000E-03 0. -1.
         22    1    1    0    0    0 -0.22566828873E+02 -0.10996391386E+02  0.18762211549E+02  0.31340117599E+02  0.00000000000E+00 0.  1.
</event>
<event>
 5    1  0.6650580E-004  0.9118800E+02  0.7818608E-02  0.1130116E+00
         25   -1    0    0    0    0  0.00000000000E+00  0.00000000000E+00  0.99999998245E-14  0.12500000000E+03  0.12500000000E+03 0.  0.
        -11    1    3    3    0    0 -0.41584280408E+01  0.43774118680E+02  0.10999204692E+02  0.45326024469E+02  0.51100000000E-03 0. -1.
         23    2    1    0    0    0  0.15671931943E+02  0.11899051429E+02 -0.22124947364E+02  0.95390708019E+02  0.90678977745E+02 0.  0.
         11    1    3    3    0    0  0.19830359984E+02 -0.31875067251E+02 -0.33124152056E+02  0.50064683551E+02  0.51100000000E-03 0.  1.
         22    1    1    0    0    0 -0.15671931943E+02 -0.11899051429E+02  0.22124947364E+02  0.29609291981E+02  0.00000000000E+00 0.  1.
</event>
<event>
 5    1  0.6650580E-004  0.9118800E+02  0.7818608E-02  0.1130116E+00
         25   -1    0    0    0    0  0.00000000000E+00  0.00000000000E+00  0.99999998245E-14  0.12500000000E+03  0.12500000000E+03 0.  0.
        -11    1    3    3    0    0  0.24473266994E+02 -0.48413265584E+02  0.30145372779E+02  0.62060684673E+02  0.51100000000E-03 0.  1.
         23    2    1    0    0    0  0.76351350906E+01 -0.20141731721E+02  0.67818385402E+01  0.10241730799E+03  0.99896581507E+02 0.  0.
         11    1    3    3    0    0 -0.16838131903E+02  0.28271533863E+02 -0.23363534239E+02  0.40356623314E+02  0.51100000000E-03 0. -1.
         22    1    1    0    0    0 -0.76351350906E+01  0.20141731721E+02 -0.67818385402E+01  0.22582692013E+02  0.00000000000E+00 0.  1.
</event>
<event>
 5    1  0.6650580E-004  0.9118800E+02  0.7818608E-02  0.1130116E+00
         25   -1    0    0    0    0  0.00000000000E+00  0.00000000000E+00  0.99999998245E-14  0.12500000000E+03  0.12500000000E+03 0.  0.
        -11    1    3    3    0    0  0.97759407347E-01  0.11131274649E+02  0.43889640406E+02  0.45279303964E+02  0.51100000000E-03 0.  1.
         23    2    1    0    0    0  0.27200081124E+02 -0.93050061043E+01  0.69939721962E+01  0.95413800534E+02  0.90710804944E+02 0.  0.
         11    1    3    3    0    0  0.27102321717E+02 -0.20436280753E+02 -0.36895668210E+02  0.50134496570E+02  0.51100000000E-03 0. -1.
         22    1    1    0    0    0 -0.27200081124E+02  0.93050061043E+01 -0.69939721962E+01  0.29586199466E+02  0.00000000000E+00 0. -1.
</event>
<event>
 5    1  0.6650580E-004  0.9118800E+02  0.7818608E-02  0.1130116E+00
         25   -1    0    0    0    0  0.00000000000E+00  0.00000000000E+00  0.99999998245E-14  0.12500000000E+03  0.12500000000E+03 0.  0.
        -11    1    3    3    0    0  0.21890809174E+02 -0.20763350561E+02 -0.54182957807E+01  0.30654235959E+02  0.51100000000E-03 0. -1.
         23    2    1    0    0    0 -0.17028577507E+02  0.98675218100E+01  0.28270605256E+02  0.90553410036E+02  0.83745761141E+02 0.  0.
         11    1    3    3    0    0 -0.38919386681E+02  0.30630872371E+02  0.33688901037E+02  0.59899174077E+02  0.51100000000E-03 0.  1.
         22    1    1    0    0    0  0.17028577507E+02 -0.98675218100E+01 -0.28270605256E+02  0.34446589964E+02  0.00000000000E+00 0. -1.
</event>
<event>
 5    1  0.6650580E-004  0.9118800E+02  0.7818608E-02  0.1130116E+00
         25   -1    0    0    0    0  0.00000000000E+00  0.00000000000E+00  0.99999998245E-14  0.12500000000E+03  0.12500000000E+03 0.  0.
        -11    1    3    3    0    0  0.31370139442E+02  0.44224658426E+01  0.36154974163E+02  0.48071051681E+02  0.51100000000E-03 0.  1.
         23    2    1    0    0    0 -0.77429463759E+01  0.23131720624E+02  0.15516252081E+02  0.96090074433E+02  0.91637975798E+02 0.  0.
         11    1    3    3    0    0 -0.39113085817E+02  0.18709254782E+02 -0.20638722082E+02  0.48019022752E+02  0.51100000000E-03 0. -1.
         22    1    1    0    0    0  0.77429463759E+01 -0.23131720624E+02 -0.15516252081E+02  0.28909925567E+02  0.00000000000E+00 0.  1.
</event>
<event>
 5    1  0.6650580E-004  0.9118800E+02  0.7818608E-02  0.1130116E+00
         25   -1    0    0    0    0  0.00000000000E+00  0.00000000000E+00  0.99999998245E-14  0.12500000000E+03  0.12500000000E+03 0.  0.
        -11    1    3    3    0    0  0.17932302445E+02 -0.51253379099E+02  0.17509459520E+02  0.57053111335E+02  0.51100000000E-03 0.  1.
         23    2    1    0    0    0  0.11138351888E+02 -0.11929857595E+02  0.22428819379E+02  0.97261284750E+02  0.93221892211E+02 0.  0.
         11    1    3    3    0    0 -0.67939505577E+01  0.39323521504E+02  0.49193598585E+01  0.40208173414E+02  0.51100000000E-03 0. -1.
         22    1    1    0    0    0 -0.11138351888E+02  0.11929857595E+02 -0.22428819379E+02  0.27738715250E+02  0.00000000000E+00 0. -1.
</event>
<event>
 5    1  0.6650580E-004  0.9118800E+02  0.7818608E-02  0.1130116E+00
         25   -1    0    0    0    0  0.00000000000E+00  0.00000000000E+00  0.99999998245E-14  0.12500000000E+03  0.12500000000E+03 0.  0.
        -11    1    3    3    0    0  0.15577132540E+02  0.42093982773E+01  0.36605436747E+02  0.40004050941E+02  0.51100000000E-03 0. -1.
         23    2    1    0    0    0 -0.29082746748E+02  0.39849624698E+01  0.38385586996E+01  0.95395598010E+02  0.90685718294E+02 0.  0.
         11    1    3    3    0    0 -0.44659879288E+02 -0.22443580751E+00 -0.32766878047E+02  0.55391547069E+02  0.51100000000E-03 0.  1.
         22    1    1    0    0    0  0.29082746748E+02 -0.39849624698E+01 -0.38385586996E+01  0.29604401990E+02  0.00000000000E+00 0. -1.
</event>
<event>
 5    1  0.6650580E-004  0.9118800E+02  0.7818608E-02  0.1130116E+00
         25   -1    0    0    0    0  0.00000000000E+00  0.00000000000E+00  0.99999998245E-14  0.12500000000E+03  0.12500000000E+03 0.  0.
        -11    1    3    3    0    0  0.13364468304E+02 -0.18909004517E+02 -0.48360476157E+02  0.53618048447E+02  0.51100000000E-03 0.  1.
         23    2    1    0    0    0 -0.42097317124E+01  0.12492760913E+02 -0.25622751824E+02  0.96184790000E+02  0.91767082878E+02 0.  0.
         11    1    3    3    0    0 -0.17574200016E+02  0.31401765430E+02  0.22737724333E+02  0.42566741553E+02  0.51100000000E-03 0. -1.
         22    1    1    0    0    0  0.42097317124E+01 -0.12492760913E+02  0.25622751824E+02  0.28815210000E+02  0.00000000000E+00 0.  1.
</event>
<event>
 5    1  0.6650580E-004  0.9118800E+02  0.7818608E-02  0.1130116E+00
         25   -1    0    0    0    0  0.00000000000E+00  0.00000000000E+00  0.99999998245E-14  0.12500000000E+03  0.12500000000E+03 0.  0.
        -11    1    3    3    0    0 -0.37006834355E+01 -0.21600005871E+02  0.26343258918E+02  0.34266931613E+02  0.51100000000E-03 0.  1.
         23    2    1    0    0    0  0.18281240301E+02 -0.19909994235E+01 -0.25301334905E+02  0.93721806740E+02  0.88348467361E+02 0.  0.
         11    1    3    3    0    0  0.21981923736E+02  0.19609006447E+02 -0.51644593823E+02  0.59454875127E+02  0.51100000000E-03 0. -1.
         22    1    1    0    0    0 -0.18281240301E+02  0.19909994235E+01  0.25301334905E+02  0.31278193260E+02  0.00000000000E+00 0. -1.
</event>
<event>
 5    1  0.6650580E-004  0.9118800E+02  0.7818608E-02  0.1130116E+00
         25   -1    0    0    0    0  0.00000000000E+00  0.00000000000E+00  0.99999998245E-14  0.12500000000E+03  0.12500000000E+03 0.  0.
        -11    1    3    3    0    0  0.80921057688E+01  0.15878335472E+02 -0.34468571068E+02  0.38803171325E+02  0.51100000000E-03 0. -1.
         23    2    1    0    0    0 -0.13999352339E+02 -0.12782564799E+02  0.15509732889E+02  0.10050657960E+03  0.97476381238E+02 0.  0.
         11    1    3    3    0    0 -0.22091458108E+02 -0.28660900271E+02  0.49978303957E+02  0.61703408272E+02  0.51100000000E-03 0.  1.
         22    1    1    0    0    0  0.13999352339E+02  0.12782564799E+02 -0.15509732889E+02  0.24493420403E+02  0.00000000000E+00 0.  1.
</event>
<event>
 5    1  0.6650580E-004  0.9118800E+02  0.7818608E-02  0.1130116E+00
         25   -1    0    0    0    0  0.00000000000E+00  0.00000000000E+00  0.99999998245E-14  0.12500000000E+03  0.12500000000E+03 0.  0.
        -11    1    3    3    0    0  0.17059628074E+02 -0.38970325762E+02  0.53896871099E+01  0.42880834033E+02  0.51100000000E-03 0. -1.
         23    2    1    0    0    0  0.30474796462E+02 -0.14884047454E+02 -0.24209004020E+02  0.83330779181E+02  0.72164359591E+02 0.  0.
         11    1    3    3    0    0  0.13415168388E+02  0.24086278307E+02 -0.29598691130E+02  0.40449945148E+02  0.51100000000E-03 0.  1.
         22    1    1    0    0    0 -0.30474796462E+02  0.14884047454E+02  0.24209004020E+02  0.41669220819E+02  0.00000000000E+00 0.  1.
</event>
<event>
 5    1  0.6650580E-004  0.9118800E+02  0.7818608E-02  0.1130116E+00
         25   -1    0    0    0    0  0.00000000000E+00  0.00000000000E+00  0.99999998245E-14  0.12500000000E+03  0.12500000000E+03 0.  0.
        -11    1    3    3    0    0 -0.26418697536E+02 -0.40122528741E+02 -0.44248977855E+00  0.48041239467E+02  0.51100000000E-03 0. -1.
         23    2    1    0    0    0  0.21994686822E+01 -0.94187443144E+01 -0.26052320306E+02  0.97210185314E+02  0.93153348456E+02 0.  0.
         11    1    3    3    0    0  0.28618166218E+02  0.30703784427E+02 -0.25609830527E+02  0.49168945847E+02  0.51100000000E-03 0.  1.
         22    1    1    0    0    0 -0.21994686822E+01  0.94187443144E+01  0.26052320306E+02  0.27789814686E+02  0.00000000000E+00 0. -1.
</event>
<event>
 5    1  0.6650580E-004  0.9118800E+02  0.7818608E-02  0.1130116E+00
         25   -1    0    0    0    0  0.00000000000E+00  0.00000000000E+00  0.99999998245E-14  0.12500000000E+03  0.12500000000E+03 0.  0.
        -11    1    3    3    0    0 -0.26241521187E+02 -0.22318357740E+02  0.86335264091E+01  0.35514283111E+02  0.51100000000E-03 0. -1.
         23    2    1    0    0    0  0.57130396964E+01  0.28360435100E+02 -0.16896843386E+00  0.96069364819E+02  0.91609722217E+02 0.  0.
         11    1    3    3    0    0  0.31954560883E+02  0.50678792840E+02 -0.88024948429E+01  0.60555081708E+02  0.51100000000E-03 0.  1.
         22    1    1    0    0    0 -0.57130396964E+01 -0.28360435100E+02  0.16896843386E+00  0.28930635181E+02  0.00000000000E+00 0.  1.
</event>
<event>
 5    1  0.6650580E-004  0.9118800E+02  0.7818608E-02  0.1130116E+00
         25   -1    0    0    0    0  0.00000000000E+00  0.00000000000E+00  0.99999998245E-14  0.12500000000E+03  0.12500000000E+03 0.  0.
        -11    1    3    3    0    0 -0.17148017891E+02  0.42615207272E+02  0.15866482501E+02  0.48598926693E+02  0.51100000000E-03 0.  1.
         23    2    1    0    0    0 -0.16736048832E+02  0.11748154846E+02 -0.20326107797E+02  0.96168331110E+02  0.91744660758E+02 0.  0.
         11    1    3    3    0    0  0.41196905944E+00 -0.30867052426E+02 -0.36192590297E+02  0.47569404418E+02  0.51100000000E-03 0. -1.
         22    1    1    0    0    0  0.16736048832E+02 -0.11748154846E+02  0.20326107797E+02  0.28831668890E+02  0.00000000000E+00 0. -1.
</event>
<event>
 5    1  0.6650580E-004  0.9118800E+02  0.7818608E-02  0.1130116E+00
         25   -1    0    0    0    0  0.00000000000E+00  0.00000000000E+00  0.99999998245E-14  0.12500000000E+03  0.12500000000E+03 0.  0.
        -11    1    3    3    0    0  0.34810180189E+01 -0.37859449813E+02  0.14058932301E+02  0.40535280982E+02  0.51100000000E-03 0. -1.
         23    2    1    0    0    0 -0.42606072007E+01 -0.16057769696E+01 -0.28018734255E+02  0.96613722283E+02  0.92349502277E+02 0.  0.
         11    1    3    3    0    0 -0.77416252196E+01  0.36253672844E+02 -0.42077666556E+02  0.56078441301E+02  0.51100000000E-03 0.  1.
         22    1    1    0    0    0  0.42606072007E+01  0.16057769696E+01  0.28018734255E+02  0.28386277717E+02  0.00000000000E+00 0.  1.
</event>
<event>
 5    1  0.6650580E-004  0.9118800E+02  0.7818608E-02  0.1130116E+00
         25   -1    0    0    0    0  0.00000000000E+00  0.00000000000E+00  0.99999998245E-14  0.12500000000E+03  0.12500000000E+03 0.  0.
        -11    1    3    3    0    0  0.69555062664E+01  0.45734840152E+02  0.33847796249E+02  0.57321269894E+02  0.51100000000E-03 0.  1.
         23    2    1    0    0    0  0.14912703965E+02  0.96180710123E+01  0.23170989927E+02  0.95814544654E+02  0.91261361833E+02 0.  0.
         11    1    3    3    0    0  0.79571976986E+01 -0.36116769139E+02 -0.10676806322E+02  0.38493274760E+02  0.51100000000E-03 0. -1.
         22    1    1    0    0    0 -0.14912703965E+02 -0.96180710123E+01 -0.23170989927E+02  0.29185455346E+02  0.00000000000E+00 0.  1.
</event>
<event>
 5    1  0.6650580E-004  0.9118800E+02  0.7818608E-02  0.1130116E+00
         25   -1    0    0    0    0  0.00000000000E+00  0.00000000000E+00  0.99999998245E-14  0.12500000000E+03  0.12500000000E+03 0.  0.
        -11    1    3    3    0    0 -0.83352261983E+01 -0.22532121568E+01  0.48778688552E+02  0.49536990400E+02  0.51100000000E-03 0. -1.
         23    2    1    0    0    0 -0.27593727792E+02  0.47076125211E+01  0.68765289105E+01  0.96175321703E+02  0.91754184786E+02 0.  0.
         11    1    3    3    0    0 -0.19258501593E+02  0.69608246779E+01 -0.41902159641E+02  0.46638331303E+02  0.51100000000E-03 0.  1.
         22    1    1    0    0    0  0.27593727792E+02 -0.47076125211E+01 -0.68765289105E+01  0.28824678297E+02  0.00000000000E+00 0.  1.
</event>
<event>
 5    1  0.6650580E-004  0.9118800E+02  0.7818608E-02  0.1130116E+00
         25   -1    0    0    0    0  0.00000000000E+00  0.00000000000E+00  0.99999998245E-14  0.12500000000E+03  0.12500000000E+03 0.  0.
        -11    1    3    3    0    0  0.32807647898E+02 -0.69100372215E+01 -0.86658207209E+01  0.34629276978E+02  0.51100000000E-03 0.  1.
         23    2    1    0    0    0 -0.24226200197E+02 -0.11498201533E+02  0.12207446612E+02  0.95535798547E+02  0.90878763399E+02 0.  0.
         11    1    3    3    0    0 -0.57033848095E+02 -0.45881643113E+01  0.20873267333E+02  0.60906521569E+02  0.51100000000E-03 0. -1.
         22    1    1    0    0    0  0.24226200197E+02  0.11498201533E+02 -0.12207446612E+02  0.29464201453E+02  0.00000000000E+00 0. -1.
</event>
<event>
 5    1  0.6650580E-004  0.9118800E+02  0.7818608E-02  0.1130116E+00
         25   -1    0    0    0    0  0.00000000000E+00  0.00000000000E+00  0.99999998245E-14  0.12500000000E+03  0.12500000000E+03 0.  0.
        -11    1    3    3    0    0  0.41774266893E+02  0.20899370089E+02 -0.55348633814E+01  0.47037301766E+02  0.51100000000E-03 0.  1.
         23    2    1    0    0    0  0.19398993923E+02 -0.19207738355E+02  0.10599110352E+02  0.95715203292E+02  0.91125193130E+02 0.  0.
         11    1    3    3    0    0 -0.22375272969E+02 -0.40107108445E+02  0.16133973734E+02  0.48677901526E+02  0.51100000000E-03 0. -1.
         22    1    1    0    0    0 -0.19398993923E+02  0.19207738355E+02 -0.10599110352E+02  0.29284796708E+02  0.00000000000E+00 0. -1.
</event>
<event>
 5    1  0.6650580E-004  0.9118800E+02  0.7818608E-02  0.1130116E+00
         25   -1    0    0    0    0  0.00000000000E+00  0.00000000000E+00  0.99999998245E-14  0.12500000000E+03  0.12500000000E+03 0.  0.
        -11    1    3    3    0    0  0.23490996364E+02  0.26829666851E+02 -0.44799894700E+02  0.57259833207E+02  0.51100000000E-03 0.  1.
         23    2    1    0    0    0  0.27819530516E+02  0.46734463378E+01 -0.23805902451E+02  0.88088099883E+02  0.79981403905E+02 0.  0.
         11    1    3    3    0    0  0.43285341518E+01 -0.22156220514E+02  0.20993992250E+02  0.30828266675E+02  0.51100000000E-03 0. -1.
         22    1    1    0    0    0 -0.27819530516E+02 -0.46734463378E+01  0.23805902451E+02  0.36911900117E+02  0.00000000000E+00 0.  1.
</event>
<event>
 5    1  0.6650580E-004  0.9118800E+02  0.7818608E-02  0.1130116E+00
         25   -1    0    0    0    0  0.00000000000E+00  0.00000000000E+00  0.99999998245E-14  0.12500000000E+03  0.12500000000E+03 0.  0.
        -11    1    3    3    0    0  0.55978949236E+02  0.30572950819E+01  0.90757289558E+01  0.56792241258E+02  0.51100000000E-03 0.  1.
         23    2    1    0    0    0  0.18595280137E+02  0.10425216215E+02  0.19300125024E+02  0.96243011242E+02  0.91846354367E+02 0.  0.
         11    1    3    3    0    0 -0.37383669099E+02  0.73679211329E+01  0.10224396068E+02  0.39450769984E+02  0.51100000000E-03 0. -1.
         22    1    1    0    0    0 -0.18595280137E+02 -0.10425216215E+02 -0.19300125024E+02  0.28756988758E+02  0.00000000000E+00 0.  1.
</event>
<event>
 5    1  0.6650580E-004  0.9118800E+02  0.7818608E-02  0.1130116E+00
         25   -1    0    0    0    0  0.00000000000E+00  0.00000000000E+00  0.99999998245E-14  0.12500000000E+03  0.12500000000E+03 0.  0.
        -11    1    3    3    0    0  0.55745500354E+02  0.21530363507E+02  0.12043975249E+02  0.60960435551E+02  0.51100000000E-03 0. -1.
         23    2    1    0    0    0  0.23238823459E+02  0.18149752587E+02  0.86733486331E+00  0.95500699933E+02  0.90830473869E+02 0.  0.
         11    1    3    3    0    0 -0.32506676896E+02 -0.33806109200E+01 -0.11176640386E+02  0.34540264382E+02  0.51100000000E-03 0.  1.
         22    1    1    0    0    0 -0.23238823459E+02 -0.18149752587E+02 -0.86733486331E+00  0.29499300067E+02  0.00000000000E+00 0. -1.
</event>
<event>
 5    1  0.6650580E-004  0.9118800E+02  0.7818608E-02  0.1130116E+00
         25   -1    0    0    0    0  0.00000000000E+00  0.00000000000E+00  0.99999998245E-14  0.12500000000E+03  0.12500000000E+03 0.  0.
        -11    1    3    3    0    0  0.35718825742E+02  0.20060697740E+02 -0.41413089332E+01  0.41175436198E+02  0.51100000000E-03 0.  1.
         23    2    1    0    0    0  0.82478837649E+01 -0.26497974475E+02 -0.98885059735E+01  0.95538961521E+02  0.90883113835E+02 0.  0.
         11    1    3    3    0    0 -0.27470941977E+02 -0.46558672214E+02 -0.57471970403E+01  0.54363525323E+02  0.51100000000E-03 0. -1.
         22    1    1    0    0    0 -0.82478837649E+01  0.26497974475E+02  0.98885059735E+01  0.29461038479E+02  0.00000000000E+00 0. -1.
</event>
<event>
 5    1  0.6650580E-004  0.9118800E+02  0.7818608E-02  0.1130116E+00
         25   -1    0    0    0    0  0.00000000000E+00  0.00000000000E+00  0.99999998245E-14  0.12500000000E+03  0.12500000000E+03 0.  0.
        -11    1    3    3    0    0 -0.13531505127E+02  0.34329658397E+02  0.50259548901E+02  0.62351017094E+02  0.51100000000E-03 0. -1.
         23    2    1    0    0    0 -0.82027044330E+01  0.17612404749E+02  0.21668688085E+02  0.95896508725E+02  0.91373558436E+02 0.  0.
         11    1    3    3    0    0  0.53288006937E+01 -0.16717253649E+02 -0.28590860815E+02  0.33545491631E+02  0.51100000000E-03 0.  1.
         22    1    1    0    0    0  0.82027044330E+01 -0.17612404749E+02 -0.21668688085E+02  0.29103491275E+02  0.00000000000E+00 0. -1.
</event>
<event>
 5    1  0.6650580E-004  0.9118800E+02  0.7818608E-02  0.1130116E+00
         25   -1    0    0    0    0  0.00000000000E+00  0.00000000000E+00  0.99999998245E-14  0.12500000000E+03  0.12500000000E+03 0.  0.
        -11    1    3    3    0    0  0.41550512473E+02  0.20265727511E+02 -0.17885273024E+02  0.49568415244E+02  0.51100000000E-03 0.  1.
         23    2    1    0    0    0  0.10996077931E+02 -0.53342098980E+01 -0.31117343210E+02  0.91568628901E+02  0.85247622989E+02 0.  0.
         11    1    3    3    0    0 -0.30554434543E+02 -0.25599937409E+02 -0.13232070186E+02  0.42000213657E+02  0.51100000000E-03 0. -1.
         22    1    1    0    0    0 -0.10996077931E+02  0.53342098980E+01  0.31117343210E+02  0.33431371099E+02  0.00000000000E+00 0. -1.
</event>
<event>
 5    1  0.6650580E-004  0.9118800E+02  0.7818608E-02  0.1130116E+00
         25   -1    0    0    0    0  0.00000000000E+00  0.00000000000E+00  0.99999998245E-14  0.12500000000E+03  0.12500000000E+03 0.  0.
        -11    1    3    3    0    0  0.16577897959E+02  0.50575107253E+00  0.42868570506E+02  0.45965169666E+02  0.51100000000E-03 0.  1.
         23    2    1    0    0    0  0.10919533251E+02  0.27550354754E+02  0.20002891915E+01  0.95297148111E+02  0.90549914565E+02 0.  0.
         11    1    3    3    0    0 -0.56583647081E+01  0.27044603682E+02 -0.40868281315E+02  0.49331978445E+02  0.51100000000E-03 0. -1.
         22    1    1    0    0    0 -0.10919533251E+02 -0.27550354754E+02 -0.20002891915E+01  0.29702851889E+02  0.00000000000E+00 0.  1.
</event>
<event>
 5    1  0.6650580E-004  0.9118800E+02  0.7818608E-02  0.1130116E+00
         25   -1    0    0    0    0  0.00000000000E+00  0.00000000000E+00  0.99999998245E-14  0.12500000000E+03  0.12500000000E+03 0.  0.
        -11    1    3    3    0    0 -0.56436037689E+02 -0.21010683887E+02 -0.10259370877E+01  0.60228960929E+02  0.51100000000E-03 0. -1.
         23    2    1    0    0    0 -0.21321165310E+02 -0.16168232660E+02  0.84827619784E+01  0.96929355399E+02  0.92775744943E+02 0.  0.
         11    1    3    3    0    0  0.35114872379E+02  0.48424512270E+01  0.95086990661E+01  0.36700394470E+02  0.51100000000E-03 0.  1.
         22    1    1    0    0    0  0.21321165310E+02  0.16168232660E+02 -0.84827619784E+01  0.28070644601E+02  0.00000000000E+00 0. -1.
</event>
<event>
 5    1  0.6650580E-004  0.9118800E+02  0.7818608E-02  0.1130116E+00
         25   -1    0    0    0    0  0.00000000000E+00  0.00000000000E+00  0.99999998245E-14  0.12500000000E+03  0.12500000000E+03 0.  0.
        -11    1    3    3    0    0  0.42842313998E+02 -0.13338979594E+02  0.35269946738E+02  0.57073298385E+02  0.51100000000E-03 0.  1.
         23    2    1    0    0    0  0.20821705090E+02  0.12018217310E+02  0.18812772318E+02  0.94472940652E+02  0.89404894513E+02 0.  0.
         11    1    3    3    0    0 -0.22020608909E+02  0.25357196904E+02 -0.16457174420E+02  0.37399642267E+02  0.51100000000E-03 0. -1.
         22    1    1    0    0    0 -0.20821705090E+02 -0.12018217310E+02 -0.18812772318E+02  0.30527059348E+02  0.00000000000E+00 0.  1.
</event>
<event>
 5    1  0.6650580E-004  0.9118800E+02  0.7818608E-02  0.1130116E+00
         25   -1    0    0    0    0  0.00000000000E+00  0.00000000000E+00  0.99999998245E-14  0.12500000000E+03  0.12500000000E+03 0.  0.
        -11    1    3    3    0    0  0.16841428914E+02 -0.20460082612E+02  0.42911562613E+02  0.50434620198E+02  0.51100000000E-03 0. -1.
         23    2    1    0    0    0  0.16814778549E+02  0.16733849495E+02  0.15057983046E+02  0.96901933341E+02  0.92738790888E+02 0.  0.
         11    1    3    3    0    0 -0.26650365120E-01  0.37193932107E+02 -0.27853579567E+02  0.46467313144E+02  0.51100000000E-03 0.  1.
         22    1    1    0    0    0 -0.16814778549E+02 -0.16733849495E+02 -0.15057983046E+02  0.28098066659E+02  0.00000000000E+00 0.  1.
</event>
<event>
 5    1  0.6650580E-004  0.9118800E+02  0.7818608E-02  0.1130116E+00
         25   -1    0    0    0    0  0.00000000000E+00  0.00000000000E+00  0.99999998245E-14  0.12500000000E+03  0.12500000000E+03 0.  0.
        -11    1    3    3    0    0  0.96815182635E+01 -0.13088309926E+02  0.37988944006E+02  0.41330322035E+02  0.51100000000E-03 0. -1.
         23    2    1    0    0    0  0.23509600136E+01 -0.27001531629E+02 -0.13180160225E+02  0.94861547040E+02  0.89946577255E+02 0.  0.
         11    1    3    3    0    0 -0.73305582499E+01 -0.13913221703E+02 -0.51169104231E+02  0.53531225005E+02  0.51100000000E-03 0.  1.
         22    1    1    0    0    0 -0.23509600136E+01  0.27001531629E+02  0.13180160225E+02  0.30138452960E+02  0.00000000000E+00 0.  1.
</event>
<event>
 5    1  0.6650580E-004  0.9118800E+02  0.7818608E-02  0.1130116E+00
         25   -1    0    0    0    0  0.00000000000E+00  0.00000000000E+00  0.99999998245E-14  0.12500000000E+03  0.12500000000E+03 0.  0.
        -11    1    3    3    0    0  0.11899161322E+02 -0.12343655682E+02 -0.33868313704E+02  0.37960750113E+02  0.51100000000E-03 0.  1.
         23    2    1    0    0    0 -0.23415415591E+02 -0.11564846410E+02  0.12333410576E+02  0.96118511531E+02  0.91676757592E+02 0.  0.
         11    1    3    3    0    0 -0.35314576913E+02  0.77880927191E+00  0.46201724279E+02  0.58157761417E+02  0.51100000000E-03 0. -1.
         22    1    1    0    0    0  0.23415415591E+02  0.11564846410E+02 -0.12333410576E+02  0.28881488469E+02  0.00000000000E+00 0. -1.
</event>
<event>
 5    1  0.6650580E-004  0.9118800E+02  0.7818608E-02  0.1130116E+00
         25   -1    0    0    0    0  0.00000000000E+00  0.00000000000E+00  0.99999998245E-14  0.12500000000E+03  0.12500000000E+03 0.  0.
        -11    1    3    3    0    0  0.44572373317E+02 -0.23614872321E+02  0.28295728357E+02  0.57836034627E+02  0.51100000000E-03 0. -1.
         23    2    1    0    0    0  0.16559463129E+02  0.95024436172E+00  0.24673108703E+02  0.95269862487E+02  0.90512240177E+02 0.  0.
         11    1    3    3    0    0 -0.28012910188E+02  0.24565116683E+02 -0.36226196537E+01  0.37433827860E+02  0.51100000000E-03 0.  1.
         22    1    1    0    0    0 -0.16559463129E+02 -0.95024436172E+00 -0.24673108703E+02  0.29730137513E+02  0.00000000000E+00 0. -1.
</event>
<event>
 5    1  0.6650580E-004  0.9118800E+02  0.7818608E-02  0.1130116E+00
         25   -1    0    0    0    0  0.00000000000E+00  0.00000000000E+00  0.99999998245E-14  0.12500000000E+03  0.12500000000E+03 0.  0.
        -11    1    3    3    0    0  0.36046702973E+02 -0.15631086742E+02  0.51053463868E+01  0.39620199771E+02  0.51100000000E-03 0.  1.
         23    2    1    0    0    0 -0.12420974070E+02  0.85797307525E+01  0.23699934822E+02  0.96900546497E+02  0.92736921580E+02 0.  0.
         11    1    3    3    0    0 -0.48467677043E+02  0.24210817495E+02  0.18594588435E+02  0.57280346725E+02  0.51100000000E-03 0. -1.
         22    1    1    0    0    0  0.12420974070E+02 -0.85797307525E+01 -0.23699934822E+02  0.28099453503E+02  0.00000000000E+00 0. -1.
</event>
<event>
 5    1  0.6650580E-004  0.9118800E+02  0.7818608E-02  0.1130116E+00
         25   -1    0    0    0    0  0.00000000000E+00  0.00000000000E+00  0.99999998245E-14  0.12500000000E+03  0.12500000000E+03 0.  0.
        -11    1    3    3    0    0  0.15174716774E+02 -0.79067048235E+01 -0.35323545451E+02  0.39249724506E+02  0.51100000000E-03 0. -1.
         23    2    1    0    0    0 -0.20437243479E+02 -0.18882513466E+02  0.76619444073E+01  0.96139375823E+02  0.91705201356E+02 0.  0.
         11    1    3    3    0    0 -0.35611960252E+02 -0.10975808642E+02  0.42985489858E+02  0.56889651317E+02  0.51100000000E-03 0.  1.
         22    1    1    0    0    0  0.20437243479E+02  0.18882513466E+02 -0.76619444073E+01  0.28860624177E+02  0.00000000000E+00 0.  1.
</event>
<event>
 5    1  0.6650580E-004  0.9118800E+02  0.7818608E-02  0.1130116E+00
         25   -1    0    0    0    0  0.00000000000E+00  0.00000000000E+00  0.99999998245E-14  0.12500000000E+03  0.12500000000E+03 0.  0.
        -11    1    3    3    0    0 -0.21738383907E+02  0.26928640535E+02  0.10472713330E+02  0.36157803317E+02  0.51100000000E-03 0. -1.
         23    2    1    0    0    0  0.19546534029E+02 -0.97620219595E+01 -0.16496392630E+02  0.97623093033E+02  0.93705780282E+02 0.  0.
         11    1    3    3    0    0  0.41284917936E+02 -0.36690662494E+02 -0.26969105961E+02  0.61465289716E+02  0.51100000000E-03 0.  1.
         22    1    1    0    0    0 -0.19546534029E+02  0.97620219595E+01  0.16496392630E+02  0.27376906967E+02  0.00000000000E+00 0.  1.
</event>
<event>
 5    1  0.6650580E-004  0.9118800E+02  0.7818608E-02  0.1130116E+00
         25   -1    0    0    0    0  0.00000000000E+00  0.00000000000E+00  0.99999998245E-14  0.12500000000E+03  0.12500000000E+03 0.  0.
        -11    1    3    3    0    0 -0.22072499364E+02  0.18761671551E+02 -0.22385766412E+02  0.36610354897E+02  0.51100000000E-03 0.  1.
         23    2    1    0    0    0  0.28210670933E+02  0.59548553890E+01  0.56961493797E+01  0.95610403627E+02  0.90981321747E+02 0.  0.
         11    1    3    3    0    0  0.50283170297E+02 -0.12806816162E+02  0.28081915792E+02  0.59000048730E+02  0.51100000000E-03 0. -1.
         22    1    1    0    0    0 -0.28210670933E+02 -0.59548553890E+01 -0.56961493797E+01  0.29389596373E+02  0.00000000000E+00 0. -1.
</event>
<event>
 5    1  0.6650580E-004  0.9118800E+02  0.7818608E-02  0.1130116E+00
         25   -1    0    0    0    0  0.00000000000E+00  0.00000000000E+00  0.99999998245E-14  0.12500000000E+03  0.12500000000E+03 0.  0.
        -11    1    3    3    0    0 -0.28206529574E+02 -0.84139888998E+01  0.11222910584E+01  0.29456120880E+02  0.51100000000E-03 0. -1.
         23    2    1    0    0    0  0.27954630964E+02 -0.50958886580E+01 -0.20747373550E+02  0.89816438743E+02  0.82638427415E+02 0.  0.
         11    1    3    3    0    0  0.56161160538E+02  0.33181002418E+01 -0.21869664608E+02  0.60360317863E+02  0.51100000000E-03 0.  1.
         22    1    1    0    0    0 -0.27954630964E+02  0.50958886580E+01  0.20747373550E+02  0.35183561257E+02  0.00000000000E+00 0.  1.
</event>
<event>
 5    1  0.6650580E-004  0.9118800E+02  0.7818608E-02  0.1130116E+00
         25   -1    0    0    0    0  0.00000000000E+00  0.00000000000E+00  0.99999998245E-14  0.12500000000E+03  0.12500000000E+03 0.  0.
        -11    1    3    3    0    0  0.17976545829E+02 -0.22697340318E+02  0.19207807308E+02  0.34745723755E+02  0.51100000000E-03 0. -1.
         23    2    1    0    0    0 -0.20506535719E+02  0.18265284228E+02 -0.68507828026E+01  0.96696787459E+02  0.92461867084E+02 0.  0.
         11    1    3    3    0    0 -0.38483081548E+02  0.40962624547E+02 -0.26058590110E+02  0.61951063703E+02  0.51100000000E-03 0.  1.
         22    1    1    0    0    0  0.20506535719E+02 -0.18265284228E+02  0.68507828026E+01  0.28303212541E+02  0.00000000000E+00 0.  1.
</event>
<event>
 5    1  0.6650580E-004  0.9118800E+02  0.7818608E-02  0.1130116E+00
         25   -1    0    0    0    0  0.00000000000E+00  0.00000000000E+00  0.99999998245E-14  0.12500000000E+03  0.12500000000E+03 0.  0.
        -11    1    3    3    0    0 -0.16885539535E+01 -0.13256004518E+02  0.47218836805E+02  0.49073326968E+02  0.51100000000E-03 0.  1.
         23    2    1    0    0    0 -0.11637809081E+02 -0.28617668058E+02  0.69092746045E+01  0.93343285059E+02  0.87811282105E+02 0.  0.
         11    1    3    3    0    0 -0.99492551274E+01 -0.15361663540E+02 -0.40309562201E+02  0.44269958091E+02  0.51100000000E-03 0. -1.
         22    1    1    0    0    0  0.11637809081E+02  0.28617668058E+02 -0.69092746045E+01  0.31656714941E+02  0.00000000000E+00 0.  1.
</event>
<event>
 5    1  0.6650580E-004  0.9118800E+02  0.7818608E-02  0.1130116E+00
         25   -1    0    0    0    0  0.00000000000E+00  0.00000000000E+00  0.99999998245E-14  0.12500000000E+03  0.12500000000E+03 0.  0.
        -11    1    3    3    0    0 -0.19105798091E+02  0.30426994499E+02  0.22451832613E+02  0.42366476168E+02  0.51100000000E-03 0. -1.
         23    2    1    0    0    0  0.17769376692E+02 -0.91268717589E+01  0.20349744996E+02  0.96483992960E+02  0.92173739427E+02 0.  0.
         11    1    3    3    0    0  0.36875174782E+02 -0.39553866258E+02 -0.21020876169E+01  0.54117516793E+02  0.51100000000E-03 0.  1.
         22    1    1    0    0    0 -0.17769376692E+02  0.91268717589E+01 -0.20349744996E+02  0.28516007040E+02  0.00000000000E+00 0.  1.
</event>
<event>
 5    1  0.6650580E-004  0.9118800E+02  0.7818608E-02  0.1130116E+00
         25   -1    0    0    0    0  0.00000000000E+00  0.00000000000E+00  0.99999998245E-14  0.12500000000E+03  0.12500000000E+03 0.  0.
        -11    1    3    3    0    0  0.18749975898E+02  0.25908372835E+02 -0.32631938939E+02  0.45690795773E+02  0.51100000000E-03 0. -1.
         23    2    1    0    0    0 -0.22911120952E+02  0.35159594625E+01 -0.19316517581E+02  0.94827010661E+02  0.89898568761E+02 0.  0.
         11    1    3    3    0    0 -0.41661096849E+02 -0.22392413372E+02  0.13315421358E+02  0.49136214888E+02  0.51100000000E-03 0.  1.
         22    1    1    0    0    0  0.22911120952E+02 -0.35159594625E+01  0.19316517581E+02  0.30172989339E+02  0.00000000000E+00 0. -1.
</event>
<event>
 5    1  0.6650580E-004  0.9118800E+02  0.7818608E-02  0.1130116E+00
         25   -1    0    0    0    0  0.00000000000E+00  0.00000000000E+00  0.99999998245E-14  0.12500000000E+03  0.12500000000E+03 0.  0.
        -11    1    3    3    0    0  0.23328723560E+02 -0.15069413073E+00 -0.27708394805E+02  0.36221639866E+02  0.51100000000E-03 0. -1.
         23    2    1    0    0    0 -0.29641403461E+02 -0.81301720988E+01 -0.87956158962E+01  0.93030086699E+02  0.87364304351E+02 0.  0.
         11    1    3    3    0    0 -0.52970127021E+02 -0.79794779681E+01  0.18912778909E+02  0.56808446833E+02  0.51100000000E-03 0.  1.
         22    1    1    0    0    0  0.29641403461E+02  0.81301720988E+01  0.87956158962E+01  0.31969913301E+02  0.00000000000E+00 0.  1.
</event>
<event>
 5    1  0.6650580E-004  0.9118800E+02  0.7818608E-02  0.1130116E+00
         25   -1    0    0    0    0  0.00000000000E+00  0.00000000000E+00  0.99999998245E-14  0.12500000000E+03  0.12500000000E+03 0.  0.
        -11    1    3    3    0    0 -0.82569655864E+01  0.28196233500E+02 -0.39578522027E+02  0.49291626778E+02  0.51100000000E-03 0. -1.
         23    2    1    0    0    0  0.13845974308E+02  0.37143513175E+02 -0.31158332969E+02  0.74579832518E+02  0.54954145698E+02 0.  0.
         11    1    3    3    0    0  0.22102939894E+02  0.89472796746E+01  0.84201890572E+01  0.25288205740E+02  0.51100000000E-03 0.  1.
         22    1    1    0    0    0 -0.13845974308E+02 -0.37143513175E+02  0.31158332969E+02  0.50420167482E+02  0.00000000000E+00 0. -1.
</event>
<event>
 5    1  0.6650580E-004  0.9118800E+02  0.7818608E-02  0.1130116E+00
         25   -1    0    0    0    0  0.00000000000E+00  0.00000000000E+00  0.99999998245E-14  0.12500000000E+03  0.12500000000E+03 0.  0.
        -11    1    3    3    0    0 -0.21562493031E+02  0.13336927748E+02 -0.41627587972E+02  0.48740853789E+02  0.51100000000E-03 0. -1.
         23    2    1    0    0    0  0.41606177043E+01 -0.19691406875E+02 -0.22635456590E+02  0.94710956775E+02  0.89737055857E+02 0.  0.
         11    1    3    3    0    0  0.25723110735E+02 -0.33028334623E+02  0.18992131382E+02  0.45970102986E+02  0.51100000000E-03 0.  1.
         22    1    1    0    0    0 -0.41606177043E+01  0.19691406875E+02  0.22635456590E+02  0.30289043225E+02  0.00000000000E+00 0.  1.
</event>
<event>
 5    1  0.6650580E-004  0.9118800E+02  0.7818608E-02  0.1130116E+00
         25   -1    0    0    0    0  0.00000000000E+00  0.00000000000E+00  0.99999998245E-14  0.12500000000E+03  0.12500000000E+03 0.  0.
        -11    1    3    3    0    0 -0.54992325598E+02  0.10690883952E+02 -0.25711054151E+02  0.61640158826E+02  0.51100000000E-03 0.  1.
         23    2    1    0    0    0 -0.24371627857E+02  0.34579444091E+01 -0.19228293673E+02  0.93764428907E+02  0.88408750849E+02 0.  0.
         11    1    3    3    0    0  0.30620697740E+02 -0.72329395431E+01  0.64827604775E+01  0.32124270081E+02  0.51100000000E-03 0. -1.
         22    1    1    0    0    0  0.24371627857E+02 -0.34579444091E+01  0.19228293673E+02  0.31235571093E+02  0.00000000000E+00 0.  1.
</event>
<event>
 5    1  0.6650580E-004  0.9118800E+02  0.7818608E-02  0.1130116E+00
         25   -1    0    0    0    0  0.00000000000E+00  0.00000000000E+00  0.99999998245E-14  0.12500000000E+03  0.12500000000E+03 0.  0.
        -11    1    3    3    0    0 -0.14817733560E+02 -0.32378916433E+02 -0.26558065259E+02  0.44421732157E+02  0.51100000000E-03 0. -1.
         23    2    1    0    0    0  0.13905471291E+01 -0.18340749048E+02  0.21296144285E+02  0.96860304579E+02  0.92682663669E+02 0.  0.
         11    1    3    3    0    0  0.16208280690E+02  0.14038167385E+02  0.47854209544E+02  0.52438572423E+02  0.51100000000E-03 0.  1.
         22    1    1    0    0    0 -0.13905471291E+01  0.18340749048E+02 -0.21296144285E+02  0.28139695421E+02  0.00000000000E+00 0.  1.
</event>
<event>
 5    1  0.6650580E-004  0.9118800E+02  0.7818608E-02  0.1130116E+00
         25   -1    0    0    0    0  0.00000000000E+00  0.00000000000E+00  0.99999998245E-14  0.12500000000E+03  0.12500000000E+03 0.  0.
        -11    1    3    3    0    0  0.11208180500E+02 -0.36539206056E+02  0.34630572850E+02  0.51575318375E+02  0.51100000000E-03 0. -1.
         23    2    1    0    0    0  0.25018123068E+02 -0.52758527774E+01  0.11708703516E+01  0.99404843393E+02  0.96053166779E+02 0.  0.
         11    1    3    3    0    0  0.13809942568E+02  0.31263353278E+02 -0.33459702498E+02  0.47829525018E+02  0.51100000000E-03 0.  1.
         22    1    1    0    0    0 -0.25018123068E+02  0.52758527774E+01 -0.11708703516E+01  0.25595156607E+02  0.00000000000E+00 0.  1.
</event>
<event>
 5    1  0.6650580E-004  0.9118800E+02  0.7818608E-02  0.1130116E+00
         25   -1    0    0    0    0  0.00000000000E+00  0.00000000000E+00  0.99999998245E-14  0.12500000000E+03  0.12500000000E+03 0.  0.
        -11    1    3    3    0    0 -0.27688891121E+02  0.69411715434E+01  0.29739880179E+02  0.41222748904E+02  0.51100000000E-03 0. -1.
         23    2    1    0    0    0  0.16939483373E+02 -0.19965267636E+02  0.10964808590E+02  0.96613647009E+02  0.92349400389E+02 0.  0.
         11    1    3    3    0    0  0.44628374495E+02 -0.26906439179E+02 -0.18775071589E+02  0.55390898104E+02  0.51100000000E-03 0.  1.
         22    1    1    0    0    0 -0.16939483373E+02  0.19965267636E+02 -0.10964808590E+02  0.28386352991E+02  0.00000000000E+00 0.  1.
</event>
<event>
 5    1  0.6650580E-004  0.9118800E+02  0.7818608E-02  0.1130116E+00
         25   -1    0    0    0    0  0.00000000000E+00  0.00000000000E+00  0.99999998245E-14  0.12500000000E+03  0.12500000000E+03 0.  0.
        -11    1    3    3    0    0 -0.19707032849E+02 -0.13357714651E+02 -0.23529312472E+02  0.33472738610E+02  0.51100000000E-03 0. -1.
         23    2    1    0    0    0  0.25936158939E+02  0.42906171404E+01  0.14067548102E+02  0.95184070607E+02  0.90393681481E+02 0.  0.
         11    1    3    3    0    0  0.45643191788E+02  0.17648331791E+02  0.37596860574E+02  0.61711331997E+02  0.51100000000E-03 0.  1.
         22    1    1    0    0    0 -0.25936158939E+02 -0.42906171404E+01 -0.14067548102E+02  0.29815929393E+02  0.00000000000E+00 0.  1.
</event>
<event>
 5    1  0.6650580E-004  0.9118800E+02  0.7818608E-02  0.1130116E+00
         25   -1    0    0    0    0  0.00000000000E+00  0.00000000000E+00  0.99999998245E-14  0.12500000000E+03  0.12500000000E+03 0.  0.
        -11    1    3    3    0    0  0.22546914586E+02 -0.13742085835E+02  0.55384790623E+02  0.61357015190E+02  0.51100000000E-03 0.  1.
         23    2    1    0    0    0  0.16796807311E+02 -0.91825243586E+01  0.20717781205E+02  0.96792236042E+02  0.92590814936E+02 0.  0.
         11    1    3    3    0    0 -0.57501072744E+01  0.45595614761E+01 -0.34667009418E+02  0.35435220851E+02  0.51100000000E-03 0. -1.
         22    1    1    0    0    0 -0.16796807311E+02  0.91825243586E+01 -0.20717781205E+02  0.28207763958E+02  0.00000000000E+00 0.  1.
</event>
<event>
 5    1  0.6650580E-004  0.9118800E+02  0.7818608E-02  0.1130116E+00
         25   -1    0    0    0    0  0.00000000000E+00  0.00000000000E+00  0.99999998245E-14  0.12500000000E+03  0.12500000000E+03 0.  0.
        -11    1    3    3    0    0  0.15128171735E+02  0.30984159251E+02 -0.11659857187E+02  0.36398241365E+02  0.51100000000E-03 0. -1.
         23    2    1    0    0    0 -0.21623776666E+02 -0.15737360569E+02 -0.11615220304E+02  0.95842401030E+02  0.91299508528E+02 0.  0.
         11    1    3    3    0    0 -0.36751948401E+02 -0.46721519820E+02  0.44636882610E-01  0.59444159665E+02  0.51100000000E-03 0.  1.
         22    1    1    0    0    0  0.21623776666E+02  0.15737360569E+02  0.11615220304E+02  0.29157598970E+02  0.00000000000E+00 0.  1.
</event>
<event>
 5    1  0.6650580E-004  0.9118800E+02  0.7818608E-02  0.1130116E+00
         25   -1    0    0    0    0  0.00000000000E+00  0.00000000000E+00  0.99999998245E-14  0.12500000000E+03  0.12500000000E+03 0.  0.
        -11    1    3    3    0    0 -0.14129698278E+02 -0.42472358238E+02 -0.25006249227E+02  0.51272430101E+02  0.51100000000E-03 0. -1.
         23    2    1    0    0    0  0.10973809607E+02 -0.31085729339E+02  0.45887843199E+01  0.91716310190E+02  0.85463896165E+02 0.  0.
         11    1    3    3    0    0  0.25103507885E+02  0.11386628900E+02  0.29595033546E+02  0.40443880090E+02  0.51100000000E-03 0.  1.
         22    1    1    0    0    0 -0.10973809607E+02  0.31085729339E+02 -0.45887843199E+01  0.33283689810E+02  0.00000000000E+00 0. -1.
</event>
<event>
 5    1  0.6650580E-004  0.9118800E+02  0.7818608E-02  0.1130116E+00
         25   -1    0    0    0    0  0.00000000000E+00  0.00000000000E+00  0.99999998245E-14  0.12500000000E+03  0.12500000000E+03 0.  0.
        -11    1    3    3    0    0 -0.15670289868E+01  0.47706671615E+02 -0.24078966675E+02  0.53461937235E+02  0.51100000000E-03 0. -1.
         23    2    1    0    0    0  0.19342726387E+01  0.27231619509E+02  0.12067254127E+02  0.95151697973E+02  0.90348904217E+02 0.  0.
         11    1    3    3    0    0  0.35013016255E+01 -0.20475052106E+02  0.36146220803E+02  0.41689760738E+02  0.51100000000E-03 0.  1.
         22    1    1    0    0    0 -0.19342726387E+01 -0.27231619509E+02 -0.12067254127E+02  0.29848302027E+02  0.00000000000E+00 0. -1.
</event>
<event>
 5    1  0.6650580E-004  0.9118800E+02  0.7818608E-02  0.1130116E+00
         25   -1    0    0    0    0  0.00000000000E+00  0.00000000000E+00  0.99999998245E-14  0.12500000000E+03  0.12500000000E+03 0.  0.
        -11    1    3    3    0    0 -0.12903030713E+02 -0.34271045917E+02  0.27993761436E+02  0.46093855007E+02  0.51100000000E-03 0. -1.
         23    2    1    0    0    0 -0.95765203288E+01 -0.20770210830E+02 -0.19102852984E+02  0.95200161215E+02  0.90415929480E+02 0.  0.
         11    1    3    3    0    0  0.33265103839E+01  0.13500835087E+02 -0.47096614419E+02  0.49106306208E+02  0.51100000000E-03 0.  1.
         22    1    1    0    0    0  0.95765203288E+01  0.20770210830E+02  0.19102852984E+02  0.29799838785E+02  0.00000000000E+00 0.  1.
</event>
<event>
 5    1  0.6650580E-004  0.9118800E+02  0.7818608E-02  0.1130116E+00
         25   -1    0    0    0    0  0.00000000000E+00  0.00000000000E+00  0.99999998245E-14  0.12500000000E+03  0.12500000000E+03 0.  0.
        -11    1    3    3    0    0 -0.18622238437E+02  0.40432399512E+02  0.43391385229E+02  0.62164129585E+02  0.51100000000E-03 0.  1.
         23    2    1    0    0    0 -0.44572000566E+01  0.20451808407E+02  0.18979387785E+02  0.96744730400E+02  0.92526658861E+02 0.  0.
         11    1    3    3    0    0  0.14165038381E+02 -0.19980591105E+02 -0.24411997444E+02  0.34580600815E+02  0.51100000000E-03 0. -1.
         22    1    1    0    0    0  0.44572000566E+01 -0.20451808407E+02 -0.18979387785E+02  0.28255269600E+02  0.00000000000E+00 0.  1.
</event>
<event>
 5    1  0.6650580E-004  0.9118800E+02  0.7818608E-02  0.1130116E+00
         25   -1    0    0    0    0  0.00000000000E+00  0.00000000000E+00  0.99999998245E-14  0.12500000000E+03  0.12500000000E+03 0.  0.
        -11    1    3    3    0    0  0.34878032312E+02 -0.20277772748E+02 -0.13223128712E+02  0.42456051851E+02  0.51100000000E-03 0. -1.
         23    2    1    0    0    0  0.53652556851E+01  0.24450446696E+02 -0.14524208048E+02  0.96059320470E+02  0.91596015839E+02 0.  0.
         11    1    3    3    0    0 -0.29512776627E+02  0.44728219445E+02 -0.13010793359E+01  0.53603268619E+02  0.51100000000E-03 0.  1.
         22    1    1    0    0    0 -0.53652556851E+01 -0.24450446696E+02  0.14524208048E+02  0.28940679530E+02  0.00000000000E+00 0.  1.
</event>
<event>
 5    1  0.6650580E-004  0.9118800E+02  0.7818608E-02  0.1130116E+00
         25   -1    0    0    0    0  0.00000000000E+00  0.00000000000E+00  0.99999998245E-14  0.12500000000E+03  0.12500000000E+03 0.  0.
        -11    1    3    3    0    0 -0.31734243874E+02 -0.11139343145E+01  0.72939519606E+01  0.32580743076E+02  0.51100000000E-03 0.  1.
         23    2    1    0    0    0  0.22026563158E+02 -0.61322769912E+01  0.26600824484E+02  0.89923253160E+02  0.82799838708E+02 0.  0.
         11    1    3    3    0    0  0.53760807032E+02 -0.50183426767E+01  0.19306872523E+02  0.57342510085E+02  0.51100000000E-03 0. -1.
         22    1    1    0    0    0 -0.22026563158E+02  0.61322769912E+01 -0.26600824484E+02  0.35076746840E+02  0.00000000000E+00 0. -1.
</event>
<event>
 5    1  0.6650580E-004  0.9118800E+02  0.7818608E-02  0.1130116E+00
         25   -1    0    0    0    0  0.00000000000E+00  0.00000000000E+00  0.99999998245E-14  0.12500000000E+03  0.12500000000E+03 0.  0.
        -11    1    3    3    0    0 -0.11529170288E+02 -0.17677254220E+01 -0.38559388111E+02  0.40284898318E+02  0.51100000000E-03 0.  1.
         23    2    1    0    0    0  0.28629220182E+02  0.22574750417E+01  0.25606492986E+00  0.96280772799E+02  0.91897732288E+02 0.  0.
         11    1    3    3    0    0  0.40158390470E+02  0.40252004637E+01  0.38815453041E+02  0.55995874481E+02  0.51100000000E-03 0. -1.
         22    1    1    0    0    0 -0.28629220182E+02 -0.22574750417E+01 -0.25606492986E+00  0.28719227201E+02  0.00000000000E+00 0. -1.
</event>
<event>
 5    1  0.6650580E-004  0.9118800E+02  0.7818608E-02  0.1130116E+00
         25   -1    0    0    0    0  0.00000000000E+00  0.00000000000E+00  0.99999998245E-14  0.12500000000E+03  0.12500000000E+03 0.  0.
        -11    1    3    3    0    0 -0.19277205067E+02  0.27992100715E+02 -0.46789373278E+02  0.57830906872E+02  0.51100000000E-03 0.  1.
         23    2    1    0    0    0 -0.18417128705E+02 -0.11645664505E+01 -0.23268668494E+02  0.95301889315E+02  0.90556459343E+02 0.  0.
         11    1    3    3    0    0  0.86007636198E+00 -0.29156667165E+02  0.23520704783E+02  0.37470982444E+02  0.51100000000E-03 0. -1.
         22    1    1    0    0    0  0.18417128705E+02  0.11645664505E+01  0.23268668494E+02  0.29698110685E+02  0.00000000000E+00 0.  1.
</event>
<event>
 5    1  0.6650580E-004  0.9118800E+02  0.7818608E-02  0.1130116E+00
         25   -1    0    0    0    0  0.00000000000E+00  0.00000000000E+00  0.99999998245E-14  0.12500000000E+03  0.12500000000E+03 0.  0.
        -11    1    3    3    0    0 -0.10161944837E+02  0.23365842454E+02  0.35885727540E+02  0.44011511651E+02  0.51100000000E-03 0.  1.
         23    2    1    0    0    0 -0.11393628098E+02  0.22525192238E+02 -0.15473308148E+02  0.95392191712E+02  0.90681022976E+02 0.  0.
         11    1    3    3    0    0 -0.12316832604E+01 -0.84065021599E+00 -0.51359035688E+02  0.51380680061E+02  0.51100000000E-03 0. -1.
         22    1    1    0    0    0  0.11393628098E+02 -0.22525192238E+02  0.15473308148E+02  0.29607808288E+02  0.00000000000E+00 0. -1.
</event>
<event>
 5    1  0.6650580E-004  0.9118800E+02  0.7818608E-02  0.1130116E+00
         25   -1    0    0    0    0  0.00000000000E+00  0.00000000000E+00  0.99999998245E-14  0.12500000000E+03  0.12500000000E+03 0.  0.
        -11    1    3    3    0    0  0.23509634863E+02  0.39929571509E+02 -0.13797324371E+02  0.48347076151E+02  0.51100000000E-03 0.  1.
         23    2    1    0    0    0  0.26541845412E+02 -0.19702092999E+01  0.99287657782E+01  0.96593457225E+02  0.92322068360E+02 0.  0.
         11    1    3    3    0    0  0.30322105486E+01 -0.41899780809E+02  0.23726090150E+02  0.48246381074E+02  0.51100000000E-03 0. -1.
         22    1    1    0    0    0 -0.26541845412E+02  0.19702092999E+01 -0.99287657782E+01  0.28406542775E+02  0.00000000000E+00 0. -1.
</event>
<event>
 5    1  0.6650580E-004  0.9118800E+02  0.7818608E-02  0.1130116E+00
         25   -1    0    0    0    0  0.00000000000E+00  0.00000000000E+00  0.99999998245E-14  0.12500000000E+03  0.12500000000E+03 0.  0.
        -11    1    3    3    0    0  0.27633494432E+02 -0.18193542057E+02 -0.39026800406E+02  0.51163523504E+02  0.51100000000E-03 0. -1.
         23    2    1    0    0    0  0.25813458649E+02 -0.64888763325E+00  0.50950449827E+01  0.98680516989E+02  0.95105884398E+02 0.  0.
         11    1    3    3    0    0 -0.18200357828E+01  0.17544654424E+02  0.44121845389E+02  0.47516993485E+02  0.51100000000E-03 0.  1.
         22    1    1    0    0    0 -0.25813458649E+02  0.64888763325E+00 -0.50950449827E+01  0.26319483011E+02  0.00000000000E+00 0. -1.
</event>
<event>
 5    1  0.6650580E-004  0.9118800E+02  0.7818608E-02  0.1130116E+00
         25   -1    0    0    0    0  0.00000000000E+00  0.00000000000E+00  0.99999998245E-14  0.12500000000E+03  0.12500000000E+03 0.  0.
        -11    1    3    3    0    0  0.25978252946E+02 -0.30612407046E+02  0.19754062342E+02  0.44746084415E+02  0.51100000000E-03 0. -1.
         23    2    1    0    0    0 -0.17264445336E+02 -0.22517436144E+02 -0.63806681237E+01  0.95917205620E+02  0.91401867623E+02 0.  0.
         11    1    3    3    0    0 -0.43242698282E+02  0.80949709016E+01 -0.26134730465E+02  0.51171121205E+02  0.51100000000E-03 0.  1.
         22    1    1    0    0    0  0.17264445336E+02  0.22517436144E+02  0.63806681237E+01  0.29082794380E+02  0.00000000000E+00 0. -1.
</event>
<event>
 5    1  0.6650580E-004  0.9118800E+02  0.7818608E-02  0.1130116E+00
         25   -1    0    0    0    0  0.00000000000E+00  0.00000000000E+00  0.99999998245E-14  0.12500000000E+03  0.12500000000E+03 0.  0.
        -11    1    3    3    0    0 -0.16612134069E+02 -0.42660710512E+02 -0.34801339398E+02  0.57506803457E+02  0.51100000000E-03 0.  1.
         23    2    1    0    0    0  0.12172487137E+01 -0.37240812077E+02 -0.14625810606E+02  0.84971583663E+02  0.74952624475E+02 0.  0.
         11    1    3    3    0    0  0.17829382782E+02  0.54198984347E+01  0.20175528792E+02  0.27464780205E+02  0.51100000000E-03 0. -1.
         22    1    1    0    0    0 -0.12172487137E+01  0.37240812077E+02  0.14625810606E+02  0.40028416337E+02  0.00000000000E+00 0.  1.
</event>
<event>
 5    1  0.6650580E-004  0.9118800E+02  0.7818608E-02  0.1130116E+00
         25   -1    0    0    0    0  0.00000000000E+00  0.00000000000E+00  0.99999998245E-14  0.12500000000E+03  0.12500000000E+03 0.  0.
        -11    1    3    3    0    0 -0.39589825021E+02 -0.31341074286E+01  0.27685130550E+02  0.48411190115E+02  0.51100000000E-03 0.  1.
         23    2    1    0    0    0 -0.81708436587E+01 -0.27548613980E+02  0.11404322646E+01  0.96242576540E+02  0.91845762749E+02 0.  0.
         11    1    3    3    0    0  0.31418981362E+02 -0.24414506551E+02 -0.26544698285E+02  0.47831386425E+02  0.51100000000E-03 0. -1.
         22    1    1    0    0    0  0.81708436587E+01  0.27548613980E+02 -0.11404322646E+01  0.28757423460E+02  0.00000000000E+00 0.  1.
</event>
<event>
 5    1  0.6650580E-004  0.9118800E+02  0.7818608E-02  0.1130116E+00
         25   -1    0    0    0    0  0.00000000000E+00  0.00000000000E+00  0.99999998245E-14  0.12500000000E+03  0.12500000000E+03 0.  0.
        -11    1    3    3    0    0  0.44064155544E+02  0.13405310454E+02 -0.18398291699E+01  0.46094870906E+02  0.51100000000E-03 0.  1.
         23    2    1    0    0    0  0.21226252801E+02 -0.17752726725E+02  0.20355048552E+02  0.90648273468E+02  0.83887236020E+02 0.  0.
         11    1    3    3    0    0 -0.22837902743E+02 -0.31158037179E+02  0.22194877722E+02  0.44553402563E+02  0.51100000000E-03 0. -1.
         22    1    1    0    0    0 -0.21226252801E+02  0.17752726725E+02 -0.20355048552E+02  0.34351726532E+02  0.00000000000E+00 0. -1.
</event>
<event>
 5    1  0.6650580E-004  0.9118800E+02  0.7818608E-02  0.1130116E+00
         25   -1    0    0    0    0  0.00000000000E+00  0.00000000000E+00  0.99999998245E-14  0.12500000000E+03  0.12500000000E+03 0.  0.
        -11    1    3    3    0    0  0.11611746031E+02 -0.59913199112E+02 -0.11513889932E+02  0.62104699785E+02  0.51100000000E-03 0. -1.
         23    2    1    0    0    0  0.15708454959E+01 -0.31767904659E+02 -0.80720396105E+01  0.92184985975E+02  0.86146656892E+02 0.  0.
         11    1    3    3    0    0 -0.10040900535E+02  0.28145294452E+02  0.34418503219E+01  0.30080286190E+02  0.51100000000E-03 0.  1.
         22    1    1    0    0    0 -0.15708454959E+01  0.31767904659E+02  0.80720396105E+01  0.32815014025E+02  0.00000000000E+00 0. -1.
</event>
<event>
 5    1  0.6650580E-004  0.9118800E+02  0.7818608E-02  0.1130116E+00
         25   -1    0    0    0    0  0.00000000000E+00  0.00000000000E+00  0.99999998245E-14  0.12500000000E+03  0.12500000000E+03 0.  0.
        -11    1    3    3    0    0  0.10571019037E+02 -0.77324234293E+01  0.25660077064E+02  0.28809310487E+02  0.51100000000E-03 0. -1.
         23    2    1    0    0    0  0.17049971245E+02  0.34742685353E+02 -0.10426214483E+02  0.84919310716E+02  0.74865397074E+02 0.  0.
         11    1    3    3    0    0  0.64789522087E+01  0.42475108782E+02 -0.36086291547E+02  0.56110000229E+02  0.51100000000E-03 0.  1.
         22    1    1    0    0    0 -0.17049971245E+02 -0.34742685353E+02  0.10426214483E+02  0.40080689284E+02  0.00000000000E+00 0.  1.
</event>
<event>
 5    1  0.6650580E-004  0.9118800E+02  0.7818608E-02  0.1130116E+00
         25   -1    0    0    0    0  0.00000000000E+00  0.00000000000E+00  0.99999998245E-14  0.12500000000E+03  0.12500000000E+03 0.  0.
        -11    1    3    3    0    0 -0.28924329809E+02 -0.22383691498E+02  0.50836509235E+01  0.36925465561E+02  0.51100000000E-03 0. -1.
         23    2    1    0    0    0  0.27121094196E+02 -0.39570790676E+01  0.92594363471E+01  0.96069922458E+02  0.91610483104E+02 0.  0.
         11    1    3    3    0    0  0.56045424004E+02  0.18426612430E+02  0.41757854236E+01  0.59144456897E+02  0.51100000000E-03 0.  1.
         22    1    1    0    0    0 -0.27121094196E+02  0.39570790676E+01 -0.92594363471E+01  0.28930077542E+02  0.00000000000E+00 0.  1.
</event>
<event>
 5    1  0.6650580E-004  0.9118800E+02  0.7818608E-02  0.1130116E+00
         25   -1    0    0    0    0  0.00000000000E+00  0.00000000000E+00  0.99999998245E-14  0.12500000000E+03  0.12500000000E+03 0.  0.
        -11    1    3    3    0    0 -0.18596726846E+02  0.11840068200E+02 -0.32926957044E+02  0.39625874940E+02  0.51100000000E-03 0. -1.
         23    2    1    0    0    0  0.67112417795E+01  0.21962686103E+02  0.16944650027E+02  0.96460176742E+02  0.92141435768E+02 0.  0.
         11    1    3    3    0    0  0.25307968625E+02  0.10122617902E+02  0.49871607071E+02  0.56834301801E+02  0.51100000000E-03 0.  1.
         22    1    1    0    0    0 -0.67112417795E+01 -0.21962686103E+02 -0.16944650027E+02  0.28539823258E+02  0.00000000000E+00 0.  1.
</event>
<event>
 5    1  0.6650580E-004  0.9118800E+02  0.7818608E-02  0.1130116E+00
         25   -1    0    0    0    0  0.00000000000E+00  0.00000000000E+00  0.99999998245E-14  0.12500000000E+03  0.12500000000E+03 0.  0.
        -11    1    3    3    0    0 -0.27542543719E+02 -0.25807428302E+02 -0.15542542136E+02  0.40818937840E+02  0.51100000000E-03 0. -1.
         23    2    1    0    0    0 -0.80300847920E+01  0.47654675323E+01  0.26828486702E+02  0.96592964933E+02  0.92321401816E+02 0.  0.
         11    1    3    3    0    0  0.19512458927E+02  0.30572895834E+02  0.42371028839E+02  0.55774027093E+02  0.51100000000E-03 0.  1.
         22    1    1    0    0    0  0.80300847920E+01 -0.47654675323E+01 -0.26828486702E+02  0.28407035067E+02  0.00000000000E+00 0.  1.
</event>
<event>
 5    1  0.6650580E-004  0.9118800E+02  0.7818608E-02  0.1130116E+00
         25   -1    0    0    0    0  0.00000000000E+00  0.00000000000E+00  0.99999998245E-14  0.12500000000E+03  0.12500000000E+03 0.  0.
        -11    1    3    3    0    0 -0.20453361191E+02  0.14037890383E+02  0.51485862739E+02  0.57150646651E+02  0.51100000000E-03 0.  1.
         23    2    1    0    0    0 -0.10856976953E+02 -0.11914361204E+02  0.23476832185E+02  0.96522155965E+02  0.92225479078E+02 0.  0.
         11    1    3    3    0    0  0.95963842382E+01 -0.25952251586E+02 -0.28009030554E+02  0.39371509314E+02  0.51100000000E-03 0. -1.
         22    1    1    0    0    0  0.10856976953E+02  0.11914361204E+02 -0.23476832185E+02  0.28477844035E+02  0.00000000000E+00 0.  1.
</event>
<event>
 5    1  0.6650580E-004  0.9118800E+02  0.7818608E-02  0.1130116E+00
         25   -1    0    0    0    0  0.00000000000E+00  0.00000000000E+00  0.99999998245E-14  0.12500000000E+03  0.12500000000E+03 0.  0.
        -11    1    3    3    0    0 -0.16605716775E+02 -0.49541819729E+00  0.34672600858E+02  0.38447165296E+02  0.51100000000E-03 0. -1.
         23    2    1    0    0    0  0.15216835060E+02  0.25698661620E+02 -0.38789857048E+01  0.94883230445E+02  0.89976705937E+02 0.  0.
         11    1    3    3    0    0  0.31822551835E+02  0.26194079818E+02 -0.38551586563E+02  0.56436065149E+02  0.51100000000E-03 0.  1.
         22    1    1    0    0    0 -0.15216835060E+02 -0.25698661620E+02  0.38789857048E+01  0.30116769555E+02  0.00000000000E+00 0.  1.
</event>
<event>
 5    1  0.6650580E-004  0.9118800E+02  0.7818608E-02  0.1130116E+00
         25   -1    0    0    0    0  0.00000000000E+00  0.00000000000E+00  0.99999998245E-14  0.12500000000E+03  0.12500000000E+03 0.  0.
        -11    1    3    3    0    0 -0.24219012006E+02 -0.42778031562E+02  0.24919392894E+02  0.55113488996E+02  0.51100000000E-03 0. -1.
         23    2    1    0    0    0 -0.22565324399E+02 -0.29329532113E+01  0.18848631817E+02  0.95452292794E+02  0.90763831996E+02 0.  0.
         11    1    3    3    0    0  0.16536876067E+01  0.39845078351E+02 -0.60707610773E+01  0.40338803798E+02  0.51100000000E-03 0.  1.
         22    1    1    0    0    0  0.22565324399E+02  0.29329532113E+01 -0.18848631817E+02  0.29547707206E+02  0.00000000000E+00 0. -1.
</event>
<event>
 5    1  0.6650580E-004  0.9118800E+02  0.7818608E-02  0.1130116E+00
         25   -1    0    0    0    0  0.00000000000E+00  0.00000000000E+00  0.99999998245E-14  0.12500000000E+03  0.12500000000E+03 0.  0.
        -11    1    3    3    0    0 -0.28459894967E+02  0.40596595366E+02 -0.24415112556E+01  0.49638796866E+02  0.51100000000E-03 0. -1.
         23    2    1    0    0    0  0.12317147484E+02  0.23896831998E+02  0.11360346401E+02  0.95813904474E+02  0.91260484979E+02 0.  0.
         11    1    3    3    0    0  0.40777042451E+02 -0.16699763368E+02  0.13801857656E+02  0.46175107608E+02  0.51100000000E-03 0.  1.
         22    1    1    0    0    0 -0.12317147484E+02 -0.23896831998E+02 -0.11360346401E+02  0.29186095526E+02  0.00000000000E+00 0. -1.
</event>
<event>
 5    1  0.6650580E-004  0.9118800E+02  0.7818608E-02  0.1130116E+00
         25   -1    0    0    0    0  0.00000000000E+00  0.00000000000E+00  0.99999998245E-14  0.12500000000E+03  0.12500000000E+03 0.  0.
        -11    1    3    3    0    0  0.10100879530E+02  0.20457890607E+02 -0.19703297180E+02  0.30145861663E+02  0.51100000000E-03 0.  1.
         23    2    1    0    0    0 -0.46165078347E+01 -0.31040282949E+00  0.34585789071E+02  0.90106085055E+02  0.83075395057E+02 0.  0.
         11    1    3    3    0    0 -0.14717387365E+02 -0.20768293436E+02  0.54289086251E+02  0.59960223393E+02  0.51100000000E-03 0. -1.
         22    1    1    0    0    0  0.46165078347E+01  0.31040282949E+00 -0.34585789071E+02  0.34893914945E+02  0.00000000000E+00 0. -1.
</event>
<event>
 5    1  0.6650580E-004  0.9118800E+02  0.7818608E-02  0.1130116E+00
         25   -1    0    0    0    0  0.00000000000E+00  0.00000000000E+00  0.99999998245E-14  0.12500000000E+03  0.12500000000E+03 0.  0.
        -11    1    3    3    0    0  0.21254202461E+02  0.27221363437E+02 -0.18429011154E+02  0.39145525951E+02  0.51100000000E-03 0.  1.
         23    2    1    0    0    0  0.12485998609E+02 -0.84966594347E+01  0.24837303378E+02  0.95931373925E+02  0.91421241959E+02 0.  0.
         11    1    3    3    0    0 -0.87682038526E+01 -0.35718022872E+02  0.43266314532E+02  0.56785847974E+02  0.51100000000E-03 0. -1.
         22    1    1    0    0    0 -0.12485998609E+02  0.84966594347E+01 -0.24837303378E+02  0.29068626075E+02  0.00000000000E+00 0. -1.
</event>
<event>
 5    1  0.6650580E-004  0.9118800E+02  0.7818608E-02  0.1130116E+00
         25   -1    0    0    0    0  0.00000000000E+00  0.00000000000E+00  0.99999998245E-14  0.12500000000E+03  0.12500000000E+03 0.  0.
        -11    1    3    3    0    0  0.17420223192E+02  0.34371779004E+02 -0.78359939652E+01  0.39322845391E+02  0.51100000000E-03 0.  1.
         23    2    1    0    0    0  0.50919755730E+01 -0.18878791503E+02 -0.21777995820E+02  0.95731961361E+02  0.91148177932E+02 0.  0.
         11    1    3    3    0    0 -0.12328247619E+02 -0.53250570506E+02 -0.13942001855E+02  0.56409115971E+02  0.51100000000E-03 0. -1.
         22    1    1    0    0    0 -0.50919755730E+01  0.18878791503E+02  0.21777995820E+02  0.29268038639E+02  0.00000000000E+00 0. -1.
</event>
<event>
 5    1  0.6650580E-004  0.9118800E+02  0.7818608E-02  0.1130116E+00
         25   -1    0    0    0    0  0.00000000000E+00  0.00000000000E+00  0.99999998245E-14  0.12500000000E+03  0.12500000000E+03 0.  0.
        -11    1    3    3    0    0  0.22748876840E+02  0.36948608383E+02 -0.12798518451E+01  0.43409089830E+02  0.51100000000E-03 0. -1.
         23    2    1    0    0    0 -0.18589078910E+02  0.85216771036E+01 -0.19460740055E+02  0.96770702473E+02  0.92561739495E+02 0.  0.
         11    1    3    3    0    0 -0.41337955750E+02 -0.28426931279E+02 -0.18180888210E+02  0.53361612643E+02  0.51100000000E-03 0.  1.
         22    1    1    0    0    0  0.18589078910E+02 -0.85216771036E+01  0.19460740055E+02  0.28229297527E+02  0.00000000000E+00 0.  1.
</event>
<event>
 5    1  0.6650580E-004  0.9118800E+02  0.7818608E-02  0.1130116E+00
         25   -1    0    0    0    0  0.00000000000E+00  0.00000000000E+00  0.99999998245E-14  0.12500000000E+03  0.12500000000E+03 0.  0.
        -11    1    3    3    0    0 -0.32559669138E+02  0.22439560608E+01 -0.67050299295E+01  0.33318535679E+02  0.51100000000E-03 0. -1.
         23    2    1    0    0    0  0.19573332228E+02  0.16953292112E+02  0.18611339877E+02  0.93110951410E+02  0.87479928283E+02 0.  0.
         11    1    3    3    0    0  0.52133001366E+02  0.14709336051E+02  0.25316369807E+02  0.59792415731E+02  0.51100000000E-03 0.  1.
         22    1    1    0    0    0 -0.19573332228E+02 -0.16953292112E+02 -0.18611339877E+02  0.31889048590E+02  0.00000000000E+00 0.  1.
</event>
<event>
 5    1  0.6650580E-004  0.9118800E+02  0.7818608E-02  0.1130116E+00
         25   -1    0    0    0    0  0.00000000000E+00  0.00000000000E+00  0.99999998245E-14  0.12500000000E+03  0.12500000000E+03 0.  0.
        -11    1    3    3    0    0 -0.26204980593E+02 -0.31686748009E+02 -0.13648762003E+02  0.43324816349E+02  0.51100000000E-03 0.  1.
         23    2    1    0    0    0  0.23078628735E+02 -0.16049246850E+02  0.33527315815E+00  0.96887479003E+02  0.92719306246E+02 0.  0.
         11    1    3    3    0    0  0.49283609328E+02  0.15637501159E+02  0.13984035161E+02  0.53562662653E+02  0.51100000000E-03 0. -1.
         22    1    1    0    0    0 -0.23078628735E+02  0.16049246850E+02 -0.33527315815E+00  0.28112520997E+02  0.00000000000E+00 0. -1.
</event>
<event>
 5    1  0.6650580E-004  0.9118800E+02  0.7818608E-02  0.1130116E+00
         25   -1    0    0    0    0  0.00000000000E+00  0.00000000000E+00  0.99999998245E-14  0.12500000000E+03  0.12500000000E+03 0.  0.
        -11    1    3    3    0    0 -0.17615435924E+01 -0.39260382580E+02  0.23268420218E+02  0.45671654841E+02  0.51100000000E-03 0.  1.
         23    2    1    0    0    0  0.17759349285E+02 -0.16876539501E+02 -0.16614514129E+02  0.95398409632E+02  0.90689593714E+02 0.  0.
         11    1    3    3    0    0  0.19520892877E+02  0.22383843079E+02 -0.39882934347E+02  0.49726754792E+02  0.51100000000E-03 0. -1.
         22    1    1    0    0    0 -0.17759349285E+02  0.16876539501E+02  0.16614514129E+02  0.29601590368E+02  0.00000000000E+00 0.  1.
</event>
<event>
 5    1  0.6650580E-004  0.9118800E+02  0.7818608E-02  0.1130116E+00
         25   -1    0    0    0    0  0.00000000000E+00  0.00000000000E+00  0.99999998245E-14  0.12500000000E+03  0.12500000000E+03 0.  0.
        -11    1    3    3    0    0  0.69111837552E+00 -0.13320374595E+02 -0.55535978848E+02  0.57115277911E+02  0.51100000000E-03 0.  1.
         23    2    1    0    0    0  0.15774511808E+02 -0.14130543761E+02 -0.19407146446E+02  0.96274665834E+02  0.91889425173E+02 0.  0.
         11    1    3    3    0    0  0.15083393433E+02 -0.81016916586E+00  0.36128832402E+02  0.39159387923E+02  0.51100000000E-03 0. -1.
         22    1    1    0    0    0 -0.15774511808E+02  0.14130543761E+02  0.19407146446E+02  0.28725334166E+02  0.00000000000E+00 0.  1.
</event>
<event>
 5    1  0.6650580E-004  0.9118800E+02  0.7818608E-02  0.1130116E+00
         25   -1    0    0    0    0  0.00000000000E+00  0.00000000000E+00  0.99999998245E-14  0.12500000000E+03  0.12500000000E+03 0.  0.
        -11    1    3    3    0    0 -0.29321418368E+01  0.33623627404E+02  0.15672995909E+02  0.37212747501E+02  0.51100000000E-03 0.  1.
         23    2    1    0    0    0  0.97615941125E+01  0.41594455746E+00 -0.29053776051E+02  0.94347371527E+02  0.89229159369E+02 0.  0.
         11    1    3    3    0    0  0.12693735949E+02 -0.33207682847E+02 -0.44726771960E+02  0.57134624026E+02  0.51100000000E-03 0. -1.
         22    1    1    0    0    0 -0.97615941125E+01 -0.41594455746E+00  0.29053776051E+02  0.30652628473E+02  0.00000000000E+00 0. -1.
</event>
<event>
 5    1  0.6650580E-004  0.9118800E+02  0.7818608E-02  0.1130116E+00
         25   -1    0    0    0    0  0.00000000000E+00  0.00000000000E+00  0.99999998245E-14  0.12500000000E+03  0.12500000000E+03 0.  0.
        -11    1    3    3    0    0  0.60723495937E+00 -0.36167889753E+02  0.98788881502E+01  0.37497698793E+02  0.51100000000E-03 0.  1.
         23    2    1    0    0    0  0.20688173582E+02  0.18818791913E+02  0.73138316150E+01  0.96092568635E+02  0.91641377984E+02 0.  0.
         11    1    3    3    0    0  0.20080938623E+02  0.54986681665E+02 -0.25650565351E+01  0.58594869842E+02  0.51100000000E-03 0. -1.
         22    1    1    0    0    0 -0.20688173582E+02 -0.18818791913E+02 -0.73138316150E+01  0.28907431365E+02  0.00000000000E+00 0. -1.
</event>
<event>
 5    1  0.6650580E-004  0.9118800E+02  0.7818608E-02  0.1130116E+00
         25   -1    0    0    0    0  0.00000000000E+00  0.00000000000E+00  0.99999998245E-14  0.12500000000E+03  0.12500000000E+03 0.  0.
        -11    1    3    3    0    0  0.24895644636E+02  0.23908631410E+02  0.30670550764E+01  0.34652887395E+02  0.51100000000E-03 0. -1.
         23    2    1    0    0    0 -0.24057860046E+02 -0.14478528351E+02  0.43521412852E+00  0.96918016015E+02  0.92760465737E+02 0.  0.
         11    1    3    3    0    0 -0.48953504682E+02 -0.38387159760E+02 -0.26318409479E+01  0.62265128620E+02  0.51100000000E-03 0.  1.
         22    1    1    0    0    0  0.24057860046E+02  0.14478528351E+02 -0.43521412852E+00  0.28081983985E+02  0.00000000000E+00 0.  1.
</event>
<event>
 5    1  0.6650580E-004  0.9118800E+02  0.7818608E-02  0.1130116E+00
         25   -1    0    0    0    0  0.00000000000E+00  0.00000000000E+00  0.99999998245E-14  0.12500000000E+03  0.12500000000E+03 0.  0.
        -11    1    3    3    0    0  0.39521189866E+02  0.50337778507E+01  0.35299886940E+02  0.53229177958E+02  0.51100000000E-03 0. -1.
         23    2    1    0    0    0  0.40765527786E+01 -0.12095126886E+02  0.29287417981E+02  0.93052179591E+02  0.87395908930E+02 0.  0.
         11    1    3    3    0    0 -0.35444637088E+02 -0.17128904737E+02 -0.60124689590E+01  0.39823001632E+02  0.51100000000E-03 0.  1.
         22    1    1    0    0    0 -0.40765527786E+01  0.12095126886E+02 -0.29287417981E+02  0.31947820409E+02  0.00000000000E+00 0. -1.
</event>
<event>
 5    1  0.6650580E-004  0.9118800E+02  0.7818608E-02  0.1130116E+00
         25   -1    0    0    0    0  0.00000000000E+00  0.00000000000E+00  0.99999998245E-14  0.12500000000E+03  0.12500000000E+03 0.  0.
        -11    1    3    3    0    0 -0.65567915437E+01  0.28854672632E+02 -0.18466856542E+02  0.34879914547E+02  0.51100000000E-03 0. -1.
         23    2    1    0    0    0  0.74058980485E+01 -0.27341297895E+02  0.27297420847E+01  0.96542217438E+02  0.92252665866E+02 0.  0.
         11    1    3    3    0    0  0.13962689592E+02 -0.56195970527E+02  0.21196598627E+02  0.61662302890E+02  0.51100000000E-03 0.  1.
         22    1    1    0    0    0 -0.74058980485E+01  0.27341297895E+02 -0.27297420847E+01  0.28457782562E+02  0.00000000000E+00 0.  1.
</event>
<event>
 5    1  0.6650580E-004  0.9118800E+02  0.7818608E-02  0.1130116E+00
         25   -1    0    0    0    0  0.00000000000E+00  0.00000000000E+00  0.99999998245E-14  0.12500000000E+03  0.12500000000E+03 0.  0.
        -11    1    3    3    0    0 -0.15602638891E+02 -0.42517070999E+02 -0.39670543643E+02  0.60207106722E+02  0.51100000000E-03 0.  1.
         23    2    1    0    0    0 -0.11221803770E+02 -0.10057224111E+02 -0.24343369355E+02  0.96370011034E+02  0.92019034762E+02 0.  0.
         11    1    3    3    0    0  0.43808351211E+01  0.32459846888E+02  0.15327174288E+02  0.36162904312E+02  0.51100000000E-03 0. -1.
         22    1    1    0    0    0  0.11221803770E+02  0.10057224111E+02  0.24343369355E+02  0.28629988966E+02  0.00000000000E+00 0.  1.
</event>
<event>
 5    1  0.6650580E-004  0.9118800E+02  0.7818608E-02  0.1130116E+00
         25   -1    0    0    0    0  0.00000000000E+00  0.00000000000E+00  0.99999998245E-14  0.12500000000E+03  0.12500000000E+03 0.  0.
        -11    1    3    3    0    0 -0.35616185017E+01 -0.40629819553E+01 -0.33682807100E+02  0.34113405622E+02  0.51100000000E-03 0.  1.
         23    2    1    0    0    0 -0.12522953995E+01  0.16849305040E+02  0.24077265454E+02  0.95586023121E+02  0.90947818997E+02 0.  0.
         11    1    3    3    0    0  0.23093231022E+01  0.20912286995E+02  0.57760072554E+02  0.61472617499E+02  0.51100000000E-03 0. -1.
         22    1    1    0    0    0  0.12522953995E+01 -0.16849305040E+02 -0.24077265454E+02  0.29413976879E+02  0.00000000000E+00 0. -1.
</event>
<event>
 5    1  0.6650580E-004  0.9118800E+02  0.7818608E-02  0.1130116E+00
         25   -1    0    0    0    0  0.00000000000E+00  0.00000000000E+00  0.99999998245E-14  0.12500000000E+03  0.12500000000E+03 0.  0.
        -11    1    3    3    0    0  0.35043879452E+02  0.67259391007E+00 -0.54911608861E+01  0.35477862362E+02  0.51100000000E-03 0.  1.
         23    2    1    0    0    0 -0.19891278383E+02  0.21323475146E+02 -0.95729765273E+01  0.94308055982E+02  0.89174065711E+02 0.  0.
         11    1    3    3    0    0 -0.54935157835E+02  0.20650881236E+02 -0.40818156412E+01  0.58830193620E+02  0.51100000000E-03 0. -1.
         22    1    1    0    0    0  0.19891278383E+02 -0.21323475146E+02  0.95729765273E+01  0.30691944018E+02  0.00000000000E+00 0. -1.
</event>
<event>
 5    1  0.6650580E-004  0.9118800E+02  0.7818608E-02  0.1130116E+00
         25   -1    0    0    0    0  0.00000000000E+00  0.00000000000E+00  0.99999998245E-14  0.12500000000E+03  0.12500000000E+03 0.  0.
        -11    1    3    3    0    0  0.35879107579E+02  0.49968472746E+02  0.80894794347E+01  0.62045131211E+02  0.51100000000E-03 0.  1.
         23    2    1    0    0    0  0.13182219043E+02  0.23784005640E+02 -0.71282422301E+00  0.97797832043E+02  0.93938586378E+02 0.  0.
         11    1    3    3    0    0 -0.22696888536E+02 -0.26184467106E+02 -0.88023036577E+01  0.35752700832E+02  0.51100000000E-03 0. -1.
         22    1    1    0    0    0 -0.13182219043E+02 -0.23784005640E+02  0.71282422301E+00  0.27202167957E+02  0.00000000000E+00 0.  1.
</event>
<event>
 5    1  0.6650580E-004  0.9118800E+02  0.7818608E-02  0.1130116E+00
         25   -1    0    0    0    0  0.00000000000E+00  0.00000000000E+00  0.99999998245E-14  0.12500000000E+03  0.12500000000E+03 0.  0.
        -11    1    3    3    0    0  0.35327864448E+02  0.11031577463E+02 -0.49576514410E+02  0.61867475212E+02  0.51100000000E-03 0.  1.
         23    2    1    0    0    0  0.21438269541E+02  0.48746156286E+01 -0.19287732224E+02  0.95753155849E+02  0.91177239277E+02 0.  0.
         11    1    3    3    0    0 -0.13889594906E+02 -0.61569618343E+01  0.30288782185E+02  0.33885680637E+02  0.51100000000E-03 0. -1.
         22    1    1    0    0    0 -0.21438269541E+02 -0.48746156286E+01  0.19287732224E+02  0.29246844151E+02  0.00000000000E+00 0.  1.
</event>
<event>
 5    1  0.6650580E-004  0.9118800E+02  0.7818608E-02  0.1130116E+00
         25   -1    0    0    0    0  0.00000000000E+00  0.00000000000E+00  0.99999998245E-14  0.12500000000E+03  0.12500000000E+03 0.  0.
        -11    1    3    3    0    0  0.80323453355E+01  0.14408246699E+02  0.34030189887E+02  0.37817588085E+02  0.51100000000E-03 0.  1.
         23    2    1    0    0    0 -0.23952961578E+02  0.85563189247E+01 -0.14112011689E+02  0.95912135936E+02  0.91394934126E+02 0.  0.
         11    1    3    3    0    0 -0.31985306914E+02 -0.58519277742E+01 -0.48142201577E+02  0.58094547851E+02  0.51100000000E-03 0. -1.
         22    1    1    0    0    0  0.23952961578E+02 -0.85563189247E+01  0.14112011689E+02  0.29087864064E+02  0.00000000000E+00 0. -1.
</event>
<event>
 5    1  0.6650580E-004  0.9118800E+02  0.7818608E-02  0.1130116E+00
         25   -1    0    0    0    0  0.00000000000E+00  0.00000000000E+00  0.99999998245E-14  0.12500000000E+03  0.12500000000E+03 0.  0.
        -11    1    3    3    0    0  0.34499569421E+01  0.41154774267E+02 -0.29725949570E+01  0.41405965379E+02  0.51100000000E-03 0.  1.
         23    2    1    0    0    0 -0.84101166095E+01 -0.34936861947E+01  0.27021032385E+02  0.96485580915E+02  0.92175892883E+02 0.  0.
         11    1    3    3    0    0 -0.11860073552E+02 -0.44648460462E+02  0.29993627342E+02  0.55079615537E+02  0.51100000000E-03 0. -1.
         22    1    1    0    0    0  0.84101166095E+01  0.34936861947E+01 -0.27021032385E+02  0.28514419085E+02  0.00000000000E+00 0. -1.
</event>
<event>
 5    1  0.6650580E-004  0.9118800E+02  0.7818608E-02  0.1130116E+00
         25   -1    0    0    0    0  0.00000000000E+00  0.00000000000E+00  0.99999998245E-14  0.12500000000E+03  0.12500000000E+03 0.  0.
        -11    1    3    3    0    0 -0.32788108475E+01  0.40461437926E+02 -0.44493946760E+02  0.60229476655E+02  0.51100000000E-03 0.  1.
         23    2    1    0    0    0 -0.27077498971E+01  0.99537664796E+01 -0.28521902655E+02  0.94670009764E+02  0.89680000229E+02 0.  0.
         11    1    3    3    0    0  0.57106095046E+00 -0.30507671446E+02  0.15972044105E+02  0.34440533109E+02  0.51100000000E-03 0. -1.
         22    1    1    0    0    0  0.27077498971E+01 -0.99537664796E+01  0.28521902655E+02  0.30329990236E+02  0.00000000000E+00 0.  1.
</event>
<event>
 5    1  0.6650580E-004  0.9118800E+02  0.7818608E-02  0.1130116E+00
         25   -1    0    0    0    0  0.00000000000E+00  0.00000000000E+00  0.99999998245E-14  0.12500000000E+03  0.12500000000E+03 0.  0.
        -11    1    3    3    0    0 -0.14762367485E+02  0.53485570498E+02  0.67454646236E+01  0.55893962451E+02  0.51100000000E-03 0.  1.
         23    2    1    0    0    0 -0.27769774105E+00  0.22372236047E+02 -0.16373959134E+02  0.97274549607E+02  0.93239677186E+02 0.  0.
         11    1    3    3    0    0  0.14484669744E+02 -0.31113334451E+02 -0.23119423758E+02  0.41380587156E+02  0.51100000000E-03 0. -1.
         22    1    1    0    0    0  0.27769774105E+00 -0.22372236047E+02  0.16373959134E+02  0.27725450393E+02  0.00000000000E+00 0.  1.
</event>
<event>
 5    1  0.6650580E-004  0.9118800E+02  0.7818608E-02  0.1130116E+00
         25   -1    0    0    0    0  0.00000000000E+00  0.00000000000E+00  0.99999998245E-14  0.12500000000E+03  0.12500000000E+03 0.  0.
        -11    1    3    3    0    0 -0.21073181641E+02 -0.32273513229E+02  0.14644728689E+02  0.41232592924E+02  0.51100000000E-03 0.  1.
         23    2    1    0    0    0 -0.86985095297E+01 -0.26039093954E+00 -0.27830080493E+02  0.95841034797E+02  0.91297637972E+02 0.  0.
         11    1    3    3    0    0  0.12374672111E+02  0.32013122289E+02 -0.42474809181E+02  0.54608441873E+02  0.51100000000E-03 0. -1.
         22    1    1    0    0    0  0.86985095297E+01  0.26039093954E+00  0.27830080493E+02  0.29158965203E+02  0.00000000000E+00 0. -1.
</event>
<event>
 5    1  0.6650580E-004  0.9118800E+02  0.7818608E-02  0.1130116E+00
         25   -1    0    0    0    0  0.00000000000E+00  0.00000000000E+00  0.99999998245E-14  0.12500000000E+03  0.12500000000E+03 0.  0.
        -11    1    3    3    0    0 -0.65883046851E+01  0.36426361716E+02 -0.12880572162E+02  0.39194320073E+02  0.51100000000E-03 0.  1.
         23    2    1    0    0    0  0.39254457996E+01 -0.18237728817E+02 -0.22592082348E+02  0.95701091114E+02  0.91105832845E+02 0.  0.
         11    1    3    3    0    0  0.10513750485E+02 -0.54664090533E+02 -0.97115101856E+01  0.56506771040E+02  0.51100000000E-03 0. -1.
         22    1    1    0    0    0 -0.39254457996E+01  0.18237728817E+02  0.22592082348E+02  0.29298908886E+02  0.00000000000E+00 0. -1.
</event>
<event>
 5    1  0.6650580E-004  0.9118800E+02  0.7818608E-02  0.1130116E+00
         25   -1    0    0    0    0  0.00000000000E+00  0.00000000000E+00  0.99999998245E-14  0.12500000000E+03  0.12500000000E+03 0.  0.
        -11    1    3    3    0    0  0.24189461010E+02  0.33330893709E+02 -0.40844415333E+02  0.58002972024E+02  0.51100000000E-03 0.  1.
         23    2    1    0    0    0 -0.36078129965E+01  0.23245331748E+02 -0.18828569407E+02  0.94869006179E+02  0.89956942727E+02 0.  0.
         11    1    3    3    0    0 -0.27797274006E+02 -0.10085561960E+02  0.22015845927E+02  0.36866034156E+02  0.51100000000E-03 0. -1.
         22    1    1    0    0    0  0.36078129965E+01 -0.23245331748E+02  0.18828569407E+02  0.30130993821E+02  0.00000000000E+00 0.  1.
</event>
<event>
 5    1  0.6650580E-004  0.9118800E+02  0.7818608E-02  0.1130116E+00
         25   -1    0    0    0    0  0.00000000000E+00  0.00000000000E+00  0.99999998245E-14  0.12500000000E+03  0.12500000000E+03 0.  0.
        -11    1    3    3    0    0 -0.19038609710E+02  0.56580899968E+02  0.11551661605E+02  0.60805491421E+02  0.51100000000E-03 0.  1.
         23    2    1    0    0    0 -0.15946428669E+02  0.26923608417E+02 -0.21779932345E+01  0.93632613561E+02  0.88222181963E+02 0.  0.
         11    1    3    3    0    0  0.30921810411E+01 -0.29657291551E+02 -0.13729654839E+02  0.32827122140E+02  0.51100000000E-03 0. -1.
         22    1    1    0    0    0  0.15946428669E+02 -0.26923608417E+02  0.21779932345E+01  0.31367386439E+02  0.00000000000E+00 0.  1.
</event>
<event>
 5    1  0.6650580E-004  0.9118800E+02  0.7818608E-02  0.1130116E+00
         25   -1    0    0    0    0  0.00000000000E+00  0.00000000000E+00  0.99999998245E-14  0.12500000000E+03  0.12500000000E+03 0.  0.
        -11    1    3    3    0    0 -0.35564560495E+02  0.94592958399E+01  0.20295013532E+02  0.42026227710E+02  0.51100000000E-03 0.  1.
         23    2    1    0    0    0 -0.21540520847E+01 -0.28786446950E+02  0.17860602282E+01  0.96077872148E+02  0.91621329596E+02 0.  0.
         11    1    3    3    0    0  0.33410508410E+02 -0.38245742790E+02 -0.18508953304E+02  0.54051644438E+02  0.51100000000E-03 0. -1.
         22    1    1    0    0    0  0.21540520847E+01  0.28786446950E+02 -0.17860602282E+01  0.28922127852E+02  0.00000000000E+00 0. -1.
</event>
<event>
 5    1  0.6650580E-004  0.9118800E+02  0.7818608E-02  0.1130116E+00
         25   -1    0    0    0    0  0.00000000000E+00  0.00000000000E+00  0.99999998245E-14  0.12500000000E+03  0.12500000000E+03 0.  0.
        -11    1    3    3    0    0 -0.67008415719E+01 -0.56365772123E+02  0.13936416863E+01  0.56779783217E+02  0.51100000000E-03 0. -1.
         23    2    1    0    0    0  0.74426374573E+01 -0.23998760986E+02  0.16226024474E+02  0.95089847018E+02  0.90263291290E+02 0.  0.
         11    1    3    3    0    0  0.14143479029E+02  0.32367011137E+02  0.14832382788E+02  0.38310063801E+02  0.51100000000E-03 0.  1.
         22    1    1    0    0    0 -0.74426374573E+01  0.23998760986E+02 -0.16226024474E+02  0.29910152982E+02  0.00000000000E+00 0. -1.
</event>
<event>
 5    1  0.6650580E-004  0.9118800E+02  0.7818608E-02  0.1130116E+00
         25   -1    0    0    0    0  0.00000000000E+00  0.00000000000E+00  0.99999998245E-14  0.12500000000E+03  0.12500000000E+03 0.  0.
        -11    1    3    3    0    0 -0.30552856314E+01  0.19189634042E+02 -0.28765348931E+02  0.34713428588E+02  0.51100000000E-03 0.  1.
         23    2    1    0    0    0 -0.12645411790E+02 -0.20349467725E+02  0.16753586259E+02  0.95764919556E+02  0.91193365378E+02 0.  0.
         11    1    3    3    0    0 -0.95901261589E+01 -0.39539101767E+02  0.45518935190E+02  0.61051490968E+02  0.51100000000E-03 0. -1.
         22    1    1    0    0    0  0.12645411790E+02  0.20349467725E+02 -0.16753586259E+02  0.29235080444E+02  0.00000000000E+00 0. -1.
</event>
<event>
 5    1  0.6650580E-004  0.9118800E+02  0.7818608E-02  0.1130116E+00
         25   -1    0    0    0    0  0.00000000000E+00  0.00000000000E+00  0.99999998245E-14  0.12500000000E+03  0.12500000000E+03 0.  0.
        -11    1    3    3    0    0  0.29311207275E+02  0.33958286921E+02 -0.31123916009E+02  0.54598628834E+02  0.51100000000E-03 0. -1.
         23    2    1    0    0    0 -0.77276998881E+01  0.22863550520E+02 -0.15596337682E+02  0.96264916269E+02  0.91876161583E+02 0.  0.
         11    1    3    3    0    0 -0.37038907163E+02 -0.11094736401E+02  0.15527578327E+02  0.41666287435E+02  0.51100000000E-03 0.  1.
         22    1    1    0    0    0  0.77276998881E+01 -0.22863550520E+02  0.15596337682E+02  0.28735083731E+02  0.00000000000E+00 0.  1.
</event>
<event>
 5    1  0.6650580E-004  0.9118800E+02  0.7818608E-02  0.1130116E+00
         25   -1    0    0    0    0  0.00000000000E+00  0.00000000000E+00  0.99999998245E-14  0.12500000000E+03  0.12500000000E+03 0.  0.
        -11    1    3    3    0    0 -0.37252121875E+02 -0.35373600190E+02  0.19528794011E+02  0.54958038269E+02  0.51100000000E-03 0. -1.
         23    2    1    0    0    0 -0.20551628235E+02  0.24761769178E+01  0.19836593736E+02  0.96329608892E+02  0.91964135526E+02 0.  0.
         11    1    3    3    0    0  0.16700493640E+02  0.37849777108E+02  0.30779972481E+00  0.41371570623E+02  0.51100000000E-03 0.  1.
         22    1    1    0    0    0  0.20551628235E+02 -0.24761769178E+01 -0.19836593736E+02  0.28670391108E+02  0.00000000000E+00 0. -1.
</event>
<event>
 5    1  0.6650580E-004  0.9118800E+02  0.7818608E-02  0.1130116E+00
         25   -1    0    0    0    0  0.00000000000E+00  0.00000000000E+00  0.99999998245E-14  0.12500000000E+03  0.12500000000E+03 0.  0.
        -11    1    3    3    0    0 -0.47378226124E+02 -0.27106451781E+02  0.99967473046E+01  0.55492260683E+02  0.51100000000E-03 0. -1.
         23    2    1    0    0    0 -0.18406247662E+02 -0.17279696848E+02 -0.15549834632E+02  0.95349110752E+02  0.90621618215E+02 0.  0.
         11    1    3    3    0    0  0.28971978462E+02  0.98267549332E+01 -0.25546581936E+02  0.39856850069E+02  0.51100000000E-03 0.  1.
         22    1    1    0    0    0  0.18406247662E+02  0.17279696848E+02  0.15549834632E+02  0.29650889248E+02  0.00000000000E+00 0. -1.
</event>
<event>
 5    1  0.6650580E-004  0.9118800E+02  0.7818608E-02  0.1130116E+00
         25   -1    0    0    0    0  0.00000000000E+00  0.00000000000E+00  0.99999998245E-14  0.12500000000E+03  0.12500000000E+03 0.  0.
        -11    1    3    3    0    0 -0.32390120263E+01 -0.27149996553E+01  0.33631530246E+02  0.33896050640E+02  0.51100000000E-03 0.  1.
         23    2    1    0    0    0 -0.26227756482E+01  0.55735510110E+01 -0.28124485988E+02  0.96208853183E+02  0.91799854552E+02 0.  0.
         11    1    3    3    0    0  0.61623637808E+00  0.82885506663E+01 -0.61756016234E+02  0.62312802543E+02  0.51100000000E-03 0. -1.
         22    1    1    0    0    0  0.26227756482E+01 -0.55735510110E+01  0.28124485988E+02  0.28791146817E+02  0.00000000000E+00 0. -1.
</event>
<event>
 5    1  0.6650580E-004  0.9118800E+02  0.7818608E-02  0.1130116E+00
         25   -1    0    0    0    0  0.00000000000E+00  0.00000000000E+00  0.99999998245E-14  0.12500000000E+03  0.12500000000E+03 0.  0.
        -11    1    3    3    0    0  0.49499676736E+02  0.92073559071E+01  0.26409453770E+02  0.56854662504E+02  0.51100000000E-03 0.  1.
         23    2    1    0    0    0  0.25300345904E+02  0.99329304464E+01 -0.58588036466E+01  0.97195392643E+02  0.93133496448E+02 0.  0.
         11    1    3    3    0    0 -0.24199330832E+02  0.72557453927E+00 -0.32268257417E+02  0.40340730139E+02  0.51100000000E-03 0. -1.
         22    1    1    0    0    0 -0.25300345904E+02 -0.99329304464E+01  0.58588036466E+01  0.27804607357E+02  0.00000000000E+00 0.  1.
</event>
<event>
 5    1  0.6650580E-004  0.9118800E+02  0.7818608E-02  0.1130116E+00
         25   -1    0    0    0    0  0.00000000000E+00  0.00000000000E+00  0.99999998245E-14  0.12500000000E+03  0.12500000000E+03 0.  0.
        -11    1    3    3    0    0 -0.92757416001E+01  0.58955572694E+00  0.36115216646E+02  0.37292034429E+02  0.51100000000E-03 0.  1.
         23    2    1    0    0    0  0.16701772847E+02  0.28587808518E+02 -0.27426423961E+01  0.91777506123E+02  0.85553354877E+02 0.  0.
         11    1    3    3    0    0  0.25977514447E+02  0.27998252791E+02 -0.38857859042E+02  0.54485471695E+02  0.51100000000E-03 0. -1.
         22    1    1    0    0    0 -0.16701772847E+02 -0.28587808518E+02  0.27426423961E+01  0.33222493877E+02  0.00000000000E+00 0.  1.
</event>
<event>
 5    1  0.6650580E-004  0.9118800E+02  0.7818608E-02  0.1130116E+00
         25   -1    0    0    0    0  0.00000000000E+00  0.00000000000E+00  0.99999998245E-14  0.12500000000E+03  0.12500000000E+03 0.  0.
        -11    1    3    3    0    0 -0.36641704537E+02 -0.16856225672E+02  0.56273238927E+01  0.40723624958E+02  0.51100000000E-03 0.  1.
         23    2    1    0    0    0 -0.47446529625E+01  0.27309400872E+02  0.10360740145E+02  0.95408446406E+02  0.90703426625E+02 0.  0.
         11    1    3    3    0    0  0.31897051575E+02  0.44165626544E+02  0.47334162526E+01  0.54684821448E+02  0.51100000000E-03 0. -1.
         22    1    1    0    0    0  0.47446529625E+01 -0.27309400872E+02 -0.10360740145E+02  0.29591553594E+02  0.00000000000E+00 0. -1.
</event>
<event>
 5    1  0.6650580E-004  0.9118800E+02  0.7818608E-02  0.1130116E+00
         25   -1    0    0    0    0  0.00000000000E+00  0.00000000000E+00  0.99999998245E-14  0.12500000000E+03  0.12500000000E+03 0.  0.
        -11    1    3    3    0    0 -0.24451749184E+02  0.34615898472E+02  0.34877334000E+01  0.42524260719E+02  0.51100000000E-03 0.  1.
         23    2    1    0    0    0 -0.12543457963E+02 -0.90226154298E+01 -0.24731199025E+02  0.95838756335E+02  0.91294518367E+02 0.  0.
         11    1    3    3    0    0  0.11908291221E+02 -0.43638513902E+02 -0.28218932425E+02  0.53314495616E+02  0.51100000000E-03 0. -1.
         22    1    1    0    0    0  0.12543457963E+02  0.90226154298E+01  0.24731199025E+02  0.29161243665E+02  0.00000000000E+00 0. -1.
</event>
<event>
 5    1  0.6650580E-004  0.9118800E+02  0.7818608E-02  0.1130116E+00
         25   -1    0    0    0    0  0.00000000000E+00  0.00000000000E+00  0.99999998245E-14  0.12500000000E+03  0.12500000000E+03 0.  0.
        -11    1    3    3    0    0 -0.17250159565E+02  0.28837791749E+02  0.61752897374E+01  0.34166071498E+02  0.51100000000E-03 0. -1.
         23    2    1    0    0    0  0.16512656637E+02 -0.22577959580E+02  0.86351940355E+01  0.95725460481E+02  0.91139262233E+02 0.  0.
         11    1    3    3    0    0  0.33762816202E+02 -0.51415751329E+02  0.24599042981E+01  0.61559388984E+02  0.51100000000E-03 0.  1.
         22    1    1    0    0    0 -0.16512656637E+02  0.22577959580E+02 -0.86351940355E+01  0.29274539519E+02  0.00000000000E+00 0.  1.
</event>
<event>
 5    1  0.6650580E-004  0.9118800E+02  0.7818608E-02  0.1130116E+00
         25   -1    0    0    0    0  0.00000000000E+00  0.00000000000E+00  0.99999998245E-14  0.12500000000E+03  0.12500000000E+03 0.  0.
        -11    1    3    3    0    0 -0.69967170494E+01 -0.47879373073E+02  0.34176400472E+02  0.59240313680E+02  0.51100000000E-03 0. -1.
         23    2    1    0    0    0  0.91626191104E+01 -0.32244568839E+02  0.17891837415E+02  0.87002846756E+02  0.78266925894E+02 0.  0.
         11    1    3    3    0    0  0.16159336160E+02  0.15634804234E+02 -0.16284563057E+02  0.27762533076E+02  0.51100000000E-03 0.  1.
         22    1    1    0    0    0 -0.91626191104E+01  0.32244568839E+02 -0.17891837415E+02  0.37997153244E+02  0.00000000000E+00 0. -1.
</event>
<event>
 5    1  0.6650580E-004  0.9118800E+02  0.7818608E-02  0.1130116E+00
         25   -1    0    0    0    0  0.00000000000E+00  0.00000000000E+00  0.99999998245E-14  0.12500000000E+03  0.12500000000E+03 0.  0.
        -11    1    3    3    0    0 -0.61996036484E+01  0.57230773900E+02  0.14069750893E+02  0.59260057856E+02  0.51100000000E-03 0.  1.
         23    2    1    0    0    0 -0.62290548710E+01  0.20374718997E+02  0.19010762695E+02  0.96445851492E+02  0.92121999940E+02 0.  0.
         11    1    3    3    0    0 -0.29451222614E-01 -0.36856054904E+02  0.49410118028E+01  0.37185793636E+02  0.51100000000E-03 0. -1.
         22    1    1    0    0    0  0.62290548710E+01 -0.20374718997E+02 -0.19010762695E+02  0.28554148508E+02  0.00000000000E+00 0.  1.
</event>
<event>
 5    1  0.6650580E-004  0.9118800E+02  0.7818608E-02  0.1130116E+00
         25   -1    0    0    0    0  0.00000000000E+00  0.00000000000E+00  0.99999998245E-14  0.12500000000E+03  0.12500000000E+03 0.  0.
        -11    1    3    3    0    0 -0.30565951745E+02 -0.29717201009E+02 -0.27039088752E+02  0.50482687753E+02  0.51100000000E-03 0.  1.
         23    2    1    0    0    0 -0.28635458632E+02 -0.92571545861E+00  0.73964735783E+01  0.95410233837E+02  0.90705889882E+02 0.  0.
         11    1    3    3    0    0  0.19304931131E+01  0.28791485551E+02  0.34435562331E+02  0.44927546085E+02  0.51100000000E-03 0. -1.
         22    1    1    0    0    0  0.28635458632E+02  0.92571545861E+00 -0.73964735783E+01  0.29589766163E+02  0.00000000000E+00 0. -1.
</event>
<event>
 5    1  0.6650580E-004  0.9118800E+02  0.7818608E-02  0.1130116E+00
         25   -1    0    0    0    0  0.00000000000E+00  0.00000000000E+00  0.99999998245E-14  0.12500000000E+03  0.12500000000E+03 0.  0.
        -11    1    3    3    0    0 -0.21869825323E+02  0.84796601061E+01 -0.27533063546E+02  0.36169925126E+02  0.51100000000E-03 0. -1.
         23    2    1    0    0    0  0.12800317868E+02 -0.82233918969E+01  0.21599556443E+02  0.98580061500E+02  0.94973761508E+02 0.  0.
         11    1    3    3    0    0  0.34670143191E+02 -0.16703052003E+02  0.49132619988E+02  0.62410136374E+02  0.51100000000E-03 0.  1.
         22    1    1    0    0    0 -0.12800317868E+02  0.82233918969E+01 -0.21599556443E+02  0.26419938500E+02  0.00000000000E+00 0.  1.
</event>
<event>
 5    1  0.6650580E-004  0.9118800E+02  0.7818608E-02  0.1130116E+00
         25   -1    0    0    0    0  0.00000000000E+00  0.00000000000E+00  0.99999998245E-14  0.12500000000E+03  0.12500000000E+03 0.  0.
        -11    1    3    3    0    0  0.41114537652E+02  0.10785588530E+02 -0.42040420738E+02  0.59784037187E+02  0.51100000000E-03 0.  1.
         23    2    1    0    0    0  0.19214034767E+02 -0.78477454854E+01 -0.21463953474E+02  0.95142546324E+02  0.90336241792E+02 0.  0.
         11    1    3    3    0    0 -0.21900502884E+02 -0.18633334015E+02  0.20576467264E+02  0.35358509138E+02  0.51100000000E-03 0. -1.
         22    1    1    0    0    0 -0.19214034767E+02  0.78477454854E+01  0.21463953474E+02  0.29857453676E+02  0.00000000000E+00 0.  1.
</event>
<event>
 5    1  0.6650580E-004  0.9118800E+02  0.7818608E-02  0.1130116E+00
         25   -1    0    0    0    0  0.00000000000E+00  0.00000000000E+00  0.99999998245E-14  0.12500000000E+03  0.12500000000E+03 0.  0.
        -11    1    3    3    0    0 -0.24637198367E+02 -0.22891113196E+02 -0.30093498413E+02  0.45128851677E+02  0.51100000000E-03 0.  1.
         23    2    1    0    0    0  0.21305861653E+02 -0.77445962707E+01 -0.20477860159E+02  0.94450674821E+02  0.89373758483E+02 0.  0.
         11    1    3    3    0    0  0.45943060020E+02  0.15146516925E+02  0.96156382542E+01  0.49321823144E+02  0.51100000000E-03 0. -1.
         22    1    1    0    0    0 -0.21305861653E+02  0.77445962707E+01  0.20477860159E+02  0.30549325179E+02  0.00000000000E+00 0. -1.
</event>
<event>
 5    1  0.6650580E-004  0.9118800E+02  0.7818608E-02  0.1130116E+00
         25   -1    0    0    0    0  0.00000000000E+00  0.00000000000E+00  0.99999998245E-14  0.12500000000E+03  0.12500000000E+03 0.  0.
        -11    1    3    3    0    0 -0.42489688149E+01 -0.29876764643E+02  0.18209757098E+02  0.35245851605E+02  0.51100000000E-03 0. -1.
         23    2    1    0    0    0 -0.28671929851E+02 -0.45064697707E+01 -0.21914426852E+02  0.88632020465E+02  0.80827007345E+02 0.  0.
         11    1    3    3    0    0 -0.24422961036E+02  0.25370294872E+02 -0.40124183950E+02  0.53386168861E+02  0.51100000000E-03 0.  1.
         22    1    1    0    0    0  0.28671929851E+02  0.45064697707E+01  0.21914426852E+02  0.36367979535E+02  0.00000000000E+00 0.  1.
</event>
<event>
 5    1  0.6650580E-004  0.9118800E+02  0.7818608E-02  0.1130116E+00
         25   -1    0    0    0    0  0.00000000000E+00  0.00000000000E+00  0.99999998245E-14  0.12500000000E+03  0.12500000000E+03 0.  0.
        -11    1    3    3    0    0 -0.81203952359E+01 -0.18513331486E+02  0.25166010818E+02  0.32280216267E+02  0.51100000000E-03 0. -1.
         23    2    1    0    0    0  0.39512222088E+01  0.23157216480E+02 -0.19442377686E+02  0.94506150094E+02  0.89451313704E+02 0.  0.
         11    1    3    3    0    0  0.12071617445E+02  0.41670547965E+02 -0.44608388504E+02  0.62225933827E+02  0.51100000000E-03 0.  1.
         22    1    1    0    0    0 -0.39512222088E+01 -0.23157216480E+02  0.19442377686E+02  0.30493849906E+02  0.00000000000E+00 0.  1.
</event>
<event>
 5    1  0.6650580E-004  0.9118800E+02  0.7818608E-02  0.1130116E+00
         25   -1    0    0    0    0  0.00000000000E+00  0.00000000000E+00  0.99999998245E-14  0.12500000000E+03  0.12500000000E+03 0.  0.
        -11    1    3    3    0    0 -0.42098329388E+02  0.32013470190E+02  0.58674785957E+01  0.53212394385E+02  0.51100000000E-03 0. -1.
         23    2    1    0    0    0 -0.24722509222E+02  0.17116846408E+01  0.22160072331E+02  0.91755434545E+02  0.85521100533E+02 0.  0.
         11    1    3    3    0    0  0.17375820166E+02 -0.30301785549E+02  0.16292593735E+02  0.38543040160E+02  0.51100000000E-03 0.  1.
         22    1    1    0    0    0  0.24722509222E+02 -0.17116846408E+01 -0.22160072331E+02  0.33244565455E+02  0.00000000000E+00 0. -1.
</event>
<event>
 5    1  0.6650580E-004  0.9118800E+02  0.7818608E-02  0.1130116E+00
         25   -1    0    0    0    0  0.00000000000E+00  0.00000000000E+00  0.99999998245E-14  0.12500000000E+03  0.12500000000E+03 0.  0.
        -11    1    3    3    0    0  0.70565911454E+01  0.44482726092E+02 -0.42980085840E+02  0.62255892719E+02  0.51100000000E-03 0.  1.
         23    2    1    0    0    0  0.45081590016E+01  0.17090034719E+02 -0.21552500231E+02  0.97127019346E+02  0.93041683329E+02 0.  0.
         11    1    3    3    0    0 -0.25484321439E+01 -0.27392691373E+02  0.21427585608E+02  0.34871126628E+02  0.51100000000E-03 0. -1.
         22    1    1    0    0    0 -0.45081590016E+01 -0.17090034719E+02  0.21552500231E+02  0.27872980654E+02  0.00000000000E+00 0.  1.
</event>
<event>
 5    1  0.6650580E-004  0.9118800E+02  0.7818608E-02  0.1130116E+00
         25   -1    0    0    0    0  0.00000000000E+00  0.00000000000E+00  0.99999998245E-14  0.12500000000E+03  0.12500000000E+03 0.  0.
        -11    1    3    3    0    0  0.17594860950E+02  0.11368201118E+01  0.59706180594E+02  0.62255116201E+02  0.51100000000E-03 0. -1.
         23    2    1    0    0    0  0.75151659621E+01 -0.33195035709E+01  0.27827447280E+02  0.95985113381E+02  0.91494690256E+02 0.  0.
         11    1    3    3    0    0 -0.10079694988E+02 -0.44563236827E+01 -0.31878733313E+02  0.33729997180E+02  0.51100000000E-03 0.  1.
         22    1    1    0    0    0 -0.75151659621E+01  0.33195035709E+01 -0.27827447280E+02  0.29014886619E+02  0.00000000000E+00 0. -1.
</event>
<event>
 5    1  0.6650580E-004  0.9118800E+02  0.7818608E-02  0.1130116E+00
         25   -1    0    0    0    0  0.00000000000E+00  0.00000000000E+00  0.99999998245E-14  0.12500000000E+03  0.12500000000E+03 0.  0.
        -11    1    3    3    0    0  0.80086044383E-01  0.50552294127E+02  0.90762142447E+01  0.51360670951E+02  0.51100000000E-03 0.  1.
         23    2    1    0    0    0 -0.25117070345E+02  0.15331326354E+02  0.16999475842E+00  0.95573044861E+02  0.90929979739E+02 0.  0.
         11    1    3    3    0    0 -0.25197156390E+02 -0.35220967773E+02 -0.89062194863E+01  0.44212373910E+02  0.51100000000E-03 0. -1.
         22    1    1    0    0    0  0.25117070345E+02 -0.15331326354E+02 -0.16999475842E+00  0.29426955139E+02  0.00000000000E+00 0.  1.
</event>
<event>
 5    1  0.6650580E-004  0.9118800E+02  0.7818608E-02  0.1130116E+00
         25   -1    0    0    0    0  0.00000000000E+00  0.00000000000E+00  0.99999998245E-14  0.12500000000E+03  0.12500000000E+03 0.  0.
        -11    1    3    3    0    0  0.17469382579E+02 -0.67449187436E+00 -0.32699550181E+02  0.37079574556E+02  0.51100000000E-03 0. -1.
         23    2    1    0    0    0 -0.29953769500E+02  0.11975276970E+01  0.53224722871E+00  0.95017577367E+02  0.90163154014E+02 0.  0.
         11    1    3    3    0    0 -0.47423152079E+02  0.18720195713E+01  0.33231797409E+02  0.57938002811E+02  0.51100000000E-03 0.  1.
         22    1    1    0    0    0  0.29953769500E+02 -0.11975276970E+01 -0.53224722871E+00  0.29982422633E+02  0.00000000000E+00 0.  1.
</event>
<event>
 5    1  0.6650580E-004  0.9118800E+02  0.7818608E-02  0.1130116E+00
         25   -1    0    0    0    0  0.00000000000E+00  0.00000000000E+00  0.99999998245E-14  0.12500000000E+03  0.12500000000E+03 0.  0.
        -11    1    3    3    0    0 -0.13489050222E+02  0.15221046958E+02 -0.30155825865E+02  0.36373184906E+02  0.51100000000E-03 0. -1.
         23    2    1    0    0    0 -0.16662455826E+01 -0.45169062253E+01  0.26784492320E+02  0.97786256321E+02  0.93923181804E+02 0.  0.
         11    1    3    3    0    0  0.11822804640E+02 -0.19737953183E+02  0.56940318184E+02  0.61413071415E+02  0.51100000000E-03 0.  1.
         22    1    1    0    0    0  0.16662455826E+01  0.45169062253E+01 -0.26784492320E+02  0.27213743679E+02  0.00000000000E+00 0.  1.
</event>
<event>
 5    1  0.6650580E-004  0.9118800E+02  0.7818608E-02  0.1130116E+00
         25   -1    0    0    0    0  0.00000000000E+00  0.00000000000E+00  0.99999998245E-14  0.12500000000E+03  0.12500000000E+03 0.  0.
        -11    1    3    3    0    0 -0.12706721448E+02  0.38811733083E+02 -0.37447550284E+02  0.55408757587E+02  0.51100000000E-03 0. -1.
         23    2    1    0    0    0 -0.22522409178E+02  0.17911789606E+02 -0.41546855299E+01  0.95925053157E+02  0.91412599182E+02 0.  0.
         11    1    3    3    0    0 -0.98156877306E+01 -0.20899943477E+02  0.33292864754E+02  0.40516295570E+02  0.51100000000E-03 0.  1.
         22    1    1    0    0    0  0.22522409178E+02 -0.17911789606E+02  0.41546855299E+01  0.29074946843E+02  0.00000000000E+00 0. -1.
</event>
<event>
 5    1  0.6650580E-004  0.9118800E+02  0.7818608E-02  0.1130116E+00
         25   -1    0    0    0    0  0.00000000000E+00  0.00000000000E+00  0.99999998245E-14  0.12500000000E+03  0.12500000000E+03 0.  0.
        -11    1    3    3    0    0  0.22277843295E+02 -0.65929212845E+01 -0.36007719869E+02  0.42852360534E+02  0.51100000000E-03 0.  1.
         23    2    1    0    0    0 -0.15536064603E+01  0.29081406687E+02 -0.58452958474E+01  0.95296306770E+02  0.90548753126E+02 0.  0.
         11    1    3    3    0    0 -0.23831449756E+02  0.35674327972E+02  0.30162424021E+02  0.52443946236E+02  0.51100000000E-03 0. -1.
         22    1    1    0    0    0  0.15536064603E+01 -0.29081406687E+02  0.58452958474E+01  0.29703693230E+02  0.00000000000E+00 0.  1.
</event>
<event>
 5    1  0.6650580E-004  0.9118800E+02  0.7818608E-02  0.1130116E+00
         25   -1    0    0    0    0  0.00000000000E+00  0.00000000000E+00  0.99999998245E-14  0.12500000000E+03  0.12500000000E+03 0.  0.
        -11    1    3    3    0    0 -0.79361022838E+01 -0.12006950614E+02  0.42295992240E+02  0.44677729826E+02  0.51100000000E-03 0. -1.
         23    2    1    0    0    0 -0.78567678390E+01 -0.27109630135E+02 -0.67352775356E+01  0.95982336235E+02  0.91490896042E+02 0.  0.
         11    1    3    3    0    0  0.79334444760E-01 -0.15102679521E+02 -0.49031269776E+02  0.51304606409E+02  0.51100000000E-03 0.  1.
         22    1    1    0    0    0  0.78567678390E+01  0.27109630135E+02  0.67352775356E+01  0.29017663765E+02  0.00000000000E+00 0.  1.
</event>
<event>
 5    1  0.6650580E-004  0.9118800E+02  0.7818608E-02  0.1130116E+00
         25   -1    0    0    0    0  0.00000000000E+00  0.00000000000E+00  0.99999998245E-14  0.12500000000E+03  0.12500000000E+03 0.  0.
        -11    1    3    3    0    0 -0.38528228476E+02 -0.29551013066E+02 -0.16273542479E+02  0.51210496461E+02  0.51100000000E-03 0.  1.
         23    2    1    0    0    0 -0.10985666293E+02  0.38297778766E+01 -0.26830090037E+02  0.95756098176E+02  0.91181272990E+02 0.  0.
         11    1    3    3    0    0  0.27542562183E+02  0.33380790942E+02 -0.10556547558E+02  0.44545601715E+02  0.51100000000E-03 0. -1.
         22    1    1    0    0    0  0.10985666293E+02 -0.38297778766E+01  0.26830090037E+02  0.29243901824E+02  0.00000000000E+00 0.  1.
</event>
<event>
 5    1  0.6650580E-004  0.9118800E+02  0.7818608E-02  0.1130116E+00
         25   -1    0    0    0    0  0.00000000000E+00  0.00000000000E+00  0.99999998245E-14  0.12500000000E+03  0.12500000000E+03 0.  0.
        -11    1    3    3    0    0  0.47551431348E+02  0.34079117102E+02  0.18679951555E+02  0.61412258027E+02  0.51100000000E-03 0.  1.
         23    2    1    0    0    0  0.15669566482E+02  0.12998001547E+02  0.14800283072E+02  0.99829943644E+02  0.96604792381E+02 0.  0.
         11    1    3    3    0    0 -0.31881864865E+02 -0.21081115555E+02 -0.38796684833E+01  0.38417685617E+02  0.51100000000E-03 0. -1.
         22    1    1    0    0    0 -0.15669566482E+02 -0.12998001547E+02 -0.14800283072E+02  0.25170056356E+02  0.00000000000E+00 0.  1.
</event>
<event>
 5    1  0.6650580E-004  0.9118800E+02  0.7818608E-02  0.1130116E+00
         25   -1    0    0    0    0  0.00000000000E+00  0.00000000000E+00  0.99999998245E-14  0.12500000000E+03  0.12500000000E+03 0.  0.
        -11    1    3    3    0    0  0.12831506355E+01 -0.57020014459E+02  0.22980298259E+02  0.61490020595E+02  0.51100000000E-03 0.  1.
         23    2    1    0    0    0 -0.26278254557E+01 -0.37850796581E+02  0.22137184983E+02  0.81072295445E+02  0.68140104647E+02 0.  0.
         11    1    3    3    0    0 -0.39109760912E+01  0.19169217878E+02 -0.84311327535E+00  0.19582274850E+02  0.51100000000E-03 0. -1.
         22    1    1    0    0    0  0.26278254557E+01  0.37850796581E+02 -0.22137184983E+02  0.43927704555E+02  0.00000000000E+00 0.  1.
</event>
<event>
 5    1  0.6650580E-004  0.9118800E+02  0.7818608E-02  0.1130116E+00
         25   -1    0    0    0    0  0.00000000000E+00  0.00000000000E+00  0.99999998245E-14  0.12500000000E+03  0.12500000000E+03 0.  0.
        -11    1    3    3    0    0  0.33630897949E+01 -0.18149274621E+02 -0.55892384201E+02  0.58861406322E+02  0.51100000000E-03 0. -1.
         23    2    1    0    0    0 -0.91946841209E+01  0.16199764688E+01 -0.29058350152E+02  0.94478626286E+02  0.89412843437E+02 0.  0.
         11    1    3    3    0    0 -0.12557773916E+02  0.19769251090E+02  0.26834034049E+02  0.35617219964E+02  0.51100000000E-03 0.  1.
         22    1    1    0    0    0  0.91946841209E+01 -0.16199764688E+01  0.29058350152E+02  0.30521373714E+02  0.00000000000E+00 0. -1.
</event>
<event>
 5    1  0.6650580E-004  0.9118800E+02  0.7818608E-02  0.1130116E+00
         25   -1    0    0    0    0  0.00000000000E+00  0.00000000000E+00  0.99999998245E-14  0.12500000000E+03  0.12500000000E+03 0.  0.
        -11    1    3    3    0    0 -0.46283501036E+00 -0.15134280136E+02  0.30773159413E+02  0.34296472006E+02  0.51100000000E-03 0.  1.
         23    2    1    0    0    0  0.29147811443E+02 -0.20335905874E+02 -0.12791177184E+02  0.87227547162E+02  0.78624975615E+02 0.  0.
         11    1    3    3    0    0  0.29610646454E+02 -0.52016257379E+01 -0.43564336598E+02  0.52931075156E+02  0.51100000000E-03 0. -1.
         22    1    1    0    0    0 -0.29147811443E+02  0.20335905874E+02  0.12791177184E+02  0.37772452838E+02  0.00000000000E+00 0. -1.
</event>
<event>
 4    1  0.6650580E-004  0.9118800E+02  0.7818608E-02  0.1130116E+00
         25   -1    0    0    0    0  0.00000000000E+00  0.00000000000E+00  0.99999998245E-14  0.12500000000E+03  0.12500000000E+03 0.  0.
        -11    1    1    0    0    0 -0.37171602255E+02 -0.10886237835E+02  0.36902412132E+02  0.53497908462E+02  0.51100000000E-03 0.  1.
         11    1    1    0    0    0 -0.92046289815E+01  0.11573282722E+02 -0.10457289132E+02  0.18111349036E+02  0.51100000000E-03 0. -1.
         22    1    1    0    0    0  0.46376231237E+02 -0.68704488729E+00 -0.26445123000E+02  0.53390742502E+02  0.00000000000E+00 0.  1.
</event>
<event>
 5    1  0.6650580E-004  0.9118800E+02  0.7818608E-02  0.1130116E+00
         25   -1    0    0    0    0  0.00000000000E+00  0.00000000000E+00  0.99999998245E-14  0.12500000000E+03  0.12500000000E+03 0.  0.
        -11    1    3    3    0    0  0.32647592236E+02 -0.37871477945E+02  0.12903258090E+02  0.51639211749E+02  0.51100000000E-03 0.  1.
         23    2    1    0    0    0  0.29031088184E+02  0.47696343847E+01  0.55639834418E+01  0.95058199702E+02  0.90219454252E+02 0.  0.
         11    1    3    3    0    0 -0.36165040515E+01  0.42641112329E+02 -0.73392746481E+01  0.43418987953E+02  0.51100000000E-03 0. -1.
         22    1    1    0    0    0 -0.29031088184E+02 -0.47696343847E+01 -0.55639834418E+01  0.29941800298E+02  0.00000000000E+00 0. -1.
</event>
<event>
 5    1  0.6650580E-004  0.9118800E+02  0.7818608E-02  0.1130116E+00
         25   -1    0    0    0    0  0.00000000000E+00  0.00000000000E+00  0.99999998245E-14  0.12500000000E+03  0.12500000000E+03 0.  0.
        -11    1    3    3    0    0 -0.49148954087E+02  0.15373806350E+01 -0.27467080790E+02  0.56324273227E+02  0.51100000000E-03 0. -1.
         23    2    1    0    0    0 -0.10088324502E+02 -0.26436551157E+00 -0.27796929136E+02  0.95427826428E+02  0.90730130646E+02 0.  0.
         11    1    3    3    0    0  0.39060629586E+02 -0.18017461466E+01 -0.32984834539E+00  0.39103553202E+02  0.51100000000E-03 0.  1.
         22    1    1    0    0    0  0.10088324502E+02  0.26436551157E+00  0.27796929136E+02  0.29572173572E+02  0.00000000000E+00 0.  1.
</event>
<event>
 5    1  0.6650580E-004  0.9118800E+02  0.7818608E-02  0.1130116E+00
         25   -1    0    0    0    0  0.00000000000E+00  0.00000000000E+00  0.99999998245E-14  0.12500000000E+03  0.12500000000E+03 0.  0.
        -11    1    3    3    0    0 -0.22748855835E+02 -0.54030183527E+02 -0.75929922394E+00  0.58628898244E+02  0.51100000000E-03 0. -1.
         23    2    1    0    0    0 -0.26033390372E+02 -0.24440659926E+02 -0.57995188453E+01  0.88823796624E+02  0.81123049474E+02 0.  0.
         11    1    3    3    0    0 -0.32845345370E+01  0.29589523601E+02 -0.50402196214E+01  0.30194898379E+02  0.51100000000E-03 0.  1.
         22    1    1    0    0    0  0.26033390372E+02  0.24440659926E+02  0.57995188453E+01  0.36176203376E+02  0.00000000000E+00 0. -1.
</event>
<event>
 5    1  0.6650580E-004  0.9118800E+02  0.7818608E-02  0.1130116E+00
         25   -1    0    0    0    0  0.00000000000E+00  0.00000000000E+00  0.99999998245E-14  0.12500000000E+03  0.12500000000E+03 0.  0.
        -11    1    3    3    0    0  0.36265860559E+02  0.51606280660E+01  0.24470040866E+02  0.44052555254E+02  0.51100000000E-03 0.  1.
         23    2    1    0    0    0 -0.13074320530E+02 -0.10001843044E+02  0.24274600420E+02  0.95670306051E+02  0.91063584998E+02 0.  0.
         11    1    3    3    0    0 -0.49340181089E+02 -0.15162471110E+02 -0.19544044597E+00  0.51617750797E+02  0.51100000000E-03 0. -1.
         22    1    1    0    0    0  0.13074320530E+02  0.10001843044E+02 -0.24274600420E+02  0.29329693949E+02  0.00000000000E+00 0. -1.
</event>
<event>
 5    1  0.6650580E-004  0.9118800E+02  0.7818608E-02  0.1130116E+00
         25   -1    0    0    0    0  0.00000000000E+00  0.00000000000E+00  0.99999998245E-14  0.12500000000E+03  0.12500000000E+03 0.  0.
        -11    1    3    3    0    0  0.51474463551E+02 -0.25958634092E+02 -0.22061350583E+02  0.61726609105E+02  0.51100000000E-03 0. -1.
         23    2    1    0    0    0  0.22540248407E+02 -0.16931540482E+02 -0.54599984888E+01  0.96284996172E+02  0.91903476773E+02 0.  0.
         11    1    3    3    0    0 -0.28934215144E+02  0.90270936098E+01  0.16601352094E+02  0.34558387067E+02  0.51100000000E-03 0.  1.
         22    1    1    0    0    0 -0.22540248407E+02  0.16931540482E+02  0.54599984888E+01  0.28715003828E+02  0.00000000000E+00 0. -1.
</event>
<event>
 5    1  0.6650580E-004  0.9118800E+02  0.7818608E-02  0.1130116E+00
         25   -1    0    0    0    0  0.00000000000E+00  0.00000000000E+00  0.99999998245E-14  0.12500000000E+03  0.12500000000E+03 0.  0.
        -11    1    3    3    0    0 -0.35913332390E+02  0.46685566717E+02  0.11000430617E+02  0.59919271166E+02  0.51100000000E-03 0.  1.
         23    2    1    0    0    0 -0.23707526293E+02  0.10450823247E+02  0.45211364516E+01  0.98699673304E+02  0.95131058683E+02 0.  0.
         11    1    3    3    0    0  0.12205806097E+02 -0.36234743470E+02 -0.64792941659E+01  0.38780402138E+02  0.51100000000E-03 0. -1.
         22    1    1    0    0    0  0.23707526293E+02 -0.10450823247E+02 -0.45211364516E+01  0.26300326696E+02  0.00000000000E+00 0.  1.
</event>
<event>
 5    1  0.6650580E-004  0.9118800E+02  0.7818608E-02  0.1130116E+00
         25   -1    0    0    0    0  0.00000000000E+00  0.00000000000E+00  0.99999998245E-14  0.12500000000E+03  0.12500000000E+03 0.  0.
        -11    1    3    3    0    0 -0.47207704725E+02 -0.15539371851E+02 -0.25315289667E+02  0.55775472693E+02  0.51100000000E-03 0. -1.
         23    2    1    0    0    0 -0.27946273691E+02 -0.29158143361E+02 -0.11984044720E+02  0.82871519546E+02  0.71364416108E+02 0.  0.
         11    1    3    3    0    0  0.19261431034E+02 -0.13618771510E+02  0.13331244947E+02  0.27096046853E+02  0.51100000000E-03 0.  1.
         22    1    1    0    0    0  0.27946273691E+02  0.29158143361E+02  0.11984044720E+02  0.42128480454E+02  0.00000000000E+00 0. -1.
</event>
<event>
 5    1  0.6650580E-004  0.9118800E+02  0.7818608E-02  0.1130116E+00
         25   -1    0    0    0    0  0.00000000000E+00  0.00000000000E+00  0.99999998245E-14  0.12500000000E+03  0.12500000000E+03 0.  0.
        -11    1    3    3    0    0  0.10345104119E+01  0.15695746887E+02  0.31156252932E+02  0.34901844925E+02  0.51100000000E-03 0. -1.
         23    2    1    0    0    0 -0.17422070208E+02 -0.34599240952E+01 -0.23414487847E+02  0.95610582751E+02  0.90981567847E+02 0.  0.
         11    1    3    3    0    0 -0.18456580620E+02 -0.19155670983E+02 -0.54570740779E+02  0.60708737826E+02  0.51100000000E-03 0.  1.
         22    1    1    0    0    0  0.17422070208E+02  0.34599240952E+01  0.23414487847E+02  0.29389417249E+02  0.00000000000E+00 0.  1.
</event>
<event>
 5    1  0.6650580E-004  0.9118800E+02  0.7818608E-02  0.1130116E+00
         25   -1    0    0    0    0  0.00000000000E+00  0.00000000000E+00  0.99999998245E-14  0.12500000000E+03  0.12500000000E+03 0.  0.
        -11    1    3    3    0    0 -0.56898252254E+02 -0.30941807511E+01 -0.16043041953E+02  0.59197671064E+02  0.51100000000E-03 0.  1.
         23    2    1    0    0    0 -0.17888391555E+02 -0.24387913431E+01 -0.19572647464E+02  0.98372368029E+02  0.94700010598E+02 0.  0.
         11    1    3    3    0    0  0.39009860698E+02  0.65538940805E+00 -0.35296055104E+01  0.39174696965E+02  0.51100000000E-03 0. -1.
         22    1    1    0    0    0  0.17888391555E+02  0.24387913431E+01  0.19572647464E+02  0.26627631971E+02  0.00000000000E+00 0.  1.
</event>
<event>
 5    1  0.6650580E-004  0.9118800E+02  0.7818608E-02  0.1130116E+00
         25   -1    0    0    0    0  0.00000000000E+00  0.00000000000E+00  0.99999998245E-14  0.12500000000E+03  0.12500000000E+03 0.  0.
        -11    1    3    3    0    0  0.17977663491E+02  0.16220369795E+01  0.37264517011E+02  0.41406178487E+02  0.51100000000E-03 0.  1.
         23    2    1    0    0    0 -0.25695344448E+02  0.12099217935E+02  0.64432040977E+01  0.95876870361E+02  0.91346688994E+02 0.  0.
         11    1    3    3    0    0 -0.43673007940E+02  0.10477180955E+02 -0.30821312913E+02  0.54470691874E+02  0.51100000000E-03 0. -1.
         22    1    1    0    0    0  0.25695344448E+02 -0.12099217935E+02 -0.64432040977E+01  0.29123129639E+02  0.00000000000E+00 0. -1.
</event>
<event>
 5    1  0.6650580E-004  0.9118800E+02  0.7818608E-02  0.1130116E+00
         25   -1    0    0    0    0  0.00000000000E+00  0.00000000000E+00  0.99999998245E-14  0.12500000000E+03  0.12500000000E+03 0.  0.
        -11    1    3    3    0    0  0.98804691611E+01 -0.51785586337E+02 -0.26033167379E+02  0.58797078389E+02  0.51100000000E-03 0.  1.
         23    2    1    0    0    0 -0.99854123554E+01 -0.24282614362E+02 -0.16312810768E+02  0.94089457861E+02  0.88867116896E+02 0.  0.
         11    1    3    3    0    0 -0.19865881516E+02  0.27502971975E+02  0.97203566110E+01  0.35292379472E+02  0.51100000000E-03 0. -1.
         22    1    1    0    0    0  0.99854123554E+01  0.24282614362E+02  0.16312810768E+02  0.30910542139E+02  0.00000000000E+00 0.  1.
</event>
<event>
 5    1  0.6650580E-004  0.9118800E+02  0.7818608E-02  0.1130116E+00
         25   -1    0    0    0    0  0.00000000000E+00  0.00000000000E+00  0.99999998245E-14  0.12500000000E+03  0.12500000000E+03 0.  0.
        -11    1    3    3    0    0  0.55650139083E+02 -0.14247855646E+02  0.11367429813E+02  0.58559011529E+02  0.51100000000E-03 0.  1.
         23    2    1    0    0    0  0.22015373559E+02 -0.19094335978E+02 -0.34945938460E+01  0.95648977436E+02  0.91034303200E+02 0.  0.
         11    1    3    3    0    0 -0.33634765524E+02 -0.48464803319E+01 -0.14862023659E+02  0.37089965907E+02  0.51100000000E-03 0. -1.
         22    1    1    0    0    0 -0.22015373559E+02  0.19094335978E+02  0.34945938460E+01  0.29351022564E+02  0.00000000000E+00 0.  1.
</event>
<event>
 5    1  0.6650580E-004  0.9118800E+02  0.7818608E-02  0.1130116E+00
         25   -1    0    0    0    0  0.00000000000E+00  0.00000000000E+00  0.99999998245E-14  0.12500000000E+03  0.12500000000E+03 0.  0.
        -11    1    3    3    0    0  0.26548596429E+02  0.29309464256E+02  0.54855000999E+01  0.39924470929E+02  0.51100000000E-03 0.  1.
         23    2    1    0    0    0 -0.23805059485E+02  0.69356666134E+01  0.15260289404E+02  0.95885385781E+02  0.91358340862E+02 0.  0.
         11    1    3    3    0    0 -0.50353655914E+02 -0.22373797643E+02  0.97747893038E+01  0.55960914852E+02  0.51100000000E-03 0. -1.
         22    1    1    0    0    0  0.23805059485E+02 -0.69356666134E+01 -0.15260289404E+02  0.29114614219E+02  0.00000000000E+00 0. -1.
</event>
<event>
 5    1  0.6650580E-004  0.9118800E+02  0.7818608E-02  0.1130116E+00
         25   -1    0    0    0    0  0.00000000000E+00  0.00000000000E+00  0.99999998245E-14  0.12500000000E+03  0.12500000000E+03 0.  0.
        -11    1    3    3    0    0 -0.47416622305E+02  0.16634353969E+02 -0.13744942629E+02  0.52095693209E+02  0.51100000000E-03 0.  1.
         23    2    1    0    0    0 -0.52304698165E+01  0.26193513068E+02 -0.12846531553E+02  0.95360645853E+02  0.90637527896E+02 0.  0.
         11    1    3    3    0    0  0.42186152489E+02  0.95591590991E+01  0.89841107593E+00  0.43264952643E+02  0.51100000000E-03 0. -1.
         22    1    1    0    0    0  0.52304698165E+01 -0.26193513068E+02  0.12846531553E+02  0.29639354147E+02  0.00000000000E+00 0.  1.
</event>
<event>
 5    1  0.6650580E-004  0.9118800E+02  0.7818608E-02  0.1130116E+00
         25   -1    0    0    0    0  0.00000000000E+00  0.00000000000E+00  0.99999998245E-14  0.12500000000E+03  0.12500000000E+03 0.  0.
        -11    1    3    3    0    0 -0.80172146246E+01 -0.45121529568E+02 -0.57196101891E+01  0.46183786136E+02  0.51100000000E-03 0.  1.
         23    2    1    0    0    0  0.95286350435E+01 -0.12704667339E+02  0.25813880189E+02  0.94692247388E+02  0.89710990670E+02 0.  0.
         11    1    3    3    0    0  0.17545849668E+02  0.32416862229E+02  0.31533490378E+02  0.48508461252E+02  0.51100000000E-03 0. -1.
         22    1    1    0    0    0 -0.95286350435E+01  0.12704667339E+02 -0.25813880189E+02  0.30307752612E+02  0.00000000000E+00 0.  1.
</event>
<event>
 5    1  0.6650580E-004  0.9118800E+02  0.7818608E-02  0.1130116E+00
         25   -1    0    0    0    0  0.00000000000E+00  0.00000000000E+00  0.99999998245E-14  0.12500000000E+03  0.12500000000E+03 0.  0.
        -11    1    3    3    0    0 -0.36347732743E+02  0.29627155658E+02  0.17648733809E+02  0.50103930317E+02  0.51100000000E-03 0. -1.
         23    2    1    0    0    0 -0.10104973333E+02  0.20430759312E+02 -0.18453004290E+02  0.95673565176E+02  0.91068058583E+02 0.  0.
         11    1    3    3    0    0  0.26242759410E+02 -0.91963963456E+01 -0.36101738098E+02  0.45569634859E+02  0.51100000000E-03 0.  1.
         22    1    1    0    0    0  0.10104973333E+02 -0.20430759312E+02  0.18453004290E+02  0.29326434824E+02  0.00000000000E+00 0.  1.
</event>
<event>
 5    1  0.6650580E-004  0.9118800E+02  0.7818608E-02  0.1130116E+00
         25   -1    0    0    0    0  0.00000000000E+00  0.00000000000E+00  0.99999998245E-14  0.12500000000E+03  0.12500000000E+03 0.  0.
        -11    1    3    3    0    0 -0.31097774283E+02  0.11603582329E+01 -0.51635911436E+02  0.60288351667E+02  0.51100000000E-03 0.  1.
         23    2    1    0    0    0 -0.23490710119E+02 -0.37811417420E+01 -0.17891867423E+02  0.95230394449E+02  0.90457717262E+02 0.  0.
         11    1    3    3    0    0  0.76070641637E+01 -0.49414999749E+01  0.33744044013E+02  0.34942042782E+02  0.51100000000E-03 0. -1.
         22    1    1    0    0    0  0.23490710119E+02  0.37811417420E+01  0.17891867423E+02  0.29769605551E+02  0.00000000000E+00 0.  1.
</event>
<event>
 5    1  0.6650580E-004  0.9118800E+02  0.7818608E-02  0.1130116E+00
         25   -1    0    0    0    0  0.00000000000E+00  0.00000000000E+00  0.99999998245E-14  0.12500000000E+03  0.12500000000E+03 0.  0.
        -11    1    3    3    0    0  0.91006701547E+01  0.27626384127E+02  0.75903131547E+01  0.30060807561E+02  0.51100000000E-03 0.  1.
         23    2    1    0    0    0 -0.27463219398E+02 -0.17782938023E+02 -0.97061145409E+01  0.90872738699E+02  0.84221046507E+02 0.  0.
         11    1    3    3    0    0 -0.36563889553E+02 -0.45409322150E+02 -0.17296427696E+02  0.60811931137E+02  0.51100000000E-03 0. -1.
         22    1    1    0    0    0  0.27463219398E+02  0.17782938023E+02  0.97061145409E+01  0.34127261301E+02  0.00000000000E+00 0. -1.
</event>
<event>
 5    1  0.6650580E-004  0.9118800E+02  0.7818608E-02  0.1130116E+00
         25   -1    0    0    0    0  0.00000000000E+00  0.00000000000E+00  0.99999998245E-14  0.12500000000E+03  0.12500000000E+03 0.  0.
        -11    1    3    3    0    0  0.32790130530E+02  0.19372528485E+02 -0.51798792139E+01  0.38435903385E+02  0.51100000000E-03 0.  1.
         23    2    1    0    0    0 -0.98972296490E+01 -0.16760163075E+02 -0.20810349047E+02  0.96505634794E+02  0.92203083996E+02 0.  0.
         11    1    3    3    0    0 -0.42687360179E+02 -0.36132691560E+02 -0.15630469833E+02  0.58069731409E+02  0.51100000000E-03 0. -1.
         22    1    1    0    0    0  0.98972296490E+01  0.16760163075E+02  0.20810349047E+02  0.28494365206E+02  0.00000000000E+00 0. -1.
</event>
<event>
 5    1  0.6650580E-004  0.9118800E+02  0.7818608E-02  0.1130116E+00
         25   -1    0    0    0    0  0.00000000000E+00  0.00000000000E+00  0.99999998245E-14  0.12500000000E+03  0.12500000000E+03 0.  0.
        -11    1    3    3    0    0  0.16520583850E+02 -0.26444723987E+02  0.27090326627E+02  0.41305434443E+02  0.51100000000E-03 0. -1.
         23    2    1    0    0    0  0.18006700568E+01  0.24955071656E+02  0.35303387215E+01  0.99732208139E+02  0.96478246433E+02 0.  0.
         11    1    3    3    0    0 -0.14719913793E+02  0.51399795643E+02 -0.23559987905E+02  0.58426773697E+02  0.51100000000E-03 0.  1.
         22    1    1    0    0    0 -0.18006700568E+01 -0.24955071656E+02 -0.35303387215E+01  0.25267791861E+02  0.00000000000E+00 0.  1.
</event>
<event>
 5    1  0.6650580E-004  0.9118800E+02  0.7818608E-02  0.1130116E+00
         25   -1    0    0    0    0  0.00000000000E+00  0.00000000000E+00  0.99999998245E-14  0.12500000000E+03  0.12500000000E+03 0.  0.
        -11    1    3    3    0    0  0.36032109306E+02  0.30396555186E+02  0.10256575248E+01  0.47152045998E+02  0.51100000000E-03 0.  1.
         23    2    1    0    0    0 -0.55760133893E-01  0.95520927188E+01  0.27068650949E+02  0.96295340993E+02  0.91917545922E+02 0.  0.
         11    1    3    3    0    0 -0.36087869440E+02 -0.20844462467E+02  0.26042993424E+02  0.49143294995E+02  0.51100000000E-03 0. -1.
         22    1    1    0    0    0  0.55760133893E-01 -0.95520927188E+01 -0.27068650949E+02  0.28704659007E+02  0.00000000000E+00 0. -1.
</event>
<event>
 5    1  0.6650580E-004  0.9118800E+02  0.7818608E-02  0.1130116E+00
         25   -1    0    0    0    0  0.00000000000E+00  0.00000000000E+00  0.99999998245E-14  0.12500000000E+03  0.12500000000E+03 0.  0.
        -11    1    3    3    0    0  0.18999620051E+02 -0.89099250996E+01 -0.29365327296E+02  0.36092863212E+02  0.51100000000E-03 0. -1.
         23    2    1    0    0    0 -0.22893008145E+02  0.42516379732E+01  0.14018619054E+02  0.97821186053E+02  0.93969657407E+02 0.  0.
         11    1    3    3    0    0 -0.41892628196E+02  0.13161563073E+02  0.43383946349E+02  0.61728322841E+02  0.51100000000E-03 0.  1.
         22    1    1    0    0    0  0.22893008145E+02 -0.42516379732E+01 -0.14018619054E+02  0.27178813947E+02  0.00000000000E+00 0.  1.
</event>
<event>
 5    1  0.6650580E-004  0.9118800E+02  0.7818608E-02  0.1130116E+00
         25   -1    0    0    0    0  0.00000000000E+00  0.00000000000E+00  0.99999998245E-14  0.12500000000E+03  0.12500000000E+03 0.  0.
        -11    1    3    3    0    0 -0.21052226352E+02  0.31132773381E+02  0.32892218760E+02  0.49943406652E+02  0.51100000000E-03 0.  1.
         23    2    1    0    0    0 -0.20186883152E+02  0.91391758727E+01 -0.11897188602E+02  0.99848898958E+02  0.96629316149E+02 0.  0.
         11    1    3    3    0    0  0.86534320026E+00 -0.21993597508E+02 -0.44789407362E+02  0.49905492306E+02  0.51100000000E-03 0. -1.
         22    1    1    0    0    0  0.20186883152E+02 -0.91391758727E+01  0.11897188602E+02  0.25151101042E+02  0.00000000000E+00 0.  1.
</event>
<event>
 5    1  0.6650580E-004  0.9118800E+02  0.7818608E-02  0.1130116E+00
         25   -1    0    0    0    0  0.00000000000E+00  0.00000000000E+00  0.99999998245E-14  0.12500000000E+03  0.12500000000E+03 0.  0.
        -11    1    3    3    0    0 -0.27388156337E+02  0.36431158758E+01  0.20661647001E+01  0.27706541423E+02  0.51100000000E-03 0. -1.
         23    2    1    0    0    0  0.27865725676E+02 -0.22809673060E+02  0.54523690390E+00  0.88985042887E+02  0.81371129535E+02 0.  0.
         11    1    3    3    0    0  0.55253882013E+02 -0.26452788935E+02 -0.15209277962E+01  0.61278501464E+02  0.51100000000E-03 0.  1.
         22    1    1    0    0    0 -0.27865725676E+02  0.22809673060E+02 -0.54523690390E+00  0.36014957113E+02  0.00000000000E+00 0.  1.
</event>
<event>
 5    1  0.6650580E-004  0.9118800E+02  0.7818608E-02  0.1130116E+00
         25   -1    0    0    0    0  0.00000000000E+00  0.00000000000E+00  0.99999998245E-14  0.12500000000E+03  0.12500000000E+03 0.  0.
        -11    1    3    3    0    0  0.19489001698E+02  0.15842624233E+02  0.54669885335E+02  0.60163163917E+02  0.51100000000E-03 0.  1.
         23    2    1    0    0    0 -0.21911402880E+01  0.11663122368E+02  0.26574440147E+02  0.95896213507E+02  0.91373154573E+02 0.  0.
         11    1    3    3    0    0 -0.21680141986E+02 -0.41795018644E+01 -0.28095445188E+02  0.35733049589E+02  0.51100000000E-03 0. -1.
         22    1    1    0    0    0  0.21911402880E+01 -0.11663122368E+02 -0.26574440147E+02  0.29103786493E+02  0.00000000000E+00 0.  1.
</event>
<event>
 5    1  0.6650580E-004  0.9118800E+02  0.7818608E-02  0.1130116E+00
         25   -1    0    0    0    0  0.00000000000E+00  0.00000000000E+00  0.99999998245E-14  0.12500000000E+03  0.12500000000E+03 0.  0.
        -11    1    3    3    0    0 -0.29839029651E+02 -0.26447786973E+02  0.86534965245E+00  0.39882351442E+02  0.51100000000E-03 0. -1.
         23    2    1    0    0    0  0.59340360183E+00  0.12134471635E+02 -0.26298892533E+02  0.96030545774E+02  0.91556738930E+02 0.  0.
         11    1    3    3    0    0  0.30432433253E+02  0.38582258608E+02 -0.27164242185E+02  0.56148194332E+02  0.51100000000E-03 0.  1.
         22    1    1    0    0    0 -0.59340360183E+00 -0.12134471635E+02  0.26298892533E+02  0.28969454226E+02  0.00000000000E+00 0.  1.
</event>
<event>
 5    1  0.6650580E-004  0.9118800E+02  0.7818608E-02  0.1130116E+00
         25   -1    0    0    0    0  0.00000000000E+00  0.00000000000E+00  0.99999998245E-14  0.12500000000E+03  0.12500000000E+03 0.  0.
        -11    1    3    3    0    0  0.27040073560E+02 -0.14774060745E+02  0.15197072138E+02  0.34356796284E+02  0.51100000000E-03 0.  1.
         23    2    1    0    0    0 -0.25459554422E+02 -0.36783415731E+01 -0.14278703925E+02  0.95578910729E+02  0.90938043096E+02 0.  0.
         11    1    3    3    0    0 -0.52499627983E+02  0.11095719172E+02 -0.29475776064E+02  0.61222114445E+02  0.51100000000E-03 0. -1.
         22    1    1    0    0    0  0.25459554422E+02  0.36783415731E+01  0.14278703925E+02  0.29421089271E+02  0.00000000000E+00 0. -1.
</event>
<event>
 5    1  0.6650580E-004  0.9118800E+02  0.7818608E-02  0.1130116E+00
         25   -1    0    0    0    0  0.00000000000E+00  0.00000000000E+00  0.99999998245E-14  0.12500000000E+03  0.12500000000E+03 0.  0.
        -11    1    3    3    0    0  0.12661743532E+02 -0.23947262121E+02  0.28681564778E+02  0.39451530652E+02  0.51100000000E-03 0. -1.
         23    2    1    0    0    0  0.27055552224E+02  0.10313826224E+02 -0.11191934100E+02  0.93957491943E+02  0.88681300091E+02 0.  0.
         11    1    3    3    0    0  0.14393808692E+02  0.34261088345E+02 -0.39873498878E+02  0.54505961292E+02  0.51100000000E-03 0.  1.
         22    1    1    0    0    0 -0.27055552224E+02 -0.10313826224E+02  0.11191934100E+02  0.31042508057E+02  0.00000000000E+00 0.  1.
</event>
<event>
 5    1  0.6650580E-004  0.9118800E+02  0.7818608E-02  0.1130116E+00
         25   -1    0    0    0    0  0.00000000000E+00  0.00000000000E+00  0.99999998245E-14  0.12500000000E+03  0.12500000000E+03 0.  0.
        -11    1    3    3    0    0 -0.39737134694E+02  0.39563214392E+02 -0.35862496018E+01  0.56188513000E+02  0.51100000000E-03 0. -1.
         23    2    1    0    0    0 -0.34065258950E+02  0.19525635358E+02  0.13865795090E+02  0.83359243800E+02  0.72213647948E+02 0.  0.
         11    1    3    3    0    0  0.56718757435E+01 -0.20037579034E+02  0.17452044692E+02  0.27170730800E+02  0.51100000000E-03 0.  1.
         22    1    1    0    0    0  0.34065258950E+02 -0.19525635358E+02 -0.13865795090E+02  0.41640756200E+02  0.00000000000E+00 0. -1.
</event>
<event>
 5    1  0.6650580E-004  0.9118800E+02  0.7818608E-02  0.1130116E+00
         25   -1    0    0    0    0  0.00000000000E+00  0.00000000000E+00  0.99999998245E-14  0.12500000000E+03  0.12500000000E+03 0.  0.
        -11    1    3    3    0    0 -0.42475423586E+00 -0.52328256025E+02  0.79732824150E+01  0.52933921332E+02  0.51100000000E-03 0. -1.
         23    2    1    0    0    0 -0.23913545630E+02 -0.17578449404E+02  0.34593096577E+01  0.95119799677E+02  0.90304761331E+02 0.  0.
         11    1    3    3    0    0 -0.23488791394E+02  0.34749806621E+02 -0.45139727574E+01  0.42185878345E+02  0.51100000000E-03 0.  1.
         22    1    1    0    0    0  0.23913545630E+02  0.17578449404E+02 -0.34593096577E+01  0.29880200323E+02  0.00000000000E+00 0.  1.
</event>
<event>
 5    1  0.6650580E-004  0.9118800E+02  0.7818608E-02  0.1130116E+00
         25   -1    0    0    0    0  0.00000000000E+00  0.00000000000E+00  0.99999998245E-14  0.12500000000E+03  0.12500000000E+03 0.  0.
        -11    1    3    3    0    0 -0.48433252487E+01 -0.38791510920E+02 -0.18323406191E+02  0.43173908019E+02  0.51100000000E-03 0.  1.
         23    2    1    0    0    0 -0.22655143848E+02 -0.51505520140E+01  0.17862100753E+02  0.95694055686E+02  0.91096179511E+02 0.  0.
         11    1    3    3    0    0 -0.17811818599E+02  0.33640958906E+02  0.36185506944E+02  0.52520147667E+02  0.51100000000E-03 0. -1.
         22    1    1    0    0    0  0.22655143848E+02  0.51505520140E+01 -0.17862100753E+02  0.29305944314E+02  0.00000000000E+00 0. -1.
</event>
<event>
 5    1  0.6650580E-004  0.9118800E+02  0.7818608E-02  0.1130116E+00
         25   -1    0    0    0    0  0.00000000000E+00  0.00000000000E+00  0.99999998245E-14  0.12500000000E+03  0.12500000000E+03 0.  0.
        -11    1    3    3    0    0 -0.34091755969E+02  0.46063699144E+01 -0.31504547879E+01  0.34545503824E+02  0.51100000000E-03 0.  1.
         23    2    1    0    0    0  0.23244903835E+02 -0.17138278317E+02 -0.38056944554E+01  0.95870471198E+02  0.91337931876E+02 0.  0.
         11    1    3    3    0    0  0.57336659803E+02 -0.21744648231E+02 -0.65523966754E+00  0.61324967374E+02  0.51100000000E-03 0. -1.
         22    1    1    0    0    0 -0.23244903835E+02  0.17138278317E+02  0.38056944554E+01  0.29129528802E+02  0.00000000000E+00 0. -1.
</event>
<event>
 5    1  0.6650580E-004  0.9118800E+02  0.7818608E-02  0.1130116E+00
         25   -1    0    0    0    0  0.00000000000E+00  0.00000000000E+00  0.99999998245E-14  0.12500000000E+03  0.12500000000E+03 0.  0.
        -11    1    3    3    0    0 -0.25719107581E+02 -0.56093777020E+01  0.28416986374E+02  0.38735806791E+02  0.51100000000E-03 0.  1.
         23    2    1    0    0    0 -0.18080205216E+02  0.14181452366E+02 -0.21847281668E+02  0.93293358296E+02  0.87740182208E+02 0.  0.
         11    1    3    3    0    0  0.76389023644E+01  0.19790830068E+02 -0.50264268042E+02  0.54557551505E+02  0.51100000000E-03 0. -1.
         22    1    1    0    0    0  0.18080205216E+02 -0.14181452366E+02  0.21847281668E+02  0.31706641704E+02  0.00000000000E+00 0. -1.
</event>
<event>
 5    1  0.6650580E-004  0.9118800E+02  0.7818608E-02  0.1130116E+00
         25   -1    0    0    0    0  0.00000000000E+00  0.00000000000E+00  0.99999998245E-14  0.12500000000E+03  0.12500000000E+03 0.  0.
        -11    1    3    3    0    0  0.30161760328E+01 -0.42851890665E+02  0.44711663282E+02  0.62004150548E+02  0.51100000000E-03 0.  1.
         23    2    1    0    0    0  0.67874074134E+01 -0.21618936385E+02  0.20295552709E+02  0.94580322658E+02  0.89554903074E+02 0.  0.
         11    1    3    3    0    0  0.37712313807E+01  0.21232954280E+02 -0.24416110574E+02  0.32576172111E+02  0.51100000000E-03 0. -1.
         22    1    1    0    0    0 -0.67874074134E+01  0.21618936385E+02 -0.20295552709E+02  0.30419677342E+02  0.00000000000E+00 0.  1.
</event>
<event>
 5    1  0.6650580E-004  0.9118800E+02  0.7818608E-02  0.1130116E+00
         25   -1    0    0    0    0  0.00000000000E+00  0.00000000000E+00  0.99999998245E-14  0.12500000000E+03  0.12500000000E+03 0.  0.
        -11    1    3    3    0    0 -0.32289571940E+02  0.17481477251E+02  0.35026539455E+02  0.50745216222E+02  0.51100000000E-03 0. -1.
         23    2    1    0    0    0 -0.15909221646E+02 -0.19398422205E+02  0.14572392898E+02  0.95986955482E+02  0.91497206900E+02 0.  0.
         11    1    3    3    0    0  0.16380350294E+02 -0.36879899456E+02 -0.20454146558E+02  0.45241739260E+02  0.51100000000E-03 0.  1.
         22    1    1    0    0    0  0.15909221646E+02  0.19398422205E+02 -0.14572392898E+02  0.29013044518E+02  0.00000000000E+00 0.  1.
</event>
<event>
 5    1  0.6650580E-004  0.9118800E+02  0.7818608E-02  0.1130116E+00
         25   -1    0    0    0    0  0.00000000000E+00  0.00000000000E+00  0.99999998245E-14  0.12500000000E+03  0.12500000000E+03 0.  0.
        -11    1    3    3    0    0 -0.33259700550E+02  0.11264281594E+02  0.23592068812E+02  0.42304579321E+02  0.51100000000E-03 0. -1.
         23    2    1    0    0    0  0.23281115941E+00  0.36678027469E+02  0.62088926171E+01  0.87799432160E+02  0.79528976104E+02 0.  0.
         11    1    3    3    0    0  0.33492511709E+02  0.25413745875E+02 -0.17383176195E+02  0.45494852839E+02  0.51100000000E-03 0.  1.
         22    1    1    0    0    0 -0.23281115941E+00 -0.36678027469E+02 -0.62088926171E+01  0.37200567840E+02  0.00000000000E+00 0.  1.
</event>
<event>
 5    1  0.6650580E-004  0.9118800E+02  0.7818608E-02  0.1130116E+00
         25   -1    0    0    0    0  0.00000000000E+00  0.00000000000E+00  0.99999998245E-14  0.12500000000E+03  0.12500000000E+03 0.  0.
        -11    1    3    3    0    0 -0.30517081858E+02 -0.13953646463E+02 -0.31790824130E+02  0.46223944379E+02  0.51100000000E-03 0. -1.
         23    2    1    0    0    0 -0.25458365027E+02  0.18356777824E+02  0.23807634544E+01  0.93523537737E+02  0.88067499308E+02 0.  0.
         11    1    3    3    0    0  0.50587168310E+01  0.32310424287E+02  0.34171587585E+02  0.47299593359E+02  0.51100000000E-03 0.  1.
         22    1    1    0    0    0  0.25458365027E+02 -0.18356777824E+02 -0.23807634544E+01  0.31476462263E+02  0.00000000000E+00 0. -1.
</event>
<event>
 5    1  0.6650580E-004  0.9118800E+02  0.7818608E-02  0.1130116E+00
         25   -1    0    0    0    0  0.00000000000E+00  0.00000000000E+00  0.99999998245E-14  0.12500000000E+03  0.12500000000E+03 0.  0.
        -11    1    3    3    0    0  0.84091405312E+01  0.33260975673E+02  0.27595916640E+01  0.34418330779E+02  0.51100000000E-03 0.  1.
         23    2    1    0    0    0  0.37109065466E+00 -0.25835739088E+02 -0.12956439326E+02  0.96095113864E+02  0.91644849643E+02 0.  0.
         11    1    3    3    0    0 -0.80380498766E+01 -0.59096714761E+02 -0.15716030990E+02  0.61676783085E+02  0.51100000000E-03 0. -1.
         22    1    1    0    0    0 -0.37109065466E+00  0.25835739088E+02  0.12956439326E+02  0.28904886136E+02  0.00000000000E+00 0. -1.
</event>
<event>
 5    1  0.6650580E-004  0.9118800E+02  0.7818608E-02  0.1130116E+00
         25   -1    0    0    0    0  0.00000000000E+00  0.00000000000E+00  0.99999998245E-14  0.12500000000E+03  0.12500000000E+03 0.  0.
        -11    1    3    3    0    0  0.65435072890E+01  0.48400078411E+02 -0.38895661171E+02  0.62436027549E+02  0.51100000000E-03 0.  1.
         23    2    1    0    0    0  0.13365127887E+01  0.23483548072E+02 -0.17633605224E+02  0.95602596549E+02  0.90970594904E+02 0.  0.
         11    1    3    3    0    0 -0.52069945003E+01 -0.24916530339E+02  0.21262055948E+02  0.33166569000E+02  0.51100000000E-03 0. -1.
         22    1    1    0    0    0 -0.13365127887E+01 -0.23483548072E+02  0.17633605224E+02  0.29397403451E+02  0.00000000000E+00 0.  1.
</event>
<event>
 5    1  0.6650580E-004  0.9118800E+02  0.7818608E-02  0.1130116E+00
         25   -1    0    0    0    0  0.00000000000E+00  0.00000000000E+00  0.99999998245E-14  0.12500000000E+03  0.12500000000E+03 0.  0.
        -11    1    3    3    0    0  0.14701146236E+02 -0.18503271737E+02  0.30075103346E+02  0.38249269368E+02  0.51100000000E-03 0.  1.
         23    2    1    0    0    0  0.84722517822E+01  0.29818365080E+02  0.33453043792E+01  0.93821401448E+02  0.88489266931E+02 0.  0.
         11    1    3    3    0    0 -0.62288944540E+01  0.48321636817E+02 -0.26729798967E+02  0.55572132080E+02  0.51100000000E-03 0. -1.
         22    1    1    0    0    0 -0.84722517822E+01 -0.29818365080E+02 -0.33453043792E+01  0.31178598552E+02  0.00000000000E+00 0. -1.
</event>
<event>
 5    1  0.6650580E-004  0.9118800E+02  0.7818608E-02  0.1130116E+00
         25   -1    0    0    0    0  0.00000000000E+00  0.00000000000E+00  0.99999998245E-14  0.12500000000E+03  0.12500000000E+03 0.  0.
        -11    1    3    3    0    0 -0.15359905722E+02 -0.28509672727E+02 -0.46716422406E+02  0.56843225326E+02  0.51100000000E-03 0. -1.
         23    2    1    0    0    0 -0.13047540842E+02  0.47079938962E+01 -0.24415823866E+02  0.96919117115E+02  0.92761949520E+02 0.  0.
         11    1    3    3    0    0  0.23123648801E+01  0.33217666623E+02  0.22300598539E+02  0.40075891789E+02  0.51100000000E-03 0.  1.
         22    1    1    0    0    0  0.13047540842E+02 -0.47079938962E+01  0.24415823866E+02  0.28080882885E+02  0.00000000000E+00 0. -1.
</event>
<event>
 5    1  0.6650580E-004  0.9118800E+02  0.7818608E-02  0.1130116E+00
         25   -1    0    0    0    0  0.00000000000E+00  0.00000000000E+00  0.99999998245E-14  0.12500000000E+03  0.12500000000E+03 0.  0.
        -11    1    3    3    0    0  0.44058457276E+01  0.44590316021E+02 -0.73089576306E+01  0.45399654419E+02  0.51100000000E-03 0.  1.
         23    2    1    0    0    0  0.31581761447E+02  0.13934107499E+02  0.87286918470E+01  0.89394423621E+02  0.81997596948E+02 0.  0.
         11    1    3    3    0    0  0.27175915720E+02 -0.30656208522E+02  0.16037649478E+02  0.43994769202E+02  0.51100000000E-03 0. -1.
         22    1    1    0    0    0 -0.31581761447E+02 -0.13934107499E+02 -0.87286918470E+01  0.35605576379E+02  0.00000000000E+00 0.  1.
</event>
<event>
 5    1  0.6650580E-004  0.9118800E+02  0.7818608E-02  0.1130116E+00
         25   -1    0    0    0    0  0.00000000000E+00  0.00000000000E+00  0.99999998245E-14  0.12500000000E+03  0.12500000000E+03 0.  0.
        -11    1    3    3    0    0  0.26598304101E+02 -0.56217052041E+01 -0.29501984779E+02  0.40117832152E+02  0.51100000000E-03 0. -1.
         23    2    1    0    0    0  0.13081996885E+02 -0.10821547865E+02  0.24031865831E+02  0.95575943244E+02  0.90933964012E+02 0.  0.
         11    1    3    3    0    0 -0.13516307216E+02 -0.51998426613E+01  0.53533850610E+02  0.55458111091E+02  0.51100000000E-03 0.  1.
         22    1    1    0    0    0 -0.13081996885E+02  0.10821547865E+02 -0.24031865831E+02  0.29424056756E+02  0.00000000000E+00 0.  1.
</event>
<event>
 5    1  0.6650580E-004  0.9118800E+02  0.7818608E-02  0.1130116E+00
         25   -1    0    0    0    0  0.00000000000E+00  0.00000000000E+00  0.99999998245E-14  0.12500000000E+03  0.12500000000E+03 0.  0.
        -11    1    3    3    0    0 -0.11423849148E+02 -0.32402117507E+02  0.28155410920E+02  0.44419913469E+02  0.51100000000E-03 0.  1.
         23    2    1    0    0    0  0.25561774894E+02  0.54768492520E+00  0.13557383016E+02  0.96060288033E+02  0.91597336251E+02 0.  0.
         11    1    3    3    0    0  0.36985624042E+02  0.32949802432E+02 -0.14598027905E+02  0.51640374564E+02  0.51100000000E-03 0. -1.
         22    1    1    0    0    0 -0.25561774894E+02 -0.54768492520E+00 -0.13557383016E+02  0.28939711967E+02  0.00000000000E+00 0. -1.
</event>
<event>
 5    1  0.6650580E-004  0.9118800E+02  0.7818608E-02  0.1130116E+00
         25   -1    0    0    0    0  0.00000000000E+00  0.00000000000E+00  0.99999998245E-14  0.12500000000E+03  0.12500000000E+03 0.  0.
        -11    1    3    3    0    0  0.10951854146E+02  0.31376630933E+02 -0.41544555591E+02  0.53201373830E+02  0.51100000000E-03 0.  1.
         23    2    1    0    0    0 -0.18464122332E+02  0.10813735293E+02 -0.22948057956E+02  0.93623670571E+02  0.88209509934E+02 0.  0.
         11    1    3    3    0    0 -0.29415976478E+02 -0.20562895640E+02  0.18596497635E+02  0.40422296741E+02  0.51100000000E-03 0. -1.
         22    1    1    0    0    0  0.18464122332E+02 -0.10813735293E+02  0.22948057956E+02  0.31376329429E+02  0.00000000000E+00 0. -1.
</event>
<event>
 5    1  0.6650580E-004  0.9118800E+02  0.7818608E-02  0.1130116E+00
         25   -1    0    0    0    0  0.00000000000E+00  0.00000000000E+00  0.99999998245E-14  0.12500000000E+03  0.12500000000E+03 0.  0.
        -11    1    3    3    0    0 -0.25976971737E+02 -0.44850391634E+02  0.26287241830E+02  0.58115228414E+02  0.51100000000E-03 0. -1.
         23    2    1    0    0    0 -0.20855091126E+02 -0.81362430853E+01  0.18418313797E+02  0.96010906179E+02  0.91529921582E+02 0.  0.
         11    1    3    3    0    0  0.51218806105E+01  0.36714148549E+02 -0.78689280331E+01  0.37895677765E+02  0.51100000000E-03 0.  1.
         22    1    1    0    0    0  0.20855091126E+02  0.81362430853E+01 -0.18418313797E+02  0.28989093821E+02  0.00000000000E+00 0. -1.
</event>
<event>
 5    1  0.6650580E-004  0.9118800E+02  0.7818608E-02  0.1130116E+00
         25   -1    0    0    0    0  0.00000000000E+00  0.00000000000E+00  0.99999998245E-14  0.12500000000E+03  0.12500000000E+03 0.  0.
        -11    1    3    3    0    0 -0.22830291812E+02 -0.29244733226E+02  0.49474199563E+02  0.61839898677E+02  0.51100000000E-03 0.  1.
         23    2    1    0    0    0 -0.94934334573E+01 -0.18530703982E+02  0.18873014278E+02  0.96898346368E+02  0.92733955982E+02 0.  0.
         11    1    3    3    0    0  0.13336858354E+02  0.10714029244E+02 -0.30601185285E+02  0.35058447691E+02  0.51100000000E-03 0. -1.
         22    1    1    0    0    0  0.94934334573E+01  0.18530703982E+02 -0.18873014278E+02  0.28101653632E+02  0.00000000000E+00 0.  1.
</event>
<event>
 5    1  0.6650580E-004  0.9118800E+02  0.7818608E-02  0.1130116E+00
         25   -1    0    0    0    0  0.00000000000E+00  0.00000000000E+00  0.99999998245E-14  0.12500000000E+03  0.12500000000E+03 0.  0.
        -11    1    3    3    0    0  0.24697531079E+02 -0.22769562294E+02  0.18753700249E+02  0.38472357372E+02  0.51100000000E-03 0.  1.
         23    2    1    0    0    0  0.97462005416E+01  0.94644900251E+01 -0.26028725718E+02  0.95639149213E+02  0.91020806980E+02 0.  0.
         11    1    3    3    0    0 -0.14951330538E+02  0.32234052319E+02 -0.44782425966E+02  0.57166791841E+02  0.51100000000E-03 0. -1.
         22    1    1    0    0    0 -0.97462005416E+01 -0.94644900251E+01  0.26028725718E+02  0.29360850787E+02  0.00000000000E+00 0. -1.
</event>
<event>
 5    1  0.6650580E-004  0.9118800E+02  0.7818608E-02  0.1130116E+00
         25   -1    0    0    0    0  0.00000000000E+00  0.00000000000E+00  0.99999998245E-14  0.12500000000E+03  0.12500000000E+03 0.  0.
        -11    1    3    3    0    0 -0.21989560896E+02  0.40900399425E+02  0.17406454082E+02  0.49592016551E+02  0.51100000000E-03 0.  1.
         23    2    1    0    0    0 -0.10804034185E+02  0.14074337252E+02 -0.20840655061E+02  0.97629449638E+02  0.93714259371E+02 0.  0.
         11    1    3    3    0    0  0.11185526711E+02 -0.26826062174E+02 -0.38247109143E+02  0.48037433088E+02  0.51100000000E-03 0. -1.
         22    1    1    0    0    0  0.10804034185E+02 -0.14074337252E+02  0.20840655061E+02  0.27370550362E+02  0.00000000000E+00 0.  1.
</event>
<event>
 5    1  0.6650580E-004  0.9118800E+02  0.7818608E-02  0.1130116E+00
         25   -1    0    0    0    0  0.00000000000E+00  0.00000000000E+00  0.99999998245E-14  0.12500000000E+03  0.12500000000E+03 0.  0.
        -11    1    3    3    0    0  0.44557516985E+02  0.80646440312E+01 -0.26974581440E+02  0.52707104334E+02  0.51100000000E-03 0. -1.
         23    2    1    0    0    0  0.26004303825E+02 -0.31949809193E+01  0.11110475856E+02  0.96541707812E+02  0.92251975334E+02 0.  0.
         11    1    3    3    0    0 -0.18553213160E+02 -0.11259624950E+02  0.38085057296E+02  0.43834603478E+02  0.51100000000E-03 0.  1.
         22    1    1    0    0    0 -0.26004303825E+02  0.31949809193E+01 -0.11110475856E+02  0.28458292188E+02  0.00000000000E+00 0.  1.
</event>
<event>
 5    1  0.6650580E-004  0.9118800E+02  0.7818608E-02  0.1130116E+00
         25   -1    0    0    0    0  0.00000000000E+00  0.00000000000E+00  0.99999998245E-14  0.12500000000E+03  0.12500000000E+03 0.  0.
        -11    1    3    3    0    0 -0.20767016192E+02 -0.24590029316E+02 -0.32623353307E+02  0.45828175662E+02  0.51100000000E-03 0.  1.
         23    2    1    0    0    0  0.16428804160E+02 -0.13669154586E+01 -0.31212813457E+02  0.89701079507E+02  0.82463748865E+02 0.  0.
         11    1    3    3    0    0  0.37195820352E+02  0.23223113857E+02  0.14105398493E+01  0.43872903845E+02  0.51100000000E-03 0. -1.
         22    1    1    0    0    0 -0.16428804160E+02  0.13669154586E+01  0.31212813457E+02  0.35298920493E+02  0.00000000000E+00 0. -1.
</event>
<event>
 5    1  0.6650580E-004  0.9118800E+02  0.7818608E-02  0.1130116E+00
         25   -1    0    0    0    0  0.00000000000E+00  0.00000000000E+00  0.99999998245E-14  0.12500000000E+03  0.12500000000E+03 0.  0.
        -11    1    3    3    0    0  0.20591715607E+02  0.12450690337E+02  0.30477056426E+02  0.38831551735E+02  0.51100000000E-03 0. -1.
         23    2    1    0    0    0  0.12518225605E+02 -0.17695459792E+02 -0.18228814699E+02  0.96678189414E+02  0.92436720806E+02 0.  0.
         11    1    3    3    0    0 -0.80734900022E+01 -0.30146150129E+02 -0.48705871125E+02  0.57846637679E+02  0.51100000000E-03 0.  1.
         22    1    1    0    0    0 -0.12518225605E+02  0.17695459792E+02  0.18228814699E+02  0.28321810586E+02  0.00000000000E+00 0.  1.
</event>
<event>
 5    1  0.6650580E-004  0.9118800E+02  0.7818608E-02  0.1130116E+00
         25   -1    0    0    0    0  0.00000000000E+00  0.00000000000E+00  0.99999998245E-14  0.12500000000E+03  0.12500000000E+03 0.  0.
        -11    1    3    3    0    0 -0.34452963764E+02  0.40880925890E+01  0.12341987379E+02  0.36824500891E+02  0.51100000000E-03 0.  1.
         23    2    1    0    0    0  0.23063972127E+02  0.37084844805E+01  0.19215731377E+02  0.94751958745E+02  0.89794151737E+02 0.  0.
         11    1    3    3    0    0  0.57516935891E+02 -0.37960810841E+00  0.68737439975E+01  0.57927457854E+02  0.51100000000E-03 0. -1.
         22    1    1    0    0    0 -0.23063972127E+02 -0.37084844805E+01 -0.19215731377E+02  0.30248041255E+02  0.00000000000E+00 0. -1.
</event>
<event>
 5    1  0.6650580E-004  0.9118800E+02  0.7818608E-02  0.1130116E+00
         25   -1    0    0    0    0  0.00000000000E+00  0.00000000000E+00  0.99999998245E-14  0.12500000000E+03  0.12500000000E+03 0.  0.
        -11    1    3    3    0    0 -0.10390064401E+01 -0.32202945478E+02  0.22061596158E+02  0.39048985353E+02  0.51100000000E-03 0.  1.
         23    2    1    0    0    0  0.29027902735E+02  0.15579522333E+01 -0.97618331821E+01  0.94335040528E+02  0.89211883356E+02 0.  0.
         11    1    3    3    0    0  0.30066909175E+02  0.33760897711E+02 -0.31823429340E+02  0.55286055175E+02  0.51100000000E-03 0. -1.
         22    1    1    0    0    0 -0.29027902735E+02 -0.15579522333E+01  0.97618331821E+01  0.30664959472E+02  0.00000000000E+00 0. -1.
</event>
<event>
 5    1  0.6650580E-004  0.9118800E+02  0.7818608E-02  0.1130116E+00
         25   -1    0    0    0    0  0.00000000000E+00  0.00000000000E+00  0.99999998245E-14  0.12500000000E+03  0.12500000000E+03 0.  0.
        -11    1    3    3    0    0 -0.15787849982E+02 -0.19547043043E+02  0.23296409179E+02  0.34264643288E+02  0.51100000000E-03 0. -1.
         23    2    1    0    0    0  0.59775769447E+01  0.24209437135E+02 -0.14596995885E+02  0.96105354105E+02  0.91658815868E+02 0.  0.
         11    1    3    3    0    0  0.21765426926E+02  0.43756480178E+02 -0.37893405063E+02  0.61840710817E+02  0.51100000000E-03 0.  1.
         22    1    1    0    0    0 -0.59775769447E+01 -0.24209437135E+02  0.14596995885E+02  0.28894645895E+02  0.00000000000E+00 0.  1.
</event>
<event>
 5    1  0.6650580E-004  0.9118800E+02  0.7818608E-02  0.1130116E+00
         25   -1    0    0    0    0  0.00000000000E+00  0.00000000000E+00  0.99999998245E-14  0.12500000000E+03  0.12500000000E+03 0.  0.
        -11    1    3    3    0    0  0.26513274265E+02  0.22153755807E+02  0.20661133918E+02  0.40256987761E+02  0.51100000000E-03 0. -1.
         23    2    1    0    0    0 -0.18712912213E+02  0.40955413732E+01 -0.15044646307E+02  0.10064249756E+03  0.97650521708E+02 0.  0.
         11    1    3    3    0    0 -0.45226186478E+02 -0.18058214433E+02 -0.35705780225E+02  0.60385509798E+02  0.51100000000E-03 0.  1.
         22    1    1    0    0    0  0.18712912213E+02 -0.40955413732E+01  0.15044646307E+02  0.24357502440E+02  0.00000000000E+00 0.  1.
</event>
<event>
 5    1  0.6650580E-004  0.9118800E+02  0.7818608E-02  0.1130116E+00
         25   -1    0    0    0    0  0.00000000000E+00  0.00000000000E+00  0.99999998245E-14  0.12500000000E+03  0.12500000000E+03 0.  0.
        -11    1    3    3    0    0  0.35108414804E+02 -0.91037219842E+01  0.21114872934E+02  0.41968040261E+02  0.51100000000E-03 0. -1.
         23    2    1    0    0    0 -0.10992736657E+02 -0.26542987166E+02 -0.15715944129E+01  0.96227785349E+02  0.91825630068E+02 0.  0.
         11    1    3    3    0    0 -0.46101151461E+02 -0.17439265182E+02 -0.22686467347E+02  0.54259745088E+02  0.51100000000E-03 0.  1.
         22    1    1    0    0    0  0.10992736657E+02  0.26542987166E+02  0.15715944129E+01  0.28772214651E+02  0.00000000000E+00 0.  1.
</event>
<event>
 5    1  0.6650580E-004  0.9118800E+02  0.7818608E-02  0.1130116E+00
         25   -1    0    0    0    0  0.00000000000E+00  0.00000000000E+00  0.99999998245E-14  0.12500000000E+03  0.12500000000E+03 0.  0.
        -11    1    3    3    0    0 -0.11859383719E+01  0.34793261562E+02  0.19157481696E+02  0.39736464426E+02  0.51100000000E-03 0. -1.
         23    2    1    0    0    0 -0.26090647744E+02 -0.99901295856E+01 -0.53766034994E+01  0.96549473572E+02  0.92262497218E+02 0.  0.
         11    1    3    3    0    0 -0.24904709372E+02 -0.44783391147E+02 -0.24534085195E+02  0.56813009146E+02  0.51100000000E-03 0.  1.
         22    1    1    0    0    0  0.26090647744E+02  0.99901295856E+01  0.53766034994E+01  0.28450526428E+02  0.00000000000E+00 0.  1.
</event>
<event>
 5    1  0.6650580E-004  0.9118800E+02  0.7818608E-02  0.1130116E+00
         25   -1    0    0    0    0  0.00000000000E+00  0.00000000000E+00  0.99999998245E-14  0.12500000000E+03  0.12500000000E+03 0.  0.
        -11    1    3    3    0    0 -0.23937063457E+02 -0.23819925655E+02 -0.92052018252E+01  0.35001537196E+02  0.51100000000E-03 0. -1.
         23    2    1    0    0    0  0.21284964991E+02  0.16351387915E+02 -0.12099041387E+02  0.95558457515E+02  0.90909924534E+02 0.  0.
         11    1    3    3    0    0  0.45222028448E+02  0.40171313570E+02 -0.28938395615E+01  0.60556920319E+02  0.51100000000E-03 0.  1.
         22    1    1    0    0    0 -0.21284964991E+02 -0.16351387915E+02  0.12099041387E+02  0.29441542485E+02  0.00000000000E+00 0.  1.
</event>
<event>
 5    1  0.6650580E-004  0.9118800E+02  0.7818608E-02  0.1130116E+00
         25   -1    0    0    0    0  0.00000000000E+00  0.00000000000E+00  0.99999998245E-14  0.12500000000E+03  0.12500000000E+03 0.  0.
        -11    1    3    3    0    0  0.27076147522E+01 -0.41273579866E+02 -0.28124138725E+02  0.50018064256E+02  0.51100000000E-03 0.  1.
         23    2    1    0    0    0  0.23000294800E+02 -0.10014243215E+01 -0.16758990873E+02  0.96524041954E+02  0.92228035263E+02 0.  0.
         11    1    3    3    0    0  0.20292680048E+02  0.40272155544E+02  0.11365147852E+02  0.46505977698E+02  0.51100000000E-03 0. -1.
         22    1    1    0    0    0 -0.23000294800E+02  0.10014243215E+01  0.16758990873E+02  0.28475958046E+02  0.00000000000E+00 0.  1.
</event>
<event>
 5    1  0.6650580E-004  0.9118800E+02  0.7818608E-02  0.1130116E+00
         25   -1    0    0    0    0  0.00000000000E+00  0.00000000000E+00  0.99999998245E-14  0.12500000000E+03  0.12500000000E+03 0.  0.
        -11    1    3    3    0    0 -0.94707434903E+01  0.55228151655E+02 -0.14448077561E+01  0.56052932012E+02  0.51100000000E-03 0.  1.
         23    2    1    0    0    0  0.50910197817E+01  0.21376835851E+02 -0.18136573731E+02  0.96507493966E+02  0.92205604447E+02 0.  0.
         11    1    3    3    0    0  0.14561763272E+02 -0.33851315804E+02 -0.16691765975E+02  0.40454561954E+02  0.51100000000E-03 0. -1.
         22    1    1    0    0    0 -0.50910197817E+01 -0.21376835851E+02  0.18136573731E+02  0.28492506034E+02  0.00000000000E+00 0.  1.
</event>
<event>
 5    1  0.6650580E-004  0.9118800E+02  0.7818608E-02  0.1130116E+00
         25   -1    0    0    0    0  0.00000000000E+00  0.00000000000E+00  0.99999998245E-14  0.12500000000E+03  0.12500000000E+03 0.  0.
        -11    1    3    3    0    0  0.11283558991E+02 -0.27875298146E+02 -0.51654021503E+02  0.59770301053E+02  0.51100000000E-03 0. -1.
         23    2    1    0    0    0  0.16557016413E+02 -0.93780718971E+01 -0.16628124807E+02  0.99729907804E+02  0.96475266006E+02 0.  0.
         11    1    3    3    0    0  0.52734574220E+01  0.18497226249E+02  0.35025896696E+02  0.39959606751E+02  0.51100000000E-03 0.  1.
         22    1    1    0    0    0 -0.16557016413E+02  0.93780718971E+01  0.16628124807E+02  0.25270092196E+02  0.00000000000E+00 0. -1.
</event>
<event>
 5    1  0.6650580E-004  0.9118800E+02  0.7818608E-02  0.1130116E+00
         25   -1    0    0    0    0  0.00000000000E+00  0.00000000000E+00  0.99999998245E-14  0.12500000000E+03  0.12500000000E+03 0.  0.
        -11    1    3    3    0    0  0.26843189505E+01  0.10891008140E+02  0.30841035421E+02  0.32817511981E+02  0.51100000000E-03 0.  1.
         23    2    1    0    0    0 -0.23648976461E+02 -0.14104865986E+02 -0.16820650819E+02  0.92733056759E+02  0.86938278047E+02 0.  0.
         11    1    3    3    0    0 -0.26333295412E+02 -0.24995874127E+02 -0.47661686239E+02  0.59915544778E+02  0.51100000000E-03 0. -1.
         22    1    1    0    0    0  0.23648976461E+02  0.14104865986E+02  0.16820650819E+02  0.32266943241E+02  0.00000000000E+00 0. -1.
</event>
<event>
 5    1  0.6650580E-004  0.9118800E+02  0.7818608E-02  0.1130116E+00
         25   -1    0    0    0    0  0.00000000000E+00  0.00000000000E+00  0.99999998245E-14  0.12500000000E+03  0.12500000000E+03 0.  0.
        -11    1    3    3    0    0 -0.46630190590E+01  0.40196924171E+02 -0.20984943341E+01  0.40520860532E+02  0.51100000000E-03 0.  1.
         23    2    1    0    0    0  0.21351978310E+02 -0.77501269035E+01 -0.16482033473E+02  0.96935273524E+02  0.92783718297E+02 0.  0.
         11    1    3    3    0    0  0.26014997369E+02 -0.47947051074E+02 -0.14383539139E+02  0.56414412992E+02  0.51100000000E-03 0. -1.
         22    1    1    0    0    0 -0.21351978310E+02  0.77501269035E+01  0.16482033473E+02  0.28064726476E+02  0.00000000000E+00 0. -1.
</event>
<event>
 5    1  0.6650580E-004  0.9118800E+02  0.7818608E-02  0.1130116E+00
         25   -1    0    0    0    0  0.00000000000E+00  0.00000000000E+00  0.99999998245E-14  0.12500000000E+03  0.12500000000E+03 0.  0.
        -11    1    3    3    0    0 -0.44485215473E+01 -0.41266797229E+02  0.18470259457E+02  0.45430038325E+02  0.51100000000E-03 0.  1.
         23    2    1    0    0    0  0.13117275159E+02 -0.12843249791E+02 -0.20975533840E+02  0.97125549464E+02  0.93039708545E+02 0.  0.
         11    1    3    3    0    0  0.17565796706E+02  0.28423547438E+02 -0.39445793297E+02  0.51695511139E+02  0.51100000000E-03 0. -1.
         22    1    1    0    0    0 -0.13117275159E+02  0.12843249791E+02  0.20975533840E+02  0.27874450536E+02  0.00000000000E+00 0. -1.
</event>
<event>
 5    1  0.6650580E-004  0.9118800E+02  0.7818608E-02  0.1130116E+00
         25   -1    0    0    0    0  0.00000000000E+00  0.00000000000E+00  0.99999998245E-14  0.12500000000E+03  0.12500000000E+03 0.  0.
        -11    1    3    3    0    0  0.32808573182E+02  0.14902085378E+02 -0.65022333340E+01  0.36616303219E+02  0.51100000000E-03 0.  1.
         23    2    1    0    0    0 -0.17509935039E+02 -0.14378460682E+02 -0.18127923902E+02  0.95983460205E+02  0.91492431662E+02 0.  0.
         11    1    3    3    0    0 -0.50318508221E+02 -0.29280546060E+02 -0.11625690568E+02  0.59367156986E+02  0.51100000000E-03 0. -1.
         22    1    1    0    0    0  0.17509935039E+02  0.14378460682E+02  0.18127923902E+02  0.29016539795E+02  0.00000000000E+00 0. -1.
</event>
<event>
 5    1  0.6650580E-004  0.9118800E+02  0.7818608E-02  0.1130116E+00
         25   -1    0    0    0    0  0.00000000000E+00  0.00000000000E+00  0.99999998245E-14  0.12500000000E+03  0.12500000000E+03 0.  0.
        -11    1    3    3    0    0  0.18658419503E+02 -0.41169992770E+02  0.20597809178E+02  0.49672675247E+02  0.51100000000E-03 0.  1.
         23    2    1    0    0    0 -0.17824358699E+02 -0.20195585193E+02 -0.29621879487E+01  0.97901218076E+02  0.94076057097E+02 0.  0.
         11    1    3    3    0    0 -0.36482778202E+02  0.20974407576E+02 -0.23559997127E+02  0.48228542829E+02  0.51100000000E-03 0. -1.
         22    1    1    0    0    0  0.17824358699E+02  0.20195585193E+02  0.29621879487E+01  0.27098781924E+02  0.00000000000E+00 0.  1.
</event>
<event>
 5    1  0.6650580E-004  0.9118800E+02  0.7818608E-02  0.1130116E+00
         25   -1    0    0    0    0  0.00000000000E+00  0.00000000000E+00  0.99999998245E-14  0.12500000000E+03  0.12500000000E+03 0.  0.
        -11    1    3    3    0    0  0.10204776915E+02 -0.42274070333E+02 -0.10409898161E+02  0.44716892494E+02  0.51100000000E-03 0.  1.
         23    2    1    0    0    0 -0.25554629437E+02 -0.42064707403E+01 -0.10780580463E+02  0.96947292521E+02  0.92799909107E+02 0.  0.
         11    1    3    3    0    0 -0.35759406352E+02  0.38067599592E+02 -0.37068230256E+00  0.52230400027E+02  0.51100000000E-03 0. -1.
         22    1    1    0    0    0  0.25554629437E+02  0.42064707403E+01  0.10780580463E+02  0.28052707479E+02  0.00000000000E+00 0. -1.
</event>
<event>
 5    1  0.6650580E-004  0.9118800E+02  0.7818608E-02  0.1130116E+00
         25   -1    0    0    0    0  0.00000000000E+00  0.00000000000E+00  0.99999998245E-14  0.12500000000E+03  0.12500000000E+03 0.  0.
        -11    1    3    3    0    0  0.13876679469E+02  0.58017875831E+02 -0.79824154194E+01  0.60186004231E+02  0.51100000000E-03 0.  1.
         23    2    1    0    0    0 -0.53726791039E+01  0.27478469993E+02 -0.61590940933E+01  0.96331787046E+02  0.91967096081E+02 0.  0.
         11    1    3    3    0    0 -0.19249358573E+02 -0.30539405838E+02  0.18233213261E+01  0.36145782816E+02  0.51100000000E-03 0. -1.
         22    1    1    0    0    0  0.53726791039E+01 -0.27478469993E+02  0.61590940933E+01  0.28668212954E+02  0.00000000000E+00 0.  1.
</event>
<event>
 5    1  0.6650580E-004  0.9118800E+02  0.7818608E-02  0.1130116E+00
         25   -1    0    0    0    0  0.00000000000E+00  0.00000000000E+00  0.99999998245E-14  0.12500000000E+03  0.12500000000E+03 0.  0.
        -11    1    3    3    0    0 -0.14811095320E+02 -0.56982458882E+02  0.70867525541E+01  0.59300853509E+02  0.51100000000E-03 0.  1.
         23    2    1    0    0    0 -0.90360304680E+01 -0.29943212396E+02 -0.10427819074E+02  0.92030541014E+02  0.85922262851E+02 0.  0.
         11    1    3    3    0    0  0.57750648520E+01  0.27039246486E+02 -0.17514571628E+02  0.32729687505E+02  0.51100000000E-03 0. -1.
         22    1    1    0    0    0  0.90360304680E+01  0.29943212396E+02  0.10427819074E+02  0.32969458986E+02  0.00000000000E+00 0.  1.
</event>
<event>
 5    1  0.6650580E-004  0.9118800E+02  0.7818608E-02  0.1130116E+00
         25   -1    0    0    0    0  0.00000000000E+00  0.00000000000E+00  0.99999998245E-14  0.12500000000E+03  0.12500000000E+03 0.  0.
        -11    1    3    3    0    0 -0.23390889975E+02 -0.34684030350E+02  0.35104960613E+02  0.54612031230E+02  0.51100000000E-03 0.  1.
         23    2    1    0    0    0 -0.22076295688E+02  0.33529658931E+01  0.17907924149E+02  0.96376601200E+02  0.92027986504E+02 0.  0.
         11    1    3    3    0    0  0.13145942871E+01  0.38036996244E+02 -0.17197036464E+02  0.41764569970E+02  0.51100000000E-03 0. -1.
         22    1    1    0    0    0  0.22076295688E+02 -0.33529658931E+01 -0.17907924149E+02  0.28623398800E+02  0.00000000000E+00 0.  1.
</event>
<event>
 5    1  0.6650580E-004  0.9118800E+02  0.7818608E-02  0.1130116E+00
         25   -1    0    0    0    0  0.00000000000E+00  0.00000000000E+00  0.99999998245E-14  0.12500000000E+03  0.12500000000E+03 0.  0.
        -11    1    3    3    0    0  0.37722057786E+02 -0.43488156648E+02 -0.24577110662E+00  0.57569382627E+02  0.51100000000E-03 0.  1.
         23    2    1    0    0    0  0.18901366026E+02 -0.12665826566E+02 -0.16218910371E+02  0.97058313332E+02  0.92949332074E+02 0.  0.
         11    1    3    3    0    0 -0.18820691760E+02  0.30822330083E+02 -0.15973139264E+02  0.39488930706E+02  0.51100000000E-03 0. -1.
         22    1    1    0    0    0 -0.18901366026E+02  0.12665826566E+02  0.16218910371E+02  0.27941686668E+02  0.00000000000E+00 0.  1.
</event>
<event>
 5    1  0.6650580E-004  0.9118800E+02  0.7818608E-02  0.1130116E+00
         25   -1    0    0    0    0  0.00000000000E+00  0.00000000000E+00  0.99999998245E-14  0.12500000000E+03  0.12500000000E+03 0.  0.
        -11    1    3    3    0    0 -0.60428430477E+02 -0.12213384571E+02 -0.22653493451E+01  0.61691926380E+02  0.51100000000E-03 0.  1.
         23    2    1    0    0    0 -0.26433972117E+02 -0.10177398133E+02 -0.62906688079E+01  0.95984369235E+02  0.91493673600E+02 0.  0.
         11    1    3    3    0    0  0.33994458360E+02  0.20359864378E+01 -0.40253194628E+01  0.34292442855E+02  0.51100000000E-03 0. -1.
         22    1    1    0    0    0  0.26433972117E+02  0.10177398133E+02  0.62906688079E+01  0.29015630765E+02  0.00000000000E+00 0.  1.
</event>
<event>
 5    1  0.6650580E-004  0.9118800E+02  0.7818608E-02  0.1130116E+00
         25   -1    0    0    0    0  0.00000000000E+00  0.00000000000E+00  0.99999998245E-14  0.12500000000E+03  0.12500000000E+03 0.  0.
        -11    1    3    3    0    0  0.40269911049E+02  0.39685077080E+02  0.11725425200E+02  0.57741290902E+02  0.51100000000E-03 0.  1.
         23    2    1    0    0    0  0.27318114969E+02  0.69700993769E+01 -0.44341259013E+01  0.96460147805E+02  0.92141396513E+02 0.  0.
         11    1    3    3    0    0 -0.12951796080E+02 -0.32714977703E+02 -0.16159551102E+02  0.38718856903E+02  0.51100000000E-03 0. -1.
         22    1    1    0    0    0 -0.27318114969E+02 -0.69700993769E+01  0.44341259013E+01  0.28539852195E+02  0.00000000000E+00 0.  1.
</event>
<event>
 5    1  0.6650580E-004  0.9118800E+02  0.7818608E-02  0.1130116E+00
         25   -1    0    0    0    0  0.00000000000E+00  0.00000000000E+00  0.99999998245E-14  0.12500000000E+03  0.12500000000E+03 0.  0.
        -11    1    3    3    0    0 -0.29782589893E+02  0.39322407816E+02  0.33684884707E+02  0.59732117618E+02  0.51100000000E-03 0. -1.
         23    2    1    0    0    0 -0.19587924587E+02  0.69990265340E+01  0.19548525113E+02  0.96454982990E+02  0.92134389603E+02 0.  0.
         11    1    3    3    0    0  0.10194665306E+02 -0.32323381282E+02 -0.14136359595E+02  0.36722865371E+02  0.51100000000E-03 0.  1.
         22    1    1    0    0    0  0.19587924587E+02 -0.69990265340E+01 -0.19548525113E+02  0.28545017010E+02  0.00000000000E+00 0. -1.
</event>
<event>
 5    1  0.6650580E-004  0.9118800E+02  0.7818608E-02  0.1130116E+00
         25   -1    0    0    0    0  0.00000000000E+00  0.00000000000E+00  0.99999998245E-14  0.12500000000E+03  0.12500000000E+03 0.  0.
        -11    1    3    3    0    0 -0.16866826264E+02  0.31718191152E+02  0.24192954832E+02  0.43310882488E+02  0.51100000000E-03 0.  1.
         23    2    1    0    0    0 -0.25059331357E+02 -0.15185525626E+02  0.26267063119E+01  0.95581130840E+02  0.90941094726E+02 0.  0.
         11    1    3    3    0    0 -0.81925050935E+01 -0.46903716778E+02 -0.21566248520E+02  0.52270248352E+02  0.51100000000E-03 0. -1.
         22    1    1    0    0    0  0.25059331357E+02  0.15185525626E+02 -0.26267063119E+01  0.29418869160E+02  0.00000000000E+00 0. -1.
</event>
<event>
 5    1  0.6650580E-004  0.9118800E+02  0.7818608E-02  0.1130116E+00
         25   -1    0    0    0    0  0.00000000000E+00  0.00000000000E+00  0.99999998245E-14  0.12500000000E+03  0.12500000000E+03 0.  0.
        -11    1    3    3    0    0  0.14874981318E+02  0.25819814216E+02 -0.12391148329E+02  0.32271790042E+02  0.51100000000E-03 0. -1.
         23    2    1    0    0    0 -0.20982051444E+02 -0.13342522602E+02  0.18776810496E+02  0.93841726547E+02  0.88517973523E+02 0.  0.
         11    1    3    3    0    0 -0.35857032762E+02 -0.39162336818E+02  0.31167958826E+02  0.61569936504E+02  0.51100000000E-03 0.  1.
         22    1    1    0    0    0  0.20982051444E+02  0.13342522602E+02 -0.18776810496E+02  0.31158273453E+02  0.00000000000E+00 0.  1.
</event>
<event>
 5    1  0.6650580E-004  0.9118800E+02  0.7818608E-02  0.1130116E+00
         25   -1    0    0    0    0  0.00000000000E+00  0.00000000000E+00  0.99999998245E-14  0.12500000000E+03  0.12500000000E+03 0.  0.
        -11    1    3    3    0    0 -0.33433949299E+02  0.39525825060E+01  0.52565179331E+02  0.62422351386E+02  0.51100000000E-03 0.  1.
         23    2    1    0    0    0 -0.15733562193E+02  0.95922084880E+00  0.20899147712E+02  0.98822921114E+02  0.95292865832E+02 0.  0.
         11    1    3    3    0    0  0.17700387106E+02 -0.29933616572E+01 -0.31666031619E+02  0.36400569728E+02  0.51100000000E-03 0. -1.
         22    1    1    0    0    0  0.15733562193E+02 -0.95922084880E+00 -0.20899147712E+02  0.26177078886E+02  0.00000000000E+00 0.  1.
</event>
<event>
 5    1  0.6650580E-004  0.9118800E+02  0.7818608E-02  0.1130116E+00
         25   -1    0    0    0    0  0.00000000000E+00  0.00000000000E+00  0.99999998245E-14  0.12500000000E+03  0.12500000000E+03 0.  0.
        -11    1    3    3    0    0  0.12593989394E+02 -0.32044695182E+02 -0.45100794172E+02  0.56741102328E+02  0.51100000000E-03 0.  1.
         23    2    1    0    0    0  0.12572622414E+01 -0.28249300646E+02 -0.81590514428E+01  0.95569168959E+02  0.90924651442E+02 0.  0.
         11    1    3    3    0    0 -0.11336727152E+02  0.37953945367E+01  0.36941742729E+02  0.38828066631E+02  0.51100000000E-03 0. -1.
         22    1    1    0    0    0 -0.12572622414E+01  0.28249300646E+02  0.81590514428E+01  0.29430831041E+02  0.00000000000E+00 0.  1.
</event>
<event>
 5    1  0.6650580E-004  0.9118800E+02  0.7818608E-02  0.1130116E+00
         25   -1    0    0    0    0  0.00000000000E+00  0.00000000000E+00  0.99999998245E-14  0.12500000000E+03  0.12500000000E+03 0.  0.
        -11    1    3    3    0    0 -0.29396743712E+02 -0.11855174024E+02  0.15891479606E+02  0.35457761017E+02  0.51100000000E-03 0.  1.
         23    2    1    0    0    0  0.90981730404E+01  0.22559693128E+02 -0.15753780610E+02  0.96019004327E+02  0.91540980341E+02 0.  0.
         11    1    3    3    0    0  0.38494916753E+02  0.34414867152E+02 -0.31645260216E+02  0.60561243310E+02  0.51100000000E-03 0. -1.
         22    1    1    0    0    0 -0.90981730404E+01 -0.22559693128E+02  0.15753780610E+02  0.28980995673E+02  0.00000000000E+00 0. -1.
</event>
<event>
 5    1  0.6650580E-004  0.9118800E+02  0.7818608E-02  0.1130116E+00
         25   -1    0    0    0    0  0.00000000000E+00  0.00000000000E+00  0.99999998245E-14  0.12500000000E+03  0.12500000000E+03 0.  0.
        -11    1    3    3    0    0 -0.28554223666E+01  0.17694293970E+02 -0.42946692246E+02  0.46536650622E+02  0.51100000000E-03 0. -1.
         23    2    1    0    0    0 -0.16898045764E+02 -0.19413493133E+02 -0.13572370884E+02  0.95902974075E+02  0.91382402676E+02 0.  0.
         11    1    3    3    0    0 -0.14042623398E+02 -0.37107787102E+02  0.29374321362E+02  0.49366323453E+02  0.51100000000E-03 0.  1.
         22    1    1    0    0    0  0.16898045764E+02  0.19413493133E+02  0.13572370884E+02  0.29097025925E+02  0.00000000000E+00 0.  1.
</event>
<event>
 5    1  0.6650580E-004  0.9118800E+02  0.7818608E-02  0.1130116E+00
         25   -1    0    0    0    0  0.00000000000E+00  0.00000000000E+00  0.99999998245E-14  0.12500000000E+03  0.12500000000E+03 0.  0.
        -11    1    3    3    0    0 -0.14531725308E+02  0.21158057839E+02 -0.25624772974E+02  0.36269318193E+02  0.51100000000E-03 0.  1.
         23    2    1    0    0    0  0.14661067890E+02 -0.20319154890E+02  0.97566134640E+01  0.98111220307E+02  0.94354677026E+02 0.  0.
         11    1    3    3    0    0  0.29192793198E+02 -0.41477212729E+02  0.35381386438E+02  0.61841902113E+02  0.51100000000E-03 0. -1.
         22    1    1    0    0    0 -0.14661067890E+02  0.20319154890E+02 -0.97566134640E+01  0.26888779693E+02  0.00000000000E+00 0. -1.
</event>
<event>
 5    1  0.6650580E-004  0.9118800E+02  0.7818608E-02  0.1130116E+00
         25   -1    0    0    0    0  0.00000000000E+00  0.00000000000E+00  0.99999998245E-14  0.12500000000E+03  0.12500000000E+03 0.  0.
        -11    1    3    3    0    0  0.54070787265E+02  0.10562477353E+02  0.11997300232E+01  0.55105855548E+02  0.51100000000E-03 0. -1.
         23    2    1    0    0    0  0.26165211309E+02 -0.14907662676E+02  0.87626090978E+01  0.93636964313E+02  0.88228346229E+02 0.  0.
         11    1    3    3    0    0 -0.27905575957E+02 -0.25470140028E+02  0.75628790746E+01  0.38531108765E+02  0.51100000000E-03 0.  1.
         22    1    1    0    0    0 -0.26165211309E+02  0.14907662676E+02 -0.87626090978E+01  0.31363035687E+02  0.00000000000E+00 0. -1.
</event>
<event>
 5    1  0.6650580E-004  0.9118800E+02  0.7818608E-02  0.1130116E+00
         25   -1    0    0    0    0  0.00000000000E+00  0.00000000000E+00  0.99999998245E-14  0.12500000000E+03  0.12500000000E+03 0.  0.
        -11    1    3    3    0    0  0.42189623748E+01  0.44841809755E+02 -0.21707143268E+02  0.49997876102E+02  0.51100000000E-03 0. -1.
         23    2    1    0    0    0  0.25988981356E+02  0.78184632809E+01 -0.16440658864E+02  0.93269087881E+02  0.87705598283E+02 0.  0.
         11    1    3    3    0    0  0.21770018982E+02 -0.37023346474E+02  0.52664844036E+01  0.43271211779E+02  0.51100000000E-03 0.  1.
         22    1    1    0    0    0 -0.25988981356E+02 -0.78184632809E+01  0.16440658864E+02  0.31730912119E+02  0.00000000000E+00 0.  1.
</event>
<event>
 5    1  0.6650580E-004  0.9118800E+02  0.7818608E-02  0.1130116E+00
         25   -1    0    0    0    0  0.00000000000E+00  0.00000000000E+00  0.99999998245E-14  0.12500000000E+03  0.12500000000E+03 0.  0.
        -11    1    3    3    0    0 -0.17988846068E+02  0.29163348373E+02  0.40130859458E+02  0.52769170472E+02  0.51100000000E-03 0. -1.
         23    2    1    0    0    0 -0.12182740824E+02 -0.10935385207E+02  0.23023495334E+02  0.96749634321E+02  0.92533283635E+02 0.  0.
         11    1    3    3    0    0  0.58061052447E+01 -0.40098733580E+02 -0.17107364125E+02  0.43980463849E+02  0.51100000000E-03 0.  1.
         22    1    1    0    0    0  0.12182740824E+02  0.10935385207E+02 -0.23023495334E+02  0.28250365679E+02  0.00000000000E+00 0. -1.
</event>
<event>
 5    1  0.6650580E-004  0.9118800E+02  0.7818608E-02  0.1130116E+00
         25   -1    0    0    0    0  0.00000000000E+00  0.00000000000E+00  0.99999998245E-14  0.12500000000E+03  0.12500000000E+03 0.  0.
        -11    1    3    3    0    0  0.17576588195E+02 -0.34213649145E+02  0.11781957245E+02  0.40228407341E+02  0.51100000000E-03 0. -1.
         23    2    1    0    0    0 -0.38439021043E+01  0.14513687748E+01 -0.27349718808E+02  0.97343370169E+02  0.93331894561E+02 0.  0.
         11    1    3    3    0    0 -0.21420490299E+02  0.35665017920E+02 -0.39131676053E+02  0.57114962828E+02  0.51100000000E-03 0.  1.
         22    1    1    0    0    0  0.38439021043E+01 -0.14513687748E+01  0.27349718808E+02  0.27656629831E+02  0.00000000000E+00 0. -1.
</event>
<event>
 5    1  0.6650580E-004  0.9118800E+02  0.7818608E-02  0.1130116E+00
         25   -1    0    0    0    0  0.00000000000E+00  0.00000000000E+00  0.99999998245E-14  0.12500000000E+03  0.12500000000E+03 0.  0.
        -11    1    3    3    0    0 -0.28219344775E+02 -0.43457014150E+01  0.18078894781E+02  0.33794422278E+02  0.51100000000E-03 0.  1.
         23    2    1    0    0    0  0.23997133905E+02  0.71625309267E+01 -0.14159589661E+02  0.96230949541E+02  0.91829937304E+02 0.  0.
         11    1    3    3    0    0  0.52216478680E+02  0.11508232342E+02 -0.32238484442E+02  0.62436527264E+02  0.51100000000E-03 0. -1.
         22    1    1    0    0    0 -0.23997133905E+02 -0.71625309267E+01  0.14159589661E+02  0.28769050459E+02  0.00000000000E+00 0. -1.
</event>
<event>
 5    1  0.6650580E-004  0.9118800E+02  0.7818608E-02  0.1130116E+00
         25   -1    0    0    0    0  0.00000000000E+00  0.00000000000E+00  0.99999998245E-14  0.12500000000E+03  0.12500000000E+03 0.  0.
        -11    1    3    3    0    0  0.39120943688E+01  0.18557615314E+02  0.10092316693E+02  0.21483585012E+02  0.51100000000E-03 0.  1.
         23    2    1    0    0    0 -0.36943026263E+01  0.33408254059E+01 -0.45298768838E+02  0.79428216575E+02  0.65054240013E+02 0.  0.
         11    1    3    3    0    0 -0.76063969951E+01 -0.15216789908E+02 -0.55391085531E+02  0.57944631563E+02  0.51100000000E-03 0. -1.
         22    1    1    0    0    0  0.36943026263E+01 -0.33408254059E+01  0.45298768838E+02  0.45571783425E+02  0.00000000000E+00 0. -1.
</event>
<event>
 5    1  0.6650580E-004  0.9118800E+02  0.7818608E-02  0.1130116E+00
         25   -1    0    0    0    0  0.00000000000E+00  0.00000000000E+00  0.99999998245E-14  0.12500000000E+03  0.12500000000E+03 0.  0.
        -11    1    3    3    0    0  0.34361887852E+02 -0.67980761235E+01  0.36408011526E+02  0.50522237473E+02  0.51100000000E-03 0.  1.
         23    2    1    0    0    0  0.24698474261E+02 -0.16449324834E+02 -0.56938174540E+01  0.94783870607E+02  0.89838564390E+02 0.  0.
         11    1    3    3    0    0 -0.96634135906E+01 -0.96512487101E+01 -0.42101828980E+02  0.44261633133E+02  0.51100000000E-03 0. -1.
         22    1    1    0    0    0 -0.24698474261E+02  0.16449324834E+02  0.56938174540E+01  0.30216129393E+02  0.00000000000E+00 0.  1.
</event>
<event>
 5    1  0.6650580E-004  0.9118800E+02  0.7818608E-02  0.1130116E+00
         25   -1    0    0    0    0  0.00000000000E+00  0.00000000000E+00  0.99999998245E-14  0.12500000000E+03  0.12500000000E+03 0.  0.
        -11    1    3    3    0    0 -0.77032159438E+00  0.48649547665E+02  0.32100212107E+02  0.58290612460E+02  0.51100000000E-03 0. -1.
         23    2    1    0    0    0 -0.74807849284E+01  0.28394584638E+02  0.14966749096E+01  0.95598390934E+02  0.90964815910E+02 0.  0.
         11    1    3    3    0    0 -0.67104633341E+01 -0.20254963028E+02 -0.30603537197E+02  0.37307778474E+02  0.51100000000E-03 0.  1.
         22    1    1    0    0    0  0.74807849284E+01 -0.28394584638E+02 -0.14966749096E+01  0.29401609066E+02  0.00000000000E+00 0. -1.
</event>
<event>
 5    1  0.6650580E-004  0.9118800E+02  0.7818608E-02  0.1130116E+00
         25   -1    0    0    0    0  0.00000000000E+00  0.00000000000E+00  0.99999998245E-14  0.12500000000E+03  0.12500000000E+03 0.  0.
        -11    1    3    3    0    0  0.15184921391E+02 -0.33291296583E+02 -0.11874527238E+02  0.38469425044E+02  0.51100000000E-03 0. -1.
         23    2    1    0    0    0 -0.82558667203E+01  0.96631514137E+00  0.27856939668E+02  0.95929358660E+02  0.91418486451E+02 0.  0.
         11    1    3    3    0    0 -0.23440788111E+02  0.34257611725E+02  0.39731466906E+02  0.57459933616E+02  0.51100000000E-03 0.  1.
         22    1    1    0    0    0  0.82558667203E+01 -0.96631514137E+00 -0.27856939668E+02  0.29070641340E+02  0.00000000000E+00 0.  1.
</event>
<event>
 5    1  0.6650580E-004  0.9118800E+02  0.7818608E-02  0.1130116E+00
         25   -1    0    0    0    0  0.00000000000E+00  0.00000000000E+00  0.99999998245E-14  0.12500000000E+03  0.12500000000E+03 0.  0.
        -11    1    3    3    0    0 -0.27013029560E+02  0.16213170988E+02 -0.18753937836E+02  0.36664435958E+02  0.51100000000E-03 0. -1.
         23    2    1    0    0    0  0.18377562198E+02 -0.13597511462E+02 -0.24759978793E+02  0.91300094063E+02  0.84852952311E+02 0.  0.
         11    1    3    3    0    0  0.45390591759E+02 -0.29810682450E+02 -0.60060409569E+01  0.54635658105E+02  0.51100000000E-03 0.  1.
         22    1    1    0    0    0 -0.18377562198E+02  0.13597511462E+02  0.24759978793E+02  0.33699905937E+02  0.00000000000E+00 0.  1.
</event>
<event>
 5    1  0.6650580E-004  0.9118800E+02  0.7818608E-02  0.1130116E+00
         25   -1    0    0    0    0  0.00000000000E+00  0.00000000000E+00  0.99999998245E-14  0.12500000000E+03  0.12500000000E+03 0.  0.
        -11    1    3    3    0    0  0.20323046894E+02  0.33226276901E+01  0.28325345332E+02  0.35019869763E+02  0.51100000000E-03 0. -1.
         23    2    1    0    0    0 -0.26197717815E+02 -0.22729602240E+01 -0.11294128461E+02  0.96381053398E+02  0.92034033648E+02 0.  0.
         11    1    3    3    0    0 -0.46520764709E+02 -0.55955879141E+01 -0.39619473793E+02  0.61361183635E+02  0.51100000000E-03 0.  1.
         22    1    1    0    0    0  0.26197717815E+02  0.22729602240E+01  0.11294128461E+02  0.28618946602E+02  0.00000000000E+00 0.  1.
</event>
<event>
 5    1  0.6650580E-004  0.9118800E+02  0.7818608E-02  0.1130116E+00
         25   -1    0    0    0    0  0.00000000000E+00  0.00000000000E+00  0.99999998245E-14  0.12500000000E+03  0.12500000000E+03 0.  0.
        -11    1    3    3    0    0  0.24626279498E+02 -0.60422025024E+01 -0.23375833900E+02  0.34487555202E+02  0.51100000000E-03 0.  1.
         23    2    1    0    0    0 -0.26152463260E+02 -0.16580980385E+01  0.11641670869E+02  0.96325462092E+02  0.91958498916E+02 0.  0.
         11    1    3    3    0    0 -0.50778742758E+02  0.43841044639E+01  0.35017504769E+02  0.61837906890E+02  0.51100000000E-03 0. -1.
         22    1    1    0    0    0  0.26152463260E+02  0.16580980385E+01 -0.11641670869E+02  0.28674537908E+02  0.00000000000E+00 0. -1.
</event>
<event>
 5    1  0.6650580E-004  0.9118800E+02  0.7818608E-02  0.1130116E+00
         25   -1    0    0    0    0  0.00000000000E+00  0.00000000000E+00  0.99999998245E-14  0.12500000000E+03  0.12500000000E+03 0.  0.
        -11    1    3    3    0    0 -0.49188596566E+02  0.15449706022E+02 -0.25514562755E+02  0.57525684361E+02  0.51100000000E-03 0. -1.
         23    2    1    0    0    0 -0.12108290788E+02  0.20607359969E+02 -0.16267144257E+02  0.96088168979E+02  0.91635376601E+02 0.  0.
         11    1    3    3    0    0  0.37080305778E+02  0.51576539473E+01  0.92474184985E+01  0.38562484619E+02  0.51100000000E-03 0.  1.
         22    1    1    0    0    0  0.12108290788E+02 -0.20607359969E+02  0.16267144257E+02  0.28911831021E+02  0.00000000000E+00 0. -1.
</event>
<event>
 4    1  0.6650580E-004  0.9118800E+02  0.7818608E-02  0.1130116E+00
         25   -1    0    0    0    0  0.00000000000E+00  0.00000000000E+00  0.99999998245E-14  0.12500000000E+03  0.12500000000E+03 0.  0.
        -11    1    1    0    0    0 -0.89576680470E+01 -0.35977260863E+02 -0.47784563542E+02  0.60481134490E+02  0.51100000000E-03 0.  1.
         11    1    1    0    0    0  0.72259361587E+01  0.47414921863E+01  0.16829126376E+01  0.88050040732E+01  0.51100000000E-03 0. -1.
         22    1    1    0    0    0  0.17317318882E+01  0.31235768676E+02  0.46101650904E+02  0.55713861437E+02  0.00000000000E+00 0.  1.
</event>
<event>
 5    1  0.6650580E-004  0.9118800E+02  0.7818608E-02  0.1130116E+00
         25   -1    0    0    0    0  0.00000000000E+00  0.00000000000E+00  0.99999998245E-14  0.12500000000E+03  0.12500000000E+03 0.  0.
        -11    1    3    3    0    0 -0.50193001825E+02  0.30194676390E+00  0.31701621176E+02  0.59366837456E+02  0.51100000000E-03 0.  1.
         23    2    1    0    0    0 -0.13600252584E+02 -0.72691935613E+00  0.24925920622E+02  0.96595831275E+02  0.92325282663E+02 0.  0.
         11    1    3    3    0    0  0.36592749241E+02 -0.10288661200E+01 -0.67757005536E+01  0.37228993819E+02  0.51100000000E-03 0. -1.
         22    1    1    0    0    0  0.13600252584E+02  0.72691935613E+00 -0.24925920622E+02  0.28404168725E+02  0.00000000000E+00 0.  1.
</event>
<event>
 5    1  0.6650580E-004  0.9118800E+02  0.7818608E-02  0.1130116E+00
         25   -1    0    0    0    0  0.00000000000E+00  0.00000000000E+00  0.99999998245E-14  0.12500000000E+03  0.12500000000E+03 0.  0.
        -11    1    3    3    0    0  0.15716772841E+01 -0.11341050599E+01 -0.33584168702E+02  0.33640046840E+02  0.51100000000E-03 0.  1.
         23    2    1    0    0    0  0.71150347202E+01  0.78729577213E+01  0.27442951754E+02  0.95576832541E+02  0.90935186453E+02 0.  0.
         11    1    3    3    0    0  0.55433574361E+01  0.90070627812E+01  0.61027120455E+02  0.61936785701E+02  0.51100000000E-03 0. -1.
         22    1    1    0    0    0 -0.71150347202E+01 -0.78729577213E+01 -0.27442951754E+02  0.29423167459E+02  0.00000000000E+00 0. -1.
</event>
<event>
 5    1  0.6650580E-004  0.9118800E+02  0.7818608E-02  0.1130116E+00
         25   -1    0    0    0    0  0.00000000000E+00  0.00000000000E+00  0.99999998245E-14  0.12500000000E+03  0.12500000000E+03 0.  0.
        -11    1    3    3    0    0  0.32789830837E+02 -0.14305159930E+02 -0.32807490558E+02  0.48540107581E+02  0.51100000000E-03 0.  1.
         23    2    1    0    0    0 -0.12220348785E+02 -0.18086449258E+02 -0.19762662188E+02  0.95554807049E+02  0.90904905050E+02 0.  0.
         11    1    3    3    0    0 -0.45010179622E+02 -0.37812893278E+01  0.13044828370E+02  0.47014699468E+02  0.51100000000E-03 0. -1.
         22    1    1    0    0    0  0.12220348785E+02  0.18086449258E+02  0.19762662188E+02  0.29445192951E+02  0.00000000000E+00 0.  1.
</event>
<event>
 5    1  0.6650580E-004  0.9118800E+02  0.7818608E-02  0.1130116E+00
         25   -1    0    0    0    0  0.00000000000E+00  0.00000000000E+00  0.99999998245E-14  0.12500000000E+03  0.12500000000E+03 0.  0.
        -11    1    3    3    0    0  0.23317817661E+02  0.23235301719E+01  0.26574535726E+02  0.35430571012E+02  0.51100000000E-03 0. -1.
         23    2    1    0    0    0 -0.18119849488E+02  0.18180517317E+02 -0.14179872188E+02  0.95675455150E+02  0.91070652723E+02 0.  0.
         11    1    3    3    0    0 -0.41437667149E+02  0.15856987145E+02 -0.40754407915E+02  0.60244884138E+02  0.51100000000E-03 0.  1.
         22    1    1    0    0    0  0.18119849488E+02 -0.18180517317E+02  0.14179872188E+02  0.29324544850E+02  0.00000000000E+00 0.  1.
</event>
<event>
 5    1  0.6650580E-004  0.9118800E+02  0.7818608E-02  0.1130116E+00
         25   -1    0    0    0    0  0.00000000000E+00  0.00000000000E+00  0.99999998245E-14  0.12500000000E+03  0.12500000000E+03 0.  0.
        -11    1    3    3    0    0 -0.13482042375E+02  0.34125991170E+02  0.45067003354E+02  0.58115260746E+02  0.51100000000E-03 0.  1.
         23    2    1    0    0    0  0.95848220461E+01  0.20248156567E+02  0.18359858564E+02  0.96035520642E+02  0.91563530734E+02 0.  0.
         11    1    3    3    0    0  0.23066864421E+02 -0.13877834603E+02 -0.26707144790E+02  0.37920259896E+02  0.51100000000E-03 0. -1.
         22    1    1    0    0    0 -0.95848220461E+01 -0.20248156567E+02 -0.18359858564E+02  0.28964479358E+02  0.00000000000E+00 0.  1.
</event>
<event>
 5    1  0.6650580E-004  0.9118800E+02  0.7818608E-02  0.1130116E+00
         25   -1    0    0    0    0  0.00000000000E+00  0.00000000000E+00  0.99999998245E-14  0.12500000000E+03  0.12500000000E+03 0.  0.
        -11    1    3    3    0    0  0.26568387180E+02  0.25484181115E+02 -0.19561750362E+02  0.41689144414E+02  0.51100000000E-03 0. -1.
         23    2    1    0    0    0  0.10485143060E+02 -0.81308955055E+01  0.23116231628E+02  0.98346485197E+02  0.94665840191E+02 0.  0.
         11    1    3    3    0    0 -0.16083244121E+02 -0.33615076620E+02  0.42677981990E+02  0.56657340783E+02  0.51100000000E-03 0.  1.
         22    1    1    0    0    0 -0.10485143060E+02  0.81308955055E+01 -0.23116231628E+02  0.26653514803E+02  0.00000000000E+00 0.  1.
</event>
<event>
 5    1  0.6650580E-004  0.9118800E+02  0.7818608E-02  0.1130116E+00
         25   -1    0    0    0    0  0.00000000000E+00  0.00000000000E+00  0.99999998245E-14  0.12500000000E+03  0.12500000000E+03 0.  0.
        -11    1    3    3    0    0  0.65975972974E+01  0.40027167840E+02  0.20402208670E+02  0.45408727952E+02  0.51100000000E-03 0.  1.
         23    2    1    0    0    0 -0.28197680504E+02  0.78305039328E+01  0.46203206108E+01  0.95372760165E+02  0.90654233444E+02 0.  0.
         11    1    3    3    0    0 -0.34795277802E+02 -0.32196663907E+02 -0.15781888059E+02  0.49964032213E+02  0.51100000000E-03 0. -1.
         22    1    1    0    0    0  0.28197680504E+02 -0.78305039328E+01 -0.46203206108E+01  0.29627239835E+02  0.00000000000E+00 0. -1.
</event>
<event>
 5    1  0.6650580E-004  0.9118800E+02  0.7818608E-02  0.1130116E+00
         25   -1    0    0    0    0  0.00000000000E+00  0.00000000000E+00  0.99999998245E-14  0.12500000000E+03  0.12500000000E+03 0.  0.
        -11    1    3    3    0    0 -0.57849399705E+02 -0.13515647608E+02  0.58517371507E+01  0.59694795455E+02  0.51100000000E-03 0.  1.
         23    2    1    0    0    0 -0.27958761854E+02  0.68885106764E+01  0.12384761294E+01  0.96178519003E+02  0.91758540478E+02 0.  0.
         11    1    3    3    0    0  0.29890637850E+02  0.20404158284E+02 -0.46132610213E+01  0.36483723548E+02  0.51100000000E-03 0. -1.
         22    1    1    0    0    0  0.27958761854E+02 -0.68885106764E+01 -0.12384761294E+01  0.28821480997E+02  0.00000000000E+00 0.  1.
</event>
<event>
 5    1  0.6650580E-004  0.9118800E+02  0.7818608E-02  0.1130116E+00
         25   -1    0    0    0    0  0.00000000000E+00  0.00000000000E+00  0.99999998245E-14  0.12500000000E+03  0.12500000000E+03 0.  0.
        -11    1    3    3    0    0 -0.15886657900E+02  0.73598780115E+01  0.29314826323E+02  0.34145464504E+02  0.51100000000E-03 0. -1.
         23    2    1    0    0    0  0.15107158973E+02 -0.23678027408E+01 -0.23979549154E+02  0.96559684958E+02  0.92276330874E+02 0.  0.
         11    1    3    3    0    0  0.30993816872E+02 -0.97276807523E+01 -0.53294375477E+02  0.62414220454E+02  0.51100000000E-03 0.  1.
         22    1    1    0    0    0 -0.15107158973E+02  0.23678027408E+01  0.23979549154E+02  0.28440315042E+02  0.00000000000E+00 0.  1.
</event>
<event>
 5    1  0.6650580E-004  0.9118800E+02  0.7818608E-02  0.1130116E+00
         25   -1    0    0    0    0  0.00000000000E+00  0.00000000000E+00  0.99999998245E-14  0.12500000000E+03  0.12500000000E+03 0.  0.
        -11    1    3    3    0    0  0.39353109736E+02  0.18401060164E+02  0.10814730257E+02  0.44768567677E+02  0.51100000000E-03 0.  1.
         23    2    1    0    0    0 -0.11830080961E+02  0.23027114887E+02 -0.51936788999E+01  0.98595963640E+02  0.94994688852E+02 0.  0.
         11    1    3    3    0    0 -0.51183190697E+02  0.46260547233E+01 -0.16008409157E+02  0.53827395963E+02  0.51100000000E-03 0. -1.
         22    1    1    0    0    0  0.11830080961E+02 -0.23027114887E+02  0.51936788999E+01  0.26404036360E+02  0.00000000000E+00 0. -1.
</event>
<event>
 5    1  0.6650580E-004  0.9118800E+02  0.7818608E-02  0.1130116E+00
         25   -1    0    0    0    0  0.00000000000E+00  0.00000000000E+00  0.99999998245E-14  0.12500000000E+03  0.12500000000E+03 0.  0.
        -11    1    3    3    0    0 -0.25870511440E+02  0.22100428709E+02  0.11789042857E+02  0.36009635419E+02  0.51100000000E-03 0. -1.
         23    2    1    0    0    0  0.57396996780E+01 -0.28017155944E+02  0.12275226720E+00  0.96400694979E+02  0.92060706844E+02 0.  0.
         11    1    3    3    0    0  0.31610211118E+02 -0.50117584653E+02 -0.11666290590E+02  0.60391059560E+02  0.51100000000E-03 0.  1.
         22    1    1    0    0    0 -0.57396996780E+01  0.28017155944E+02 -0.12275226720E+00  0.28599305021E+02  0.00000000000E+00 0.  1.
</event>
<event>
 5    1  0.6650580E-004  0.9118800E+02  0.7818608E-02  0.1130116E+00
         25   -1    0    0    0    0  0.00000000000E+00  0.00000000000E+00  0.99999998245E-14  0.12500000000E+03  0.12500000000E+03 0.  0.
        -11    1    3    3    0    0  0.11142224430E+01  0.10367230066E+02 -0.58996109066E+02  0.59910448472E+02  0.51100000000E-03 0.  1.
         23    2    1    0    0    0 -0.23918351635E+01  0.16621861246E+02 -0.23542273002E+02  0.96082085746E+02  0.91627078074E+02 0.  0.
         11    1    3    3    0    0 -0.35060576065E+01  0.62546311799E+01  0.35453836064E+02  0.36171637274E+02  0.51100000000E-03 0. -1.
         22    1    1    0    0    0  0.23918351635E+01 -0.16621861246E+02  0.23542273002E+02  0.28917914254E+02  0.00000000000E+00 0.  1.
</event>
<event>
 5    1  0.6650580E-004  0.9118800E+02  0.7818608E-02  0.1130116E+00
         25   -1    0    0    0    0  0.00000000000E+00  0.00000000000E+00  0.99999998245E-14  0.12500000000E+03  0.12500000000E+03 0.  0.
        -11    1    3    3    0    0  0.35160091212E+02  0.15888180017E+02  0.31054463948E+01  0.38708010487E+02  0.51100000000E-03 0. -1.
         23    2    1    0    0    0 -0.13522584173E+02 -0.52709953789E-01 -0.24586597235E+02  0.96939995997E+02  0.92790080284E+02 0.  0.
         11    1    3    3    0    0 -0.48682675385E+02 -0.15940889971E+02 -0.27692043630E+02  0.58231985510E+02  0.51100000000E-03 0.  1.
         22    1    1    0    0    0  0.13522584173E+02  0.52709953789E-01  0.24586597235E+02  0.28060004003E+02  0.00000000000E+00 0.  1.
</event>
<event>
 5    1  0.6650580E-004  0.9118800E+02  0.7818608E-02  0.1130116E+00
         25   -1    0    0    0    0  0.00000000000E+00  0.00000000000E+00  0.99999998245E-14  0.12500000000E+03  0.12500000000E+03 0.  0.
        -11    1    3    3    0    0  0.40739329723E+02 -0.11790786757E+02 -0.79982493253E+01  0.43158865036E+02  0.51100000000E-03 0.  1.
         23    2    1    0    0    0 -0.96498772861E+01 -0.15111985794E+02 -0.22998317663E+02  0.95838126576E+02  0.91293656100E+02 0.  0.
         11    1    3    3    0    0 -0.50389207009E+02 -0.33211990375E+01 -0.15000068337E+02  0.52679261541E+02  0.51100000000E-03 0. -1.
         22    1    1    0    0    0  0.96498772861E+01  0.15111985794E+02  0.22998317663E+02  0.29161873424E+02  0.00000000000E+00 0. -1.
</event>
<event>
 5    1  0.6650580E-004  0.9118800E+02  0.7818608E-02  0.1130116E+00
         25   -1    0    0    0    0  0.00000000000E+00  0.00000000000E+00  0.99999998245E-14  0.12500000000E+03  0.12500000000E+03 0.  0.
        -11    1    3    3    0    0  0.19250214887E+02  0.45185469535E+02 -0.23851688009E+02  0.54600370433E+02  0.51100000000E-03 0. -1.
         23    2    1    0    0    0  0.27013145488E+02  0.88813462926E+01 -0.54064563176E+01  0.96054912143E+02  0.91589999649E+02 0.  0.
         11    1    3    3    0    0  0.77629306012E+01 -0.36304123243E+02  0.18445231691E+02  0.41454541709E+02  0.51100000000E-03 0.  1.
         22    1    1    0    0    0 -0.27013145488E+02 -0.88813462926E+01  0.54064563176E+01  0.28945087857E+02  0.00000000000E+00 0. -1.
</event>
<event>
 5    1  0.6650580E-004  0.9118800E+02  0.7818608E-02  0.1130116E+00
         25   -1    0    0    0    0  0.00000000000E+00  0.00000000000E+00  0.99999998245E-14  0.12500000000E+03  0.12500000000E+03 0.  0.
        -11    1    3    3    0    0 -0.41848481173E+02  0.13239977575E+02 -0.37282470571E+02  0.57589712578E+02  0.51100000000E-03 0. -1.
         23    2    1    0    0    0 -0.23861968002E+02 -0.10695182377E+02 -0.15674079487E+02  0.94512999315E+02  0.89460884351E+02 0.  0.
         11    1    3    3    0    0  0.17986513171E+02 -0.23935159952E+02  0.21608391084E+02  0.36923286737E+02  0.51100000000E-03 0.  1.
         22    1    1    0    0    0  0.23861968002E+02  0.10695182377E+02  0.15674079487E+02  0.30487000685E+02  0.00000000000E+00 0. -1.
</event>
<event>
 5    1  0.6650580E-004  0.9118800E+02  0.7818608E-02  0.1130116E+00
         25   -1    0    0    0    0  0.00000000000E+00  0.00000000000E+00  0.99999998245E-14  0.12500000000E+03  0.12500000000E+03 0.  0.
        -11    1    3    3    0    0 -0.35726310217E+02  0.18356364486E+02  0.38905705438E+02  0.55919399807E+02  0.51100000000E-03 0.  1.
         23    2    1    0    0    0 -0.18107627564E+02 -0.12128102143E+02  0.16657776533E+02  0.97569021953E+02  0.93633623706E+02 0.  0.
         11    1    3    3    0    0  0.17618682652E+02 -0.30484466629E+02 -0.22247928906E+02  0.41649622146E+02  0.51100000000E-03 0. -1.
         22    1    1    0    0    0  0.18107627564E+02  0.12128102143E+02 -0.16657776533E+02  0.27430978047E+02  0.00000000000E+00 0.  1.
</event>
<event>
 5    1  0.6650580E-004  0.9118800E+02  0.7818608E-02  0.1130116E+00
         25   -1    0    0    0    0  0.00000000000E+00  0.00000000000E+00  0.99999998245E-14  0.12500000000E+03  0.12500000000E+03 0.  0.
        -11    1    3    3    0    0 -0.79672445936E+00 -0.55449750647E+02 -0.27695550227E+02  0.61986717282E+02  0.51100000000E-03 0. -1.
         23    2    1    0    0    0  0.13557427968E+01 -0.22599041083E+02 -0.17289955455E+02  0.96513209096E+02  0.92213351929E+02 0.  0.
         11    1    3    3    0    0  0.21524672561E+01  0.32850709564E+02  0.10405594772E+02  0.34526491814E+02  0.51100000000E-03 0.  1.
         22    1    1    0    0    0 -0.13557427968E+01  0.22599041083E+02  0.17289955455E+02  0.28486790904E+02  0.00000000000E+00 0. -1.
</event>
<event>
 5    1  0.6650580E-004  0.9118800E+02  0.7818608E-02  0.1130116E+00
         25   -1    0    0    0    0  0.00000000000E+00  0.00000000000E+00  0.99999998245E-14  0.12500000000E+03  0.12500000000E+03 0.  0.
        -11    1    3    3    0    0 -0.56043330938E+02 -0.18279681868E+02  0.50147493220E+01  0.59162060671E+02  0.51100000000E-03 0.  1.
         23    2    1    0    0    0 -0.21571881133E+02 -0.15509511828E+02 -0.96605248768E+01  0.96729578113E+02  0.92506186433E+02 0.  0.
         11    1    3    3    0    0  0.34471449805E+02  0.27701700399E+01 -0.14675274199E+02  0.37567517442E+02  0.51100000000E-03 0. -1.
         22    1    1    0    0    0  0.21571881133E+02  0.15509511828E+02  0.96605248768E+01  0.28270421887E+02  0.00000000000E+00 0.  1.
</event>
<event>
 5    1  0.6650580E-004  0.9118800E+02  0.7818608E-02  0.1130116E+00
         25   -1    0    0    0    0  0.00000000000E+00  0.00000000000E+00  0.99999998245E-14  0.12500000000E+03  0.12500000000E+03 0.  0.
        -11    1    3    3    0    0  0.27714885349E+02  0.26719556412E+02 -0.34568082369E+02  0.51739751485E+02  0.51100000000E-03 0. -1.
         23    2    1    0    0    0 -0.85137723096E+01  0.67034357425E+00 -0.26594325102E+02  0.97068086226E+02  0.92962473916E+02 0.  0.
         11    1    3    3    0    0 -0.36228657659E+02 -0.26049212837E+02  0.79737572679E+01  0.45328334742E+02  0.51100000000E-03 0.  1.
         22    1    1    0    0    0  0.85137723096E+01 -0.67034357425E+00  0.26594325102E+02  0.27931913774E+02  0.00000000000E+00 0. -1.
</event>
<event>
 5    1  0.6650580E-004  0.9118800E+02  0.7818608E-02  0.1130116E+00
         25   -1    0    0    0    0  0.00000000000E+00  0.00000000000E+00  0.99999998245E-14  0.12500000000E+03  0.12500000000E+03 0.  0.
        -11    1    3    3    0    0 -0.40084479088E+02  0.15272740205E+01 -0.39347893666E+02  0.56190344063E+02  0.51100000000E-03 0.  1.
         23    2    1    0    0    0 -0.19375234837E+01  0.39211153958E+01 -0.28839739103E+02  0.95830500609E+02  0.91283213968E+02 0.  0.
         11    1    3    3    0    0  0.38146955605E+02  0.23938413753E+01  0.10508154563E+02  0.39640156546E+02  0.51100000000E-03 0. -1.
         22    1    1    0    0    0  0.19375234837E+01 -0.39211153958E+01  0.28839739103E+02  0.29169499391E+02  0.00000000000E+00 0.  1.
</event>
<event>
 5    1  0.6650580E-004  0.9118800E+02  0.7818608E-02  0.1130116E+00
         25   -1    0    0    0    0  0.00000000000E+00  0.00000000000E+00  0.99999998245E-14  0.12500000000E+03  0.12500000000E+03 0.  0.
        -11    1    3    3    0    0 -0.31167247129E+02 -0.26998227086E+02  0.46120274895E+02  0.61865833188E+02  0.51100000000E-03 0. -1.
         23    2    1    0    0    0 -0.19490567361E+02 -0.85929741799E+01  0.21913328805E+02  0.94439970540E+02  0.89358785997E+02 0.  0.
         11    1    3    3    0    0  0.11676679768E+02  0.18405252906E+02 -0.24206946090E+02  0.32574137352E+02  0.51100000000E-03 0.  1.
         22    1    1    0    0    0  0.19490567361E+02  0.85929741799E+01 -0.21913328805E+02  0.30560029460E+02  0.00000000000E+00 0. -1.
</event>
<event>
 5    1  0.6650580E-004  0.9118800E+02  0.7818608E-02  0.1130116E+00
         25   -1    0    0    0    0  0.00000000000E+00  0.00000000000E+00  0.99999998245E-14  0.12500000000E+03  0.12500000000E+03 0.  0.
        -11    1    3    3    0    0 -0.31933456628E+02 -0.20600948760E+02 -0.12190010277E+02  0.39909160513E+02  0.51100000000E-03 0. -1.
         23    2    1    0    0    0 -0.11711681220E+02  0.24211439353E+02  0.12974331234E+02  0.95138812088E+02  0.90331074509E+02 0.  0.
         11    1    3    3    0    0  0.20221775408E+02  0.44812388113E+02  0.25164341512E+02  0.55229651575E+02  0.51100000000E-03 0.  1.
         22    1    1    0    0    0  0.11711681220E+02 -0.24211439353E+02 -0.12974331234E+02  0.29861187912E+02  0.00000000000E+00 0.  1.
</event>
<event>
 5    1  0.6650580E-004  0.9118800E+02  0.7818608E-02  0.1130116E+00
         25   -1    0    0    0    0  0.00000000000E+00  0.00000000000E+00  0.99999998245E-14  0.12500000000E+03  0.12500000000E+03 0.  0.
        -11    1    3    3    0    0  0.90955674630E-01  0.34908205484E+02  0.53480300164E+01  0.35315612813E+02  0.51100000000E-03 0. -1.
         23    2    1    0    0    0 -0.13792967709E+02 -0.20200499366E+02 -0.15717767249E+02  0.95925022095E+02  0.91412556707E+02 0.  0.
         11    1    3    3    0    0 -0.13883923383E+02 -0.55108704850E+02 -0.21065797266E+02  0.60609409282E+02  0.51100000000E-03 0.  1.
         22    1    1    0    0    0  0.13792967709E+02  0.20200499366E+02  0.15717767249E+02  0.29074977905E+02  0.00000000000E+00 0.  1.
</event>
<event>
 5    1  0.6650580E-004  0.9118800E+02  0.7818608E-02  0.1130116E+00
         25   -1    0    0    0    0  0.00000000000E+00  0.00000000000E+00  0.99999998245E-14  0.12500000000E+03  0.12500000000E+03 0.  0.
        -11    1    3    3    0    0 -0.52875789730E+02 -0.23320865486E+02  0.15571321958E+02  0.59851298853E+02  0.51100000000E-03 0. -1.
         23    2    1    0    0    0 -0.24801067321E+02 -0.14372734136E+02 -0.51530847477E+01  0.95875736761E+02  0.91345137748E+02 0.  0.
         11    1    3    3    0    0  0.28074722410E+02  0.89481313497E+01 -0.20724406706E+02  0.36024437908E+02  0.51100000000E-03 0.  1.
         22    1    1    0    0    0  0.24801067321E+02  0.14372734136E+02  0.51530847477E+01  0.29124263239E+02  0.00000000000E+00 0. -1.
</event>
<event>
 5    1  0.6650580E-004  0.9118800E+02  0.7818608E-02  0.1130116E+00
         25   -1    0    0    0    0  0.00000000000E+00  0.00000000000E+00  0.99999998245E-14  0.12500000000E+03  0.12500000000E+03 0.  0.
        -11    1    3    3    0    0  0.13698051065E+02 -0.34423078894E+02 -0.64808914431E+01  0.37610994638E+02  0.51100000000E-03 0. -1.
         23    2    1    0    0    0 -0.22507158975E+02 -0.23233222901E+01  0.21736784283E+02  0.93623929142E+02  0.88209876348E+02 0.  0.
         11    1    3    3    0    0 -0.36205210040E+02  0.32099756604E+02  0.28217675726E+02  0.56012934503E+02  0.51100000000E-03 0.  1.
         22    1    1    0    0    0  0.22507158975E+02  0.23233222901E+01 -0.21736784283E+02  0.31376070858E+02  0.00000000000E+00 0.  1.
</event>
<event>
 5    1  0.6650580E-004  0.9118800E+02  0.7818608E-02  0.1130116E+00
         25   -1    0    0    0    0  0.00000000000E+00  0.00000000000E+00  0.99999998245E-14  0.12500000000E+03  0.12500000000E+03 0.  0.
        -11    1    3    3    0    0  0.46175572189E+02 -0.10860699249E+02 -0.37221026271E+02  0.60295464606E+02  0.51100000000E-03 0. -1.
         23    2    1    0    0    0  0.13780928210E+02 -0.94113252396E+01 -0.24985264587E+02  0.94954193777E+02  0.90075237687E+02 0.  0.
         11    1    3    3    0    0 -0.32394643978E+02  0.14493740097E+01  0.12235761684E+02  0.34658729171E+02  0.51100000000E-03 0.  1.
         22    1    1    0    0    0 -0.13780928210E+02  0.94113252396E+01  0.24985264587E+02  0.30045806223E+02  0.00000000000E+00 0. -1.
</event>
<event>
 5    1  0.6650580E-004  0.9118800E+02  0.7818608E-02  0.1130116E+00
         25   -1    0    0    0    0  0.00000000000E+00  0.00000000000E+00  0.99999998245E-14  0.12500000000E+03  0.12500000000E+03 0.  0.
        -11    1    3    3    0    0  0.28382263774E+02  0.17531062362E+02 -0.20701463267E+02  0.39261197462E+02  0.51100000000E-03 0. -1.
         23    2    1    0    0    0 -0.25188617298E+02 -0.35282050958E+01 -0.91451776617E+01  0.97971331016E+02  0.94169170932E+02 0.  0.
         11    1    3    3    0    0 -0.53570881072E+02 -0.21059267457E+02  0.11556285606E+02  0.58710133554E+02  0.51100000000E-03 0.  1.
         22    1    1    0    0    0  0.25188617298E+02  0.35282050958E+01  0.91451776617E+01  0.27028668984E+02  0.00000000000E+00 0.  1.
</event>
<event>
 5    1  0.6650580E-004  0.9118800E+02  0.7818608E-02  0.1130116E+00
         25   -1    0    0    0    0  0.00000000000E+00  0.00000000000E+00  0.99999998245E-14  0.12500000000E+03  0.12500000000E+03 0.  0.
        -11    1    3    3    0    0 -0.29444679239E+02  0.18439742439E+02  0.50019773211E+02  0.60901485606E+02  0.51100000000E-03 0.  1.
         23    2    1    0    0    0 -0.22152735991E+02  0.33714610349E+01  0.21650434962E+02  0.93841505244E+02  0.88517661012E+02 0.  0.
         11    1    3    3    0    0  0.72919432478E+01 -0.15068281404E+02 -0.28369338249E+02  0.32940019638E+02  0.51100000000E-03 0. -1.
         22    1    1    0    0    0  0.22152735991E+02 -0.33714610349E+01 -0.21650434962E+02  0.31158494756E+02  0.00000000000E+00 0.  1.
</event>
<event>
 5    1  0.6650580E-004  0.9118800E+02  0.7818608E-02  0.1130116E+00
         25   -1    0    0    0    0  0.00000000000E+00  0.00000000000E+00  0.99999998245E-14  0.12500000000E+03  0.12500000000E+03 0.  0.
        -11    1    3    3    0    0 -0.31268247636E+02 -0.38655637609E+02 -0.54046452130E+01  0.50011716820E+02  0.51100000000E-03 0. -1.
         23    2    1    0    0    0 -0.80509641521E+01 -0.14712827032E+02  0.24835866846E+02  0.95031590215E+02  0.90182578993E+02 0.  0.
         11    1    3    3    0    0  0.23217283484E+02  0.23942810577E+02  0.30240512059E+02  0.45019873395E+02  0.51100000000E-03 0.  1.
         22    1    1    0    0    0  0.80509641521E+01  0.14712827032E+02 -0.24835866846E+02  0.29968409785E+02  0.00000000000E+00 0. -1.
</event>
<event>
 5    1  0.6650580E-004  0.9118800E+02  0.7818608E-02  0.1130116E+00
         25   -1    0    0    0    0  0.00000000000E+00  0.00000000000E+00  0.99999998245E-14  0.12500000000E+03  0.12500000000E+03 0.  0.
        -11    1    3    3    0    0 -0.12108333000E+02 -0.79069910408E+01  0.26107048707E+02  0.29844768852E+02  0.51100000000E-03 0.  1.
         23    2    1    0    0    0 -0.22204781482E+02 -0.33026974201E+01 -0.30275878210E+02  0.87309299127E+02  0.78754839735E+02 0.  0.
         11    1    3    3    0    0 -0.10096448482E+02  0.46042936206E+01 -0.56382926917E+02  0.57464530275E+02  0.51100000000E-03 0. -1.
         22    1    1    0    0    0  0.22204781482E+02  0.33026974201E+01  0.30275878210E+02  0.37690700873E+02  0.00000000000E+00 0. -1.
</event>
<event>
 5    1  0.6650580E-004  0.9118800E+02  0.7818608E-02  0.1130116E+00
         25   -1    0    0    0    0  0.00000000000E+00  0.00000000000E+00  0.99999998245E-14  0.12500000000E+03  0.12500000000E+03 0.  0.
        -11    1    3    3    0    0  0.36563005263E+02  0.24475112376E+02 -0.78865844988E+01  0.44699918289E+02  0.51100000000E-03 0. -1.
         23    2    1    0    0    0 -0.14024861557E+02  0.22363709549E+02 -0.12973401129E+02  0.95586714170E+02  0.90948768779E+02 0.  0.
         11    1    3    3    0    0 -0.50587866820E+02 -0.21114028273E+01 -0.50868166302E+01  0.50886795881E+02  0.51100000000E-03 0.  1.
         22    1    1    0    0    0  0.14024861557E+02 -0.22363709549E+02  0.12973401129E+02  0.29413285830E+02  0.00000000000E+00 0.  1.
</event>
<event>
 5    1  0.6650580E-004  0.9118800E+02  0.7818608E-02  0.1130116E+00
         25   -1    0    0    0    0  0.00000000000E+00  0.00000000000E+00  0.99999998245E-14  0.12500000000E+03  0.12500000000E+03 0.  0.
        -11    1    3    3    0    0  0.17835195385E+02 -0.13757156161E+02 -0.42871863334E+02  0.48428815865E+02  0.51100000000E-03 0. -1.
         23    2    1    0    0    0 -0.13949102111E+02  0.13776430643E+02 -0.22505056819E+02  0.95152972118E+02  0.90350667011E+02 0.  0.
         11    1    3    3    0    0 -0.31784297496E+02  0.27533586804E+02  0.20366806515E+02  0.46724156253E+02  0.51100000000E-03 0.  1.
         22    1    1    0    0    0  0.13949102111E+02 -0.13776430643E+02  0.22505056819E+02  0.29847027882E+02  0.00000000000E+00 0. -1.
</event>
<event>
 5    1  0.6650580E-004  0.9118800E+02  0.7818608E-02  0.1130116E+00
         25   -1    0    0    0    0  0.00000000000E+00  0.00000000000E+00  0.99999998245E-14  0.12500000000E+03  0.12500000000E+03 0.  0.
        -11    1    3    3    0    0  0.47735655249E+02 -0.51271691915E+01 -0.39506448794E+01  0.48172484274E+02  0.51100000000E-03 0.  1.
         23    2    1    0    0    0  0.68752555386E+01  0.71325204274E+01 -0.26701542210E+02  0.96519930780E+02  0.92222463072E+02 0.  0.
         11    1    3    3    0    0 -0.40860399710E+02  0.12259689619E+02 -0.22750897331E+02  0.48347446506E+02  0.51100000000E-03 0. -1.
         22    1    1    0    0    0 -0.68752555386E+01 -0.71325204274E+01  0.26701542210E+02  0.28480069220E+02  0.00000000000E+00 0.  1.
</event>
<event>
 5    1  0.6650580E-004  0.9118800E+02  0.7818608E-02  0.1130116E+00
         25   -1    0    0    0    0  0.00000000000E+00  0.00000000000E+00  0.99999998245E-14  0.12500000000E+03  0.12500000000E+03 0.  0.
        -11    1    3    3    0    0 -0.38951989535E+02 -0.97402139042E+01  0.16548519737E+02  0.43427903028E+02  0.51100000000E-03 0.  1.
         23    2    1    0    0    0 -0.75759774381E+01  0.28368452195E+02 -0.44419149970E+00  0.95634002312E+02  0.91013738403E+02 0.  0.
         11    1    3    3    0    0  0.31376012097E+02  0.38108666100E+02 -0.16992711237E+02  0.52206099284E+02  0.51100000000E-03 0. -1.
         22    1    1    0    0    0  0.75759774381E+01 -0.28368452195E+02  0.44419149970E+00  0.29365997688E+02  0.00000000000E+00 0. -1.
</event>
<event>
 5    1  0.6650580E-004  0.9118800E+02  0.7818608E-02  0.1130116E+00
         25   -1    0    0    0    0  0.00000000000E+00  0.00000000000E+00  0.99999998245E-14  0.12500000000E+03  0.12500000000E+03 0.  0.
        -11    1    3    3    0    0  0.46426875641E+02 -0.24985119278E+02  0.33142462902E+02  0.62274664307E+02  0.51100000000E-03 0. -1.
         23    2    1    0    0    0  0.18059935274E+02 -0.13782451674E+02  0.15314594089E+02  0.97601933857E+02  0.93677550481E+02 0.  0.
         11    1    3    3    0    0 -0.28366940366E+02  0.11202667603E+02 -0.17827868813E+02  0.35327269550E+02  0.51100000000E-03 0.  1.
         22    1    1    0    0    0 -0.18059935274E+02  0.13782451674E+02 -0.15314594089E+02  0.27398066143E+02  0.00000000000E+00 0. -1.
</event>
<event>
 5    1  0.6650580E-004  0.9118800E+02  0.7818608E-02  0.1130116E+00
         25   -1    0    0    0    0  0.00000000000E+00  0.00000000000E+00  0.99999998245E-14  0.12500000000E+03  0.12500000000E+03 0.  0.
        -11    1    3    3    0    0  0.17832278125E+02  0.28907649926E+02 -0.60482762534E+01  0.34499623378E+02  0.51100000000E-03 0.  1.
         23    2    1    0    0    0 -0.13808909054E+02 -0.22038033186E+02 -0.14753029228E+02  0.95099954057E+02  0.90277286813E+02 0.  0.
         11    1    3    3    0    0 -0.31641187179E+02 -0.50945683111E+02 -0.87047529750E+01  0.60600330679E+02  0.51100000000E-03 0. -1.
         22    1    1    0    0    0  0.13808909054E+02  0.22038033186E+02  0.14753029228E+02  0.29900045943E+02  0.00000000000E+00 0. -1.
</event>
<event>
 5    1  0.6650580E-004  0.9118800E+02  0.7818608E-02  0.1130116E+00
         25   -1    0    0    0    0  0.00000000000E+00  0.00000000000E+00  0.99999998245E-14  0.12500000000E+03  0.12500000000E+03 0.  0.
        -11    1    3    3    0    0  0.39689089654E+02 -0.38545353682E+02  0.15925737734E+01  0.55348933318E+02  0.51100000000E-03 0.  1.
         23    2    1    0    0    0  0.63441526917E+01 -0.21465737434E+02  0.18027128682E+02  0.96259722940E+02  0.91869095647E+02 0.  0.
         11    1    3    3    0    0 -0.33344936962E+02  0.17079616248E+02  0.16434554909E+02  0.40910789622E+02  0.51100000000E-03 0. -1.
         22    1    1    0    0    0 -0.63441526917E+01  0.21465737434E+02 -0.18027128682E+02  0.28740277060E+02  0.00000000000E+00 0.  1.
</event>
<event>
 5    1  0.6650580E-004  0.9118800E+02  0.7818608E-02  0.1130116E+00
         25   -1    0    0    0    0  0.00000000000E+00  0.00000000000E+00  0.99999998245E-14  0.12500000000E+03  0.12500000000E+03 0.  0.
        -11    1    3    3    0    0 -0.44118888187E+02 -0.21010756287E+02 -0.33229885560E+02  0.59094445333E+02  0.51100000000E-03 0.  1.
         23    2    1    0    0    0 -0.27685912143E+02  0.20348953774E+01 -0.10785294576E+02  0.95217906227E+02  0.90440458627E+02 0.  0.
         11    1    3    3    0    0  0.16432976044E+02  0.23045651664E+02  0.22444590983E+02  0.36123460894E+02  0.51100000000E-03 0. -1.
         22    1    1    0    0    0  0.27685912143E+02 -0.20348953774E+01  0.10785294576E+02  0.29782093773E+02  0.00000000000E+00 0.  1.
</event>
<event>
 5    1  0.6650580E-004  0.9118800E+02  0.7818608E-02  0.1130116E+00
         25   -1    0    0    0    0  0.00000000000E+00  0.00000000000E+00  0.99999998245E-14  0.12500000000E+03  0.12500000000E+03 0.  0.
        -11    1    3    3    0    0 -0.29221604535E+02 -0.64001158546E+01  0.21975920577E+02  0.37118792276E+02  0.51100000000E-03 0. -1.
         23    2    1    0    0    0  0.91423618884E+01  0.30297240956E+02  0.43603787971E+01  0.93054444852E+02  0.87399148812E+02 0.  0.
         11    1    3    3    0    0  0.38363966424E+02  0.36697356811E+02 -0.17615541780E+02  0.55935652576E+02  0.51100000000E-03 0.  1.
         22    1    1    0    0    0 -0.91423618884E+01 -0.30297240956E+02 -0.43603787971E+01  0.31945555148E+02  0.00000000000E+00 0.  1.
</event>
<event>
 5    1  0.6650580E-004  0.9118800E+02  0.7818608E-02  0.1130116E+00
         25   -1    0    0    0    0  0.00000000000E+00  0.00000000000E+00  0.99999998245E-14  0.12500000000E+03  0.12500000000E+03 0.  0.
        -11    1    3    3    0    0 -0.32868991731E+02 -0.43920047389E+02  0.21068966899E+01  0.54897907009E+02  0.51100000000E-03 0.  1.
         23    2    1    0    0    0 -0.51518279254E+01 -0.22281215489E+02  0.20239115103E+02  0.94461243070E+02  0.89388538234E+02 0.  0.
         11    1    3    3    0    0  0.27717163806E+02  0.21638831900E+02  0.18132218414E+02  0.39563336061E+02  0.51100000000E-03 0. -1.
         22    1    1    0    0    0  0.51518279254E+01  0.22281215489E+02 -0.20239115103E+02  0.30538756930E+02  0.00000000000E+00 0.  1.
</event>
<event>
 5    1  0.6650580E-004  0.9118800E+02  0.7818608E-02  0.1130116E+00
         25   -1    0    0    0    0  0.00000000000E+00  0.00000000000E+00  0.99999998245E-14  0.12500000000E+03  0.12500000000E+03 0.  0.
        -11    1    3    3    0    0  0.13573578343E+02  0.33471578450E+02 -0.47990640397E+02  0.60064050470E+02  0.51100000000E-03 0. -1.
         23    2    1    0    0    0 -0.54810050835E+01  0.19092343273E+02 -0.21119436343E+02  0.96007077073E+02  0.91524692124E+02 0.  0.
         11    1    3    3    0    0 -0.19054583427E+02 -0.14379235176E+02  0.26871204054E+02  0.35943026603E+02  0.51100000000E-03 0.  1.
         22    1    1    0    0    0  0.54810050835E+01 -0.19092343273E+02  0.21119436343E+02  0.28992922927E+02  0.00000000000E+00 0. -1.
</event>
<event>
 5    1  0.6650580E-004  0.9118800E+02  0.7818608E-02  0.1130116E+00
         25   -1    0    0    0    0  0.00000000000E+00  0.00000000000E+00  0.99999998245E-14  0.12500000000E+03  0.12500000000E+03 0.  0.
        -11    1    3    3    0    0 -0.13858191670E+02  0.44551692493E+02  0.33053777513E+02  0.57179148197E+02  0.51100000000E-03 0.  1.
         23    2    1    0    0    0  0.10777411001E+02  0.19695549466E+02  0.21179775209E+02  0.94134969066E+02  0.88931109667E+02 0.  0.
         11    1    3    3    0    0  0.24635602671E+02 -0.24856143027E+02 -0.11874002305E+02  0.36955820869E+02  0.51100000000E-03 0. -1.
         22    1    1    0    0    0 -0.10777411001E+02 -0.19695549466E+02 -0.21179775209E+02  0.30865030934E+02  0.00000000000E+00 0.  1.
</event>
<event>
 5    1  0.6650580E-004  0.9118800E+02  0.7818608E-02  0.1130116E+00
         25   -1    0    0    0    0  0.00000000000E+00  0.00000000000E+00  0.99999998245E-14  0.12500000000E+03  0.12500000000E+03 0.  0.
        -11    1    3    3    0    0  0.28331187052E+02  0.18270336659E+02 -0.24544491311E+02  0.41700040952E+02  0.51100000000E-03 0. -1.
         23    2    1    0    0    0  0.18341577550E+02 -0.19881708791E+02  0.11945564230E+02  0.95429874599E+02  0.90732952392E+02 0.  0.
         11    1    3    3    0    0 -0.99896095028E+01 -0.38152045450E+02  0.36490055541E+02  0.53729833647E+02  0.51100000000E-03 0.  1.
         22    1    1    0    0    0 -0.18341577550E+02  0.19881708791E+02 -0.11945564230E+02  0.29570125401E+02  0.00000000000E+00 0.  1.
</event>
<event>
 5    1  0.6650580E-004  0.9118800E+02  0.7818608E-02  0.1130116E+00
         25   -1    0    0    0    0  0.00000000000E+00  0.00000000000E+00  0.99999998245E-14  0.12500000000E+03  0.12500000000E+03 0.  0.
        -11    1    3    3    0    0  0.10376074993E+02  0.34919508756E+02  0.27353455003E+01  0.36531043502E+02  0.51100000000E-03 0. -1.
         23    2    1    0    0    0 -0.32936096247E+01 -0.20162354922E+02  0.20558748053E+02  0.96016719615E+02  0.91537860494E+02 0.  0.
         11    1    3    3    0    0 -0.13669684618E+02 -0.55081863679E+02  0.17823402552E+02  0.59485676114E+02  0.51100000000E-03 0.  1.
         22    1    1    0    0    0  0.32936096247E+01  0.20162354922E+02 -0.20558748053E+02  0.28983280385E+02  0.00000000000E+00 0.  1.
</event>
<event>
 5    1  0.6650580E-004  0.9118800E+02  0.7818608E-02  0.1130116E+00
         25   -1    0    0    0    0  0.00000000000E+00  0.00000000000E+00  0.99999998245E-14  0.12500000000E+03  0.12500000000E+03 0.  0.
        -11    1    3    3    0    0 -0.27336593752E+01  0.42679039906E+02  0.36442453740E+02  0.56187416525E+02  0.51100000000E-03 0.  1.
         23    2    1    0    0    0  0.59764669853E+01  0.43345715349E+01  0.27518093886E+02  0.96508735388E+02  0.92207287386E+02 0.  0.
         11    1    3    3    0    0  0.87101263605E+01 -0.38344468371E+02 -0.89243598539E+01  0.40321318864E+02  0.51100000000E-03 0. -1.
         22    1    1    0    0    0 -0.59764669853E+01 -0.43345715349E+01 -0.27518093886E+02  0.28491264612E+02  0.00000000000E+00 0.  1.
</event>
<event>
 5    1  0.6650580E-004  0.9118800E+02  0.7818608E-02  0.1130116E+00
         25   -1    0    0    0    0  0.00000000000E+00  0.00000000000E+00  0.99999998245E-14  0.12500000000E+03  0.12500000000E+03 0.  0.
        -11    1    3    3    0    0  0.59569955406E+02 -0.63849645407E+01 -0.14212106804E+02  0.61573787761E+02  0.51100000000E-03 0.  1.
         23    2    1    0    0    0  0.28328953464E+02  0.44291698478E+01 -0.82172575535E+01  0.95172655639E+02  0.90377895028E+02 0.  0.
         11    1    3    3    0    0 -0.31241001941E+02  0.10814134388E+02  0.59948492502E+01  0.33598867878E+02  0.51100000000E-03 0. -1.
         22    1    1    0    0    0 -0.28328953464E+02 -0.44291698478E+01  0.82172575535E+01  0.29827344361E+02  0.00000000000E+00 0.  1.
</event>
<event>
 5    1  0.6650580E-004  0.9118800E+02  0.7818608E-02  0.1130116E+00
         25   -1    0    0    0    0  0.00000000000E+00  0.00000000000E+00  0.99999998245E-14  0.12500000000E+03  0.12500000000E+03 0.  0.
        -11    1    3    3    0    0  0.24257750879E+02 -0.55094654716E+00 -0.48435513958E+02  0.54173250156E+02  0.51100000000E-03 0.  1.
         23    2    1    0    0    0 -0.12938505141E+02 -0.40081018667E+01 -0.78046902974E+01  0.10936724636E+03  0.10824422197E+03 0.  0.
         11    1    3    3    0    0 -0.37196256021E+02 -0.34571553196E+01  0.40630823661E+02  0.55193996200E+02  0.51100000000E-03 0. -1.
         22    1    1    0    0    0  0.12938505141E+02  0.40081018667E+01  0.78046902974E+01  0.15632753644E+02  0.00000000000E+00 0. -1.
</event>
<event>
 5    1  0.6650580E-004  0.9118800E+02  0.7818608E-02  0.1130116E+00
         25   -1    0    0    0    0  0.00000000000E+00  0.00000000000E+00  0.99999998245E-14  0.12500000000E+03  0.12500000000E+03 0.  0.
        -11    1    3    3    0    0 -0.43444940760E+02 -0.89445910068E+01  0.10336954765E+02  0.45544716708E+02  0.51100000000E-03 0. -1.
         23    2    1    0    0    0 -0.50772530764E+01  0.21769678105E+02  0.19257532317E+02  0.95494916801E+02  0.90822514832E+02 0.  0.
         11    1    3    3    0    0  0.38367687683E+02  0.30714269112E+02  0.89205775522E+01  0.49950200094E+02  0.51100000000E-03 0.  1.
         22    1    1    0    0    0  0.50772530764E+01 -0.21769678105E+02 -0.19257532317E+02  0.29505083199E+02  0.00000000000E+00 0. -1.
</event>
<event>
 5    1  0.6650580E-004  0.9118800E+02  0.7818608E-02  0.1130116E+00
         25   -1    0    0    0    0  0.00000000000E+00  0.00000000000E+00  0.99999998245E-14  0.12500000000E+03  0.12500000000E+03 0.  0.
        -11    1    3    3    0    0 -0.20527816540E+02 -0.41385762363E+02  0.19969491662E+02  0.50328452945E+02  0.51100000000E-03 0. -1.
         23    2    1    0    0    0 -0.29330916322E+02  0.28208715638E-01  0.49409902545E+01  0.95255810102E+02  0.90492831348E+02 0.  0.
         11    1    3    3    0    0 -0.88030997818E+01  0.41413971079E+02 -0.15028501407E+02  0.44927357157E+02  0.51100000000E-03 0.  1.
         22    1    1    0    0    0  0.29330916322E+02 -0.28208715638E-01 -0.49409902545E+01  0.29744189898E+02  0.00000000000E+00 0.  1.
</event>
<event>
 5    1  0.6650580E-004  0.9118800E+02  0.7818608E-02  0.1130116E+00
         25   -1    0    0    0    0  0.00000000000E+00  0.00000000000E+00  0.99999998245E-14  0.12500000000E+03  0.12500000000E+03 0.  0.
        -11    1    3    3    0    0  0.55956419628E+02  0.10385469996E+02  0.23213749544E+02  0.61464274605E+02  0.51100000000E-03 0.  1.
         23    2    1    0    0    0  0.26004435492E+02  0.12664361139E+02  0.89109758368E+01  0.94734141369E+02  0.89769345225E+02 0.  0.
         11    1    3    3    0    0 -0.29951984135E+02  0.22788911428E+01 -0.14302773707E+02  0.33269866764E+02  0.51100000000E-03 0. -1.
         22    1    1    0    0    0 -0.26004435492E+02 -0.12664361139E+02 -0.89109758368E+01  0.30265858631E+02  0.00000000000E+00 0.  1.
</event>
<event>
 5    1  0.6650580E-004  0.9118800E+02  0.7818608E-02  0.1130116E+00
         25   -1    0    0    0    0  0.00000000000E+00  0.00000000000E+00  0.99999998245E-14  0.12500000000E+03  0.12500000000E+03 0.  0.
        -11    1    3    3    0    0 -0.29830224426E+01 -0.47865649649E+02  0.29481692275E+02  0.56295550614E+02  0.51100000000E-03 0.  1.
         23    2    1    0    0    0  0.17718607760E+02 -0.20621978505E+02  0.81529651298E+01  0.96615393277E+02  0.92351764028E+02 0.  0.
         11    1    3    3    0    0  0.20701630203E+02  0.27243671144E+02 -0.21328727146E+02  0.40319842663E+02  0.51100000000E-03 0. -1.
         22    1    1    0    0    0 -0.17718607760E+02  0.20621978505E+02 -0.81529651298E+01  0.28384606723E+02  0.00000000000E+00 0. -1.
</event>
<event>
 5    1  0.6650580E-004  0.9118800E+02  0.7818608E-02  0.1130116E+00
         25   -1    0    0    0    0  0.00000000000E+00  0.00000000000E+00  0.99999998245E-14  0.12500000000E+03  0.12500000000E+03 0.  0.
        -11    1    3    3    0    0 -0.26446568977E+02  0.24023688668E+02 -0.92813064517E+00  0.35741013621E+02  0.51100000000E-03 0.  1.
         23    2    1    0    0    0  0.10575375309E+02 -0.18523120004E+02  0.19866700735E+02  0.95851580906E+02  0.91312076017E+02 0.  0.
         11    1    3    3    0    0  0.37021944286E+02 -0.42546808672E+02  0.20794831380E+02  0.60110567285E+02  0.51100000000E-03 0. -1.
         22    1    1    0    0    0 -0.10575375309E+02  0.18523120004E+02 -0.19866700735E+02  0.29148419094E+02  0.00000000000E+00 0. -1.
</event>
<event>
 5    1  0.6650580E-004  0.9118800E+02  0.7818608E-02  0.1130116E+00
         25   -1    0    0    0    0  0.00000000000E+00  0.00000000000E+00  0.99999998245E-14  0.12500000000E+03  0.12500000000E+03 0.  0.
        -11    1    3    3    0    0  0.54144893872E+02 -0.20285345116E+01  0.17697549847E+02  0.56999892592E+02  0.51100000000E-03 0. -1.
         23    2    1    0    0    0  0.18773775668E+02  0.14909621373E+02 -0.21056172236E+01  0.10093373552E+03  0.98022619221E+02 0.  0.
         11    1    3    3    0    0 -0.35371118204E+02  0.16938155885E+02 -0.19803167071E+02  0.43933842924E+02  0.51100000000E-03 0.  1.
         22    1    1    0    0    0 -0.18773775668E+02 -0.14909621373E+02  0.21056172236E+01  0.24066264484E+02  0.00000000000E+00 0. -1.
</event>
<event>
 5    1  0.6650580E-004  0.9118800E+02  0.7818608E-02  0.1130116E+00
         25   -1    0    0    0    0  0.00000000000E+00  0.00000000000E+00  0.99999998245E-14  0.12500000000E+03  0.12500000000E+03 0.  0.
        -11    1    3    3    0    0 -0.23783923525E+02  0.12952605094E+02  0.32439768938E+02  0.42258532937E+02  0.51100000000E-03 0.  1.
         23    2    1    0    0    0 -0.49678289624E+01 -0.26476725815E+02  0.27955998146E+02  0.86176886178E+02  0.76936477333E+02 0.  0.
         11    1    3    3    0    0  0.18816094563E+02 -0.39429330909E+02 -0.44837707920E+01  0.43918353240E+02  0.51100000000E-03 0. -1.
         22    1    1    0    0    0  0.49678289624E+01  0.26476725815E+02 -0.27955998146E+02  0.38823113822E+02  0.00000000000E+00 0.  1.
</event>
<event>
 5    1  0.6650580E-004  0.9118800E+02  0.7818608E-02  0.1130116E+00
         25   -1    0    0    0    0  0.00000000000E+00  0.00000000000E+00  0.99999998245E-14  0.12500000000E+03  0.12500000000E+03 0.  0.
        -11    1    3    3    0    0 -0.36862278036E+00  0.49636304223E+02 -0.33001753031E+00  0.49638770044E+02  0.51100000000E-03 0. -1.
         23    2    1    0    0    0 -0.24828433950E+02  0.88893539568E+01 -0.72136509945E+01  0.97659398199E+02  0.93754197504E+02 0.  0.
         11    1    3    3    0    0 -0.24459811170E+02 -0.40746950266E+02 -0.68836334642E+01  0.48020628155E+02  0.51100000000E-03 0.  1.
         22    1    1    0    0    0  0.24828433950E+02 -0.88893539568E+01  0.72136509945E+01  0.27340601801E+02  0.00000000000E+00 0.  1.
</event>
<event>
 5    1  0.6650580E-004  0.9118800E+02  0.7818608E-02  0.1130116E+00
         25   -1    0    0    0    0  0.00000000000E+00  0.00000000000E+00  0.99999998245E-14  0.12500000000E+03  0.12500000000E+03 0.  0.
        -11    1    3    3    0    0 -0.38360209862E+02  0.35750439363E+02  0.27252588503E+02  0.59095712160E+02  0.51100000000E-03 0.  1.
         23    2    1    0    0    0 -0.54367905439E+01  0.19668838202E+02  0.19958848824E+02  0.96455691741E+02  0.92135351170E+02 0.  0.
         11    1    3    3    0    0  0.32923419318E+02 -0.16081601161E+02 -0.72937396793E+01  0.37359979581E+02  0.51100000000E-03 0. -1.
         22    1    1    0    0    0  0.54367905439E+01 -0.19668838202E+02 -0.19958848824E+02  0.28544308259E+02  0.00000000000E+00 0.  1.
</event>
<event>
 5    1  0.6650580E-004  0.9118800E+02  0.7818608E-02  0.1130116E+00
         25   -1    0    0    0    0  0.00000000000E+00  0.00000000000E+00  0.99999998245E-14  0.12500000000E+03  0.12500000000E+03 0.  0.
        -11    1    3    3    0    0  0.40702903255E+02  0.42297932947E+02  0.10398684444E+02  0.59615217046E+02  0.51100000000E-03 0.  1.
         23    2    1    0    0    0  0.12754763031E+02  0.26323219470E+02 -0.50417248963E+01  0.95318105634E+02  0.90578840843E+02 0.  0.
         11    1    3    3    0    0 -0.27948140224E+02 -0.15974713477E+02 -0.15440409341E+02  0.35702888588E+02  0.51100000000E-03 0. -1.
         22    1    1    0    0    0 -0.12754763031E+02 -0.26323219470E+02  0.50417248963E+01  0.29681894366E+02  0.00000000000E+00 0.  1.
</event>
<event>
 5    1  0.6650580E-004  0.9118800E+02  0.7818608E-02  0.1130116E+00
         25   -1    0    0    0    0  0.00000000000E+00  0.00000000000E+00  0.99999998245E-14  0.12500000000E+03  0.12500000000E+03 0.  0.
        -11    1    3    3    0    0 -0.17584466812E+01 -0.11289669760E+02 -0.32464663772E+02  0.34416611863E+02  0.51100000000E-03 0. -1.
         23    2    1    0    0    0  0.73062534835E+01 -0.18831653253E+02  0.24875220557E+02  0.92956449916E+02  0.87258881949E+02 0.  0.
         11    1    3    3    0    0  0.90647001646E+01 -0.75419834931E+01  0.57339884330E+02  0.58539838053E+02  0.51100000000E-03 0.  1.
         22    1    1    0    0    0 -0.73062534835E+01  0.18831653253E+02 -0.24875220557E+02  0.32043550084E+02  0.00000000000E+00 0.  1.
</event>
<event>
 5    1  0.6650580E-004  0.9118800E+02  0.7818608E-02  0.1130116E+00
         25   -1    0    0    0    0  0.00000000000E+00  0.00000000000E+00  0.99999998245E-14  0.12500000000E+03  0.12500000000E+03 0.  0.
        -11    1    3    3    0    0  0.13076723258E+02  0.52804820836E+02  0.28665045112E+02  0.61490117956E+02  0.51100000000E-03 0.  1.
         23    2    1    0    0    0  0.66701664397E+01  0.29422794942E+02  0.69424718086E+01  0.94042127054E+02  0.88800516685E+02 0.  0.
         11    1    3    3    0    0 -0.64065568185E+01 -0.23382025894E+02 -0.21722573303E+02  0.32552009099E+02  0.51100000000E-03 0. -1.
         22    1    1    0    0    0 -0.66701664397E+01 -0.29422794942E+02 -0.69424718086E+01  0.30957872946E+02  0.00000000000E+00 0.  1.
</event>
<event>
 5    1  0.6650580E-004  0.9118800E+02  0.7818608E-02  0.1130116E+00
         25   -1    0    0    0    0  0.00000000000E+00  0.00000000000E+00  0.99999998245E-14  0.12500000000E+03  0.12500000000E+03 0.  0.
        -11    1    3    3    0    0  0.17516955383E+02  0.28967567886E+02 -0.91346228619E+01  0.35062872818E+02  0.51100000000E-03 0.  1.
         23    2    1    0    0    0 -0.11336908147E+01 -0.27687477423E+02 -0.12055977740E+02  0.94780333222E+02  0.89833642392E+02 0.  0.
         11    1    3    3    0    0 -0.18650646198E+02 -0.56655045309E+02 -0.29213548778E+01  0.59717460404E+02  0.51100000000E-03 0. -1.
         22    1    1    0    0    0  0.11336908147E+01  0.27687477423E+02  0.12055977740E+02  0.30219666778E+02  0.00000000000E+00 0. -1.
</event>
<event>
 5    1  0.6650580E-004  0.9118800E+02  0.7818608E-02  0.1130116E+00
         25   -1    0    0    0    0  0.00000000000E+00  0.00000000000E+00  0.99999998245E-14  0.12500000000E+03  0.12500000000E+03 0.  0.
        -11    1    3    3    0    0 -0.42689475056E+02 -0.29997548133E+01 -0.33124650787E+02  0.54116839334E+02  0.51100000000E-03 0. -1.
         23    2    1    0    0    0 -0.31944958679E+01  0.94561533807E+01 -0.27294445071E+02  0.95937818865E+02  0.91430053682E+02 0.  0.
         11    1    3    3    0    0  0.39494979188E+02  0.12455908194E+02  0.58302057168E+01  0.41820979531E+02  0.51100000000E-03 0.  1.
         22    1    1    0    0    0  0.31944958679E+01 -0.94561533807E+01  0.27294445071E+02  0.29062181135E+02  0.00000000000E+00 0. -1.
</event>
<event>
 5    1  0.6650580E-004  0.9118800E+02  0.7818608E-02  0.1130116E+00
         25   -1    0    0    0    0  0.00000000000E+00  0.00000000000E+00  0.99999998245E-14  0.12500000000E+03  0.12500000000E+03 0.  0.
        -11    1    3    3    0    0 -0.34602139915E+02 -0.76320214539E+01  0.65172957564E+01  0.36028197047E+02  0.51100000000E-03 0. -1.
         23    2    1    0    0    0  0.15868305011E+02  0.23377876124E+02 -0.48142374039E+01  0.96338090123E+02  0.91975662709E+02 0.  0.
         11    1    3    3    0    0  0.50470444927E+02  0.31009897578E+02 -0.11331533160E+02  0.60309893077E+02  0.51100000000E-03 0.  1.
         22    1    1    0    0    0 -0.15868305011E+02 -0.23377876124E+02  0.48142374039E+01  0.28661909877E+02  0.00000000000E+00 0.  1.
</event>
<event>
 5    1  0.6650580E-004  0.9118800E+02  0.7818608E-02  0.1130116E+00
         25   -1    0    0    0    0  0.00000000000E+00  0.00000000000E+00  0.99999998245E-14  0.12500000000E+03  0.12500000000E+03 0.  0.
        -11    1    3    3    0    0  0.28876068999E+02 -0.26559339740E+02  0.33753937941E+02  0.51754750652E+02  0.51100000000E-03 0.  1.
         23    2    1    0    0    0 -0.78874657297E+01 -0.26840322815E+02  0.11335593984E+02  0.94815389097E+02  0.89882408035E+02 0.  0.
         11    1    3    3    0    0 -0.36763534729E+02 -0.28098307507E+00 -0.22418343957E+02  0.43060638445E+02  0.51100000000E-03 0. -1.
         22    1    1    0    0    0  0.78874657297E+01  0.26840322815E+02 -0.11335593984E+02  0.30184610903E+02  0.00000000000E+00 0.  1.
</event>
<event>
 5    1  0.6650580E-004  0.9118800E+02  0.7818608E-02  0.1130116E+00
         25   -1    0    0    0    0  0.00000000000E+00  0.00000000000E+00  0.99999998245E-14  0.12500000000E+03  0.12500000000E+03 0.  0.
        -11    1    3    3    0    0 -0.15584796954E+01 -0.60971759616E+02 -0.30498508604E+01  0.61067879611E+02  0.51100000000E-03 0. -1.
         23    2    1    0    0    0 -0.27067102004E+01 -0.27473628270E+02 -0.10604761531E+02  0.95426574470E+02  0.90728405792E+02 0.  0.
         11    1    3    3    0    0 -0.11482305050E+01  0.33498131346E+02 -0.75549106705E+01  0.34358694859E+02  0.51100000000E-03 0.  1.
         22    1    1    0    0    0  0.27067102004E+01  0.27473628270E+02  0.10604761531E+02  0.29573425530E+02  0.00000000000E+00 0. -1.
</event>
<event>
 5    1  0.6650580E-004  0.9118800E+02  0.7818608E-02  0.1130116E+00
         25   -1    0    0    0    0  0.00000000000E+00  0.00000000000E+00  0.99999998245E-14  0.12500000000E+03  0.12500000000E+03 0.  0.
        -11    1    3    3    0    0  0.83296976694E+01  0.27827473025E+02 -0.99014746497E+01  0.30688618716E+02  0.51100000000E-03 0.  1.
         23    2    1    0    0    0  0.10190699880E+02 -0.32136351490E+02 -0.54807933986E+01  0.90843967628E+02  0.84178333952E+02 0.  0.
         11    1    3    3    0    0  0.18610022108E+01 -0.59963824515E+02  0.44206812511E+01  0.60155348911E+02  0.51100000000E-03 0. -1.
         22    1    1    0    0    0 -0.10190699880E+02  0.32136351490E+02  0.54807933986E+01  0.34156032372E+02  0.00000000000E+00 0. -1.
</event>
<event>
 5    1  0.6650580E-004  0.9118800E+02  0.7818608E-02  0.1130116E+00
         25   -1    0    0    0    0  0.00000000000E+00  0.00000000000E+00  0.99999998245E-14  0.12500000000E+03  0.12500000000E+03 0.  0.
        -11    1    3    3    0    0 -0.16511506757E+02 -0.52567017070E+02 -0.10267905553E+02  0.56047756634E+02  0.51100000000E-03 0. -1.
         23    2    1    0    0    0  0.43380750748E+01 -0.31681916874E+02 -0.20190048017E+02  0.87182004402E+02  0.78552537199E+02 0.  0.
         11    1    3    3    0    0  0.20849581831E+02  0.20885100196E+02 -0.99221424639E+01  0.31134247768E+02  0.51100000000E-03 0.  1.
         22    1    1    0    0    0 -0.43380750748E+01  0.31681916874E+02  0.20190048017E+02  0.37817995598E+02  0.00000000000E+00 0. -1.
</event>
<event>
 5    1  0.6650580E-004  0.9118800E+02  0.7818608E-02  0.1130116E+00
         25   -1    0    0    0    0  0.00000000000E+00  0.00000000000E+00  0.99999998245E-14  0.12500000000E+03  0.12500000000E+03 0.  0.
        -11    1    3    3    0    0 -0.43786258034E+01 -0.18935828090E+02 -0.43236340653E+02  0.47403787852E+02  0.51100000000E-03 0.  1.
         23    2    1    0    0    0  0.10850086511E+02  0.19029300921E+02 -0.23673980478E+02  0.92746379699E+02  0.86957431682E+02 0.  0.
         11    1    3    3    0    0  0.15228712315E+02  0.37965129011E+02  0.19562360175E+02  0.45342591847E+02  0.51100000000E-03 0. -1.
         22    1    1    0    0    0 -0.10850086511E+02 -0.19029300921E+02  0.23673980478E+02  0.32253620301E+02  0.00000000000E+00 0.  1.
</event>
<event>
 5    1  0.6650580E-004  0.9118800E+02  0.7818608E-02  0.1130116E+00
         25   -1    0    0    0    0  0.00000000000E+00  0.00000000000E+00  0.99999998245E-14  0.12500000000E+03  0.12500000000E+03 0.  0.
        -11    1    3    3    0    0  0.42328371177E+02 -0.26847252824E+02 -0.22625196109E+02  0.54994231424E+02  0.51100000000E-03 0. -1.
         23    2    1    0    0    0  0.11178713697E+02  0.68120485998E+00 -0.25988870541E+02  0.96700723119E+02  0.92467187585E+02 0.  0.
         11    1    3    3    0    0 -0.31149657480E+02  0.27528457684E+02 -0.33636744316E+01  0.41706491695E+02  0.51100000000E-03 0.  1.
         22    1    1    0    0    0 -0.11178713697E+02 -0.68120485998E+00  0.25988870541E+02  0.28299276881E+02  0.00000000000E+00 0. -1.
</event>
<event>
 5    1  0.6650580E-004  0.9118800E+02  0.7818608E-02  0.1130116E+00
         25   -1    0    0    0    0  0.00000000000E+00  0.00000000000E+00  0.99999998245E-14  0.12500000000E+03  0.12500000000E+03 0.  0.
        -11    1    3    3    0    0 -0.24453600117E+02 -0.16552623812E+02 -0.30543961653E+02  0.42484132420E+02  0.51100000000E-03 0.  1.
         23    2    1    0    0    0  0.20864684752E+02 -0.18929300439E+02 -0.66026629721E+00  0.96820407446E+02  0.92628839254E+02 0.  0.
         11    1    3    3    0    0  0.45318284869E+02 -0.23766766273E+01  0.29883695356E+02  0.54336275026E+02  0.51100000000E-03 0. -1.
         22    1    1    0    0    0 -0.20864684752E+02  0.18929300439E+02  0.66026629721E+00  0.28179592554E+02  0.00000000000E+00 0. -1.
</event>
<event>
 5    1  0.6650580E-004  0.9118800E+02  0.7818608E-02  0.1130116E+00
         25   -1    0    0    0    0  0.00000000000E+00  0.00000000000E+00  0.99999998245E-14  0.12500000000E+03  0.12500000000E+03 0.  0.
        -11    1    3    3    0    0 -0.21334110508E+02 -0.30066286757E+02  0.33590481349E-01  0.36866339649E+02  0.51100000000E-03 0.  1.
         23    2    1    0    0    0  0.29263456381E+02 -0.25334257411E+01  0.67538932894E+01  0.94860603856E+02  0.89945266490E+02 0.  0.
         11    1    3    3    0    0  0.50597566889E+02  0.27532861016E+02  0.67203028081E+01  0.57994264207E+02  0.51100000000E-03 0. -1.
         22    1    1    0    0    0 -0.29263456381E+02  0.25334257411E+01 -0.67538932894E+01  0.30139396144E+02  0.00000000000E+00 0. -1.
</event>
<event>
 5    1  0.6650580E-004  0.9118800E+02  0.7818608E-02  0.1130116E+00
         25   -1    0    0    0    0  0.00000000000E+00  0.00000000000E+00  0.99999998245E-14  0.12500000000E+03  0.12500000000E+03 0.  0.
        -11    1    3    3    0    0  0.23592484219E+02  0.49872689905E+02  0.25175078516E+02  0.60643838010E+02  0.51100000000E-03 0.  1.
         23    2    1    0    0    0  0.34793194699E+01  0.31431909240E+02  0.10190992845E+02  0.91774604327E+02  0.85549115026E+02 0.  0.
         11    1    3    3    0    0 -0.20113164750E+02 -0.18440780665E+02 -0.14984085672E+02  0.31130766317E+02  0.51100000000E-03 0. -1.
         22    1    1    0    0    0 -0.34793194699E+01 -0.31431909240E+02 -0.10190992845E+02  0.33225395673E+02  0.00000000000E+00 0.  1.
</event>
<event>
 5    1  0.6650580E-004  0.9118800E+02  0.7818608E-02  0.1130116E+00
         25   -1    0    0    0    0  0.00000000000E+00  0.00000000000E+00  0.99999998245E-14  0.12500000000E+03  0.12500000000E+03 0.  0.
        -11    1    3    3    0    0 -0.39043330475E+02 -0.74164965075E+01 -0.35384457123E+02  0.53211332263E+02  0.51100000000E-03 0.  1.
         23    2    1    0    0    0 -0.21992564882E+02 -0.19556297870E+02  0.14031357814E+01  0.95536624658E+02  0.90879899673E+02 0.  0.
         11    1    3    3    0    0  0.17050765593E+02 -0.12139801363E+02  0.36787592904E+02  0.42325292396E+02  0.51100000000E-03 0. -1.
         22    1    1    0    0    0  0.21992564882E+02  0.19556297870E+02 -0.14031357814E+01  0.29463375342E+02  0.00000000000E+00 0.  1.
</event>
<event>
 5    1  0.6650580E-004  0.9118800E+02  0.7818608E-02  0.1130116E+00
         25   -1    0    0    0    0  0.00000000000E+00  0.00000000000E+00  0.99999998245E-14  0.12500000000E+03  0.12500000000E+03 0.  0.
        -11    1    3    3    0    0 -0.42804659832E+02 -0.34124950822E+01 -0.12374022765E+02  0.44687811154E+02  0.51100000000E-03 0.  1.
         23    2    1    0    0    0 -0.89676038765E+01 -0.19233909868E+02  0.21266286686E+02  0.94956429016E+02  0.90078339538E+02 0.  0.
         11    1    3    3    0    0  0.33837055956E+02 -0.15821414785E+02  0.33640309451E+02  0.50268617862E+02  0.51100000000E-03 0. -1.
         22    1    1    0    0    0  0.89676038765E+01  0.19233909868E+02 -0.21266286686E+02  0.30043570984E+02  0.00000000000E+00 0. -1.
</event>
<event>
 5    1  0.6650580E-004  0.9118800E+02  0.7818608E-02  0.1130116E+00
         25   -1    0    0    0    0  0.00000000000E+00  0.00000000000E+00  0.99999998245E-14  0.12500000000E+03  0.12500000000E+03 0.  0.
        -11    1    3    3    0    0  0.28134536812E+02 -0.80353784926E+00  0.25161705148E+02  0.37753267951E+02  0.51100000000E-03 0. -1.
         23    2    1    0    0    0 -0.97088230067E+01  0.26429570044E+02 -0.88738738140E+01  0.95478329089E+02  0.90799682116E+02 0.  0.
         11    1    3    3    0    0 -0.37843359819E+02  0.27233107893E+02 -0.34035578962E+02  0.57725061139E+02  0.51100000000E-03 0.  1.
         22    1    1    0    0    0  0.97088230067E+01 -0.26429570044E+02  0.88738738140E+01  0.29521670911E+02  0.00000000000E+00 0.  1.
</event>
<event>
 5    1  0.6650580E-004  0.9118800E+02  0.7818608E-02  0.1130116E+00
         25   -1    0    0    0    0  0.00000000000E+00  0.00000000000E+00  0.99999998245E-14  0.12500000000E+03  0.12500000000E+03 0.  0.
        -11    1    3    3    0    0  0.19380959227E+02  0.20337295182E+02 -0.33963966946E+02  0.44076957776E+02  0.51100000000E-03 0. -1.
         23    2    1    0    0    0  0.14814154197E+02 -0.23697982102E+02 -0.60765954487E+01  0.96399676006E+02  0.92059323274E+02 0.  0.
         11    1    3    3    0    0 -0.45668050296E+01 -0.44035277285E+02  0.27887371497E+02  0.52322718230E+02  0.51100000000E-03 0.  1.
         22    1    1    0    0    0 -0.14814154197E+02  0.23697982102E+02  0.60765954487E+01  0.28600323994E+02  0.00000000000E+00 0.  1.
</event>
<event>
 5    1  0.6650580E-004  0.9118800E+02  0.7818608E-02  0.1130116E+00
         25   -1    0    0    0    0  0.00000000000E+00  0.00000000000E+00  0.99999998245E-14  0.12500000000E+03  0.12500000000E+03 0.  0.
        -11    1    3    3    0    0 -0.22300956556E+02  0.28029723053E+02  0.45487846738E+02  0.57897687681E+02  0.51100000000E-03 0.  1.
         23    2    1    0    0    0 -0.22000316090E+02  0.15928254413E+02  0.89284028924E+01  0.96409099788E+02  0.92072118185E+02 0.  0.
         11    1    3    3    0    0  0.30064046601E+00 -0.12101468639E+02 -0.36559443846E+02  0.38511412107E+02  0.51100000000E-03 0. -1.
         22    1    1    0    0    0  0.22000316090E+02 -0.15928254413E+02 -0.89284028924E+01  0.28590900212E+02  0.00000000000E+00 0.  1.
</event>
<event>
 5    1  0.6650580E-004  0.9118800E+02  0.7818608E-02  0.1130116E+00
         25   -1    0    0    0    0  0.00000000000E+00  0.00000000000E+00  0.99999998245E-14  0.12500000000E+03  0.12500000000E+03 0.  0.
        -11    1    3    3    0    0 -0.17878101068E+02 -0.50647176524E+02 -0.17925485080E+02  0.56622310120E+02  0.51100000000E-03 0. -1.
         23    2    1    0    0    0  0.91167140484E+01 -0.27978509554E+02 -0.14364562812E+01  0.95538586617E+02  0.90882598192E+02 0.  0.
         11    1    3    3    0    0  0.26994815116E+02  0.22668666971E+02  0.16489028799E+02  0.38916276497E+02  0.51100000000E-03 0.  1.
         22    1    1    0    0    0 -0.91167140484E+01  0.27978509554E+02  0.14364562812E+01  0.29461413383E+02  0.00000000000E+00 0. -1.
</event>
<event>
 5    1  0.6650580E-004  0.9118800E+02  0.7818608E-02  0.1130116E+00
         25   -1    0    0    0    0  0.00000000000E+00  0.00000000000E+00  0.99999998245E-14  0.12500000000E+03  0.12500000000E+03 0.  0.
        -11    1    3    3    0    0 -0.42090631628E+01 -0.33998391176E+02 -0.80734715779E+01  0.35196416847E+02  0.51100000000E-03 0.  1.
         23    2    1    0    0    0  0.20172916731E+02  0.20507642598E+02  0.35090623207E+01  0.96020291707E+02  0.91542738253E+02 0.  0.
         11    1    3    3    0    0  0.24381979894E+02  0.54506033774E+02  0.11582533899E+02  0.60823874861E+02  0.51100000000E-03 0. -1.
         22    1    1    0    0    0 -0.20172916731E+02 -0.20507642598E+02 -0.35090623207E+01  0.28979708293E+02  0.00000000000E+00 0. -1.
</event>
<event>
 5    1  0.6650580E-004  0.9118800E+02  0.7818608E-02  0.1130116E+00
         25   -1    0    0    0    0  0.00000000000E+00  0.00000000000E+00  0.99999998245E-14  0.12500000000E+03  0.12500000000E+03 0.  0.
        -11    1    3    3    0    0  0.21942614191E+02  0.21743588172E+01 -0.16682034175E+02  0.27649528356E+02  0.51100000000E-03 0. -1.
         23    2    1    0    0    0 -0.30588111758E+02 -0.22402422983E+02 -0.64474570107E+01  0.86541309976E+02  0.77526301950E+02 0.  0.
         11    1    3    3    0    0 -0.52530725949E+02 -0.24576781800E+02  0.10234577165E+02  0.58891781620E+02  0.51100000000E-03 0.  1.
         22    1    1    0    0    0  0.30588111758E+02  0.22402422983E+02  0.64474570107E+01  0.38458690024E+02  0.00000000000E+00 0.  1.
</event>
<event>
 5    1  0.6650580E-004  0.9118800E+02  0.7818608E-02  0.1130116E+00
         25   -1    0    0    0    0  0.00000000000E+00  0.00000000000E+00  0.99999998245E-14  0.12500000000E+03  0.12500000000E+03 0.  0.
        -11    1    3    3    0    0  0.22582152739E+02  0.80268055705E+01  0.35232581297E+02  0.42611242825E+02  0.51100000000E-03 0.  1.
         23    2    1    0    0    0 -0.25662434407E+02  0.48014956394E+01  0.13152041434E+02  0.95766609947E+02  0.91195682392E+02 0.  0.
         11    1    3    3    0    0 -0.48244587146E+02 -0.32253099311E+01 -0.22080539863E+02  0.53155367123E+02  0.51100000000E-03 0. -1.
         22    1    1    0    0    0  0.25662434407E+02 -0.48014956394E+01 -0.13152041434E+02  0.29233390053E+02  0.00000000000E+00 0. -1.
</event>
<event>
 5    1  0.6650580E-004  0.9118800E+02  0.7818608E-02  0.1130116E+00
         25   -1    0    0    0    0  0.00000000000E+00  0.00000000000E+00  0.99999998245E-14  0.12500000000E+03  0.12500000000E+03 0.  0.
        -11    1    3    3    0    0 -0.19215509305E+01 -0.34817026161E+02  0.41672643699E+02  0.54337159493E+02  0.51100000000E-03 0. -1.
         23    2    1    0    0    0 -0.16061963699E+02 -0.36620349574E+02  0.19969617963E+02  0.80302994257E+02  0.66713930812E+02 0.  0.
         11    1    3    3    0    0 -0.14140412768E+02 -0.18033234134E+01 -0.21703025737E+02  0.25965834764E+02  0.51100000000E-03 0.  1.
         22    1    1    0    0    0  0.16061963699E+02  0.36620349574E+02 -0.19969617963E+02  0.44697005743E+02  0.00000000000E+00 0. -1.
</event>
<event>
 5    1  0.6650580E-004  0.9118800E+02  0.7818608E-02  0.1130116E+00
         25   -1    0    0    0    0  0.00000000000E+00  0.00000000000E+00  0.99999998245E-14  0.12500000000E+03  0.12500000000E+03 0.  0.
        -11    1    3    3    0    0  0.10409079744E+02 -0.91263195608E+01  0.29231093912E+02  0.32343399657E+02  0.51100000000E-03 0. -1.
         23    2    1    0    0    0 -0.19980602008E+02  0.15351321351E+02 -0.18313415851E+02  0.93850863191E+02  0.88530874828E+02 0.  0.
         11    1    3    3    0    0 -0.30389681752E+02  0.24477640912E+02 -0.47544509762E+02  0.61507463534E+02  0.51100000000E-03 0.  1.
         22    1    1    0    0    0  0.19980602008E+02 -0.15351321351E+02  0.18313415851E+02  0.31149136809E+02  0.00000000000E+00 0.  1.
</event>
<event>
 5    1  0.6650580E-004  0.9118800E+02  0.7818608E-02  0.1130116E+00
         25   -1    0    0    0    0  0.00000000000E+00  0.00000000000E+00  0.99999998245E-14  0.12500000000E+03  0.12500000000E+03 0.  0.
        -11    1    3    3    0    0 -0.13260722062E+02 -0.29450055035E+02  0.14378140032E+02  0.35353690079E+02  0.51100000000E-03 0. -1.
         23    2    1    0    0    0  0.93955939603E+01  0.58137979160E+01 -0.27963558045E+02  0.94932775143E+02  0.90045509525E+02 0.  0.
         11    1    3    3    0    0  0.22656316022E+02  0.35263852951E+02 -0.42341698078E+02  0.59579085063E+02  0.51100000000E-03 0.  1.
         22    1    1    0    0    0 -0.93955939603E+01 -0.58137979160E+01  0.27963558045E+02  0.30067224857E+02  0.00000000000E+00 0.  1.
</event>
<event>
 5    1  0.6650580E-004  0.9118800E+02  0.7818608E-02  0.1130116E+00
         25   -1    0    0    0    0  0.00000000000E+00  0.00000000000E+00  0.99999998245E-14  0.12500000000E+03  0.12500000000E+03 0.  0.
        -11    1    3    3    0    0 -0.44032576829E+02  0.10416660007E+02  0.27374832710E+02  0.52884365308E+02  0.51100000000E-03 0.  1.
         23    2    1    0    0    0 -0.49244314714E+01  0.36394438978E+01  0.31611524403E+02  0.92800868766E+02  0.87035723651E+02 0.  0.
         11    1    3    3    0    0  0.39108145357E+02 -0.67772161097E+01  0.42366916924E+01  0.39916503457E+02  0.51100000000E-03 0. -1.
         22    1    1    0    0    0  0.49244314714E+01 -0.36394438978E+01 -0.31611524403E+02  0.32199131234E+02  0.00000000000E+00 0.  1.
</event>
<event>
 5    1  0.6650580E-004  0.9118800E+02  0.7818608E-02  0.1130116E+00
         25   -1    0    0    0    0  0.00000000000E+00  0.00000000000E+00  0.99999998245E-14  0.12500000000E+03  0.12500000000E+03 0.  0.
        -11    1    3    3    0    0  0.42059293220E+01 -0.23479539009E+02  0.25727261633E+02  0.35083765261E+02  0.51100000000E-03 0.  1.
         23    2    1    0    0    0 -0.15641108713E+02  0.48486228877E+01 -0.24174760956E+02  0.95801155965E+02  0.91243021604E+02 0.  0.
         11    1    3    3    0    0 -0.19847038035E+02  0.28328161897E+02 -0.49902022588E+02  0.60717390704E+02  0.51100000000E-03 0. -1.
         22    1    1    0    0    0  0.15641108713E+02 -0.48486228877E+01  0.24174760956E+02  0.29198844035E+02  0.00000000000E+00 0. -1.
</event>
<event>
 5    1  0.6650580E-004  0.9118800E+02  0.7818608E-02  0.1130116E+00
         25   -1    0    0    0    0  0.00000000000E+00  0.00000000000E+00  0.99999998245E-14  0.12500000000E+03  0.12500000000E+03 0.  0.
        -11    1    3    3    0    0 -0.26953296555E+02 -0.13073196603E+02 -0.37557758357E+02  0.48041376726E+02  0.51100000000E-03 0. -1.
         23    2    1    0    0    0  0.18891619902E+02 -0.37492921796E+01 -0.17619811695E+02  0.98896202220E+02  0.95388943568E+02 0.  0.
         11    1    3    3    0    0  0.45844916457E+02  0.93239044234E+01  0.19937946662E+02  0.50854825494E+02  0.51100000000E-03 0.  1.
         22    1    1    0    0    0 -0.18891619902E+02  0.37492921796E+01  0.17619811695E+02  0.26103797780E+02  0.00000000000E+00 0.  1.
</event>
<event>
 5    1  0.6650580E-004  0.9118800E+02  0.7818608E-02  0.1130116E+00
         25   -1    0    0    0    0  0.00000000000E+00  0.00000000000E+00  0.99999998245E-14  0.12500000000E+03  0.12500000000E+03 0.  0.
        -11    1    3    3    0    0  0.40179650299E+02 -0.97731448367E+01  0.19943348599E+02  0.45909212711E+02  0.51100000000E-03 0.  1.
         23    2    1    0    0    0  0.14031707794E+02 -0.20207582989E+02 -0.18966625266E+02  0.93936064192E+02  0.88651091635E+02 0.  0.
         11    1    3    3    0    0 -0.26147942505E+02 -0.10434438152E+02 -0.38909973865E+02  0.48026851481E+02  0.51100000000E-03 0. -1.
         22    1    1    0    0    0 -0.14031707794E+02  0.20207582989E+02  0.18966625266E+02  0.31063935808E+02  0.00000000000E+00 0.  1.
</event>
<event>
 5    1  0.6650580E-004  0.9118800E+02  0.7818608E-02  0.1130116E+00
         25   -1    0    0    0    0  0.00000000000E+00  0.00000000000E+00  0.99999998245E-14  0.12500000000E+03  0.12500000000E+03 0.  0.
        -11    1    3    3    0    0  0.36937169740E+01  0.41024567077E+02 -0.16976769064E+02  0.44551872431E+02  0.51100000000E-03 0. -1.
         23    2    1    0    0    0  0.27415847206E+02 -0.40358617486E+01 -0.62457505507E+01  0.96593552528E+02  0.92322197395E+02 0.  0.
         11    1    3    3    0    0  0.23722130232E+02 -0.45060428826E+02  0.10731018513E+02  0.52041680097E+02  0.51100000000E-03 0.  1.
         22    1    1    0    0    0 -0.27415847206E+02  0.40358617486E+01  0.62457505507E+01  0.28406447472E+02  0.00000000000E+00 0.  1.
</event>
<event>
 5    1  0.6650580E-004  0.9118800E+02  0.7818608E-02  0.1130116E+00
         25   -1    0    0    0    0  0.00000000000E+00  0.00000000000E+00  0.99999998245E-14  0.12500000000E+03  0.12500000000E+03 0.  0.
        -11    1    3    3    0    0 -0.18626670338E+02  0.52573682725E+01 -0.32364126965E+02  0.37709806198E+02  0.51100000000E-03 0. -1.
         23    2    1    0    0    0  0.28207224324E+02 -0.11496510784E+02 -0.61869013039E+01  0.93917931021E+02  0.88625519775E+02 0.  0.
         11    1    3    3    0    0  0.46833894661E+02 -0.16753879056E+02  0.26177225661E+02  0.56208124823E+02  0.51100000000E-03 0.  1.
         22    1    1    0    0    0 -0.28207224324E+02  0.11496510784E+02  0.61869013039E+01  0.31082068979E+02  0.00000000000E+00 0.  1.
</event>
<event>
 5    1  0.6650580E-004  0.9118800E+02  0.7818608E-02  0.1130116E+00
         25   -1    0    0    0    0  0.00000000000E+00  0.00000000000E+00  0.99999998245E-14  0.12500000000E+03  0.12500000000E+03 0.  0.
        -11    1    3    3    0    0  0.20710028599E+02  0.97103780179E+01 -0.35177123126E+02  0.41959822658E+02  0.51100000000E-03 0.  1.
         23    2    1    0    0    0 -0.18703199003E+02  0.22257637955E+02 -0.51922144053E+00  0.95922832132E+02  0.91409562044E+02 0.  0.
         11    1    3    3    0    0 -0.39413227603E+02  0.12547259937E+02  0.34657901685E+02  0.53963009474E+02  0.51100000000E-03 0. -1.
         22    1    1    0    0    0  0.18703199003E+02 -0.22257637955E+02  0.51922144053E+00  0.29077167868E+02  0.00000000000E+00 0.  1.
</event>
<event>
 5    1  0.6650580E-004  0.9118800E+02  0.7818608E-02  0.1130116E+00
         25   -1    0    0    0    0  0.00000000000E+00  0.00000000000E+00  0.99999998245E-14  0.12500000000E+03  0.12500000000E+03 0.  0.
        -11    1    3    3    0    0  0.46610185623E+02  0.29584885762E+02  0.25738721021E+02  0.60911875931E+02  0.51100000000E-03 0. -1.
         23    2    1    0    0    0  0.25127130971E+02  0.15469354250E+02  0.28066822882E+01  0.95359637364E+02  0.90636137059E+02 0.  0.
         11    1    3    3    0    0 -0.21483054652E+02 -0.14115531512E+02 -0.22932038733E+02  0.34447761433E+02  0.51100000000E-03 0.  1.
         22    1    1    0    0    0 -0.25127130971E+02 -0.15469354250E+02 -0.28066822882E+01  0.29640362636E+02  0.00000000000E+00 0. -1.
</event>
<event>
 5    1  0.6650580E-004  0.9118800E+02  0.7818608E-02  0.1130116E+00
         25   -1    0    0    0    0  0.00000000000E+00  0.00000000000E+00  0.99999998245E-14  0.12500000000E+03  0.12500000000E+03 0.  0.
        -11    1    3    3    0    0  0.84242608712E+01  0.58873744757E+01 -0.45028861065E+02  0.46186877774E+02  0.51100000000E-03 0. -1.
         23    2    1    0    0    0  0.28472419889E+02 -0.51398144195E+00  0.68741806167E+00  0.96514645607E+02  0.92215299175E+02 0.  0.
         11    1    3    3    0    0  0.20048159018E+02 -0.64013559176E+01  0.45716279127E+02  0.50327767833E+02  0.51100000000E-03 0.  1.
         22    1    1    0    0    0 -0.28472419889E+02  0.51398144195E+00 -0.68741806167E+00  0.28485354393E+02  0.00000000000E+00 0. -1.
</event>
<event>
 5    1  0.6650580E-004  0.9118800E+02  0.7818608E-02  0.1130116E+00
         25   -1    0    0    0    0  0.00000000000E+00  0.00000000000E+00  0.99999998245E-14  0.12500000000E+03  0.12500000000E+03 0.  0.
        -11    1    3    3    0    0  0.48880592712E+02 -0.21821789652E+02 -0.17429022156E+02  0.56296302375E+02  0.51100000000E-03 0.  1.
         23    2    1    0    0    0  0.24323469665E+02 -0.90289800071E+01  0.11746426474E+02  0.96519617429E+02  0.92222038349E+02 0.  0.
         11    1    3    3    0    0 -0.24557123047E+02  0.12792809645E+02  0.29175448630E+02  0.40223315054E+02  0.51100000000E-03 0. -1.
         22    1    1    0    0    0 -0.24323469665E+02  0.90289800071E+01 -0.11746426474E+02  0.28480382571E+02  0.00000000000E+00 0.  1.
</event>
<event>
 5    1  0.6650580E-004  0.9118800E+02  0.7818608E-02  0.1130116E+00
         25   -1    0    0    0    0  0.00000000000E+00  0.00000000000E+00  0.99999998245E-14  0.12500000000E+03  0.12500000000E+03 0.  0.
        -11    1    3    3    0    0 -0.39042793508E+02  0.11443603389E+02 -0.88821364086E+01  0.41643584511E+02  0.51100000000E-03 0.  1.
         23    2    1    0    0    0  0.11662094172E+01 -0.27131732984E+02 -0.25195258407E+01  0.97726588229E+02  0.93843737444E+02 0.  0.
         11    1    3    3    0    0  0.40209002926E+02 -0.38575336374E+02  0.63626105679E+01  0.56083003719E+02  0.51100000000E-03 0. -1.
         22    1    1    0    0    0 -0.11662094172E+01  0.27131732984E+02  0.25195258407E+01  0.27273411771E+02  0.00000000000E+00 0. -1.
</event>
<event>
 5    1  0.6650580E-004  0.9118800E+02  0.7818608E-02  0.1130116E+00
         25   -1    0    0    0    0  0.00000000000E+00  0.00000000000E+00  0.99999998245E-14  0.12500000000E+03  0.12500000000E+03 0.  0.
        -11    1    3    3    0    0  0.40491629708E+02  0.11012425869E+01  0.14991551422E+02  0.43191798132E+02  0.51100000000E-03 0.  1.
         23    2    1    0    0    0  0.87124719681E+01  0.12708849441E+02 -0.25036041399E+02  0.95602289361E+02  0.90970172805E+02 0.  0.
         11    1    3    3    0    0 -0.31779157740E+02  0.11607606854E+02 -0.40027592821E+02  0.52410491228E+02  0.51100000000E-03 0. -1.
         22    1    1    0    0    0 -0.87124719681E+01 -0.12708849441E+02  0.25036041399E+02  0.29397710639E+02  0.00000000000E+00 0. -1.
</event>
<event>
 5    1  0.6650580E-004  0.9118800E+02  0.7818608E-02  0.1130116E+00
         25   -1    0    0    0    0  0.00000000000E+00  0.00000000000E+00  0.99999998245E-14  0.12500000000E+03  0.12500000000E+03 0.  0.
        -11    1    3    3    0    0  0.23127508740E+01 -0.90931558620E+01 -0.15067500138E+02  0.17750038333E+02  0.51100000000E-03 0. -1.
         23    2    1    0    0    0 -0.46240623970E+02 -0.16293223083E+02  0.12981405569E+02  0.74283323116E+02  0.54275508096E+02 0.  0.
         11    1    3    3    0    0 -0.48553374844E+02 -0.72000672207E+01  0.28048905707E+02  0.56533284783E+02  0.51100000000E-03 0.  1.
         22    1    1    0    0    0  0.46240623970E+02  0.16293223083E+02 -0.12981405569E+02  0.50716676884E+02  0.00000000000E+00 0.  1.
</event>
<event>
 5    1  0.6650580E-004  0.9118800E+02  0.7818608E-02  0.1130116E+00
         25   -1    0    0    0    0  0.00000000000E+00  0.00000000000E+00  0.99999998245E-14  0.12500000000E+03  0.12500000000E+03 0.  0.
        -11    1    3    3    0    0  0.25936036866E+02 -0.56125940108E+02  0.38330321931E+01  0.61947488225E+02  0.51100000000E-03 0.  1.
         23    2    1    0    0    0  0.86162314949E+01 -0.31877056181E+02  0.39238545887E+01  0.91746687522E+02  0.85508314686E+02 0.  0.
         11    1    3    3    0    0 -0.17319805371E+02  0.24248883927E+02  0.90822395639E-01  0.29799199297E+02  0.51100000000E-03 0. -1.
         22    1    1    0    0    0 -0.86162314949E+01  0.31877056181E+02 -0.39238545887E+01  0.33253312478E+02  0.00000000000E+00 0.  1.
</event>
<event>
 5    1  0.6650580E-004  0.9118800E+02  0.7818608E-02  0.1130116E+00
         25   -1    0    0    0    0  0.00000000000E+00  0.00000000000E+00  0.99999998245E-14  0.12500000000E+03  0.12500000000E+03 0.  0.
        -11    1    3    3    0    0  0.75084605061E+01 -0.23954780443E+02  0.56032991189E+02  0.61399548753E+02  0.51100000000E-03 0.  1.
         23    2    1    0    0    0  0.10549699629E+02 -0.14292546764E+02  0.23074984977E+02  0.95879079909E+02  0.91349712519E+02 0.  0.
         11    1    3    3    0    0  0.30412391229E+01  0.96622336785E+01 -0.32958006212E+02  0.34479531157E+02  0.51100000000E-03 0. -1.
         22    1    1    0    0    0 -0.10549699629E+02  0.14292546764E+02 -0.23074984977E+02  0.29120920091E+02  0.00000000000E+00 0.  1.
</event>
<event>
 5    1  0.6650580E-004  0.9118800E+02  0.7818608E-02  0.1130116E+00
         25   -1    0    0    0    0  0.00000000000E+00  0.00000000000E+00  0.99999998245E-14  0.12500000000E+03  0.12500000000E+03 0.  0.
        -11    1    3    3    0    0  0.21449691489E+02 -0.52906367377E+02 -0.45653906782E+01  0.57271421899E+02  0.51100000000E-03 0.  1.
         23    2    1    0    0    0  0.30030603999E+01 -0.21226145972E+02 -0.18691300374E+02  0.96558263867E+02  0.92274405805E+02 0.  0.
         11    1    3    3    0    0 -0.18446631089E+02  0.31680221405E+02 -0.14125909696E+02  0.39286841968E+02  0.51100000000E-03 0. -1.
         22    1    1    0    0    0 -0.30030603999E+01  0.21226145972E+02  0.18691300374E+02  0.28441736133E+02  0.00000000000E+00 0.  1.
</event>
<event>
 5    1  0.6650580E-004  0.9118800E+02  0.7818608E-02  0.1130116E+00
         25   -1    0    0    0    0  0.00000000000E+00  0.00000000000E+00  0.99999998245E-14  0.12500000000E+03  0.12500000000E+03 0.  0.
        -11    1    3    3    0    0 -0.47225271551E+01 -0.47484569822E+02  0.35896788442E+02  0.59713198328E+02  0.51100000000E-03 0. -1.
         23    2    1    0    0    0 -0.12925257031E+02 -0.24934138869E+02  0.95838079197E+01  0.95324708516E+02  0.90587952449E+02 0.  0.
         11    1    3    3    0    0 -0.82027298759E+01  0.22550430953E+02 -0.26312980522E+02  0.35611510187E+02  0.51100000000E-03 0.  1.
         22    1    1    0    0    0  0.12925257031E+02  0.24934138869E+02 -0.95838079197E+01  0.29675291484E+02  0.00000000000E+00 0. -1.
</event>
<event>
 5    1  0.6650580E-004  0.9118800E+02  0.7818608E-02  0.1130116E+00
         25   -1    0    0    0    0  0.00000000000E+00  0.00000000000E+00  0.99999998245E-14  0.12500000000E+03  0.12500000000E+03 0.  0.
        -11    1    3    3    0    0  0.21702906304E+02 -0.25715902663E+02 -0.18682900936E+02  0.38488629223E+02  0.51100000000E-03 0.  1.
         23    2    1    0    0    0  0.21809944977E+02  0.24879643329E+02 -0.16549033868E+01  0.91872835055E+02  0.85692524550E+02 0.  0.
         11    1    3    3    0    0  0.10703867303E+00  0.50595545992E+02  0.17027997549E+02  0.53384205832E+02  0.51100000000E-03 0. -1.
         22    1    1    0    0    0 -0.21809944977E+02 -0.24879643329E+02  0.16549033868E+01  0.33127164945E+02  0.00000000000E+00 0. -1.
</event>
<event>
 5    1  0.6650580E-004  0.9118800E+02  0.7818608E-02  0.1130116E+00
         25   -1    0    0    0    0  0.00000000000E+00  0.00000000000E+00  0.99999998245E-14  0.12500000000E+03  0.12500000000E+03 0.  0.
        -11    1    3    3    0    0 -0.13717770821E+02 -0.28706229470E+02  0.27304253732E+02  0.41925494855E+02  0.51100000000E-03 0.  1.
         23    2    1    0    0    0 -0.24836774394E+02  0.42140654358E+00 -0.16123266462E+02  0.95385769178E+02  0.90672169349E+02 0.  0.
         11    1    3    3    0    0 -0.11119003573E+02  0.29127636014E+02 -0.43427520194E+02  0.53460274323E+02  0.51100000000E-03 0. -1.
         22    1    1    0    0    0  0.24836774394E+02 -0.42140654358E+00  0.16123266462E+02  0.29614230822E+02  0.00000000000E+00 0. -1.
</event>
<event>
 5    1  0.6650580E-004  0.9118800E+02  0.7818608E-02  0.1130116E+00
         25   -1    0    0    0    0  0.00000000000E+00  0.00000000000E+00  0.99999998245E-14  0.12500000000E+03  0.12500000000E+03 0.  0.
        -11    1    3    3    0    0  0.15263253986E+02 -0.48443047591E+01 -0.39260848311E+02  0.42401042690E+02  0.51100000000E-03 0.  1.
         23    2    1    0    0    0  0.24994033106E+02 -0.77022523923E+01  0.13109586110E+02  0.95744442737E+02  0.91165293200E+02 0.  0.
         11    1    3    3    0    0  0.97307791195E+01 -0.28579476332E+01  0.52370434420E+02  0.53343400047E+02  0.51100000000E-03 0. -1.
         22    1    1    0    0    0 -0.24994033106E+02  0.77022523923E+01 -0.13109586110E+02  0.29255557263E+02  0.00000000000E+00 0. -1.
</event>
<event>
 5    1  0.6650580E-004  0.9118800E+02  0.7818608E-02  0.1130116E+00
         25   -1    0    0    0    0  0.00000000000E+00  0.00000000000E+00  0.99999998245E-14  0.12500000000E+03  0.12500000000E+03 0.  0.
        -11    1    3    3    0    0  0.15089822070E+02  0.46546014717E+02  0.10007004155E+02  0.49943711802E+02  0.51100000000E-03 0.  1.
         23    2    1    0    0    0 -0.21356554761E+02  0.20022508345E+02  0.50771760485E+01  0.95288369477E+02  0.90537795253E+02 0.  0.
         11    1    3    3    0    0 -0.36446376831E+02 -0.26523506371E+02 -0.49298281061E+01  0.45344657676E+02  0.51100000000E-03 0. -1.
         22    1    1    0    0    0  0.21356554761E+02 -0.20022508345E+02 -0.50771760485E+01  0.29711630523E+02  0.00000000000E+00 0. -1.
</event>
<event>
 5    1  0.6650580E-004  0.9118800E+02  0.7818608E-02  0.1130116E+00
         25   -1    0    0    0    0  0.00000000000E+00  0.00000000000E+00  0.99999998245E-14  0.12500000000E+03  0.12500000000E+03 0.  0.
        -11    1    3    3    0    0 -0.37780236480E+02 -0.19250953684E+02  0.59361973370E+01  0.42815697183E+02  0.51100000000E-03 0.  1.
         23    2    1    0    0    0  0.17887041918E+02 -0.19175849482E+02  0.35867267913E+01  0.98532584542E+02  0.94911253998E+02 0.  0.
         11    1    3    3    0    0  0.55667278398E+02  0.75104201781E-01 -0.23494705457E+01  0.55716887359E+02  0.51100000000E-03 0. -1.
         22    1    1    0    0    0 -0.17887041918E+02  0.19175849482E+02 -0.35867267913E+01  0.26467415458E+02  0.00000000000E+00 0. -1.
</event>
<event>
 5    1  0.6650580E-004  0.9118800E+02  0.7818608E-02  0.1130116E+00
         25   -1    0    0    0    0  0.00000000000E+00  0.00000000000E+00  0.99999998245E-14  0.12500000000E+03  0.12500000000E+03 0.  0.
        -11    1    3    3    0    0  0.10011993914E+02 -0.15091207155E+02 -0.55141224659E+02  0.58039117953E+02  0.51100000000E-03 0.  1.
         23    2    1    0    0    0  0.12957545148E+01 -0.22309836736E+02 -0.19818401195E+02  0.95130670900E+02  0.90319808043E+02 0.  0.
         11    1    3    3    0    0 -0.87162393988E+01 -0.72186295810E+01  0.35322823464E+02  0.37091552947E+02  0.51100000000E-03 0. -1.
         22    1    1    0    0    0 -0.12957545148E+01  0.22309836736E+02  0.19818401195E+02  0.29869329100E+02  0.00000000000E+00 0.  1.
</event>
<event>
 5    1  0.6650580E-004  0.9118800E+02  0.7818608E-02  0.1130116E+00
         25   -1    0    0    0    0  0.00000000000E+00  0.00000000000E+00  0.99999998245E-14  0.12500000000E+03  0.12500000000E+03 0.  0.
        -11    1    3    3    0    0 -0.82336388760E+01 -0.18261937336E+01  0.35606239652E+02  0.36591421059E+02  0.51100000000E-03 0.  1.
         23    2    1    0    0    0  0.32252768350E+01 -0.25593139683E+02 -0.16066045677E+02  0.94610379515E+02  0.89596846367E+02 0.  0.
         11    1    3    3    0    0  0.11458915711E+02 -0.23766945950E+02 -0.51672285328E+02  0.58018958457E+02  0.51100000000E-03 0. -1.
         22    1    1    0    0    0 -0.32252768350E+01  0.25593139683E+02  0.16066045677E+02  0.30389620485E+02  0.00000000000E+00 0. -1.
</event>
<event>
 5    1  0.6650580E-004  0.9118800E+02  0.7818608E-02  0.1130116E+00
         25   -1    0    0    0    0  0.00000000000E+00  0.00000000000E+00  0.99999998245E-14  0.12500000000E+03  0.12500000000E+03 0.  0.
        -11    1    3    3    0    0  0.35519717019E+02  0.32072469283E+02  0.18185138165E+02  0.51195632952E+02  0.51100000000E-03 0. -1.
         23    2    1    0    0    0  0.10802349915E+02 -0.46161483108E+01  0.26321838314E+02  0.96175726182E+02  0.91754735821E+02 0.  0.
         11    1    3    3    0    0 -0.24717367103E+02 -0.36688617594E+02  0.81367001490E+01  0.44980093231E+02  0.51100000000E-03 0.  1.
         22    1    1    0    0    0 -0.10802349915E+02  0.46161483108E+01 -0.26321838314E+02  0.28824273818E+02  0.00000000000E+00 0. -1.
</event>
<event>
 5    1  0.6650580E-004  0.9118800E+02  0.7818608E-02  0.1130116E+00
         25   -1    0    0    0    0  0.00000000000E+00  0.00000000000E+00  0.99999998245E-14  0.12500000000E+03  0.12500000000E+03 0.  0.
        -11    1    3    3    0    0 -0.78465687030E+01 -0.68423600157E+00 -0.58882096308E+02  0.59406549178E+02  0.51100000000E-03 0.  1.
         23    2    1    0    0    0  0.24734821000E+01 -0.12753541010E+02 -0.28041333312E+02  0.94095513337E+02  0.88875634086E+02 0.  0.
         11    1    3    3    0    0  0.10320050803E+02 -0.12069305008E+02  0.30840762996E+02  0.34688964159E+02  0.51100000000E-03 0. -1.
         22    1    1    0    0    0 -0.24734821000E+01  0.12753541010E+02  0.28041333312E+02  0.30904486663E+02  0.00000000000E+00 0.  1.
</event>
<event>
 5    1  0.6650580E-004  0.9118800E+02  0.7818608E-02  0.1130116E+00
         25   -1    0    0    0    0  0.00000000000E+00  0.00000000000E+00  0.99999998245E-14  0.12500000000E+03  0.12500000000E+03 0.  0.
        -11    1    3    3    0    0 -0.17617513628E+02 -0.10695515094E+02 -0.48773459111E+02  0.52949231755E+02  0.51100000000E-03 0.  1.
         23    2    1    0    0    0  0.16103591633E+02  0.16793354882E+01 -0.21679394144E+02  0.97941878084E+02  0.94130067041E+02 0.  0.
         11    1    3    3    0    0  0.33721105261E+02  0.12374850582E+02  0.27094064968E+02  0.44992646329E+02  0.51100000000E-03 0. -1.
         22    1    1    0    0    0 -0.16103591633E+02 -0.16793354882E+01  0.21679394144E+02  0.27058121916E+02  0.00000000000E+00 0.  1.
</event>
<event>
 5    1  0.6650580E-004  0.9118800E+02  0.7818608E-02  0.1130116E+00
         25   -1    0    0    0    0  0.00000000000E+00  0.00000000000E+00  0.99999998245E-14  0.12500000000E+03  0.12500000000E+03 0.  0.
        -11    1    3    3    0    0 -0.20421116853E+02  0.44113661529E+02  0.49965053233E+01  0.48867189531E+02  0.51100000000E-03 0. -1.
         23    2    1    0    0    0 -0.25517901725E+02  0.26714449394E+01 -0.15124262060E+02  0.95216729035E+02  0.90438831587E+02 0.  0.
         11    1    3    3    0    0 -0.50967848723E+01 -0.41442216589E+02 -0.20120767383E+02  0.46349539504E+02  0.51100000000E-03 0.  1.
         22    1    1    0    0    0  0.25517901725E+02 -0.26714449394E+01  0.15124262060E+02  0.29783270965E+02  0.00000000000E+00 0.  1.
</event>
<event>
 5    1  0.6650580E-004  0.9118800E+02  0.7818608E-02  0.1130116E+00
         25   -1    0    0    0    0  0.00000000000E+00  0.00000000000E+00  0.99999998245E-14  0.12500000000E+03  0.12500000000E+03 0.  0.
        -11    1    3    3    0    0 -0.35208491205E+02  0.23677132068E+02 -0.40462011695E+02  0.58629504744E+02  0.51100000000E-03 0.  1.
         23    2    1    0    0    0 -0.12809208887E+02 -0.11459928827E+01 -0.27777327101E+02  0.94390050100E+02  0.89288927226E+02 0.  0.
         11    1    3    3    0    0  0.22399282318E+02 -0.24823124950E+02  0.12684684594E+02  0.35760545356E+02  0.51100000000E-03 0. -1.
         22    1    1    0    0    0  0.12809208887E+02  0.11459928827E+01  0.27777327101E+02  0.30609949900E+02  0.00000000000E+00 0.  1.
</event>
<event>
 5    1  0.6650580E-004  0.9118800E+02  0.7818608E-02  0.1130116E+00
         25   -1    0    0    0    0  0.00000000000E+00  0.00000000000E+00  0.99999998245E-14  0.12500000000E+03  0.12500000000E+03 0.  0.
        -11    1    3    3    0    0  0.10123481251E+02 -0.86091954265E+01 -0.44645061685E+02  0.46580947303E+02  0.51100000000E-03 0.  1.
         23    2    1    0    0    0  0.26256554981E+02 -0.14579049547E+02  0.57445533726E+00  0.94961934748E+02  0.90085979414E+02 0.  0.
         11    1    3    3    0    0  0.16133073730E+02 -0.59698541203E+01  0.45219517022E+02  0.48380987445E+02  0.51100000000E-03 0. -1.
         22    1    1    0    0    0 -0.26256554981E+02  0.14579049547E+02 -0.57445533726E+00  0.30038065252E+02  0.00000000000E+00 0.  1.
</event>
<event>
 5    1  0.6650580E-004  0.9118800E+02  0.7818608E-02  0.1130116E+00
         25   -1    0    0    0    0  0.00000000000E+00  0.00000000000E+00  0.99999998245E-14  0.12500000000E+03  0.12500000000E+03 0.  0.
        -11    1    3    3    0    0  0.56265909181E+02 -0.12155300502E+02 -0.87096053629E+01  0.58219078420E+02  0.51100000000E-03 0. -1.
         23    2    1    0    0    0  0.26140131970E+02  0.10728039366E+02 -0.17109994078E+01  0.96692318233E+02  0.92455824901E+02 0.  0.
         11    1    3    3    0    0 -0.30125777211E+02  0.22883339868E+02  0.69986059550E+01  0.38473239812E+02  0.51100000000E-03 0.  1.
         22    1    1    0    0    0 -0.26140131970E+02 -0.10728039366E+02  0.17109994078E+01  0.28307681767E+02  0.00000000000E+00 0. -1.
</event>
<event>
 5    1  0.6650580E-004  0.9118800E+02  0.7818608E-02  0.1130116E+00
         25   -1    0    0    0    0  0.00000000000E+00  0.00000000000E+00  0.99999998245E-14  0.12500000000E+03  0.12500000000E+03 0.  0.
        -11    1    3    3    0    0  0.16360524857E+02  0.34486244657E+02  0.40231023198E+02  0.55457218393E+02  0.51100000000E-03 0.  1.
         23    2    1    0    0    0  0.19232304643E+02 -0.66445337425E+00  0.23880325975E+02  0.94330911184E+02  0.89206097302E+02 0.  0.
         11    1    3    3    0    0  0.28717797859E+01 -0.35150698031E+02 -0.16350697223E+02  0.38873692790E+02  0.51100000000E-03 0. -1.
         22    1    1    0    0    0 -0.19232304643E+02  0.66445337425E+00 -0.23880325975E+02  0.30669088816E+02  0.00000000000E+00 0. -1.
</event>
<event>
 5    1  0.6650580E-004  0.9118800E+02  0.7818608E-02  0.1130116E+00
         25   -1    0    0    0    0  0.00000000000E+00  0.00000000000E+00  0.99999998245E-14  0.12500000000E+03  0.12500000000E+03 0.  0.
        -11    1    3    3    0    0  0.79339349910E+01  0.36757881901E+02 -0.24211484049E+02  0.44724547693E+02  0.51100000000E-03 0.  1.
         23    2    1    0    0    0  0.28974387944E+02 -0.14130460249E+01  0.25645978403E+01  0.95878032039E+02  0.91348278637E+02 0.  0.
         11    1    3    3    0    0  0.21040452953E+02 -0.38170927925E+02  0.26776081889E+02  0.51153484346E+02  0.51100000000E-03 0. -1.
         22    1    1    0    0    0 -0.28974387944E+02  0.14130460249E+01 -0.25645978403E+01  0.29121967961E+02  0.00000000000E+00 0. -1.
</event>
<event>
 5    1  0.6650580E-004  0.9118800E+02  0.7818608E-02  0.1130116E+00
         25   -1    0    0    0    0  0.00000000000E+00  0.00000000000E+00  0.99999998245E-14  0.12500000000E+03  0.12500000000E+03 0.  0.
        -11    1    3    3    0    0  0.24515363041E+02 -0.31588654078E+02  0.20795971416E+02  0.45070151086E+02  0.51100000000E-03 0. -1.
         23    2    1    0    0    0  0.20702184765E+01  0.10711083848E+02  0.29326722725E+02  0.93709909116E+02  0.88331632381E+02 0.  0.
         11    1    3    3    0    0 -0.22445144565E+02  0.42299737926E+02  0.85307513090E+01  0.48639758031E+02  0.51100000000E-03 0.  1.
         22    1    1    0    0    0 -0.20702184765E+01 -0.10711083848E+02 -0.29326722725E+02  0.31290090884E+02  0.00000000000E+00 0.  1.
</event>
<event>
 5    1  0.6650580E-004  0.9118800E+02  0.7818608E-02  0.1130116E+00
         25   -1    0    0    0    0  0.00000000000E+00  0.00000000000E+00  0.99999998245E-14  0.12500000000E+03  0.12500000000E+03 0.  0.
        -11    1    3    3    0    0  0.24294303268E+02 -0.47892536445E+02 -0.78534084930E+01  0.54273236900E+02  0.51100000000E-03 0. -1.
         23    2    1    0    0    0  0.26393525110E+02 -0.10893972187E+02  0.91089157820E+01  0.95028861476E+02  0.90178796670E+02 0.  0.
         11    1    3    3    0    0  0.20992218413E+01  0.36998564258E+02  0.16962324275E+02  0.40755624576E+02  0.51100000000E-03 0.  1.
         22    1    1    0    0    0 -0.26393525110E+02  0.10893972187E+02 -0.91089157820E+01  0.29971138524E+02  0.00000000000E+00 0. -1.
</event>
<event>
 5    1  0.6650580E-004  0.9118800E+02  0.7818608E-02  0.1130116E+00
         25   -1    0    0    0    0  0.00000000000E+00  0.00000000000E+00  0.99999998245E-14  0.12500000000E+03  0.12500000000E+03 0.  0.
        -11    1    3    3    0    0 -0.42924267187E+02 -0.16173157129E+02 -0.38816607032E+02  0.60089871916E+02  0.51100000000E-03 0.  1.
         23    2    1    0    0    0 -0.13707369750E+02 -0.18143042305E+02 -0.17296697097E+02  0.96430126006E+02  0.92100659615E+02 0.  0.
         11    1    3    3    0    0  0.29216897437E+02 -0.19698851761E+01  0.21519909935E+02  0.36340254090E+02  0.51100000000E-03 0. -1.
         22    1    1    0    0    0  0.13707369750E+02  0.18143042305E+02  0.17296697097E+02  0.28569873994E+02  0.00000000000E+00 0.  1.
</event>
<event>
 5    1  0.6650580E-004  0.9118800E+02  0.7818608E-02  0.1130116E+00
         25   -1    0    0    0    0  0.00000000000E+00  0.00000000000E+00  0.99999998245E-14  0.12500000000E+03  0.12500000000E+03 0.  0.
        -11    1    3    3    0    0  0.47176744438E+01 -0.13038318487E+02  0.32681613286E+02  0.35501296432E+02  0.51100000000E-03 0.  1.
         23    2    1    0    0    0  0.11761647590E+02  0.95045266654E+01 -0.23845446077E+02  0.96763894040E+02  0.92552544590E+02 0.  0.
         11    1    3    3    0    0  0.70439731462E+01  0.22542845152E+02 -0.56527059363E+02  0.61262597608E+02  0.51100000000E-03 0. -1.
         22    1    1    0    0    0 -0.11761647590E+02 -0.95045266654E+01  0.23845446077E+02  0.28236105960E+02  0.00000000000E+00 0. -1.
</event>
<event>
 5    1  0.6650580E-004  0.9118800E+02  0.7818608E-02  0.1130116E+00
         25   -1    0    0    0    0  0.00000000000E+00  0.00000000000E+00  0.99999998245E-14  0.12500000000E+03  0.12500000000E+03 0.  0.
        -11    1    3    3    0    0 -0.22772064467E+02  0.24625336278E+02  0.27811207681E+01  0.33655738588E+02  0.51100000000E-03 0.  1.
         23    2    1    0    0    0  0.60213387326E+01 -0.28988308478E+02  0.67219391330E+01  0.94639449705E+02  0.89637394128E+02 0.  0.
         11    1    3    3    0    0  0.28793403200E+02 -0.53613644756E+02  0.39408183649E+01  0.60983711116E+02  0.51100000000E-03 0. -1.
         22    1    1    0    0    0 -0.60213387326E+01  0.28988308478E+02 -0.67219391330E+01  0.30360550295E+02  0.00000000000E+00 0. -1.
</event>
<event>
 5    1  0.6650580E-004  0.9118800E+02  0.7818608E-02  0.1130116E+00
         25   -1    0    0    0    0  0.00000000000E+00  0.00000000000E+00  0.99999998245E-14  0.12500000000E+03  0.12500000000E+03 0.  0.
        -11    1    3    3    0    0 -0.34538555484E+02 -0.13968076937E+02 -0.44047986884E+01  0.37515613283E+02  0.51100000000E-03 0.  1.
         23    2    1    0    0    0  0.76064796577E+01  0.26292748768E+02 -0.95106746149E+01  0.96023801109E+02  0.91547530154E+02 0.  0.
         11    1    3    3    0    0  0.42145035142E+02  0.40260825704E+02 -0.51058759265E+01  0.58508187826E+02  0.51100000000E-03 0. -1.
         22    1    1    0    0    0 -0.76064796577E+01 -0.26292748768E+02  0.95106746149E+01  0.28976198891E+02  0.00000000000E+00 0. -1.
</event>
<event>
 5    1  0.6650580E-004  0.9118800E+02  0.7818608E-02  0.1130116E+00
         25   -1    0    0    0    0  0.00000000000E+00  0.00000000000E+00  0.99999998245E-14  0.12500000000E+03  0.12500000000E+03 0.  0.
        -11    1    3    3    0    0  0.86414726521E+01 -0.31779463497E+02 -0.13689992528E+02  0.35665462922E+02  0.51100000000E-03 0. -1.
         23    2    1    0    0    0 -0.26338264825E+02  0.12367912343E+02  0.59184880526E+01  0.95306600892E+02  0.90562962756E+02 0.  0.
         11    1    3    3    0    0 -0.34979737477E+02  0.44147375840E+02  0.19608480580E+02  0.59641137971E+02  0.51100000000E-03 0.  1.
         22    1    1    0    0    0  0.26338264825E+02 -0.12367912343E+02 -0.59184880526E+01  0.29693399108E+02  0.00000000000E+00 0.  1.
</event>
<event>
 5    1  0.6650580E-004  0.9118800E+02  0.7818608E-02  0.1130116E+00
         25   -1    0    0    0    0  0.00000000000E+00  0.00000000000E+00  0.99999998245E-14  0.12500000000E+03  0.12500000000E+03 0.  0.
        -11    1    3    3    0    0 -0.23897786257E+02  0.20783638869E+02 -0.22543113928E+02  0.38874873871E+02  0.51100000000E-03 0. -1.
         23    2    1    0    0    0 -0.14885650601E+02 -0.23272772667E+02  0.11296270899E+02  0.95153555024E+02  0.90351473458E+02 0.  0.
         11    1    3    3    0    0  0.90121356555E+01 -0.44056411537E+02  0.33839384828E+02  0.56278681153E+02  0.51100000000E-03 0.  1.
         22    1    1    0    0    0  0.14885650601E+02  0.23272772667E+02 -0.11296270899E+02  0.29846444976E+02  0.00000000000E+00 0.  1.
</event>
<event>
 5    1  0.6650580E-004  0.9118800E+02  0.7818608E-02  0.1130116E+00
         25   -1    0    0    0    0  0.00000000000E+00  0.00000000000E+00  0.99999998245E-14  0.12500000000E+03  0.12500000000E+03 0.  0.
        -11    1    3    3    0    0  0.10546776228E+02  0.35253309028E+02  0.26935034567E+02  0.45601824235E+02  0.51100000000E-03 0.  1.
         23    2    1    0    0    0 -0.25897134407E+02  0.11585827254E+02  0.18735415141E+00  0.96628745794E+02  0.92369835166E+02 0.  0.
         11    1    3    3    0    0 -0.36443910635E+02 -0.23667481774E+02 -0.26747680416E+02  0.51026921559E+02  0.51100000000E-03 0. -1.
         22    1    1    0    0    0  0.25897134407E+02 -0.11585827254E+02 -0.18735415141E+00  0.28371254206E+02  0.00000000000E+00 0.  1.
</event>
<event>
 5    1  0.6650580E-004  0.9118800E+02  0.7818608E-02  0.1130116E+00
         25   -1    0    0    0    0  0.00000000000E+00  0.00000000000E+00  0.99999998245E-14  0.12500000000E+03  0.12500000000E+03 0.  0.
        -11    1    3    3    0    0  0.11330435617E+02  0.52278742506E+02  0.23743687450E+02  0.58525279865E+02  0.51100000000E-03 0.  1.
         23    2    1    0    0    0  0.16176321118E+02  0.23068161638E+02 -0.54114845625E+00  0.96820108447E+02  0.92628435762E+02 0.  0.
         11    1    3    3    0    0  0.48458855016E+01 -0.29210580867E+02 -0.24284835906E+02  0.38294828582E+02  0.51100000000E-03 0. -1.
         22    1    1    0    0    0 -0.16176321118E+02 -0.23068161638E+02  0.54114845625E+00  0.28179891553E+02  0.00000000000E+00 0.  1.
</event>
<event>
 5    1  0.6650580E-004  0.9118800E+02  0.7818608E-02  0.1130116E+00
         25   -1    0    0    0    0  0.00000000000E+00  0.00000000000E+00  0.99999998245E-14  0.12500000000E+03  0.12500000000E+03 0.  0.
        -11    1    3    3    0    0 -0.24611277153E+02  0.13038420253E+02 -0.30596334949E+02  0.41374522093E+02  0.51100000000E-03 0. -1.
         23    2    1    0    0    0 -0.75555255001E+01 -0.26904527296E+02  0.38270115824E+01  0.96793873497E+02  0.92593025517E+02 0.  0.
         11    1    3    3    0    0  0.17055751653E+02 -0.39942947549E+02  0.34423346532E+02  0.55419351405E+02  0.51100000000E-03 0.  1.
         22    1    1    0    0    0  0.75555255001E+01  0.26904527296E+02 -0.38270115824E+01  0.28206126503E+02  0.00000000000E+00 0.  1.
</event>
<event>
 5    1  0.6650580E-004  0.9118800E+02  0.7818608E-02  0.1130116E+00
         25   -1    0    0    0    0  0.00000000000E+00  0.00000000000E+00  0.99999998245E-14  0.12500000000E+03  0.12500000000E+03 0.  0.
        -11    1    3    3    0    0  0.22309499162E+01  0.30530004326E+02 -0.64163546741E+01  0.31276635197E+02  0.51100000000E-03 0.  1.
         23    2    1    0    0    0  0.13118038981E+02 -0.26975305765E+02  0.12089543080E+02  0.92659512686E+02  0.86832471873E+02 0.  0.
         11    1    3    3    0    0  0.10887089065E+02 -0.57505310091E+02  0.18505897754E+02  0.61382877489E+02  0.51100000000E-03 0. -1.
         22    1    1    0    0    0 -0.13118038981E+02  0.26975305765E+02 -0.12089543080E+02  0.32340487314E+02  0.00000000000E+00 0. -1.
</event>
<event>
 5    1  0.6650580E-004  0.9118800E+02  0.7818608E-02  0.1130116E+00
         25   -1    0    0    0    0  0.00000000000E+00  0.00000000000E+00  0.99999998245E-14  0.12500000000E+03  0.12500000000E+03 0.  0.
        -11    1    3    3    0    0 -0.30323234484E+02 -0.22740837758E+02  0.40040440120E+02  0.55135116730E+02  0.51100000000E-03 0.  1.
         23    2    1    0    0    0  0.38422387486E+01 -0.22550184288E+02  0.13145921942E+02  0.98616503762E+02  0.95021712995E+02 0.  0.
         11    1    3    3    0    0  0.34165473233E+02  0.19065347043E+00 -0.26894518178E+02  0.43481387032E+02  0.51100000000E-03 0. -1.
         22    1    1    0    0    0 -0.38422387486E+01  0.22550184288E+02 -0.13145921942E+02  0.26383496238E+02  0.00000000000E+00 0.  1.
</event>
<event>
 5    1  0.6650580E-004  0.9118800E+02  0.7818608E-02  0.1130116E+00
         25   -1    0    0    0    0  0.00000000000E+00  0.00000000000E+00  0.99999998245E-14  0.12500000000E+03  0.12500000000E+03 0.  0.
        -11    1    3    3    0    0 -0.75211064703E+01 -0.46458293878E+02 -0.30605996081E+02  0.56139710624E+02  0.51100000000E-03 0. -1.
         23    2    1    0    0    0 -0.16454372158E+02 -0.29164047054E+02 -0.10895911535E+01  0.91496638787E+02  0.85141997257E+02 0.  0.
         11    1    3    3    0    0 -0.89332656877E+01  0.17294246824E+02  0.29516404927E+02  0.35356928163E+02  0.51100000000E-03 0.  1.
         22    1    1    0    0    0  0.16454372158E+02  0.29164047054E+02  0.10895911535E+01  0.33503361213E+02  0.00000000000E+00 0. -1.
</event>
<event>
 5    1  0.6650580E-004  0.9118800E+02  0.7818608E-02  0.1130116E+00
         25   -1    0    0    0    0  0.00000000000E+00  0.00000000000E+00  0.99999998245E-14  0.12500000000E+03  0.12500000000E+03 0.  0.
        -11    1    3    3    0    0  0.37173151094E+02 -0.21878101687E+02 -0.38469034119E+02  0.57795856962E+02  0.51100000000E-03 0. -1.
         23    2    1    0    0    0  0.16990840059E+02 -0.23776920130E+02 -0.74666928975E+01  0.94837405954E+02  0.89913021796E+02 0.  0.
         11    1    3    3    0    0 -0.20182311035E+02 -0.18988184430E+01  0.31002341221E+02  0.37041548991E+02  0.51100000000E-03 0.  1.
         22    1    1    0    0    0 -0.16990840059E+02  0.23776920130E+02  0.74666928975E+01  0.30162594046E+02  0.00000000000E+00 0. -1.
</event>
<event>
 5    1  0.6650580E-004  0.9118800E+02  0.7818608E-02  0.1130116E+00
         25   -1    0    0    0    0  0.00000000000E+00  0.00000000000E+00  0.99999998245E-14  0.12500000000E+03  0.12500000000E+03 0.  0.
        -11    1    3    3    0    0  0.39648484046E+02  0.35610277804E+02  0.28053246536E+02  0.60225234029E+02  0.51100000000E-03 0.  1.
         23    2    1    0    0    0  0.22998977107E+02  0.74183972126E+01  0.19180739711E+02  0.94147344668E+02  0.88948502894E+02 0.  0.
         11    1    3    3    0    0 -0.16649506939E+02 -0.28191880591E+02 -0.88725068247E+01  0.33922110639E+02  0.51100000000E-03 0. -1.
         22    1    1    0    0    0 -0.22998977107E+02 -0.74183972126E+01 -0.19180739711E+02  0.30852655332E+02  0.00000000000E+00 0.  1.
</event>
<event>
 5    1  0.6650580E-004  0.9118800E+02  0.7818608E-02  0.1130116E+00
         25   -1    0    0    0    0  0.00000000000E+00  0.00000000000E+00  0.99999998245E-14  0.12500000000E+03  0.12500000000E+03 0.  0.
        -11    1    3    3    0    0 -0.50145490576E+01  0.20057948287E+02 -0.30707332674E+02  0.37019012304E+02  0.51100000000E-03 0. -1.
         23    2    1    0    0    0  0.35261203898E+02  0.18146834066E+02 -0.45461947427E+01  0.85083487457E+02  0.75139016924E+02 0.  0.
         11    1    3    3    0    0  0.40275752955E+02 -0.19111142212E+01  0.26161137931E+02  0.48064475154E+02  0.51100000000E-03 0.  1.
         22    1    1    0    0    0 -0.35261203898E+02 -0.18146834066E+02  0.45461947427E+01  0.39916512543E+02  0.00000000000E+00 0. -1.
</event>
<event>
 5    1  0.6650580E-004  0.9118800E+02  0.7818608E-02  0.1130116E+00
         25   -1    0    0    0    0  0.00000000000E+00  0.00000000000E+00  0.99999998245E-14  0.12500000000E+03  0.12500000000E+03 0.  0.
        -11    1    3    3    0    0  0.38081584489E+02 -0.62190078260E+01 -0.15900742733E+01  0.38618796874E+02  0.51100000000E-03 0. -1.
         23    2    1    0    0    0 -0.10853652112E+02 -0.16340944370E+02  0.23379195393E+02  0.94480907545E+02  0.89416032601E+02 0.  0.
         11    1    3    3    0    0 -0.48935236601E+02 -0.10121936544E+02  0.24969269666E+02  0.55862110670E+02  0.51100000000E-03 0.  1.
         22    1    1    0    0    0  0.10853652112E+02  0.16340944370E+02 -0.23379195393E+02  0.30519092455E+02  0.00000000000E+00 0.  1.
</event>
<event>
 5    1  0.6650580E-004  0.9118800E+02  0.7818608E-02  0.1130116E+00
         25   -1    0    0    0    0  0.00000000000E+00  0.00000000000E+00  0.99999998245E-14  0.12500000000E+03  0.12500000000E+03 0.  0.
        -11    1    3    3    0    0 -0.70077803075E+01 -0.40967986959E+02 -0.10163932187E+01  0.41575449435E+02  0.51100000000E-03 0. -1.
         23    2    1    0    0    0 -0.27103302166E+02  0.84289989527E+01  0.76504822580E+01  0.95603284360E+02  0.90971540000E+02 0.  0.
         11    1    3    3    0    0 -0.20095521858E+02  0.49396985911E+02  0.86668754767E+01  0.54027834925E+02  0.51100000000E-03 0.  1.
         22    1    1    0    0    0  0.27103302166E+02 -0.84289989527E+01 -0.76504822580E+01  0.29396715640E+02  0.00000000000E+00 0. -1.
</event>
<event>
 5    1  0.6650580E-004  0.9118800E+02  0.7818608E-02  0.1130116E+00
         25   -1    0    0    0    0  0.00000000000E+00  0.00000000000E+00  0.99999998245E-14  0.12500000000E+03  0.12500000000E+03 0.  0.
        -11    1    3    3    0    0 -0.16547212603E+02 -0.59265658501E+01  0.56013770585E+02  0.58706702540E+02  0.51100000000E-03 0. -1.
         23    2    1    0    0    0  0.77999939054E+01 -0.27363485130E+01  0.27237854516E+02  0.96535491806E+02  0.92243552357E+02 0.  0.
         11    1    3    3    0    0  0.24347206508E+02  0.31902173371E+01 -0.28775916070E+02  0.37828789266E+02  0.51100000000E-03 0.  1.
         22    1    1    0    0    0 -0.77999939054E+01  0.27363485130E+01 -0.27237854516E+02  0.28464508194E+02  0.00000000000E+00 0. -1.
</event>
<event>
 5    1  0.6650580E-004  0.9118800E+02  0.7818608E-02  0.1130116E+00
         25   -1    0    0    0    0  0.00000000000E+00  0.00000000000E+00  0.99999998245E-14  0.12500000000E+03  0.12500000000E+03 0.  0.
        -11    1    3    3    0    0 -0.24265678306E+02 -0.26601917417E+02  0.41225044119E+02  0.54735632058E+02  0.51100000000E-03 0. -1.
         23    2    1    0    0    0  0.65842126249E+01 -0.38320398671E+01  0.29053827561E+02  0.94964000244E+02  0.90088845374E+02 0.  0.
         11    1    3    3    0    0  0.30849890931E+02  0.22769877550E+02 -0.12171216558E+02  0.40228368186E+02  0.51100000000E-03 0.  1.
         22    1    1    0    0    0 -0.65842126249E+01  0.38320398671E+01 -0.29053827561E+02  0.30035999756E+02  0.00000000000E+00 0. -1.
</event>
<event>
 5    1  0.6650580E-004  0.9118800E+02  0.7818608E-02  0.1130116E+00
         25   -1    0    0    0    0  0.00000000000E+00  0.00000000000E+00  0.99999998245E-14  0.12500000000E+03  0.12500000000E+03 0.  0.
        -11    1    3    3    0    0  0.72820977597E+01  0.30558301643E+02 -0.24588391498E+02  0.39892702889E+02  0.51100000000E-03 0.  1.
         23    2    1    0    0    0  0.22159221009E+02 -0.16061902883E+02  0.51428936750E+01  0.97152825004E+02  0.93076346355E+02 0.  0.
         11    1    3    3    0    0  0.14877123249E+02 -0.46620204526E+02  0.29731285173E+02  0.57260122114E+02  0.51100000000E-03 0. -1.
         22    1    1    0    0    0 -0.22159221009E+02  0.16061902883E+02 -0.51428936750E+01  0.27847174996E+02  0.00000000000E+00 0. -1.
</event>
<event>
 5    1  0.6650580E-004  0.9118800E+02  0.7818608E-02  0.1130116E+00
         25   -1    0    0    0    0  0.00000000000E+00  0.00000000000E+00  0.99999998245E-14  0.12500000000E+03  0.12500000000E+03 0.  0.
        -11    1    3    3    0    0  0.16884696766E+02  0.39513835533E+02  0.21649479740E+02  0.48115861799E+02  0.51100000000E-03 0.  1.
         23    2    1    0    0    0  0.13370635071E+02  0.15869760612E+02 -0.20026925309E+02  0.96160774605E+02  0.91734364615E+02 0.  0.
         11    1    3    3    0    0 -0.35140616950E+01 -0.23644074921E+02 -0.41676405049E+02  0.48044912806E+02  0.51100000000E-03 0. -1.
         22    1    1    0    0    0 -0.13370635071E+02 -0.15869760612E+02  0.20026925309E+02  0.28839225395E+02  0.00000000000E+00 0. -1.
</event>
<event>
 5    1  0.6650580E-004  0.9118800E+02  0.7818608E-02  0.1130116E+00
         25   -1    0    0    0    0  0.00000000000E+00  0.00000000000E+00  0.99999998245E-14  0.12500000000E+03  0.12500000000E+03 0.  0.
        -11    1    3    3    0    0 -0.12662549705E+02  0.54394128893E+02  0.52020671830E+01  0.56090310449E+02  0.51100000000E-03 0. -1.
         23    2    1    0    0    0 -0.22477304085E+02  0.15519618385E+02 -0.44378026261E+01  0.97327236389E+02  0.93310283984E+02 0.  0.
         11    1    3    3    0    0 -0.98147543795E+01 -0.38874510508E+02 -0.96398698091E+01  0.41236925940E+02  0.51100000000E-03 0.  1.
         22    1    1    0    0    0  0.22477304085E+02 -0.15519618385E+02  0.44378026261E+01  0.27672763611E+02  0.00000000000E+00 0. -1.
</event>
<event>
 5    1  0.6650580E-004  0.9118800E+02  0.7818608E-02  0.1130116E+00
         25   -1    0    0    0    0  0.00000000000E+00  0.00000000000E+00  0.99999998245E-14  0.12500000000E+03  0.12500000000E+03 0.  0.
        -11    1    3    3    0    0  0.35201975254E+02 -0.48993792092E+01  0.30325712455E+02  0.46720785681E+02  0.51100000000E-03 0. -1.
         23    2    1    0    0    0  0.10886564457E+02 -0.33073610211E+02  0.12302697715E+02  0.88071185381E+02  0.79954964482E+02 0.  0.
         11    1    3    3    0    0 -0.24315410797E+02 -0.28174231002E+02 -0.18023014740E+02  0.41350399700E+02  0.51100000000E-03 0.  1.
         22    1    1    0    0    0 -0.10886564457E+02  0.33073610211E+02 -0.12302697715E+02  0.36928814619E+02  0.00000000000E+00 0. -1.
</event>
<event>
 5    1  0.6650580E-004  0.9118800E+02  0.7818608E-02  0.1130116E+00
         25   -1    0    0    0    0  0.00000000000E+00  0.00000000000E+00  0.99999998245E-14  0.12500000000E+03  0.12500000000E+03 0.  0.
        -11    1    3    3    0    0 -0.80736736522E+00  0.59990555247E+02  0.11419107399E+02  0.61073026575E+02  0.51100000000E-03 0.  1.
         23    2    1    0    0    0  0.67148497582E+01  0.29237816942E+02 -0.75270834927E+00  0.94991572572E+02  0.90127094389E+02 0.  0.
         11    1    3    3    0    0  0.75222171234E+01 -0.30752738305E+02 -0.12171815748E+02  0.33918545998E+02  0.51100000000E-03 0. -1.
         22    1    1    0    0    0 -0.67148497582E+01 -0.29237816942E+02  0.75270834927E+00  0.30008427428E+02  0.00000000000E+00 0.  1.
</event>
<event>
 5    1  0.6650580E-004  0.9118800E+02  0.7818608E-02  0.1130116E+00
         25   -1    0    0    0    0  0.00000000000E+00  0.00000000000E+00  0.99999998245E-14  0.12500000000E+03  0.12500000000E+03 0.  0.
        -11    1    3    3    0    0  0.22801830967E+02 -0.32262630033E+02 -0.10250354062E+02  0.40815077493E+02  0.51100000000E-03 0. -1.
         23    2    1    0    0    0  0.18577579358E+02  0.21155596083E+02  0.47210680754E+01  0.96452247300E+02  0.92130677980E+02 0.  0.
         11    1    3    3    0    0 -0.42242516098E+01  0.53418226116E+02  0.14971422138E+02  0.55637169807E+02  0.51100000000E-03 0.  1.
         22    1    1    0    0    0 -0.18577579358E+02 -0.21155596083E+02 -0.47210680754E+01  0.28547752700E+02  0.00000000000E+00 0.  1.
</event>
<event>
 5    1  0.6650580E-004  0.9118800E+02  0.7818608E-02  0.1130116E+00
         25   -1    0    0    0    0  0.00000000000E+00  0.00000000000E+00  0.99999998245E-14  0.12500000000E+03  0.12500000000E+03 0.  0.
        -11    1    3    3    0    0 -0.66313017552E+01  0.27074946123E+02 -0.29888310364E+02  0.40869768377E+02  0.51100000000E-03 0.  1.
         23    2    1    0    0    0 -0.25050150846E+02 -0.85522032485E+01  0.93003964114E+01  0.96943848960E+02  0.92795270569E+02 0.  0.
         11    1    3    3    0    0 -0.18418849091E+02 -0.35627149372E+02  0.39188706775E+02  0.56074080582E+02  0.51100000000E-03 0. -1.
         22    1    1    0    0    0  0.25050150846E+02  0.85522032485E+01 -0.93003964114E+01  0.28056151040E+02  0.00000000000E+00 0. -1.
</event>
<event>
 5    1  0.6650580E-004  0.9118800E+02  0.7818608E-02  0.1130116E+00
         25   -1    0    0    0    0  0.00000000000E+00  0.00000000000E+00  0.99999998245E-14  0.12500000000E+03  0.12500000000E+03 0.  0.
        -11    1    3    3    0    0  0.27457152229E+02 -0.32840596524E+02  0.95294135022E+01  0.43854414950E+02  0.51100000000E-03 0.  1.
         23    2    1    0    0    0  0.11406450172E+02 -0.72068983502E+00 -0.27369034774E+02  0.95340422056E+02  0.90609632567E+02 0.  0.
         11    1    3    3    0    0 -0.16050702057E+02  0.32119906689E+02 -0.36898448276E+02  0.51486007106E+02  0.51100000000E-03 0. -1.
         22    1    1    0    0    0 -0.11406450172E+02  0.72068983502E+00  0.27369034774E+02  0.29659577944E+02  0.00000000000E+00 0. -1.
</event>
<event>
 5    1  0.6650580E-004  0.9118800E+02  0.7818608E-02  0.1130116E+00
         25   -1    0    0    0    0  0.00000000000E+00  0.00000000000E+00  0.99999998245E-14  0.12500000000E+03  0.12500000000E+03 0.  0.
        -11    1    3    3    0    0 -0.33497438643E+02 -0.10584473304E+02 -0.22255390865E+02  0.41586198355E+02  0.51100000000E-03 0. -1.
         23    2    1    0    0    0  0.14886433114E+02 -0.19357914560E+02  0.79779066885E+01  0.99309890189E+02  0.95929518643E+02 0.  0.
         11    1    3    3    0    0  0.48383871758E+02 -0.87734412564E+01  0.30233297553E+02  0.57723691834E+02  0.51100000000E-03 0.  1.
         22    1    1    0    0    0 -0.14886433114E+02  0.19357914560E+02 -0.79779066885E+01  0.25690109811E+02  0.00000000000E+00 0.  1.
</event>
<event>
 5    1  0.6650580E-004  0.9118800E+02  0.7818608E-02  0.1130116E+00
         25   -1    0    0    0    0  0.00000000000E+00  0.00000000000E+00  0.99999998245E-14  0.12500000000E+03  0.12500000000E+03 0.  0.
        -11    1    3    3    0    0  0.24203053932E+02  0.15209494888E+02 -0.31245353486E+02  0.42348419913E+02  0.51100000000E-03 0.  1.
         23    2    1    0    0    0 -0.10753990082E+02 -0.22461552414E+02 -0.13189332764E+02  0.96819720756E+02  0.92627912580E+02 0.  0.
         11    1    3    3    0    0 -0.34957044014E+02 -0.37671047302E+02  0.18056020722E+02  0.54471300843E+02  0.51100000000E-03 0. -1.
         22    1    1    0    0    0  0.10753990082E+02  0.22461552414E+02  0.13189332764E+02  0.28180279244E+02  0.00000000000E+00 0. -1.
</event>
<event>
 5    1  0.6650580E-004  0.9118800E+02  0.7818608E-02  0.1130116E+00
         25   -1    0    0    0    0  0.00000000000E+00  0.00000000000E+00  0.99999998245E-14  0.12500000000E+03  0.12500000000E+03 0.  0.
        -11    1    3    3    0    0 -0.36114364815E+02  0.56527844725E+01  0.48802109060E+02  0.60974151632E+02  0.51100000000E-03 0.  1.
         23    2    1    0    0    0 -0.85095907603E+01  0.77859424565E+01  0.24927904936E+02  0.97533029301E+02  0.93585561522E+02 0.  0.
         11    1    3    3    0    0  0.27604774055E+02  0.21331579839E+01 -0.23874204124E+02  0.36558877669E+02  0.51100000000E-03 0. -1.
         22    1    1    0    0    0  0.85095907603E+01 -0.77859424565E+01 -0.24927904936E+02  0.27466970699E+02  0.00000000000E+00 0.  1.
</event>
<event>
 5    1  0.6650580E-004  0.9118800E+02  0.7818608E-02  0.1130116E+00
         25   -1    0    0    0    0  0.00000000000E+00  0.00000000000E+00  0.99999998245E-14  0.12500000000E+03  0.12500000000E+03 0.  0.
        -11    1    3    3    0    0 -0.23670573056E+02  0.23735561930E+02  0.32108710691E+01  0.33674658457E+02  0.51100000000E-03 0.  1.
         23    2    1    0    0    0  0.21107515716E+02 -0.18947197590E+02 -0.53797741398E+01  0.96130197680E+02  0.91692690112E+02 0.  0.
         11    1    3    3    0    0  0.44778088771E+02 -0.42682759520E+02 -0.85906452089E+01  0.62455539223E+02  0.51100000000E-03 0. -1.
         22    1    1    0    0    0 -0.21107515716E+02  0.18947197590E+02  0.53797741398E+01  0.28869802320E+02  0.00000000000E+00 0. -1.
</event>
<event>
 5    1  0.6650580E-004  0.9118800E+02  0.7818608E-02  0.1130116E+00
         25   -1    0    0    0    0  0.00000000000E+00  0.00000000000E+00  0.99999998245E-14  0.12500000000E+03  0.12500000000E+03 0.  0.
        -11    1    3    3    0    0 -0.23761192368E+02  0.63691659209E+01 -0.36351796688E+02  0.43893207447E+02  0.51100000000E-03 0. -1.
         23    2    1    0    0    0  0.23608601889E+02  0.72098927547E+01 -0.16768110300E+02  0.95158449107E+02  0.90358244099E+02 0.  0.
         11    1    3    3    0    0  0.47369794257E+02  0.84072683382E+00  0.19583686388E+02  0.51265241659E+02  0.51100000000E-03 0.  1.
         22    1    1    0    0    0 -0.23608601889E+02 -0.72098927547E+01  0.16768110300E+02  0.29841550893E+02  0.00000000000E+00 0.  1.
</event>
<event>
 5    1  0.6650580E-004  0.9118800E+02  0.7818608E-02  0.1130116E+00
         25   -1    0    0    0    0  0.00000000000E+00  0.00000000000E+00  0.99999998245E-14  0.12500000000E+03  0.12500000000E+03 0.  0.
        -11    1    3    3    0    0 -0.17470316138E+02 -0.28586483324E+01  0.58676604761E+02  0.61288887759E+02  0.51100000000E-03 0.  1.
         23    2    1    0    0    0 -0.13089509979E+02 -0.82778226972E+01  0.25695964736E+02  0.94997663028E+02  0.90135541031E+02 0.  0.
         11    1    3    3    0    0  0.43808061590E+01 -0.54191743648E+01 -0.32980640025E+02  0.33708775268E+02  0.51100000000E-03 0. -1.
         22    1    1    0    0    0  0.13089509979E+02  0.82778226972E+01 -0.25695964736E+02  0.30002336972E+02  0.00000000000E+00 0.  1.
</event>
<event>
 5    1  0.6650580E-004  0.9118800E+02  0.7818608E-02  0.1130116E+00
         25   -1    0    0    0    0  0.00000000000E+00  0.00000000000E+00  0.99999998245E-14  0.12500000000E+03  0.12500000000E+03 0.  0.
        -11    1    3    3    0    0  0.12736840472E+02 -0.28378987047E+02  0.16198758978E+02  0.35071267495E+02  0.51100000000E-03 0.  1.
         23    2    1    0    0    0 -0.15934301490E+02  0.23962676936E+02  0.50704982154E+01  0.95779770671E+02  0.91213719734E+02 0.  0.
         11    1    3    3    0    0 -0.28671141962E+02  0.52341663983E+02 -0.11128260763E+02  0.60708503175E+02  0.51100000000E-03 0. -1.
         22    1    1    0    0    0  0.15934301490E+02 -0.23962676936E+02 -0.50704982154E+01  0.29220229329E+02  0.00000000000E+00 0. -1.
</event>
<event>
 5    1  0.6650580E-004  0.9118800E+02  0.7818608E-02  0.1130116E+00
         25   -1    0    0    0    0  0.00000000000E+00  0.00000000000E+00  0.99999998245E-14  0.12500000000E+03  0.12500000000E+03 0.  0.
        -11    1    3    3    0    0 -0.18353039895E+02 -0.28989800369E+01 -0.30940461771E+02  0.36090862189E+02  0.51100000000E-03 0. -1.
         23    2    1    0    0    0 -0.21317545627E+01  0.17284614291E+02  0.23132787627E+02  0.96044376503E+02  0.91575619712E+02 0.  0.
         11    1    3    3    0    0  0.16221285333E+02  0.20183594328E+02  0.54073249399E+02  0.59953514314E+02  0.51100000000E-03 0.  1.
         22    1    1    0    0    0  0.21317545627E+01 -0.17284614291E+02 -0.23132787627E+02  0.28955623497E+02  0.00000000000E+00 0.  1.
</event>
<event>
 5    1  0.6650580E-004  0.9118800E+02  0.7818608E-02  0.1130116E+00
         25   -1    0    0    0    0  0.00000000000E+00  0.00000000000E+00  0.99999998245E-14  0.12500000000E+03  0.12500000000E+03 0.  0.
        -11    1    3    3    0    0  0.63988084737E+01  0.22045665434E+02 -0.57279667356E+02  0.61708317162E+02  0.51100000000E-03 0.  1.
         23    2    1    0    0    0 -0.37987589593E+01  0.79926221022E+01 -0.26676280073E+02  0.96894191059E+02  0.92728354696E+02 0.  0.
         11    1    3    3    0    0 -0.10197567433E+02 -0.14053043332E+02  0.30603387283E+02  0.35185873897E+02  0.51100000000E-03 0. -1.
         22    1    1    0    0    0  0.37987589593E+01 -0.79926221022E+01  0.26676280073E+02  0.28105808941E+02  0.00000000000E+00 0.  1.
</event>
<event>
 5    1  0.6650580E-004  0.9118800E+02  0.7818608E-02  0.1130116E+00
         25   -1    0    0    0    0  0.00000000000E+00  0.00000000000E+00  0.99999998245E-14  0.12500000000E+03  0.12500000000E+03 0.  0.
        -11    1    3    3    0    0 -0.69199477183E+01 -0.26646228783E+02  0.18093920662E+02  0.32943848438E+02  0.51100000000E-03 0. -1.
         23    2    1    0    0    0  0.35050641812E+01  0.26775981872E+02 -0.12345869899E+02  0.95307253685E+02  0.90563863772E+02 0.  0.
         11    1    3    3    0    0  0.10425011899E+02  0.53422210655E+02 -0.30439790560E+02  0.62363405247E+02  0.51100000000E-03 0.  1.
         22    1    1    0    0    0 -0.35050641812E+01 -0.26775981872E+02  0.12345869899E+02  0.29692746315E+02  0.00000000000E+00 0.  1.
</event>
<event>
 5    1  0.6650580E-004  0.9118800E+02  0.7818608E-02  0.1130116E+00
         25   -1    0    0    0    0  0.00000000000E+00  0.00000000000E+00  0.99999998245E-14  0.12500000000E+03  0.12500000000E+03 0.  0.
        -11    1    3    3    0    0  0.55289593655E+02 -0.15352415491E+02 -0.14116957336E+02  0.59092506400E+02  0.51100000000E-03 0. -1.
         23    2    1    0    0    0  0.21328031280E+02 -0.89431877452E+01 -0.20329984649E+02  0.94207569093E+02  0.89033096505E+02 0.  0.
         11    1    3    3    0    0 -0.33961562375E+02  0.64092277458E+01 -0.62130273135E+01  0.35115062693E+02  0.51100000000E-03 0.  1.
         22    1    1    0    0    0 -0.21328031280E+02  0.89431877452E+01  0.20329984649E+02  0.30792430907E+02  0.00000000000E+00 0. -1.
</event>
<event>
 5    1  0.6650580E-004  0.9118800E+02  0.7818608E-02  0.1130116E+00
         25   -1    0    0    0    0  0.00000000000E+00  0.00000000000E+00  0.99999998245E-14  0.12500000000E+03  0.12500000000E+03 0.  0.
        -11    1    3    3    0    0  0.78535171828E+01 -0.10786380193E+02  0.52246686126E+02  0.53923463735E+02  0.51100000000E-03 0.  1.
         23    2    1    0    0    0 -0.19458817219E+02 -0.66276040956E+01  0.21779059346E+02  0.95051742461E+02  0.90210507234E+02 0.  0.
         11    1    3    3    0    0 -0.27312334402E+02  0.41587760978E+01 -0.30467626780E+02  0.41128278726E+02  0.51100000000E-03 0. -1.
         22    1    1    0    0    0  0.19458817219E+02  0.66276040956E+01 -0.21779059346E+02  0.29948257539E+02  0.00000000000E+00 0.  1.
</event>
<event>
 5    1  0.6650580E-004  0.9118800E+02  0.7818608E-02  0.1130116E+00
         25   -1    0    0    0    0  0.00000000000E+00  0.00000000000E+00  0.99999998245E-14  0.12500000000E+03  0.12500000000E+03 0.  0.
        -11    1    3    3    0    0  0.18270085288E+02 -0.30042240591E+02 -0.46066388465E+01  0.35461998786E+02  0.51100000000E-03 0.  1.
         23    2    1    0    0    0 -0.31395118102E+02 -0.23706386007E+02 -0.13118884523E+01  0.85637997645E+02  0.76055896623E+02 0.  0.
         11    1    3    3    0    0 -0.49665203390E+02  0.63358545844E+01  0.32947503942E+01  0.50175998859E+02  0.51100000000E-03 0. -1.
         22    1    1    0    0    0  0.31395118102E+02  0.23706386007E+02  0.13118884523E+01  0.39362002355E+02  0.00000000000E+00 0. -1.
</event>
<event>
 5    1  0.6650580E-004  0.9118800E+02  0.7818608E-02  0.1130116E+00
         25   -1    0    0    0    0  0.00000000000E+00  0.00000000000E+00  0.99999998245E-14  0.12500000000E+03  0.12500000000E+03 0.  0.
        -11    1    3    3    0    0 -0.53883549891E+02 -0.90951709518E+00 -0.90470515892E+00  0.53898818743E+02  0.51100000000E-03 0. -1.
         23    2    1    0    0    0 -0.18551457248E+02 -0.17048522235E+02  0.14779858211E+02  0.95789507276E+02  0.91227061879E+02 0.  0.
         11    1    3    3    0    0  0.35332092643E+02 -0.16139005140E+02  0.15684563370E+02  0.41890688533E+02  0.51100000000E-03 0.  1.
         22    1    1    0    0    0  0.18551457248E+02  0.17048522235E+02 -0.14779858211E+02  0.29210492724E+02  0.00000000000E+00 0. -1.
</event>
<event>
 5    1  0.6650580E-004  0.9118800E+02  0.7818608E-02  0.1130116E+00
         25   -1    0    0    0    0  0.00000000000E+00  0.00000000000E+00  0.99999998245E-14  0.12500000000E+03  0.12500000000E+03 0.  0.
        -11    1    3    3    0    0 -0.93235619626E+01  0.38460692382E+02  0.16065632674E+02  0.42711335962E+02  0.51100000000E-03 0. -1.
         23    2    1    0    0    0 -0.18483164284E+02 -0.15554367119E+02  0.12961292292E+02  0.97585390824E+02  0.93655473444E+02 0.  0.
         11    1    3    3    0    0 -0.91596023211E+01 -0.54015059500E+02 -0.31043403823E+01  0.54874054862E+02  0.51100000000E-03 0.  1.
         22    1    1    0    0    0  0.18483164284E+02  0.15554367119E+02 -0.12961292292E+02  0.27414609176E+02  0.00000000000E+00 0.  1.
</event>
<event>
 5    1  0.6650580E-004  0.9118800E+02  0.7818608E-02  0.1130116E+00
         25   -1    0    0    0    0  0.00000000000E+00  0.00000000000E+00  0.99999998245E-14  0.12500000000E+03  0.12500000000E+03 0.  0.
        -11    1    3    3    0    0 -0.91831887804E+01  0.27178917819E+02 -0.35132497005E+02  0.45357655099E+02  0.51100000000E-03 0. -1.
         23    2    1    0    0    0 -0.13675906425E+02 -0.19631635833E+02 -0.16482451787E+02  0.95946553407E+02  0.91441994465E+02 0.  0.
         11    1    3    3    0    0 -0.44927176444E+01 -0.46810553652E+02  0.18650045219E+02  0.50588898308E+02  0.51100000000E-03 0.  1.
         22    1    1    0    0    0  0.13675906425E+02  0.19631635833E+02  0.16482451787E+02  0.29053446593E+02  0.00000000000E+00 0. -1.
</event>
<event>
 5    1  0.6650580E-004  0.9118800E+02  0.7818608E-02  0.1130116E+00
         25   -1    0    0    0    0  0.00000000000E+00  0.00000000000E+00  0.99999998245E-14  0.12500000000E+03  0.12500000000E+03 0.  0.
        -11    1    3    3    0    0 -0.37151247402E+01 -0.20663356895E+02 -0.22560234364E+02  0.30817862431E+02  0.51100000000E-03 0.  1.
         23    2    1    0    0    0 -0.27337633585E+01  0.33942314194E+02  0.23948434744E+01  0.90863664078E+02  0.84207576972E+02 0.  0.
         11    1    3    3    0    0  0.98136138166E+00  0.54605671089E+02  0.24955077838E+02  0.60045801647E+02  0.51100000000E-03 0. -1.
         22    1    1    0    0    0  0.27337633585E+01 -0.33942314194E+02 -0.23948434744E+01  0.34136335922E+02  0.00000000000E+00 0. -1.
</event>
<event>
 5    1  0.6650580E-004  0.9118800E+02  0.7818608E-02  0.1130116E+00
         25   -1    0    0    0    0  0.00000000000E+00  0.00000000000E+00  0.99999998245E-14  0.12500000000E+03  0.12500000000E+03 0.  0.
        -11    1    3    3    0    0  0.38479457798E+02 -0.14338712637E+02  0.17367665955E+02  0.44585907791E+02  0.51100000000E-03 0.  1.
         23    2    1    0    0    0  0.22518192627E+02  0.18227332403E+02  0.30289462427E+02  0.83086324668E+02  0.71739676379E+02 0.  0.
         11    1    3    3    0    0 -0.15961265171E+02  0.32566045040E+02  0.12921796472E+02  0.38500416877E+02  0.51100000000E-03 0. -1.
         22    1    1    0    0    0 -0.22518192627E+02 -0.18227332403E+02 -0.30289462427E+02  0.41913675332E+02  0.00000000000E+00 0.  1.
</event>
<event>
 5    1  0.6650580E-004  0.9118800E+02  0.7818608E-02  0.1130116E+00
         25   -1    0    0    0    0  0.00000000000E+00  0.00000000000E+00  0.99999998245E-14  0.12500000000E+03  0.12500000000E+03 0.  0.
        -11    1    3    3    0    0 -0.31017678206E+02  0.71525819707E+01  0.13345266491E+02  0.34515966278E+02  0.51100000000E-03 0.  1.
         23    2    1    0    0    0  0.13336991123E+02 -0.21835934723E+02 -0.15738342348E+02  0.94960379541E+02  0.90083821441E+02 0.  0.
         11    1    3    3    0    0  0.44354669329E+02 -0.28988516693E+02 -0.29083608840E+02  0.60444413263E+02  0.51100000000E-03 0. -1.
         22    1    1    0    0    0 -0.13336991123E+02  0.21835934723E+02  0.15738342348E+02  0.30039620459E+02  0.00000000000E+00 0. -1.
</event>
<event>
 5    1  0.6650580E-004  0.9118800E+02  0.7818608E-02  0.1130116E+00
         25   -1    0    0    0    0  0.00000000000E+00  0.00000000000E+00  0.99999998245E-14  0.12500000000E+03  0.12500000000E+03 0.  0.
        -11    1    3    3    0    0  0.10923225976E+02 -0.31118282326E+02  0.85796267513E+01  0.34077475788E+02  0.51100000000E-03 0. -1.
         23    2    1    0    0    0 -0.52211989534E+01  0.16761741001E+02 -0.24784513636E+02  0.94627496052E+02  0.89620723123E+02 0.  0.
         11    1    3    3    0    0 -0.16144424929E+02  0.47880023327E+02 -0.33364140387E+02  0.60550020265E+02  0.51100000000E-03 0.  1.
         22    1    1    0    0    0  0.52211989534E+01 -0.16761741001E+02  0.24784513636E+02  0.30372503948E+02  0.00000000000E+00 0.  1.
</event>
<event>
 5    1  0.6650580E-004  0.9118800E+02  0.7818608E-02  0.1130116E+00
         25   -1    0    0    0    0  0.00000000000E+00  0.00000000000E+00  0.99999998245E-14  0.12500000000E+03  0.12500000000E+03 0.  0.
        -11    1    3    3    0    0  0.48950957287E+02 -0.83884372186E+01 -0.27543428541E+02  0.56790866821E+02  0.51100000000E-03 0. -1.
         23    2    1    0    0    0  0.29868744923E+02 -0.20075575596E+01  0.46000576253E+01  0.94712498604E+02  0.89739203535E+02 0.  0.
         11    1    3    3    0    0 -0.19082212364E+02  0.63808796589E+01  0.32143486166E+02  0.37921631783E+02  0.51100000000E-03 0.  1.
         22    1    1    0    0    0 -0.29868744923E+02  0.20075575596E+01 -0.46000576253E+01  0.30287501396E+02  0.00000000000E+00 0. -1.
</event>
<event>
 5    1  0.6650580E-004  0.9118800E+02  0.7818608E-02  0.1130116E+00
         25   -1    0    0    0    0  0.00000000000E+00  0.00000000000E+00  0.99999998245E-14  0.12500000000E+03  0.12500000000E+03 0.  0.
        -11    1    3    3    0    0  0.30319565039E+02 -0.37931007423E+02 -0.38771677658E+02  0.62139201290E+02  0.51100000000E-03 0.  1.
         23    2    1    0    0    0  0.19917505458E+02 -0.18748881012E+02 -0.18078185841E+02  0.92212069810E+02  0.86185946954E+02 0.  0.
         11    1    3    3    0    0 -0.10402059581E+02  0.19182126411E+02  0.20693491817E+02  0.30072868520E+02  0.51100000000E-03 0. -1.
         22    1    1    0    0    0 -0.19917505458E+02  0.18748881012E+02  0.18078185841E+02  0.32787930190E+02  0.00000000000E+00 0.  1.
</event>
<event>
 5    1  0.6650580E-004  0.9118800E+02  0.7818608E-02  0.1130116E+00
         25   -1    0    0    0    0  0.00000000000E+00  0.00000000000E+00  0.99999998245E-14  0.12500000000E+03  0.12500000000E+03 0.  0.
        -11    1    3    3    0    0  0.41234652436E+02 -0.29197186653E+02  0.65079760602E+01  0.50942379436E+02  0.51100000000E-03 0.  1.
         23    2    1    0    0    0  0.11119742831E+02 -0.16542887246E+02 -0.22720303908E+02  0.94775374134E+02  0.89826741751E+02 0.  0.
         11    1    3    3    0    0 -0.30114909606E+02  0.12654299406E+02 -0.29228279968E+02  0.43832994698E+02  0.51100000000E-03 0. -1.
         22    1    1    0    0    0 -0.11119742831E+02  0.16542887246E+02  0.22720303908E+02  0.30224625866E+02  0.00000000000E+00 0. -1.
</event>
<event>
 5    1  0.6650580E-004  0.9118800E+02  0.7818608E-02  0.1130116E+00
         25   -1    0    0    0    0  0.00000000000E+00  0.00000000000E+00  0.99999998245E-14  0.12500000000E+03  0.12500000000E+03 0.  0.
        -11    1    3    3    0    0 -0.82691942472E+00  0.47381265129E+02  0.21762460716E+02  0.52146646849E+02  0.51100000000E-03 0.  1.
         23    2    1    0    0    0 -0.24656280085E+02  0.13520702052E+02  0.85401652735E+01  0.95611635730E+02  0.90983014527E+02 0.  0.
         11    1    3    3    0    0 -0.23829360660E+02 -0.33860563077E+02 -0.13222295442E+02  0.43464988880E+02  0.51100000000E-03 0. -1.
         22    1    1    0    0    0  0.24656280085E+02 -0.13520702052E+02 -0.85401652735E+01  0.29388364270E+02  0.00000000000E+00 0.  1.
</event>
<event>
 5    1  0.6650580E-004  0.9118800E+02  0.7818608E-02  0.1130116E+00
         25   -1    0    0    0    0  0.00000000000E+00  0.00000000000E+00  0.99999998245E-14  0.12500000000E+03  0.12500000000E+03 0.  0.
        -11    1    3    3    0    0  0.76470323660E+01  0.24895796639E+02 -0.34805922893E+02  0.43471025557E+02  0.51100000000E-03 0. -1.
         23    2    1    0    0    0  0.15545683586E+02 -0.21326056261E+02 -0.16880833647E+02  0.93672192888E+02  0.88278243197E+02 0.  0.
         11    1    3    3    0    0  0.78986512202E+01 -0.46221852900E+02  0.17925089246E+02  0.50201167331E+02  0.51100000000E-03 0.  1.
         22    1    1    0    0    0 -0.15545683586E+02  0.21326056261E+02  0.16880833647E+02  0.31327807112E+02  0.00000000000E+00 0.  1.
</event>
<event>
 5    1  0.6650580E-004  0.9118800E+02  0.7818608E-02  0.1130116E+00
         25   -1    0    0    0    0  0.00000000000E+00  0.00000000000E+00  0.99999998245E-14  0.12500000000E+03  0.12500000000E+03 0.  0.
        -11    1    3    3    0    0  0.30262520605E+02  0.34212360714E+02 -0.30540625361E+02  0.54945751216E+02  0.51100000000E-03 0.  1.
         23    2    1    0    0    0  0.71664641134E+01  0.27041221499E+02  0.36112529038E+01  0.96793138856E+02  0.92592033751E+02 0.  0.
         11    1    3    3    0    0 -0.23096056491E+02 -0.71711392149E+01  0.34151878265E+02  0.41847387641E+02  0.51100000000E-03 0. -1.
         22    1    1    0    0    0 -0.71664641134E+01 -0.27041221499E+02 -0.36112529038E+01  0.28206861144E+02  0.00000000000E+00 0.  1.
</event>
<event>
 5    1  0.6650580E-004  0.9118800E+02  0.7818608E-02  0.1130116E+00
         25   -1    0    0    0    0  0.00000000000E+00  0.00000000000E+00  0.99999998245E-14  0.12500000000E+03  0.12500000000E+03 0.  0.
        -11    1    3    3    0    0  0.61524598357E+01  0.14149952004E+02  0.35866292415E+02  0.39044395700E+02  0.51100000000E-03 0. -1.
         23    2    1    0    0    0  0.12437470072E+02  0.19586242064E+02 -0.19292296768E+02  0.94825436961E+02  0.89896380574E+02 0.  0.
         11    1    3    3    0    0  0.62850102360E+01  0.54362900606E+01 -0.55158589183E+02  0.55781041261E+02  0.51100000000E-03 0.  1.
         22    1    1    0    0    0 -0.12437470072E+02 -0.19586242064E+02  0.19292296768E+02  0.30174563039E+02  0.00000000000E+00 0.  1.
</event>
<event>
 5    1  0.6650580E-004  0.9118800E+02  0.7818608E-02  0.1130116E+00
         25   -1    0    0    0    0  0.00000000000E+00  0.00000000000E+00  0.99999998245E-14  0.12500000000E+03  0.12500000000E+03 0.  0.
        -11    1    3    3    0    0 -0.18204158824E+02  0.55697274765E+01  0.31804912822E+02  0.37067043887E+02  0.51100000000E-03 0. -1.
         23    2    1    0    0    0 -0.14032154965E+02 -0.55179429467E+01 -0.25386947224E+02  0.95472958891E+02  0.90792288894E+02 0.  0.
         11    1    3    3    0    0  0.41720038599E+01 -0.11087670423E+02 -0.57191860046E+02  0.58405915003E+02  0.51100000000E-03 0.  1.
         22    1    1    0    0    0  0.14032154965E+02  0.55179429467E+01  0.25386947224E+02  0.29527041109E+02  0.00000000000E+00 0.  1.
</event>
<event>
 5    1  0.6650580E-004  0.9118800E+02  0.7818608E-02  0.1130116E+00
         25   -1    0    0    0    0  0.00000000000E+00  0.00000000000E+00  0.99999998245E-14  0.12500000000E+03  0.12500000000E+03 0.  0.
        -11    1    3    3    0    0 -0.26309290372E+02  0.10494007116E+02 -0.34925177557E+02  0.44967443478E+02  0.51100000000E-03 0. -1.
         23    2    1    0    0    0 -0.26435153910E+02 -0.73235744431E+01  0.11923251663E+02  0.95089867351E+02  0.90263319448E+02 0.  0.
         11    1    3    3    0    0 -0.12586353770E+00 -0.17817581559E+02  0.46848429221E+02  0.50122423873E+02  0.51100000000E-03 0.  1.
         22    1    1    0    0    0  0.26435153910E+02  0.73235744431E+01 -0.11923251663E+02  0.29910132649E+02  0.00000000000E+00 0.  1.
</event>
<event>
 5    1  0.6650580E-004  0.9118800E+02  0.7818608E-02  0.1130116E+00
         25   -1    0    0    0    0  0.00000000000E+00  0.00000000000E+00  0.99999998245E-14  0.12500000000E+03  0.12500000000E+03 0.  0.
        -11    1    3    3    0    0  0.40345603246E+02 -0.62865811267E+01 -0.83129036306E+01  0.41670051243E+02  0.51100000000E-03 0. -1.
         23    2    1    0    0    0 -0.81468389528E+01  0.22898309511E+02 -0.10980280363E+02  0.98330352079E+02  0.94644535076E+02 0.  0.
         11    1    3    3    0    0 -0.48492442199E+02  0.29184890637E+02 -0.26673767328E+01  0.56660300836E+02  0.51100000000E-03 0.  1.
         22    1    1    0    0    0  0.81468389528E+01 -0.22898309511E+02  0.10980280363E+02  0.26669647921E+02  0.00000000000E+00 0.  1.
</event>
<event>
 5    1  0.6650580E-004  0.9118800E+02  0.7818608E-02  0.1130116E+00
         25   -1    0    0    0    0  0.00000000000E+00  0.00000000000E+00  0.99999998245E-14  0.12500000000E+03  0.12500000000E+03 0.  0.
        -11    1    3    3    0    0 -0.78496061139E+01 -0.46063552193E+01  0.55915074074E+02  0.56650951744E+02  0.51100000000E-03 0. -1.
         23    2    1    0    0    0 -0.21828146844E+02 -0.21193252412E+01  0.19812411700E+02  0.95445115607E+02  0.90753947031E+02 0.  0.
         11    1    3    3    0    0 -0.13978540730E+02  0.24870299781E+01 -0.36102662374E+02  0.38794163862E+02  0.51100000000E-03 0.  1.
         22    1    1    0    0    0  0.21828146844E+02  0.21193252412E+01 -0.19812411700E+02  0.29554884393E+02  0.00000000000E+00 0. -1.
</event>
<event>
 5    1  0.6650580E-004  0.9118800E+02  0.7818608E-02  0.1130116E+00
         25   -1    0    0    0    0  0.00000000000E+00  0.00000000000E+00  0.99999998245E-14  0.12500000000E+03  0.12500000000E+03 0.  0.
        -11    1    3    3    0    0  0.47628219381E+02  0.52211497382E+01  0.24732192711E+02  0.53920209964E+02  0.51100000000E-03 0.  1.
         23    2    1    0    0    0  0.39668043707E+01  0.13383717170E+01  0.26869791416E+02  0.97806021502E+02  0.93949483104E+02 0.  0.
         11    1    3    3    0    0 -0.43661415011E+02 -0.38827780212E+01  0.21375987057E+01  0.43885811538E+02  0.51100000000E-03 0. -1.
         22    1    1    0    0    0 -0.39668043707E+01 -0.13383717170E+01 -0.26869791416E+02  0.27193978498E+02  0.00000000000E+00 0.  1.
</event>
<event>
 5    1  0.6650580E-004  0.9118800E+02  0.7818608E-02  0.1130116E+00
         25   -1    0    0    0    0  0.00000000000E+00  0.00000000000E+00  0.99999998245E-14  0.12500000000E+03  0.12500000000E+03 0.  0.
        -11    1    3    3    0    0 -0.16993489673E+01 -0.57931279177E+01  0.59295679533E+02  0.59602229233E+02  0.51100000000E-03 0.  1.
         23    2    1    0    0    0 -0.14084893895E+02 -0.19858486648E+01  0.25429445732E+02  0.95862660705E+02  0.91327242246E+02 0.  0.
         11    1    3    3    0    0 -0.12385544928E+02  0.38072792529E+01 -0.33866233801E+02  0.36260431473E+02  0.51100000000E-03 0. -1.
         22    1    1    0    0    0  0.14084893895E+02  0.19858486648E+01 -0.25429445732E+02  0.29137339295E+02  0.00000000000E+00 0.  1.
</event>
<event>
 5    1  0.6650580E-004  0.9118800E+02  0.7818608E-02  0.1130116E+00
         25   -1    0    0    0    0  0.00000000000E+00  0.00000000000E+00  0.99999998245E-14  0.12500000000E+03  0.12500000000E+03 0.  0.
        -11    1    3    3    0    0  0.48043760951E+01 -0.42509277002E+02 -0.20549553645E+02  0.47459507121E+02  0.51100000000E-03 0.  1.
         23    2    1    0    0    0 -0.19563768344E+02 -0.16688430305E+02  0.12893349911E+02  0.96233992112E+02  0.91834078795E+02 0.  0.
         11    1    3    3    0    0 -0.24368144439E+02  0.25820846697E+02  0.33442903556E+02  0.48774484991E+02  0.51100000000E-03 0. -1.
         22    1    1    0    0    0  0.19563768344E+02  0.16688430305E+02 -0.12893349911E+02  0.28766007888E+02  0.00000000000E+00 0. -1.
</event>
<event>
 5    1  0.6650580E-004  0.9118800E+02  0.7818608E-02  0.1130116E+00
         25   -1    0    0    0    0  0.00000000000E+00  0.00000000000E+00  0.99999998245E-14  0.12500000000E+03  0.12500000000E+03 0.  0.
        -11    1    3    3    0    0 -0.37186175585E+02  0.29994662938E+02  0.37360515346E+02  0.60648986526E+02  0.51100000000E-03 0. -1.
         23    2    1    0    0    0 -0.23940122325E+02  0.56880810392E+01  0.15534845457E+02  0.95899911577E+02  0.91378213456E+02 0.  0.
         11    1    3    3    0    0  0.13246053261E+02 -0.24306581899E+02 -0.21825669889E+02  0.35250925051E+02  0.51100000000E-03 0.  1.
         22    1    1    0    0    0  0.23940122325E+02 -0.56880810392E+01 -0.15534845457E+02  0.29100088423E+02  0.00000000000E+00 0. -1.
</event>
<event>
 5    1  0.6650580E-004  0.9118800E+02  0.7818608E-02  0.1130116E+00
         25   -1    0    0    0    0  0.00000000000E+00  0.00000000000E+00  0.99999998245E-14  0.12500000000E+03  0.12500000000E+03 0.  0.
        -11    1    3    3    0    0 -0.34068571124E+02 -0.19925148397E+02 -0.24790346945E+02  0.46607299632E+02  0.51100000000E-03 0.  1.
         23    2    1    0    0    0  0.35144050119E+01 -0.28186318788E+02  0.60944915121E+01  0.95948968415E+02  0.91445295689E+02 0.  0.
         11    1    3    3    0    0  0.37582976136E+02 -0.82611703907E+01  0.30884838457E+02  0.49341668783E+02  0.51100000000E-03 0. -1.
         22    1    1    0    0    0 -0.35144050119E+01  0.28186318788E+02 -0.60944915121E+01  0.29051031585E+02  0.00000000000E+00 0.  1.
</event>
<event>
 5    1  0.6650580E-004  0.9118800E+02  0.7818608E-02  0.1130116E+00
         25   -1    0    0    0    0  0.00000000000E+00  0.00000000000E+00  0.99999998245E-14  0.12500000000E+03  0.12500000000E+03 0.  0.
        -11    1    3    3    0    0 -0.26821796653E+02 -0.35000680746E+02  0.17067690328E+02  0.47283850116E+02  0.51100000000E-03 0.  1.
         23    2    1    0    0    0  0.19182470584E+02 -0.11343448238E+02  0.13060499070E+02  0.99169443839E+02  0.95746336534E+02 0.  0.
         11    1    3    3    0    0  0.46004267237E+02  0.23657232508E+02 -0.40071912578E+01  0.51885593723E+02  0.51100000000E-03 0. -1.
         22    1    1    0    0    0 -0.19182470584E+02  0.11343448238E+02 -0.13060499070E+02  0.25830556161E+02  0.00000000000E+00 0.  1.
</event>
<event>
 5    1  0.6650580E-004  0.9118800E+02  0.7818608E-02  0.1130116E+00
         25   -1    0    0    0    0  0.00000000000E+00  0.00000000000E+00  0.99999998245E-14  0.12500000000E+03  0.12500000000E+03 0.  0.
        -11    1    3    3    0    0 -0.23073607541E+02 -0.26480350270E+02  0.13422536108E+02  0.37600063713E+02  0.51100000000E-03 0. -1.
         23    2    1    0    0    0 -0.15949305452E+01  0.76439899275E+01 -0.28312014843E+02  0.95630890890E+02  0.91009465016E+02 0.  0.
         11    1    3    3    0    0  0.21478676996E+02  0.34124340198E+02 -0.41734550951E+02  0.58030827177E+02  0.51100000000E-03 0.  1.
         22    1    1    0    0    0  0.15949305452E+01 -0.76439899275E+01  0.28312014843E+02  0.29369109110E+02  0.00000000000E+00 0.  1.
</event>
<event>
 5    1  0.6650580E-004  0.9118800E+02  0.7818608E-02  0.1130116E+00
         25   -1    0    0    0    0  0.00000000000E+00  0.00000000000E+00  0.99999998245E-14  0.12500000000E+03  0.12500000000E+03 0.  0.
        -11    1    3    3    0    0 -0.13460566471E+02  0.29410094534E+02 -0.11697372675E+02  0.34394316943E+02  0.51100000000E-03 0.  1.
         23    2    1    0    0    0  0.13445650181E+02 -0.15050134732E+02  0.21065157324E+02  0.95827531518E+02  0.91279148109E+02 0.  0.
         11    1    3    3    0    0  0.26906216652E+02 -0.44460229266E+02  0.32762529999E+02  0.61433214575E+02  0.51100000000E-03 0. -1.
         22    1    1    0    0    0 -0.13445650181E+02  0.15050134732E+02 -0.21065157324E+02  0.29172468482E+02  0.00000000000E+00 0. -1.
</event>
<event>
 5    1  0.6650580E-004  0.9118800E+02  0.7818608E-02  0.1130116E+00
         25   -1    0    0    0    0  0.00000000000E+00  0.00000000000E+00  0.99999998245E-14  0.12500000000E+03  0.12500000000E+03 0.  0.
        -11    1    3    3    0    0  0.58104865724E+01  0.68658131781E+01 -0.35300744349E+02  0.36428610963E+02  0.51100000000E-03 0. -1.
         23    2    1    0    0    0 -0.25896505429E+01  0.18553270114E+02  0.22343440139E+02  0.95842506296E+02  0.91299652650E+02 0.  0.
         11    1    3    3    0    0 -0.84001371154E+01  0.11687456935E+02  0.57644184488E+02  0.59413895334E+02  0.51100000000E-03 0.  1.
         22    1    1    0    0    0  0.25896505429E+01 -0.18553270114E+02 -0.22343440139E+02  0.29157493704E+02  0.00000000000E+00 0.  1.
</event>
<event>
 5    1  0.6650580E-004  0.9118800E+02  0.7818608E-02  0.1130116E+00
         25   -1    0    0    0    0  0.00000000000E+00  0.00000000000E+00  0.99999998245E-14  0.12500000000E+03  0.12500000000E+03 0.  0.
        -11    1    3    3    0    0  0.37917306748E+02 -0.15167192099E+02 -0.45921005819E+02  0.61453272027E+02  0.51100000000E-03 0.  1.
         23    2    1    0    0    0  0.11087288860E+02 -0.31877167230E+01 -0.24825932086E+02  0.97624528933E+02  0.93707695699E+02 0.  0.
         11    1    3    3    0    0 -0.26830017887E+02  0.11979475376E+02  0.21095073733E+02  0.36171256906E+02  0.51100000000E-03 0. -1.
         22    1    1    0    0    0 -0.11087288860E+02  0.31877167230E+01  0.24825932086E+02  0.27375471067E+02  0.00000000000E+00 0.  1.
</event>
<event>
 5    1  0.6650580E-004  0.9118800E+02  0.7818608E-02  0.1130116E+00
         25   -1    0    0    0    0  0.00000000000E+00  0.00000000000E+00  0.99999998245E-14  0.12500000000E+03  0.12500000000E+03 0.  0.
        -11    1    3    3    0    0  0.11430659990E+02 -0.13909427002E+02 -0.38535973291E+02  0.42534143756E+02  0.51100000000E-03 0.  1.
         23    2    1    0    0    0 -0.28452656219E+02 -0.63433744405E+01 -0.45118781133E+01  0.95501710400E+02  0.90831864453E+02 0.  0.
         11    1    3    3    0    0 -0.39883316210E+02  0.75660525616E+01  0.34024095178E+02  0.52967566644E+02  0.51100000000E-03 0. -1.
         22    1    1    0    0    0  0.28452656219E+02  0.63433744405E+01  0.45118781133E+01  0.29498289600E+02  0.00000000000E+00 0. -1.
</event>
<event>
 5    1  0.6650580E-004  0.9118800E+02  0.7818608E-02  0.1130116E+00
         25   -1    0    0    0    0  0.00000000000E+00  0.00000000000E+00  0.99999998245E-14  0.12500000000E+03  0.12500000000E+03 0.  0.
        -11    1    3    3    0    0 -0.45939289047E+02 -0.40396586386E+02 -0.41154789135E+00  0.61175745534E+02  0.51100000000E-03 0. -1.
         23    2    1    0    0    0 -0.26724702221E+02 -0.13547572621E+02  0.49715913728E+01  0.94627921482E+02  0.89621316496E+02 0.  0.
         11    1    3    3    0    0  0.19214586825E+02  0.26849013765E+02  0.53831392642E+01  0.33452175947E+02  0.51100000000E-03 0.  1.
         22    1    1    0    0    0  0.26724702221E+02  0.13547572621E+02 -0.49715913728E+01  0.30372078518E+02  0.00000000000E+00 0. -1.
</event>
<event>
 5    1  0.6650580E-004  0.9118800E+02  0.7818608E-02  0.1130116E+00
         25   -1    0    0    0    0  0.00000000000E+00  0.00000000000E+00  0.99999998245E-14  0.12500000000E+03  0.12500000000E+03 0.  0.
        -11    1    3    3    0    0 -0.35410622682E+02  0.44558457809E+02  0.22147229071E+02  0.61072646224E+02  0.51100000000E-03 0.  1.
         23    2    1    0    0    0 -0.10838889347E+02  0.26644581743E+02  0.55884980263E+01  0.95697328301E+02  0.91100670004E+02 0.  0.
         11    1    3    3    0    0  0.24571733336E+02 -0.17913876066E+02 -0.16558731045E+02  0.34624682077E+02  0.51100000000E-03 0. -1.
         22    1    1    0    0    0  0.10838889347E+02 -0.26644581743E+02 -0.55884980263E+01  0.29302671699E+02  0.00000000000E+00 0.  1.
</event>
<event>
 5    1  0.6650580E-004  0.9118800E+02  0.7818608E-02  0.1130116E+00
         25   -1    0    0    0    0  0.00000000000E+00  0.00000000000E+00  0.99999998245E-14  0.12500000000E+03  0.12500000000E+03 0.  0.
        -11    1    3    3    0    0 -0.12051409806E+02  0.27073307843E+02 -0.25982689914E+02  0.39411935392E+02  0.51100000000E-03 0. -1.
         23    2    1    0    0    0  0.98662130940E+01 -0.21899624368E+02 -0.20639283302E+02  0.93331155318E+02  0.87794013631E+02 0.  0.
         11    1    3    3    0    0  0.21917622900E+02 -0.48972932211E+02  0.53434066114E+01  0.53919219926E+02  0.51100000000E-03 0.  1.
         22    1    1    0    0    0 -0.98662130940E+01  0.21899624368E+02  0.20639283302E+02  0.31668844682E+02  0.00000000000E+00 0.  1.
</event>
<event>
 5    1  0.6650580E-004  0.9118800E+02  0.7818608E-02  0.1130116E+00
         25   -1    0    0    0    0  0.00000000000E+00  0.00000000000E+00  0.99999998245E-14  0.12500000000E+03  0.12500000000E+03 0.  0.
        -11    1    3    3    0    0  0.38184928424E+02 -0.10763358473E+02 -0.22722981200E+02  0.45719498239E+02  0.51100000000E-03 0.  1.
         23    2    1    0    0    0  0.17965417003E+02  0.20352267767E+02  0.10853663974E+02  0.95763498277E+02  0.91191417190E+02 0.  0.
         11    1    3    3    0    0 -0.20219511421E+02  0.31115626239E+02  0.33576645174E+02  0.50044000038E+02  0.51100000000E-03 0. -1.
         22    1    1    0    0    0 -0.17965417003E+02 -0.20352267767E+02 -0.10853663974E+02  0.29236501723E+02  0.00000000000E+00 0.  1.
</event>
<event>
 5    1  0.6650580E-004  0.9118800E+02  0.7818608E-02  0.1130116E+00
         25   -1    0    0    0    0  0.00000000000E+00  0.00000000000E+00  0.99999998245E-14  0.12500000000E+03  0.12500000000E+03 0.  0.
        -11    1    3    3    0    0 -0.44636999996E+01 -0.37685071136E+02  0.46792033516E+01  0.38235901304E+02  0.51100000000E-03 0.  1.
         23    2    1    0    0    0  0.27199126728E+01  0.13761414153E+02 -0.23723577261E+02  0.97439474561E+02  0.93460519152E+02 0.  0.
         11    1    3    3    0    0  0.71836126724E+01  0.51446485289E+02 -0.28402780612E+02  0.59203573257E+02  0.51100000000E-03 0. -1.
         22    1    1    0    0    0 -0.27199126728E+01 -0.13761414153E+02  0.23723577261E+02  0.27560525439E+02  0.00000000000E+00 0. -1.
</event>
<event>
 5    1  0.6650580E-004  0.9118800E+02  0.7818608E-02  0.1130116E+00
         25   -1    0    0    0    0  0.00000000000E+00  0.00000000000E+00  0.99999998245E-14  0.12500000000E+03  0.12500000000E+03 0.  0.
        -11    1    3    3    0    0 -0.43673619703E+01  0.41969384507E+02 -0.19889526626E+01  0.42242857614E+02  0.51100000000E-03 0.  1.
         23    2    1    0    0    0  0.26527992188E+02  0.34190787257E+01 -0.16300511058E+02  0.93676987220E+02  0.88285031603E+02 0.  0.
         11    1    3    3    0    0  0.30895354158E+02 -0.38550305781E+02 -0.14311558395E+02  0.51434129606E+02  0.51100000000E-03 0. -1.
         22    1    1    0    0    0 -0.26527992188E+02 -0.34190787257E+01  0.16300511058E+02  0.31323012780E+02  0.00000000000E+00 0. -1.
</event>
<event>
 5    1  0.6650580E-004  0.9118800E+02  0.7818608E-02  0.1130116E+00
         25   -1    0    0    0    0  0.00000000000E+00  0.00000000000E+00  0.99999998245E-14  0.12500000000E+03  0.12500000000E+03 0.  0.
        -11    1    3    3    0    0  0.12934233519E+02 -0.36942327276E+01 -0.38338867970E+02  0.40630167975E+02  0.51100000000E-03 0.  1.
         23    2    1    0    0    0 -0.18041926252E+01 -0.25412962693E+02  0.11569154358E+02  0.97019308149E+02  0.92896862365E+02 0.  0.
         11    1    3    3    0    0 -0.14738426145E+02 -0.21718729966E+02  0.49908022329E+02  0.56389140174E+02  0.51100000000E-03 0. -1.
         22    1    1    0    0    0  0.18041926252E+01  0.25412962693E+02 -0.11569154358E+02  0.27980691851E+02  0.00000000000E+00 0. -1.
</event>
<event>
 5    1  0.6650580E-004  0.9118800E+02  0.7818608E-02  0.1130116E+00
         25   -1    0    0    0    0  0.00000000000E+00  0.00000000000E+00  0.99999998245E-14  0.12500000000E+03  0.12500000000E+03 0.  0.
        -11    1    3    3    0    0  0.35122921686E+02 -0.22177644233E+02 -0.91053515341E+00  0.41548725685E+02  0.51100000000E-03 0.  1.
         23    2    1    0    0    0 -0.19021238825E+02 -0.15924860317E+02 -0.12423766232E+02  0.97255474955E+02  0.93214101609E+02 0.  0.
         11    1    3    3    0    0 -0.54144160511E+02  0.62527839165E+01 -0.11513231079E+02  0.55706749271E+02  0.51100000000E-03 0. -1.
         22    1    1    0    0    0  0.19021238825E+02  0.15924860317E+02  0.12423766232E+02  0.27744525045E+02  0.00000000000E+00 0.  1.
</event>
<event>
 5    1  0.6650580E-004  0.9118800E+02  0.7818608E-02  0.1130116E+00
         25   -1    0    0    0    0  0.00000000000E+00  0.00000000000E+00  0.99999998245E-14  0.12500000000E+03  0.12500000000E+03 0.  0.
        -11    1    3    3    0    0  0.10003307190E+02  0.35889593968E+02  0.29772423812E+02  0.47691994400E+02  0.51100000000E-03 0. -1.
         23    2    1    0    0    0  0.22382492979E+02 -0.86320773724E+01  0.16878843031E+02  0.95667695389E+02  0.91060001357E+02 0.  0.
         11    1    3    3    0    0  0.12379185789E+02 -0.44521671341E+02 -0.12893580781E+02  0.47975700989E+02  0.51100000000E-03 0.  1.
         22    1    1    0    0    0 -0.22382492979E+02  0.86320773724E+01 -0.16878843031E+02  0.29332304611E+02  0.00000000000E+00 0. -1.
</event>
<event>
 5    1  0.6650580E-004  0.9118800E+02  0.7818608E-02  0.1130116E+00
         25   -1    0    0    0    0  0.00000000000E+00  0.00000000000E+00  0.99999998245E-14  0.12500000000E+03  0.12500000000E+03 0.  0.
        -11    1    3    3    0    0  0.26720035392E+02 -0.49461389780E+02  0.16881284801E+02  0.58697249911E+02  0.51100000000E-03 0.  1.
         23    2    1    0    0    0  0.32870632012E+01 -0.21876739992E+02  0.20199366932E+02  0.95043181718E+02  0.90198644277E+02 0.  0.
         11    1    3    3    0    0 -0.23432972191E+02  0.27584649788E+02  0.33180821309E+01  0.36345931807E+02  0.51100000000E-03 0. -1.
         22    1    1    0    0    0 -0.32870632012E+01  0.21876739992E+02 -0.20199366932E+02  0.29956818282E+02  0.00000000000E+00 0.  1.
</event>
<event>
 5    1  0.6650580E-004  0.9118800E+02  0.7818608E-02  0.1130116E+00
         25   -1    0    0    0    0  0.00000000000E+00  0.00000000000E+00  0.99999998245E-14  0.12500000000E+03  0.12500000000E+03 0.  0.
        -11    1    3    3    0    0 -0.46842443797E+02 -0.17939792104E+02  0.34305561528E+02  0.60769418573E+02  0.51100000000E-03 0.  1.
         23    2    1    0    0    0 -0.15272159655E+02 -0.10658625344E+02  0.23695705192E+02  0.94861459901E+02  0.89946456157E+02 0.  0.
         11    1    3    3    0    0  0.31570284142E+02  0.72811667606E+01 -0.10609856336E+02  0.34092041328E+02  0.51100000000E-03 0. -1.
         22    1    1    0    0    0  0.15272159655E+02  0.10658625344E+02 -0.23695705192E+02  0.30138540099E+02  0.00000000000E+00 0.  1.
</event>
<event>
 5    1  0.6650580E-004  0.9118800E+02  0.7818608E-02  0.1130116E+00
         25   -1    0    0    0    0  0.00000000000E+00  0.00000000000E+00  0.99999998245E-14  0.12500000000E+03  0.12500000000E+03 0.  0.
        -11    1    3    3    0    0  0.25737822185E+02  0.92219779451E+01 -0.44772069941E+02  0.52459685618E+02  0.51100000000E-03 0.  1.
         23    2    1    0    0    0  0.25718946029E+02 -0.12790496867E+02 -0.82288016921E+01  0.95120673163E+02  0.90305970404E+02 0.  0.
         11    1    3    3    0    0 -0.18876155669E-01 -0.22012474812E+02  0.36543268249E+02  0.42660987545E+02  0.51100000000E-03 0. -1.
         22    1    1    0    0    0 -0.25718946029E+02  0.12790496867E+02  0.82288016921E+01  0.29879326837E+02  0.00000000000E+00 0.  1.
</event>
<event>
 5    1  0.6650580E-004  0.9118800E+02  0.7818608E-02  0.1130116E+00
         25   -1    0    0    0    0  0.00000000000E+00  0.00000000000E+00  0.99999998245E-14  0.12500000000E+03  0.12500000000E+03 0.  0.
        -11    1    3    3    0    0  0.46450532129E+02 -0.37976242079E+01  0.75916639399E+00  0.46611696156E+02  0.51100000000E-03 0. -1.
         23    2    1    0    0    0  0.28866462514E+02 -0.28560652412E+02 -0.16063342470E+02  0.81330622908E+02  0.68612358413E+02 0.  0.
         11    1    3    3    0    0 -0.17584069615E+02 -0.24763028205E+02 -0.16822508864E+02  0.34718926752E+02  0.51100000000E-03 0.  1.
         22    1    1    0    0    0 -0.28866462514E+02  0.28560652412E+02  0.16063342470E+02  0.43669377092E+02  0.00000000000E+00 0. -1.
</event>
<event>
 5    1  0.6650580E-004  0.9118800E+02  0.7818608E-02  0.1130116E+00
         25   -1    0    0    0    0  0.00000000000E+00  0.00000000000E+00  0.99999998245E-14  0.12500000000E+03  0.12500000000E+03 0.  0.
        -11    1    3    3    0    0 -0.13100215095E+02 -0.18161417555E+02 -0.28203979519E+02  0.36012736416E+02  0.51100000000E-03 0.  1.
         23    2    1    0    0    0  0.13808628639E+02  0.27100853496E+02 -0.28646493889E+01  0.94449374782E+02  0.89371940202E+02 0.  0.
         11    1    3    3    0    0  0.26908843734E+02  0.45262271051E+02  0.25339330131E+02  0.58436638366E+02  0.51100000000E-03 0. -1.
         22    1    1    0    0    0 -0.13808628639E+02 -0.27100853496E+02  0.28646493889E+01  0.30550625218E+02  0.00000000000E+00 0. -1.
</event>
<event>
 5    1  0.6650580E-004  0.9118800E+02  0.7818608E-02  0.1130116E+00
         25   -1    0    0    0    0  0.00000000000E+00  0.00000000000E+00  0.99999998245E-14  0.12500000000E+03  0.12500000000E+03 0.  0.
        -11    1    3    3    0    0 -0.38532314019E+02  0.24759381014E+02  0.41503439542E+02  0.61808588933E+02  0.51100000000E-03 0.  1.
         23    2    1    0    0    0 -0.20761563571E+02  0.18936060340E+02  0.18946559017E+02  0.91109160505E+02  0.84571213343E+02 0.  0.
         11    1    3    3    0    0  0.17770750447E+02 -0.58233206741E+01 -0.22556880525E+02  0.29300571572E+02  0.51100000000E-03 0. -1.
         22    1    1    0    0    0  0.20761563571E+02 -0.18936060340E+02 -0.18946559017E+02  0.33890839495E+02  0.00000000000E+00 0.  1.
</event>
<event>
 5    1  0.6650580E-004  0.9118800E+02  0.7818608E-02  0.1130116E+00
         25   -1    0    0    0    0  0.00000000000E+00  0.00000000000E+00  0.99999998245E-14  0.12500000000E+03  0.12500000000E+03 0.  0.
        -11    1    3    3    0    0 -0.16765613744E+02 -0.24413031481E+02  0.25338367838E+02  0.38975823214E+02  0.51100000000E-03 0. -1.
         23    2    1    0    0    0 -0.22419376943E+02  0.15770670917E+02 -0.12875273541E+02  0.94716090206E+02  0.89744206228E+02 0.  0.
         11    1    3    3    0    0 -0.56537631993E+01  0.40183702398E+02 -0.38213641378E+02  0.55740266992E+02  0.51100000000E-03 0.  1.
         22    1    1    0    0    0  0.22419376943E+02 -0.15770670917E+02  0.12875273541E+02  0.30283909794E+02  0.00000000000E+00 0.  1.
</event>
<event>
 5    1  0.6650580E-004  0.9118800E+02  0.7818608E-02  0.1130116E+00
         25   -1    0    0    0    0  0.00000000000E+00  0.00000000000E+00  0.99999998245E-14  0.12500000000E+03  0.12500000000E+03 0.  0.
        -11    1    3    3    0    0  0.33184397822E+02  0.40938283800E+02 -0.11945765646E+02  0.54035623958E+02  0.51100000000E-03 0.  1.
         23    2    1    0    0    0 -0.44761455952E+01  0.24283546367E+02 -0.16251949789E+02  0.95439005844E+02  0.90745531355E+02 0.  0.
         11    1    3    3    0    0 -0.37660543418E+02 -0.16654737434E+02 -0.43061841436E+01  0.41403381886E+02  0.51100000000E-03 0. -1.
         22    1    1    0    0    0  0.44761455952E+01 -0.24283546367E+02  0.16251949789E+02  0.29560994156E+02  0.00000000000E+00 0.  1.
</event>
<event>
 5    1  0.6650580E-004  0.9118800E+02  0.7818608E-02  0.1130116E+00
         25   -1    0    0    0    0  0.00000000000E+00  0.00000000000E+00  0.99999998245E-14  0.12500000000E+03  0.12500000000E+03 0.  0.
        -11    1    3    3    0    0  0.34308004979E+02  0.30746231838E+02  0.84928038064E+01  0.46845466106E+02  0.51100000000E-03 0. -1.
         23    2    1    0    0    0 -0.13716906106E+02  0.25756087108E+02  0.61004718655E+01  0.95188168570E+02  0.90399348131E+02 0.  0.
         11    1    3    3    0    0 -0.48024911085E+02 -0.49901447300E+01 -0.23923319408E+01  0.48342702465E+02  0.51100000000E-03 0.  1.
         22    1    1    0    0    0  0.13716906106E+02 -0.25756087108E+02 -0.61004718655E+01  0.29811831430E+02  0.00000000000E+00 0. -1.
</event>
<event>
 5    1  0.6650580E-004  0.9118800E+02  0.7818608E-02  0.1130116E+00
         25   -1    0    0    0    0  0.00000000000E+00  0.00000000000E+00  0.99999998245E-14  0.12500000000E+03  0.12500000000E+03 0.  0.
        -11    1    3    3    0    0 -0.27491538956E+02 -0.43013652763E+02  0.20010879307E+02  0.54830596651E+02  0.51100000000E-03 0. -1.
         23    2    1    0    0    0 -0.18526369405E+02 -0.30496617438E+01  0.22295898367E+02  0.95851520039E+02  0.91311992694E+02 0.  0.
         11    1    3    3    0    0  0.89651695515E+01  0.39963991019E+02  0.22850190597E+01  0.41020923388E+02  0.51100000000E-03 0.  1.
         22    1    1    0    0    0  0.18526369405E+02  0.30496617438E+01 -0.22295898367E+02  0.29148479961E+02  0.00000000000E+00 0. -1.
</event>
<event>
 5    1  0.6650580E-004  0.9118800E+02  0.7818608E-02  0.1130116E+00
         25   -1    0    0    0    0  0.00000000000E+00  0.00000000000E+00  0.99999998245E-14  0.12500000000E+03  0.12500000000E+03 0.  0.
        -11    1    3    3    0    0  0.38847657559E+02  0.23175367387E+02 -0.11353154894E+02  0.46638313409E+02  0.51100000000E-03 0.  1.
         23    2    1    0    0    0 -0.97594635383E+01  0.26175842551E+02  0.15585562067E+01  0.97020526108E+02  0.92898501210E+02 0.  0.
         11    1    3    3    0    0 -0.48607121098E+02  0.30004751643E+01  0.12911711100E+02  0.50382212699E+02  0.51100000000E-03 0. -1.
         22    1    1    0    0    0  0.97594635383E+01 -0.26175842551E+02 -0.15585562067E+01  0.27979473892E+02  0.00000000000E+00 0. -1.
</event>
<event>
 5    1  0.6650580E-004  0.9118800E+02  0.7818608E-02  0.1130116E+00
         25   -1    0    0    0    0  0.00000000000E+00  0.00000000000E+00  0.99999998245E-14  0.12500000000E+03  0.12500000000E+03 0.  0.
        -11    1    3    3    0    0  0.10599491418E+02 -0.22726897916E+02 -0.26140359105E+02  0.36224018021E+02  0.51100000000E-03 0.  1.
         23    2    1    0    0    0 -0.18753826794E+02 -0.13817967955E+02  0.21771926601E+02  0.93114908723E+02  0.87485582702E+02 0.  0.
         11    1    3    3    0    0 -0.29353318212E+02  0.89089299609E+01  0.47912285705E+02  0.56890890702E+02  0.51100000000E-03 0. -1.
         22    1    1    0    0    0  0.18753826794E+02  0.13817967955E+02 -0.21771926601E+02  0.31885091277E+02  0.00000000000E+00 0. -1.
</event>
<event>
 5    1  0.6650580E-004  0.9118800E+02  0.7818608E-02  0.1130116E+00
         25   -1    0    0    0    0  0.00000000000E+00  0.00000000000E+00  0.99999998245E-14  0.12500000000E+03  0.12500000000E+03 0.  0.
        -11    1    3    3    0    0  0.21291795976E+02 -0.26090876270E+02  0.47879027150E+02  0.58536105452E+02  0.51100000000E-03 0. -1.
         23    2    1    0    0    0  0.76755403398E+01 -0.25160720669E+02  0.13696654339E+02  0.95342385056E+02  0.90612340572E+02 0.  0.
         11    1    3    3    0    0 -0.13616255636E+02  0.93015560127E+00 -0.34182372811E+02  0.36806279603E+02  0.51100000000E-03 0.  1.
         22    1    1    0    0    0 -0.76755403398E+01  0.25160720669E+02 -0.13696654339E+02  0.29657614944E+02  0.00000000000E+00 0. -1.
</event>
<event>
 5    1  0.6650580E-004  0.9118800E+02  0.7818608E-02  0.1130116E+00
         25   -1    0    0    0    0  0.00000000000E+00  0.00000000000E+00  0.99999998245E-14  0.12500000000E+03  0.12500000000E+03 0.  0.
        -11    1    3    3    0    0  0.41734815793E+02 -0.22331844467E+02  0.60983098609E+01  0.47725208328E+02  0.51100000000E-03 0. -1.
         23    2    1    0    0    0  0.22198049860E+02  0.16899306392E+02 -0.11327890161E+02  0.94889186832E+02  0.89984980458E+02 0.  0.
         11    1    3    3    0    0 -0.19536765933E+02  0.39231150859E+02 -0.17426200022E+02  0.47163978504E+02  0.51100000000E-03 0.  1.
         22    1    1    0    0    0 -0.22198049860E+02 -0.16899306392E+02  0.11327890161E+02  0.30110813168E+02  0.00000000000E+00 0.  1.
</event>
<event>
 5    1  0.6650580E-004  0.9118800E+02  0.7818608E-02  0.1130116E+00
         25   -1    0    0    0    0  0.00000000000E+00  0.00000000000E+00  0.99999998245E-14  0.12500000000E+03  0.12500000000E+03 0.  0.
        -11    1    3    3    0    0  0.51471047138E+02 -0.17693554605E+02  0.14465024206E+02  0.56316671542E+02  0.51100000000E-03 0.  1.
         23    2    1    0    0    0  0.29138461718E+02 -0.34073108643E+01 -0.11560595392E+02  0.93467364772E+02  0.87987733196E+02 0.  0.
         11    1    3    3    0    0 -0.22332585419E+02  0.14286243741E+02 -0.26025619598E+02  0.37150693230E+02  0.51100000000E-03 0. -1.
         22    1    1    0    0    0 -0.29138461718E+02  0.34073108643E+01  0.11560595392E+02  0.31532635228E+02  0.00000000000E+00 0.  1.
</event>
<event>
 5    1  0.6650580E-004  0.9118800E+02  0.7818608E-02  0.1130116E+00
         25   -1    0    0    0    0  0.00000000000E+00  0.00000000000E+00  0.99999998245E-14  0.12500000000E+03  0.12500000000E+03 0.  0.
        -11    1    3    3    0    0 -0.23865833848E+02 -0.12152785124E+02  0.22907764071E+02  0.35242500855E+02  0.51100000000E-03 0.  1.
         23    2    1    0    0    0  0.67275890290E+01  0.13237763025E+02 -0.24028230074E+02  0.96753678743E+02  0.92538746943E+02 0.  0.
         11    1    3    3    0    0  0.30593422877E+02  0.25390548148E+02 -0.46935994145E+02  0.61511177889E+02  0.51100000000E-03 0. -1.
         22    1    1    0    0    0 -0.67275890290E+01 -0.13237763025E+02  0.24028230074E+02  0.28246321257E+02  0.00000000000E+00 0. -1.
</event>
<event>
 5    1  0.6650580E-004  0.9118800E+02  0.7818608E-02  0.1130116E+00
         25   -1    0    0    0    0  0.00000000000E+00  0.00000000000E+00  0.99999998245E-14  0.12500000000E+03  0.12500000000E+03 0.  0.
        -11    1    3    3    0    0 -0.40229980702E+02 -0.10099753144E+02 -0.22214794819E+02  0.47052666980E+02  0.51100000000E-03 0.  1.
         23    2    1    0    0    0 -0.51819406554E+01 -0.26908359436E+02  0.81873540759E+01  0.96400260784E+02  0.92060117293E+02 0.  0.
         11    1    3    3    0    0  0.35048040046E+02 -0.16808606292E+02  0.30402148894E+02  0.49347593804E+02  0.51100000000E-03 0. -1.
         22    1    1    0    0    0  0.51819406554E+01  0.26908359436E+02 -0.81873540759E+01  0.28599739216E+02  0.00000000000E+00 0.  1.
</event>
<event>
 5    1  0.6650580E-004  0.9118800E+02  0.7818608E-02  0.1130116E+00
         25   -1    0    0    0    0  0.00000000000E+00  0.00000000000E+00  0.99999998245E-14  0.12500000000E+03  0.12500000000E+03 0.  0.
        -11    1    3    3    0    0  0.13873603198E+02 -0.45103126254E+02  0.38955007551E+02  0.61190370788E+02  0.51100000000E-03 0.  1.
         23    2    1    0    0    0 -0.27176421169E+01 -0.14350184719E+02  0.17547562828E+02  0.10216953042E+03  0.99586056275E+02 0.  0.
         11    1    3    3    0    0 -0.16591245315E+02  0.30752941535E+02 -0.21407444723E+02  0.40979159630E+02  0.51100000000E-03 0. -1.
         22    1    1    0    0    0  0.27176421169E+01  0.14350184719E+02 -0.17547562828E+02  0.22830469582E+02  0.00000000000E+00 0.  1.
</event>
<event>
 5    1  0.6650580E-004  0.9118800E+02  0.7818608E-02  0.1130116E+00
         25   -1    0    0    0    0  0.00000000000E+00  0.00000000000E+00  0.99999998245E-14  0.12500000000E+03  0.12500000000E+03 0.  0.
        -11    1    3    3    0    0 -0.23554300973E+02 -0.32761767860E+02  0.14404582651E+02  0.42844259000E+02  0.51100000000E-03 0.  1.
         23    2    1    0    0    0 -0.20080678479E+02  0.71262243355E+01 -0.20106223630E+02  0.95703635889E+02  0.91109324288E+02 0.  0.
         11    1    3    3    0    0  0.34736224945E+01  0.39887992195E+02 -0.34510806281E+02  0.52859376889E+02  0.51100000000E-03 0. -1.
         22    1    1    0    0    0  0.20080678479E+02 -0.71262243355E+01  0.20106223630E+02  0.29296364111E+02  0.00000000000E+00 0.  1.
</event>
<event>
 5    1  0.6650580E-004  0.9118800E+02  0.7818608E-02  0.1130116E+00
         25   -1    0    0    0    0  0.00000000000E+00  0.00000000000E+00  0.99999998245E-14  0.12500000000E+03  0.12500000000E+03 0.  0.
        -11    1    3    3    0    0 -0.51978743038E+00 -0.42097984291E+00  0.48625622339E+02  0.48630222610E+02  0.51100000000E-03 0.  1.
         23    2    1    0    0    0  0.24486332449E+02 -0.11904046001E+02  0.10128190250E+02  0.95950610579E+02  0.91447540397E+02 0.  0.
         11    1    3    3    0    0  0.25006119880E+02 -0.11483066158E+02 -0.38497432089E+02  0.47320387969E+02  0.51100000000E-03 0. -1.
         22    1    1    0    0    0 -0.24486332449E+02  0.11904046001E+02 -0.10128190250E+02  0.29049389421E+02  0.00000000000E+00 0.  1.
</event>
<event>
 5    1  0.6650580E-004  0.9118800E+02  0.7818608E-02  0.1130116E+00
         25   -1    0    0    0    0  0.00000000000E+00  0.00000000000E+00  0.99999998245E-14  0.12500000000E+03  0.12500000000E+03 0.  0.
        -11    1    3    3    0    0  0.10564509686E+02  0.55586989137E+02  0.17687349084E+02  0.59282076078E+02  0.51100000000E-03 0.  1.
         23    2    1    0    0    0 -0.22494280553E+01  0.22367598910E+02  0.19929127333E+02  0.94957704418E+02  0.90080109373E+02 0.  0.
         11    1    3    3    0    0 -0.12813937741E+02 -0.33219390227E+02  0.22417782494E+01  0.35675628341E+02  0.51100000000E-03 0. -1.
         22    1    1    0    0    0  0.22494280553E+01 -0.22367598910E+02 -0.19929127333E+02  0.30042295582E+02  0.00000000000E+00 0.  1.
</event>
<event>
 5    1  0.6650580E-004  0.9118800E+02  0.7818608E-02  0.1130116E+00
         25   -1    0    0    0    0  0.00000000000E+00  0.00000000000E+00  0.99999998245E-14  0.12500000000E+03  0.12500000000E+03 0.  0.
        -11    1    3    3    0    0 -0.12997632580E+01  0.10973272091E+02  0.48728302256E+02  0.49965483345E+02  0.51100000000E-03 0. -1.
         23    2    1    0    0    0  0.17304755754E+02  0.26332997776E+02  0.19181283274E+02  0.88110936964E+02  0.80017087182E+02 0.  0.
         11    1    3    3    0    0  0.18604519012E+02  0.15359725685E+02 -0.29547018982E+02  0.38145453619E+02  0.51100000000E-03 0.  1.
         22    1    1    0    0    0 -0.17304755754E+02 -0.26332997776E+02 -0.19181283274E+02  0.36889063036E+02  0.00000000000E+00 0. -1.
</event>
<event>
 5    1  0.6650580E-004  0.9118800E+02  0.7818608E-02  0.1130116E+00
         25   -1    0    0    0    0  0.00000000000E+00  0.00000000000E+00  0.99999998245E-14  0.12500000000E+03  0.12500000000E+03 0.  0.
        -11    1    3    3    0    0  0.33623792109E+01 -0.53097958655E+02  0.17615077868E+02  0.56044533862E+02  0.51100000000E-03 0.  1.
         23    2    1    0    0    0 -0.17252036731E+02 -0.22864946636E+02  0.72287674299E+00  0.96347581135E+02  0.91988560613E+02 0.  0.
         11    1    3    3    0    0 -0.20614415942E+02  0.30233012019E+02 -0.16892201125E+02  0.40303047273E+02  0.51100000000E-03 0. -1.
         22    1    1    0    0    0  0.17252036731E+02  0.22864946636E+02 -0.72287674299E+00  0.28652418865E+02  0.00000000000E+00 0.  1.
</event>
<event>
 5    1  0.6650580E-004  0.9118800E+02  0.7818608E-02  0.1130116E+00
         25   -1    0    0    0    0  0.00000000000E+00  0.00000000000E+00  0.99999998245E-14  0.12500000000E+03  0.12500000000E+03 0.  0.
        -11    1    3    3    0    0  0.31744120648E+02 -0.13945318651E+02 -0.37867926586E+02  0.51343363468E+02  0.51100000000E-03 0. -1.
         23    2    1    0    0    0  0.13061962869E+02 -0.25434185373E+02  0.14569539398E+01  0.96370725221E+02  0.92020004919E+02 0.  0.
         11    1    3    3    0    0 -0.18682157779E+02 -0.11488866722E+02  0.39324880526E+02  0.45027361753E+02  0.51100000000E-03 0.  1.
         22    1    1    0    0    0 -0.13061962869E+02  0.25434185373E+02 -0.14569539398E+01  0.28629274779E+02  0.00000000000E+00 0. -1.
</event>
<event>
 5    1  0.6650580E-004  0.9118800E+02  0.7818608E-02  0.1130116E+00
         25   -1    0    0    0    0  0.00000000000E+00  0.00000000000E+00  0.99999998245E-14  0.12500000000E+03  0.12500000000E+03 0.  0.
        -11    1    3    3    0    0  0.40419277835E+02  0.24277978452E+00  0.13498735286E+01  0.40442540987E+02  0.51100000000E-03 0. -1.
         23    2    1    0    0    0  0.10883817336E+01 -0.32979305689E+02  0.21472448758E+01  0.91932949344E+02  0.85780168663E+02 0.  0.
         11    1    3    3    0    0 -0.39330896101E+02 -0.33222085474E+02  0.79737134721E+00  0.51490408356E+02  0.51100000000E-03 0.  1.
         22    1    1    0    0    0 -0.10883817336E+01  0.32979305689E+02 -0.21472448758E+01  0.33067050656E+02  0.00000000000E+00 0.  1.
</event>
<event>
 5    1  0.6650580E-004  0.9118800E+02  0.7818608E-02  0.1130116E+00
         25   -1    0    0    0    0  0.00000000000E+00  0.00000000000E+00  0.99999998245E-14  0.12500000000E+03  0.12500000000E+03 0.  0.
        -11    1    3    3    0    0 -0.21048466744E+02  0.52020032226E+02  0.20647938737E+02  0.59795142607E+02  0.51100000000E-03 0.  1.
         23    2    1    0    0    0  0.21151260624E+01  0.25538018324E+02  0.14639683714E+02  0.95487553855E+02  0.90812380565E+02 0.  0.
         11    1    3    3    0    0  0.23163592807E+02 -0.26482013902E+02 -0.60082550231E+01  0.35692411248E+02  0.51100000000E-03 0. -1.
         22    1    1    0    0    0 -0.21151260624E+01 -0.25538018324E+02 -0.14639683714E+02  0.29512446145E+02  0.00000000000E+00 0.  1.
</event>
<event>
 5    1  0.6650580E-004  0.9118800E+02  0.7818608E-02  0.1130116E+00
         25   -1    0    0    0    0  0.00000000000E+00  0.00000000000E+00  0.99999998245E-14  0.12500000000E+03  0.12500000000E+03 0.  0.
        -11    1    3    3    0    0  0.51329222510E+02 -0.25681018135E+02  0.43766258477E+01  0.57561780984E+02  0.51100000000E-03 0.  1.
         23    2    1    0    0    0  0.28972803138E+02  0.48425838678E+01  0.36058409336E+01  0.95404797196E+02  0.90698397444E+02 0.  0.
         11    1    3    3    0    0 -0.22356419372E+02  0.30523602003E+02 -0.77078491413E+00  0.37843016212E+02  0.51100000000E-03 0. -1.
         22    1    1    0    0    0 -0.28972803138E+02 -0.48425838678E+01 -0.36058409336E+01  0.29595202804E+02  0.00000000000E+00 0.  1.
</event>
<event>
 5    1  0.6650580E-004  0.9118800E+02  0.7818608E-02  0.1130116E+00
         25   -1    0    0    0    0  0.00000000000E+00  0.00000000000E+00  0.99999998245E-14  0.12500000000E+03  0.12500000000E+03 0.  0.
        -11    1    3    3    0    0  0.64443074537E+01 -0.37718610600E+02 -0.52938185776E+01  0.38629615576E+02  0.51100000000E-03 0.  1.
         23    2    1    0    0    0 -0.23713048234E+02  0.13089701533E+02 -0.28518456527E+01  0.97764325483E+02  0.93893990068E+02 0.  0.
         11    1    3    3    0    0 -0.30157355687E+02  0.50808312133E+02  0.24419729250E+01  0.59134709907E+02  0.51100000000E-03 0. -1.
         22    1    1    0    0    0  0.23713048234E+02 -0.13089701533E+02  0.28518456527E+01  0.27235674517E+02  0.00000000000E+00 0. -1.
</event>
<event>
 5    1  0.6650580E-004  0.9118800E+02  0.7818608E-02  0.1130116E+00
         25   -1    0    0    0    0  0.00000000000E+00  0.00000000000E+00  0.99999998245E-14  0.12500000000E+03  0.12500000000E+03 0.  0.
        -11    1    3    3    0    0 -0.20012233907E+02  0.30657918535E+02 -0.22211270842E+01  0.36678752441E+02  0.51100000000E-03 0.  1.
         23    2    1    0    0    0  0.15106846894E+02 -0.13700187417E+02 -0.20448798778E+02  0.96119810773E+02  0.91678529074E+02 0.  0.
         11    1    3    3    0    0  0.35119080801E+02 -0.44358105952E+02 -0.18227671694E+02  0.59441058332E+02  0.51100000000E-03 0. -1.
         22    1    1    0    0    0 -0.15106846894E+02  0.13700187417E+02  0.20448798778E+02  0.28880189227E+02  0.00000000000E+00 0. -1.
</event>
<event>
 5    1  0.6650580E-004  0.9118800E+02  0.7818608E-02  0.1130116E+00
         25   -1    0    0    0    0  0.00000000000E+00  0.00000000000E+00  0.99999998245E-14  0.12500000000E+03  0.12500000000E+03 0.  0.
        -11    1    3    3    0    0  0.34102094257E+02  0.53268715464E+01 -0.63022982382E+01  0.35086284450E+02  0.51100000000E-03 0.  1.
         23    2    1    0    0    0 -0.23422503396E+02  0.14086813840E+02  0.10607885831E+02  0.95681418327E+02  0.91078837179E+02 0.  0.
         11    1    3    3    0    0 -0.57524597653E+02  0.87599422932E+01  0.16910184069E+02  0.60595133877E+02  0.51100000000E-03 0. -1.
         22    1    1    0    0    0  0.23422503396E+02 -0.14086813840E+02 -0.10607885831E+02  0.29318581673E+02  0.00000000000E+00 0. -1.
</event>
<event>
 5    1  0.6650580E-004  0.9118800E+02  0.7818608E-02  0.1130116E+00
         25   -1    0    0    0    0  0.00000000000E+00  0.00000000000E+00  0.99999998245E-14  0.12500000000E+03  0.12500000000E+03 0.  0.
        -11    1    3    3    0    0  0.39373433921E+01 -0.22736442859E+02 -0.26498604012E+02  0.35137224161E+02  0.51100000000E-03 0. -1.
         23    2    1    0    0    0 -0.10196795975E+02  0.29557882620E+02 -0.54098499212E+01  0.93268161899E+02  0.87704278542E+02 0.  0.
         11    1    3    3    0    0 -0.14134139367E+02  0.52294325479E+02  0.21088754091E+02  0.58130937738E+02  0.51100000000E-03 0.  1.
         22    1    1    0    0    0  0.10196795975E+02 -0.29557882620E+02  0.54098499212E+01  0.31731838101E+02  0.00000000000E+00 0.  1.
</event>
<event>
 5    1  0.6650580E-004  0.9118800E+02  0.7818608E-02  0.1130116E+00
         25   -1    0    0    0    0  0.00000000000E+00  0.00000000000E+00  0.99999998245E-14  0.12500000000E+03  0.12500000000E+03 0.  0.
        -11    1    3    3    0    0  0.16575200823E+02 -0.25243680055E+02 -0.14385035757E+02  0.33450110897E+02  0.51100000000E-03 0. -1.
         23    2    1    0    0    0 -0.11288314847E+02  0.15065292823E+02  0.23139921754E+02  0.95169728819E+02  0.90373846907E+02 0.  0.
         11    1    3    3    0    0 -0.27863515671E+02  0.40308972878E+02  0.37524957511E+02  0.61719617922E+02  0.51100000000E-03 0.  1.
         22    1    1    0    0    0  0.11288314847E+02 -0.15065292823E+02 -0.23139921754E+02  0.29830271181E+02  0.00000000000E+00 0.  1.
</event>
<event>
 5    1  0.6650580E-004  0.9118800E+02  0.7818608E-02  0.1130116E+00
         25   -1    0    0    0    0  0.00000000000E+00  0.00000000000E+00  0.99999998245E-14  0.12500000000E+03  0.12500000000E+03 0.  0.
        -11    1    3    3    0    0  0.19427757305E+02 -0.31355800827E+02 -0.78784237598E+01  0.37718610268E+02  0.51100000000E-03 0.  1.
         23    2    1    0    0    0 -0.38176438571E+01  0.21474272769E+02 -0.18492837822E+02  0.96404478562E+02  0.92065844050E+02 0.  0.
         11    1    3    3    0    0 -0.23245401162E+02  0.52830073596E+02 -0.10614414063E+02  0.58685868294E+02  0.51100000000E-03 0. -1.
         22    1    1    0    0    0  0.38176438571E+01 -0.21474272769E+02  0.18492837822E+02  0.28595521438E+02  0.00000000000E+00 0. -1.
</event>
<event>
 5    1  0.6650580E-004  0.9118800E+02  0.7818608E-02  0.1130116E+00
         25   -1    0    0    0    0  0.00000000000E+00  0.00000000000E+00  0.99999998245E-14  0.12500000000E+03  0.12500000000E+03 0.  0.
        -11    1    3    3    0    0 -0.44046058822E+02 -0.30509619362E+02  0.24188247608E+02  0.58787443336E+02  0.51100000000E-03 0.  1.
         23    2    1    0    0    0 -0.21766645293E+02 -0.31182057676E+02  0.85296574462E+01  0.86027411885E+02  0.76693239411E+02 0.  0.
         11    1    3    3    0    0  0.22279413528E+02 -0.67243831376E+00 -0.15658590162E+02  0.27239968550E+02  0.51100000000E-03 0. -1.
         22    1    1    0    0    0  0.21766645293E+02  0.31182057676E+02 -0.85296574462E+01  0.38972588115E+02  0.00000000000E+00 0.  1.
</event>
<event>
 5    1  0.6650580E-004  0.9118800E+02  0.7818608E-02  0.1130116E+00
         25   -1    0    0    0    0  0.00000000000E+00  0.00000000000E+00  0.99999998245E-14  0.12500000000E+03  0.12500000000E+03 0.  0.
        -11    1    3    3    0    0  0.22134312938E+02 -0.29803571795E+02 -0.15914989633E+01  0.37157954332E+02  0.51100000000E-03 0.  1.
         23    2    1    0    0    0  0.21585328826E+02  0.24102196654E+02 -0.86036988723E+01  0.91520664009E+02  0.85177262238E+02 0.  0.
         11    1    3    3    0    0 -0.54898411158E+00  0.53905768449E+02 -0.70121999090E+01  0.54362709677E+02  0.51100000000E-03 0. -1.
         22    1    1    0    0    0 -0.21585328826E+02 -0.24102196654E+02  0.86036988723E+01  0.33479335991E+02  0.00000000000E+00 0. -1.
</event>
<event>
 5    1  0.6650580E-004  0.9118800E+02  0.7818608E-02  0.1130116E+00
         25   -1    0    0    0    0  0.00000000000E+00  0.00000000000E+00  0.99999998245E-14  0.12500000000E+03  0.12500000000E+03 0.  0.
        -11    1    3    3    0    0  0.82783621037E+01 -0.31104364291E+02  0.10758132660E+02  0.33937445038E+02  0.51100000000E-03 0. -1.
         23    2    1    0    0    0 -0.16168920064E+02  0.20511493081E+02 -0.13037055502E+02  0.95808903059E+02  0.91253634255E+02 0.  0.
         11    1    3    3    0    0 -0.24447282168E+02  0.51615857373E+02 -0.23795188162E+02  0.61871458021E+02  0.51100000000E-03 0.  1.
         22    1    1    0    0    0  0.16168920064E+02 -0.20511493081E+02  0.13037055502E+02  0.29191096941E+02  0.00000000000E+00 0.  1.
</event>
<event>
 5    1  0.6650580E-004  0.9118800E+02  0.7818608E-02  0.1130116E+00
         25   -1    0    0    0    0  0.00000000000E+00  0.00000000000E+00  0.99999998245E-14  0.12500000000E+03  0.12500000000E+03 0.  0.
        -11    1    3    3    0    0  0.29642878779E+02  0.27955787679E+02 -0.20490165801E+02  0.45607819744E+02  0.51100000000E-03 0. -1.
         23    2    1    0    0    0  0.87771090967E+01  0.28573776890E+02  0.18508758650E+02  0.89842177021E+02  0.82677350316E+02 0.  0.
         11    1    3    3    0    0 -0.20865769682E+02  0.61798921179E+00  0.38998924451E+02  0.44234357277E+02  0.51100000000E-03 0.  1.
         22    1    1    0    0    0 -0.87771090967E+01 -0.28573776890E+02 -0.18508758650E+02  0.35157822979E+02  0.00000000000E+00 0. -1.
</event>
<event>
 5    1  0.6650580E-004  0.9118800E+02  0.7818608E-02  0.1130116E+00
         25   -1    0    0    0    0  0.00000000000E+00  0.00000000000E+00  0.99999998245E-14  0.12500000000E+03  0.12500000000E+03 0.  0.
        -11    1    3    3    0    0 -0.34895805832E+02 -0.22917273172E+02 -0.27731114359E+02  0.50119191715E+02  0.51100000000E-03 0. -1.
         23    2    1    0    0    0 -0.26941683125E+02  0.26045415918E+01  0.98135713691E+01  0.96208610496E+02  0.91799524095E+02 0.  0.
         11    1    3    3    0    0  0.79541227064E+01  0.25521814764E+02  0.37544685728E+02  0.46089418781E+02  0.51100000000E-03 0.  1.
         22    1    1    0    0    0  0.26941683125E+02 -0.26045415918E+01 -0.98135713691E+01  0.28791389504E+02  0.00000000000E+00 0.  1.
</event>
<event>
 5    1  0.6650580E-004  0.9118800E+02  0.7818608E-02  0.1130116E+00
         25   -1    0    0    0    0  0.00000000000E+00  0.00000000000E+00  0.99999998245E-14  0.12500000000E+03  0.12500000000E+03 0.  0.
        -11    1    3    3    0    0 -0.37810301065E+02  0.10938910301E+02 -0.35939741882E+02  0.53300503487E+02  0.51100000000E-03 0.  1.
         23    2    1    0    0    0  0.37415491370E+00  0.21103787610E+02 -0.20043599489E+02  0.95892342521E+02  0.91367858847E+02 0.  0.
         11    1    3    3    0    0  0.38184455979E+02  0.10164877309E+02  0.15896142393E+02  0.42591839034E+02  0.51100000000E-03 0. -1.
         22    1    1    0    0    0 -0.37415491370E+00 -0.21103787610E+02  0.20043599489E+02  0.29107657479E+02  0.00000000000E+00 0.  1.
</event>
<event>
 5    1  0.6650580E-004  0.9118800E+02  0.7818608E-02  0.1130116E+00
         25   -1    0    0    0    0  0.00000000000E+00  0.00000000000E+00  0.99999998245E-14  0.12500000000E+03  0.12500000000E+03 0.  0.
        -11    1    3    3    0    0  0.23699430571E+02  0.94701567961E+01  0.25162458657E+02  0.35839868932E+02  0.51100000000E-03 0.  1.
         23    2    1    0    0    0 -0.29017431254E+02 -0.72943541194E+01  0.53122467455E+01  0.94611862774E+02  0.89598915693E+02 0.  0.
         11    1    3    3    0    0 -0.52716861825E+02 -0.16764510916E+02 -0.19850211911E+02  0.58771993842E+02  0.51100000000E-03 0. -1.
         22    1    1    0    0    0  0.29017431254E+02  0.72943541194E+01 -0.53122467455E+01  0.30388137226E+02  0.00000000000E+00 0. -1.
</event>
<event>
 5    1  0.6650580E-004  0.9118800E+02  0.7818608E-02  0.1130116E+00
         25   -1    0    0    0    0  0.00000000000E+00  0.00000000000E+00  0.99999998245E-14  0.12500000000E+03  0.12500000000E+03 0.  0.
        -11    1    3    3    0    0 -0.11278519352E+02  0.25231692286E+02  0.33329062626E+02  0.43297456163E+02  0.51100000000E-03 0. -1.
         23    2    1    0    0    0 -0.23937501921E+02 -0.14600887728E+02 -0.32624237101E+00  0.96959023649E+02  0.92815709404E+02 0.  0.
         11    1    3    3    0    0 -0.12658982568E+02 -0.39832580015E+02 -0.33655304997E+02  0.53661567485E+02  0.51100000000E-03 0.  1.
         22    1    1    0    0    0  0.23937501921E+02  0.14600887728E+02  0.32624237101E+00  0.28040976351E+02  0.00000000000E+00 0.  1.
</event>
<event>
 5    1  0.6650580E-004  0.9118800E+02  0.7818608E-02  0.1130116E+00
         25   -1    0    0    0    0  0.00000000000E+00  0.00000000000E+00  0.99999998245E-14  0.12500000000E+03  0.12500000000E+03 0.  0.
        -11    1    3    3    0    0  0.27640407144E+02 -0.30403403509E+02 -0.12337051849E+02  0.42901770367E+02  0.51100000000E-03 0.  1.
         23    2    1    0    0    0 -0.13336211703E+02  0.38409044535E+01 -0.23733963996E+02  0.97506216401E+02  0.93549741316E+02 0.  0.
         11    1    3    3    0    0 -0.40976618847E+02  0.34244307963E+02 -0.11396912147E+02  0.54604446034E+02  0.51100000000E-03 0. -1.
         22    1    1    0    0    0  0.13336211703E+02 -0.38409044535E+01  0.23733963996E+02  0.27493783599E+02  0.00000000000E+00 0. -1.
</event>
<event>
 5    1  0.6650580E-004  0.9118800E+02  0.7818608E-02  0.1130116E+00
         25   -1    0    0    0    0  0.00000000000E+00  0.00000000000E+00  0.99999998245E-14  0.12500000000E+03  0.12500000000E+03 0.  0.
        -11    1    3    3    0    0  0.24241389234E+02  0.55108357838E+01 -0.22454909751E+02  0.33499809481E+02  0.51100000000E-03 0.  1.
         23    2    1    0    0    0 -0.23501870768E+02 -0.95373750747E+01  0.14557710918E+02  0.95755745862E+02  0.91180790003E+02 0.  0.
         11    1    3    3    0    0 -0.47743260002E+02 -0.15048210859E+02  0.37012620669E+02  0.62255936382E+02  0.51100000000E-03 0. -1.
         22    1    1    0    0    0  0.23501870768E+02  0.95373750747E+01 -0.14557710918E+02  0.29244254138E+02  0.00000000000E+00 0. -1.
</event>
<event>
 5    1  0.6650580E-004  0.9118800E+02  0.7818608E-02  0.1130116E+00
         25   -1    0    0    0    0  0.00000000000E+00  0.00000000000E+00  0.99999998245E-14  0.12500000000E+03  0.12500000000E+03 0.  0.
        -11    1    3    3    0    0 -0.36097878949E+02  0.18383708463E+02 -0.31642928969E+02  0.51403234873E+02  0.51100000000E-03 0.  1.
         23    2    1    0    0    0 -0.28157775418E+02  0.18442248720E+01  0.84912135867E+01  0.95532014150E+02  0.90873557967E+02 0.  0.
         11    1    3    3    0    0  0.79401035304E+01 -0.16539483591E+02  0.40134142556E+02  0.44128779277E+02  0.51100000000E-03 0. -1.
         22    1    1    0    0    0  0.28157775418E+02 -0.18442248720E+01 -0.84912135867E+01  0.29467985850E+02  0.00000000000E+00 0.  1.
</event>
<event>
 5    1  0.6650580E-004  0.9118800E+02  0.7818608E-02  0.1130116E+00
         25   -1    0    0    0    0  0.00000000000E+00  0.00000000000E+00  0.99999998245E-14  0.12500000000E+03  0.12500000000E+03 0.  0.
        -11    1    3    3    0    0 -0.19889793352E+02  0.57831352371E+02 -0.22934759829E+00  0.61156535197E+02  0.51100000000E-03 0. -1.
         23    2    1    0    0    0 -0.14292281868E+02  0.23713740792E+02 -0.71226902519E+01  0.96410779308E+02  0.92074398326E+02 0.  0.
         11    1    3    3    0    0  0.55975114847E+01 -0.34117611579E+02 -0.68933426536E+01  0.35254244111E+02  0.51100000000E-03 0.  1.
         22    1    1    0    0    0  0.14292281868E+02 -0.23713740792E+02  0.71226902519E+01  0.28589220692E+02  0.00000000000E+00 0. -1.
</event>
<event>
 5    1  0.6650580E-004  0.9118800E+02  0.7818608E-02  0.1130116E+00
         25   -1    0    0    0    0  0.00000000000E+00  0.00000000000E+00  0.99999998245E-14  0.12500000000E+03  0.12500000000E+03 0.  0.
        -11    1    3    3    0    0  0.48736901916E+02  0.22031827233E+02  0.16826985661E+02  0.56069906958E+02  0.51100000000E-03 0.  1.
         23    2    1    0    0    0  0.21195571824E+02  0.18388259828E+02 -0.10500806938E+02  0.95039237146E+02  0.90193177605E+02 0.  0.
         11    1    3    3    0    0 -0.27541330093E+02 -0.36435674046E+01 -0.27327792599E+02  0.38969330188E+02  0.51100000000E-03 0. -1.
         22    1    1    0    0    0 -0.21195571824E+02 -0.18388259828E+02  0.10500806938E+02  0.29960762854E+02  0.00000000000E+00 0.  1.
</event>
<event>
 5    1  0.6650580E-004  0.9118800E+02  0.7818608E-02  0.1130116E+00
         25   -1    0    0    0    0  0.00000000000E+00  0.00000000000E+00  0.99999998245E-14  0.12500000000E+03  0.12500000000E+03 0.  0.
        -11    1    3    3    0    0  0.42290442425E+02  0.16080854038E+02  0.13380478541E+01  0.45264398365E+02  0.51100000000E-03 0. -1.
         23    2    1    0    0    0  0.16350406465E+02 -0.24682381627E+02  0.87058604620E+01  0.94139867779E+02  0.88937994944E+02 0.  0.
         11    1    3    3    0    0 -0.25940035960E+02 -0.40763235665E+02  0.73678126079E+01  0.48875469413E+02  0.51100000000E-03 0.  1.
         22    1    1    0    0    0 -0.16350406465E+02  0.24682381627E+02 -0.87058604620E+01  0.30860132221E+02  0.00000000000E+00 0. -1.
</event>
<event>
 5    1  0.6650580E-004  0.9118800E+02  0.7818608E-02  0.1130116E+00
         25   -1    0    0    0    0  0.00000000000E+00  0.00000000000E+00  0.99999998245E-14  0.12500000000E+03  0.12500000000E+03 0.  0.
        -11    1    3    3    0    0 -0.45669430219E+02 -0.23472507379E+02 -0.91213564378E+01  0.52152225290E+02  0.51100000000E-03 0. -1.
         23    2    1    0    0    0 -0.11043408048E+02 -0.12036354179E+02  0.20255179417E+02  0.98978797559E+02  0.95497117181E+02 0.  0.
         11    1    3    3    0    0  0.34626022171E+02  0.11436153200E+02  0.29376535855E+02  0.46826572269E+02  0.51100000000E-03 0.  1.
         22    1    1    0    0    0  0.11043408048E+02  0.12036354179E+02 -0.20255179417E+02  0.26021202441E+02  0.00000000000E+00 0.  1.
</event>
<event>
 5    1  0.6650580E-004  0.9118800E+02  0.7818608E-02  0.1130116E+00
         25   -1    0    0    0    0  0.00000000000E+00  0.00000000000E+00  0.99999998245E-14  0.12500000000E+03  0.12500000000E+03 0.  0.
        -11    1    3    3    0    0  0.43595046418E+02  0.30661077143E+02 -0.29332381364E+02  0.60835995270E+02  0.51100000000E-03 0. -1.
         23    2    1    0    0    0  0.27728695198E+02  0.79126789590E+01 -0.10725427997E+02  0.94234340062E+02  0.89070674274E+02 0.  0.
         11    1    3    3    0    0 -0.15866351221E+02 -0.22748398184E+02  0.18606953367E+02  0.33398344792E+02  0.51100000000E-03 0.  1.
         22    1    1    0    0    0 -0.27728695198E+02 -0.79126789590E+01  0.10725427997E+02  0.30765659938E+02  0.00000000000E+00 0. -1.
</event>
<event>
 5    1  0.6650580E-004  0.9118800E+02  0.7818608E-02  0.1130116E+00
         25   -1    0    0    0    0  0.00000000000E+00  0.00000000000E+00  0.99999998245E-14  0.12500000000E+03  0.12500000000E+03 0.  0.
        -11    1    3    3    0    0  0.23944492833E+02  0.11292298392E+02  0.33913280800E+02  0.43022846894E+02  0.51100000000E-03 0.  1.
         23    2    1    0    0    0 -0.16961176797E+02  0.56448016742E+01  0.36458592646E+02  0.84394898325E+02  0.73984623952E+02 0.  0.
         11    1    3    3    0    0 -0.40905669629E+02 -0.56474967183E+01  0.25453118465E+01  0.41372051431E+02  0.51100000000E-03 0. -1.
         22    1    1    0    0    0  0.16961176797E+02 -0.56448016742E+01 -0.36458592646E+02  0.40605101675E+02  0.00000000000E+00 0.  1.
</event>
<event>
 5    1  0.6650580E-004  0.9118800E+02  0.7818608E-02  0.1130116E+00
         25   -1    0    0    0    0  0.00000000000E+00  0.00000000000E+00  0.99999998245E-14  0.12500000000E+03  0.12500000000E+03 0.  0.
        -11    1    3    3    0    0 -0.27236154081E+00 -0.81851275337E+01 -0.38771689641E+02  0.39627192828E+02  0.51100000000E-03 0.  1.
         23    2    1    0    0    0  0.17273901893E+02 -0.19912409595E+02  0.13053127392E+02  0.95584427981E+02  0.90945626586E+02 0.  0.
         11    1    3    3    0    0  0.17546263434E+02 -0.11727282062E+02  0.51824817034E+02  0.55957235152E+02  0.51100000000E-03 0. -1.
         22    1    1    0    0    0 -0.17273901893E+02  0.19912409595E+02 -0.13053127392E+02  0.29415572019E+02  0.00000000000E+00 0. -1.
</event>
<event>
 5    1  0.6650580E-004  0.9118800E+02  0.7818608E-02  0.1130116E+00
         25   -1    0    0    0    0  0.00000000000E+00  0.00000000000E+00  0.99999998245E-14  0.12500000000E+03  0.12500000000E+03 0.  0.
        -11    1    3    3    0    0 -0.12487951798E+02  0.36038862439E+02  0.16676868879E+02  0.41627713148E+02  0.51100000000E-03 0.  1.
         23    2    1    0    0    0 -0.12239080922E+02 -0.55330593653E+01 -0.22528756622E+02  0.98771109008E+02  0.95224877274E+02 0.  0.
         11    1    3    3    0    0  0.24887087580E+00 -0.41571921804E+02 -0.39205625501E+02  0.57143395860E+02  0.51100000000E-03 0. -1.
         22    1    1    0    0    0  0.12239080922E+02  0.55330593653E+01  0.22528756622E+02  0.26228890992E+02  0.00000000000E+00 0. -1.
</event>
<event>
 5    1  0.6650580E-004  0.9118800E+02  0.7818608E-02  0.1130116E+00
         25   -1    0    0    0    0  0.00000000000E+00  0.00000000000E+00  0.99999998245E-14  0.12500000000E+03  0.12500000000E+03 0.  0.
        -11    1    3    3    0    0  0.20396532255E+02  0.98004860546E+01 -0.26935837277E+02  0.35179644470E+02  0.51100000000E-03 0. -1.
         23    2    1    0    0    0 -0.16618808973E+02 -0.23857332036E+02  0.63095019363E+01  0.95248245124E+02  0.90482381052E+02 0.  0.
         11    1    3    3    0    0 -0.37015341228E+02 -0.33657818090E+02  0.33245339214E+02  0.60068600654E+02  0.51100000000E-03 0.  1.
         22    1    1    0    0    0  0.16618808973E+02  0.23857332036E+02 -0.63095019363E+01  0.29751754876E+02  0.00000000000E+00 0.  1.
</event>
<event>
 5    1  0.6650580E-004  0.9118800E+02  0.7818608E-02  0.1130116E+00
         25   -1    0    0    0    0  0.00000000000E+00  0.00000000000E+00  0.99999998245E-14  0.12500000000E+03  0.12500000000E+03 0.  0.
        -11    1    3    3    0    0  0.24281887757E+02  0.19820477896E+02 -0.28512132419E+02  0.42372197399E+02  0.51100000000E-03 0. -1.
         23    2    1    0    0    0 -0.14057059853E+02  0.24169495702E+02  0.84364138679E+01  0.95794888578E+02  0.91234435081E+02 0.  0.
         11    1    3    3    0    0 -0.38338947611E+02  0.43490178063E+01  0.36948546287E+02  0.53422691179E+02  0.51100000000E-03 0.  1.
         22    1    1    0    0    0  0.14057059853E+02 -0.24169495702E+02 -0.84364138679E+01  0.29205111422E+02  0.00000000000E+00 0.  1.
</event>
<event>
 5    1  0.6650580E-004  0.9118800E+02  0.7818608E-02  0.1130116E+00
         25   -1    0    0    0    0  0.00000000000E+00  0.00000000000E+00  0.99999998245E-14  0.12500000000E+03  0.12500000000E+03 0.  0.
        -11    1    3    3    0    0 -0.39069936253E+02  0.35878637557E+02  0.50873400083E+01  0.53288062269E+02  0.51100000000E-03 0.  1.
         23    2    1    0    0    0 -0.20059836687E+02  0.94563686709E+01 -0.20583313960E+02  0.94742888936E+02  0.89781525015E+02 0.  0.
         11    1    3    3    0    0  0.19010099566E+02 -0.26422268886E+02 -0.25670653968E+02  0.41454826667E+02  0.51100000000E-03 0. -1.
         22    1    1    0    0    0  0.20059836687E+02 -0.94563686709E+01  0.20583313960E+02  0.30257111064E+02  0.00000000000E+00 0.  1.
</event>
<event>
 5    1  0.6650580E-004  0.9118800E+02  0.7818608E-02  0.1130116E+00
         25   -1    0    0    0    0  0.00000000000E+00  0.00000000000E+00  0.99999998245E-14  0.12500000000E+03  0.12500000000E+03 0.  0.
        -11    1    3    3    0    0 -0.22382448580E+02 -0.31945541756E+01  0.46832509135E+02  0.52004452626E+02  0.51100000000E-03 0.  1.
         23    2    1    0    0    0 -0.22653027857E+02  0.17233909104E+02  0.87483684764E+01  0.95222470802E+02  0.90446767220E+02 0.  0.
         11    1    3    3    0    0 -0.27057927701E+00  0.20428463280E+02 -0.38084140658E+02  0.43218018176E+02  0.51100000000E-03 0. -1.
         22    1    1    0    0    0  0.22653027857E+02 -0.17233909104E+02 -0.87483684764E+01  0.29777529198E+02  0.00000000000E+00 0.  1.
</event>
<event>
 5    1  0.6650580E-004  0.9118800E+02  0.7818608E-02  0.1130116E+00
         25   -1    0    0    0    0  0.00000000000E+00  0.00000000000E+00  0.99999998245E-14  0.12500000000E+03  0.12500000000E+03 0.  0.
        -11    1    3    3    0    0  0.43067459837E+02 -0.83516337453E+01 -0.28508696784E+02  0.52319228546E+02  0.51100000000E-03 0.  1.
         23    2    1    0    0    0  0.43159379251E+01  0.11395985961E+02 -0.26469573265E+02  0.95860093943E+02  0.91323729039E+02 0.  0.
         11    1    3    3    0    0 -0.38751521912E+02  0.19747619706E+02  0.20391235189E+01  0.43540865397E+02  0.51100000000E-03 0. -1.
         22    1    1    0    0    0 -0.43159379251E+01 -0.11395985961E+02  0.26469573265E+02  0.29139906057E+02  0.00000000000E+00 0.  1.
</event>
<event>
 5    1  0.6650580E-004  0.9118800E+02  0.7818608E-02  0.1130116E+00
         25   -1    0    0    0    0  0.00000000000E+00  0.00000000000E+00  0.99999998245E-14  0.12500000000E+03  0.12500000000E+03 0.  0.
        -11    1    3    3    0    0 -0.33095503517E+02  0.98104814698E+00  0.15949090498E+02  0.36751167280E+02  0.51100000000E-03 0.  1.
         23    2    1    0    0    0  0.61111359371E+01  0.20167512862E+02 -0.21960049895E+02  0.94564521543E+02  0.89532845291E+02 0.  0.
         11    1    3    3    0    0  0.39206639454E+02  0.19186464715E+02 -0.37909140393E+02  0.57813354263E+02  0.51100000000E-03 0. -1.
         22    1    1    0    0    0 -0.61111359371E+01 -0.20167512862E+02  0.21960049895E+02  0.30435478457E+02  0.00000000000E+00 0. -1.
</event>
<event>
 5    1  0.6650580E-004  0.9118800E+02  0.7818608E-02  0.1130116E+00
         25   -1    0    0    0    0  0.00000000000E+00  0.00000000000E+00  0.99999998245E-14  0.12500000000E+03  0.12500000000E+03 0.  0.
        -11    1    3    3    0    0 -0.81299326189E+01 -0.54352731342E+02 -0.25818679205E+02  0.60720008275E+02  0.51100000000E-03 0. -1.
         23    2    1    0    0    0 -0.88589484113E+01 -0.27554046714E+02 -0.30427291736E+01  0.95897342766E+02  0.91374699405E+02 0.  0.
         11    1    3    3    0    0 -0.72901579236E+00  0.26798684628E+02  0.22775950032E+02  0.35177334491E+02  0.51100000000E-03 0.  1.
         22    1    1    0    0    0  0.88589484113E+01  0.27554046714E+02  0.30427291736E+01  0.29102657234E+02  0.00000000000E+00 0. -1.
</event>
<event>
 5    1  0.6650580E-004  0.9118800E+02  0.7818608E-02  0.1130116E+00
         25   -1    0    0    0    0  0.00000000000E+00  0.00000000000E+00  0.99999998245E-14  0.12500000000E+03  0.12500000000E+03 0.  0.
        -11    1    3    3    0    0  0.21741365927E+01  0.37814149923E+02 -0.30406080707E+02  0.48571252285E+02  0.51100000000E-03 0. -1.
         23    2    1    0    0    0 -0.27552420099E+02  0.21648064509E+02 -0.82981149900E+01  0.88991205759E+02  0.81380596211E+02 0.  0.
         11    1    3    3    0    0 -0.29726556692E+02 -0.16166085414E+02  0.22107965717E+02  0.40419953473E+02  0.51100000000E-03 0.  1.
         22    1    1    0    0    0  0.27552420099E+02 -0.21648064509E+02  0.82981149900E+01  0.36008794241E+02  0.00000000000E+00 0. -1.
</event>
<event>
 5    1  0.6650580E-004  0.9118800E+02  0.7818608E-02  0.1130116E+00
         25   -1    0    0    0    0  0.00000000000E+00  0.00000000000E+00  0.99999998245E-14  0.12500000000E+03  0.12500000000E+03 0.  0.
        -11    1    3    3    0    0 -0.25912737701E+02  0.23374689209E+02  0.39932126433E+01  0.35125372856E+02  0.51100000000E-03 0.  1.
         23    2    1    0    0    0  0.28655584108E+02 -0.23445894880E+01  0.65757575219E+01  0.95506268676E+02  0.90838137195E+02 0.  0.
         11    1    3    3    0    0  0.54568321809E+02 -0.25719278697E+02  0.25825448786E+01  0.60380895820E+02  0.51100000000E-03 0. -1.
         22    1    1    0    0    0 -0.28655584108E+02  0.23445894880E+01 -0.65757575219E+01  0.29493731324E+02  0.00000000000E+00 0. -1.
</event>
<event>
 5    1  0.6650580E-004  0.9118800E+02  0.7818608E-02  0.1130116E+00
         25   -1    0    0    0    0  0.00000000000E+00  0.00000000000E+00  0.99999998245E-14  0.12500000000E+03  0.12500000000E+03 0.  0.
        -11    1    3    3    0    0 -0.35126386590E+02  0.73392213291E+01 -0.27522017325E+02  0.45223761924E+02  0.51100000000E-03 0.  1.
         23    2    1    0    0    0 -0.40951656074E+01 -0.27606291999E+02 -0.13371365705E+02  0.94053737543E+02  0.88816858679E+02 0.  0.
         11    1    3    3    0    0  0.31031220983E+02 -0.34945513328E+02  0.14150651620E+02  0.48829975619E+02  0.51100000000E-03 0. -1.
         22    1    1    0    0    0  0.40951656074E+01  0.27606291999E+02  0.13371365705E+02  0.30946262457E+02  0.00000000000E+00 0. -1.
</event>
<event>
 5    1  0.6650580E-004  0.9118800E+02  0.7818608E-02  0.1130116E+00
         25   -1    0    0    0    0  0.00000000000E+00  0.00000000000E+00  0.99999998245E-14  0.12500000000E+03  0.12500000000E+03 0.  0.
        -11    1    3    3    0    0 -0.55200387412E+01  0.49395313412E+02  0.22541529089E+02  0.54575528844E+02  0.51100000000E-03 0.  1.
         23    2    1    0    0    0 -0.82939881214E+01  0.11857674401E+02  0.28834743046E+02  0.92737993123E+02  0.86945375270E+02 0.  0.
         11    1    3    3    0    0 -0.27739493801E+01 -0.37537639011E+02  0.62932139578E+01  0.38162464279E+02  0.51100000000E-03 0. -1.
         22    1    1    0    0    0  0.82939881214E+01 -0.11857674401E+02 -0.28834743046E+02  0.32262006877E+02  0.00000000000E+00 0.  1.
</event>
<event>
 5    1  0.6650580E-004  0.9118800E+02  0.7818608E-02  0.1130116E+00
         25   -1    0    0    0    0  0.00000000000E+00  0.00000000000E+00  0.99999998245E-14  0.12500000000E+03  0.12500000000E+03 0.  0.
        -11    1    3    3    0    0  0.27835115805E+02 -0.12896879933E+02 -0.10746170031E+02  0.32505435768E+02  0.51100000000E-03 0.  1.
         23    2    1    0    0    0 -0.85346729866E+01  0.32542940475E+02 -0.49154607392E+01  0.90999332771E+02  0.84408726994E+02 0.  0.
         11    1    3    3    0    0 -0.36369788792E+02  0.45439820408E+02  0.58307092914E+01  0.58493897003E+02  0.51100000000E-03 0. -1.
         22    1    1    0    0    0  0.85346729866E+01 -0.32542940475E+02  0.49154607392E+01  0.34000667229E+02  0.00000000000E+00 0. -1.
</event>
<event>
 5    1  0.6650580E-004  0.9118800E+02  0.7818608E-02  0.1130116E+00
         25   -1    0    0    0    0  0.00000000000E+00  0.00000000000E+00  0.99999998245E-14  0.12500000000E+03  0.12500000000E+03 0.  0.
        -11    1    3    3    0    0  0.25809705540E+02  0.20891873571E+02  0.46524484385E+02  0.57158891949E+02  0.51100000000E-03 0.  1.
         23    2    1    0    0    0 -0.54131997648E+01  0.15643475921E+02  0.23272197243E+02  0.96441004306E+02  0.92115422576E+02 0.  0.
         11    1    3    3    0    0 -0.31222905304E+02 -0.52483976500E+01 -0.23252287142E+02  0.39282112356E+02  0.51100000000E-03 0. -1.
         22    1    1    0    0    0  0.54131997648E+01 -0.15643475921E+02 -0.23272197243E+02  0.28558995694E+02  0.00000000000E+00 0.  1.
</event>
<event>
 5    1  0.6650580E-004  0.9118800E+02  0.7818608E-02  0.1130116E+00
         25   -1    0    0    0    0  0.00000000000E+00  0.00000000000E+00  0.99999998245E-14  0.12500000000E+03  0.12500000000E+03 0.  0.
        -11    1    3    3    0    0  0.49419820185E+02  0.66068870721E+01  0.68669603842E+01  0.50330157253E+02  0.51100000000E-03 0. -1.
         23    2    1    0    0    0  0.19114605734E+02 -0.22684388750E+02 -0.66652508429E+01  0.94596460500E+02  0.89577425309E+02 0.  0.
         11    1    3    3    0    0 -0.30305214451E+02 -0.29291275822E+02 -0.13532211227E+02  0.44266303247E+02  0.51100000000E-03 0.  1.
         22    1    1    0    0    0 -0.19114605734E+02  0.22684388750E+02  0.66652508429E+01  0.30403539500E+02  0.00000000000E+00 0.  1.
</event>
<event>
 5    1  0.6650580E-004  0.9118800E+02  0.7818608E-02  0.1130116E+00
         25   -1    0    0    0    0  0.00000000000E+00  0.00000000000E+00  0.99999998245E-14  0.12500000000E+03  0.12500000000E+03 0.  0.
        -11    1    3    3    0    0 -0.76130276565E+01  0.30337890593E+02  0.12705913555E+02  0.33760717339E+02  0.51100000000E-03 0.  1.
         23    2    1    0    0    0 -0.17273171505E+01 -0.23859112494E+02 -0.16818483388E+02  0.95757868459E+02  0.91183699831E+02 0.  0.
         11    1    3    3    0    0  0.58857105059E+01 -0.54197003088E+02 -0.29524396943E+02  0.61997151120E+02  0.51100000000E-03 0. -1.
         22    1    1    0    0    0  0.17273171505E+01  0.23859112494E+02  0.16818483388E+02  0.29242131541E+02  0.00000000000E+00 0. -1.
</event>
<event>
 5    1  0.6650580E-004  0.9118800E+02  0.7818608E-02  0.1130116E+00
         25   -1    0    0    0    0  0.00000000000E+00  0.00000000000E+00  0.99999998245E-14  0.12500000000E+03  0.12500000000E+03 0.  0.
        -11    1    3    3    0    0  0.31090053681E+02  0.50669250215E+02 -0.11487068825E+02  0.60546817470E+02  0.51100000000E-03 0.  1.
         23    2    1    0    0    0  0.21350855881E+02  0.17406096578E+02  0.11259297323E+01  0.97430107677E+02  0.93447990451E+02 0.  0.
         11    1    3    3    0    0 -0.97391978005E+01 -0.33263153637E+02  0.12612998557E+02  0.36883290208E+02  0.51100000000E-03 0. -1.
         22    1    1    0    0    0 -0.21350855881E+02 -0.17406096578E+02 -0.11259297323E+01  0.27569892323E+02  0.00000000000E+00 0.  1.
</event>
<event>
 5    1  0.6650580E-004  0.9118800E+02  0.7818608E-02  0.1130116E+00
         25   -1    0    0    0    0  0.00000000000E+00  0.00000000000E+00  0.99999998245E-14  0.12500000000E+03  0.12500000000E+03 0.  0.
        -11    1    3    3    0    0  0.16638499700E+02 -0.35588346459E+02  0.98732328873E+01  0.40507416652E+02  0.51100000000E-03 0.  1.
         23    2    1    0    0    0 -0.22009834947E+02 -0.10213599925E+01  0.22112743407E+02  0.93783827402E+02  0.88436173880E+02 0.  0.
         11    1    3    3    0    0 -0.38648334648E+02  0.34566986466E+02  0.12239510520E+02  0.53276410750E+02  0.51100000000E-03 0. -1.
         22    1    1    0    0    0  0.22009834947E+02  0.10213599925E+01 -0.22112743407E+02  0.31216172598E+02  0.00000000000E+00 0. -1.
</event>
<event>
 5    1  0.6650580E-004  0.9118800E+02  0.7818608E-02  0.1130116E+00
         25   -1    0    0    0    0  0.00000000000E+00  0.00000000000E+00  0.99999998245E-14  0.12500000000E+03  0.12500000000E+03 0.  0.
        -11    1    3    3    0    0 -0.10965444181E+02 -0.38467921706E+02  0.12203236116E+02  0.41820341204E+02  0.51100000000E-03 0. -1.
         23    2    1    0    0    0 -0.34723789264E+02 -0.42273414441E+00 -0.51095800361E+01  0.89899742834E+02  0.82764338386E+02 0.  0.
         11    1    3    3    0    0 -0.23758345082E+02  0.38045187562E+02 -0.17312816152E+02  0.48079401629E+02  0.51100000000E-03 0.  1.
         22    1    1    0    0    0  0.34723789264E+02  0.42273414441E+00  0.51095800361E+01  0.35100257166E+02  0.00000000000E+00 0.  1.
</event>
<event>
 5    1  0.6650580E-004  0.9118800E+02  0.7818608E-02  0.1130116E+00
         25   -1    0    0    0    0  0.00000000000E+00  0.00000000000E+00  0.99999998245E-14  0.12500000000E+03  0.12500000000E+03 0.  0.
        -11    1    3    3    0    0  0.25600437305E+02  0.16927412215E+02  0.92253921468E+01  0.32047270321E+02  0.51100000000E-03 0.  1.
         23    2    1    0    0    0 -0.24177000961E+02 -0.10309885463E+02 -0.16092356977E+02  0.94181416860E+02  0.88996371920E+02 0.  0.
         11    1    3    3    0    0 -0.49777438266E+02 -0.27237297678E+02 -0.25317749124E+02  0.62134146538E+02  0.51100000000E-03 0. -1.
         22    1    1    0    0    0  0.24177000961E+02  0.10309885463E+02  0.16092356977E+02  0.30818583140E+02  0.00000000000E+00 0. -1.
</event>
<event>
 5    1  0.6650580E-004  0.9118800E+02  0.7818608E-02  0.1130116E+00
         25   -1    0    0    0    0  0.00000000000E+00  0.00000000000E+00  0.99999998245E-14  0.12500000000E+03  0.12500000000E+03 0.  0.
        -11    1    3    3    0    0  0.39714543299E+02 -0.38377803856E+02  0.18090105378E+02  0.58114995407E+02  0.51100000000E-03 0. -1.
         23    2    1    0    0    0  0.15507777209E+02 -0.25553967916E+02 -0.59039605798E+01  0.94531111264E+02  0.89486187851E+02 0.  0.
         11    1    3    3    0    0 -0.24206766089E+02  0.12823835940E+02 -0.23994065958E+02  0.36416115858E+02  0.51100000000E-03 0.  1.
         22    1    1    0    0    0 -0.15507777209E+02  0.25553967916E+02  0.59039605798E+01  0.30468888736E+02  0.00000000000E+00 0. -1.
</event>
<event>
 5    1  0.6650580E-004  0.9118800E+02  0.7818608E-02  0.1130116E+00
         25   -1    0    0    0    0  0.00000000000E+00  0.00000000000E+00  0.99999998245E-14  0.12500000000E+03  0.12500000000E+03 0.  0.
        -11    1    3    3    0    0 -0.15221590114E+02 -0.23632058312E+02 -0.37298154247E+02  0.46704638915E+02  0.51100000000E-03 0. -1.
         23    2    1    0    0    0 -0.28782746847E+02 -0.33931598574E+01  0.50700875876E+01  0.95577800252E+02  0.90936516664E+02 0.  0.
         11    1    3    3    0    0 -0.13561156733E+02  0.20238898454E+02  0.42368241835E+02  0.48873161337E+02  0.51100000000E-03 0.  1.
         22    1    1    0    0    0  0.28782746847E+02  0.33931598574E+01 -0.50700875876E+01  0.29422199748E+02  0.00000000000E+00 0. -1.
</event>
<event>
 5    1  0.6650580E-004  0.9118800E+02  0.7818608E-02  0.1130116E+00
         25   -1    0    0    0    0  0.00000000000E+00  0.00000000000E+00  0.99999998245E-14  0.12500000000E+03  0.12500000000E+03 0.  0.
        -11    1    3    3    0    0  0.25490317603E+02 -0.39209669852E+02  0.22949410559E+01  0.46823298219E+02  0.51100000000E-03 0.  1.
         23    2    1    0    0    0  0.16244090970E+02  0.72133375788E+00 -0.24357170347E+02  0.95714123522E+02  0.91123711955E+02 0.  0.
         11    1    3    3    0    0 -0.92462266338E+01  0.39931003610E+02 -0.26652111402E+02  0.48890825302E+02  0.51100000000E-03 0. -1.
         22    1    1    0    0    0 -0.16244090970E+02 -0.72133375788E+00  0.24357170347E+02  0.29285876478E+02  0.00000000000E+00 0. -1.
</event>
<event>
 5    1  0.6650580E-004  0.9118800E+02  0.7818608E-02  0.1130116E+00
         25   -1    0    0    0    0  0.00000000000E+00  0.00000000000E+00  0.99999998245E-14  0.12500000000E+03  0.12500000000E+03 0.  0.
        -11    1    3    3    0    0 -0.48860409717E+02  0.33712254418E+02 -0.87702560350E+01  0.60006442378E+02  0.51100000000E-03 0.  1.
         23    2    1    0    0    0 -0.14668531096E+02  0.21326408230E+02 -0.11909088183E+02  0.96507757655E+02  0.92205961920E+02 0.  0.
         11    1    3    3    0    0  0.34191878621E+02 -0.12385846188E+02 -0.31388321485E+01  0.36501315277E+02  0.51100000000E-03 0. -1.
         22    1    1    0    0    0  0.14668531096E+02 -0.21326408230E+02  0.11909088183E+02  0.28492242345E+02  0.00000000000E+00 0.  1.
</event>
<event>
 5    1  0.6650580E-004  0.9118800E+02  0.7818608E-02  0.1130116E+00
         25   -1    0    0    0    0  0.00000000000E+00  0.00000000000E+00  0.99999998245E-14  0.12500000000E+03  0.12500000000E+03 0.  0.
        -11    1    3    3    0    0 -0.23942348936E+02 -0.32085388640E+02 -0.95702228894E+01  0.41161844021E+02  0.51100000000E-03 0.  1.
         23    2    1    0    0    0  0.57954823279E+00 -0.16817231436E+01  0.28935015897E+02  0.96010360233E+02  0.91529175994E+02 0.  0.
         11    1    3    3    0    0  0.24521897169E+02  0.30403665497E+02  0.38505238786E+02  0.54848516212E+02  0.51100000000E-03 0. -1.
         22    1    1    0    0    0 -0.57954823279E+00  0.16817231436E+01 -0.28935015897E+02  0.28989639767E+02  0.00000000000E+00 0. -1.
</event>
<event>
 5    1  0.6650580E-004  0.9118800E+02  0.7818608E-02  0.1130116E+00
         25   -1    0    0    0    0  0.00000000000E+00  0.00000000000E+00  0.99999998245E-14  0.12500000000E+03  0.12500000000E+03 0.  0.
        -11    1    3    3    0    0  0.13372767690E+02 -0.13428760490E+02 -0.54721439347E+02  0.57910262031E+02  0.51100000000E-03 0. -1.
         23    2    1    0    0    0  0.20067637686E+02 -0.13655111077E+02 -0.19217534604E+02  0.94040578541E+02  0.88798336895E+02 0.  0.
         11    1    3    3    0    0  0.66948699956E+01 -0.22635058692E+00  0.35503904743E+02  0.36130316510E+02  0.51100000000E-03 0.  1.
         22    1    1    0    0    0 -0.20067637686E+02  0.13655111077E+02  0.19217534604E+02  0.30959421459E+02  0.00000000000E+00 0. -1.
</event>
<event>
 5    1  0.6650580E-004  0.9118800E+02  0.7818608E-02  0.1130116E+00
         25   -1    0    0    0    0  0.00000000000E+00  0.00000000000E+00  0.99999998245E-14  0.12500000000E+03  0.12500000000E+03 0.  0.
        -11    1    3    3    0    0 -0.44133764315E+02  0.43115229433E+02  0.49426018762E+01  0.61896215355E+02  0.51100000000E-03 0.  1.
         23    2    1    0    0    0 -0.21693490707E+02  0.19842267119E+02 -0.37201252533E+01  0.95366194383E+02  0.90645179660E+02 0.  0.
         11    1    3    3    0    0  0.22440273609E+02 -0.23272962314E+02 -0.86627271295E+01  0.33469979027E+02  0.51100000000E-03 0. -1.
         22    1    1    0    0    0  0.21693490707E+02 -0.19842267119E+02  0.37201252533E+01  0.29633805617E+02  0.00000000000E+00 0.  1.
</event>
<event>
 5    1  0.6650580E-004  0.9118800E+02  0.7818608E-02  0.1130116E+00
         25   -1    0    0    0    0  0.00000000000E+00  0.00000000000E+00  0.99999998245E-14  0.12500000000E+03  0.12500000000E+03 0.  0.
        -11    1    3    3    0    0  0.17953754356E+02 -0.24587255863E+02  0.53716747707E+02  0.61744306870E+02  0.51100000000E-03 0.  1.
         23    2    1    0    0    0  0.26156464685E+01 -0.15167644020E+02  0.23904905426E+02  0.96568617076E+02  0.92288429767E+02 0.  0.
         11    1    3    3    0    0 -0.15338107887E+02  0.94196118424E+01 -0.29811842281E+02  0.34824310206E+02  0.51100000000E-03 0. -1.
         22    1    1    0    0    0 -0.26156464685E+01  0.15167644020E+02 -0.23904905426E+02  0.28431382924E+02  0.00000000000E+00 0.  1.
</event>
<event>
 5    1  0.6650580E-004  0.9118800E+02  0.7818608E-02  0.1130116E+00
         25   -1    0    0    0    0  0.00000000000E+00  0.00000000000E+00  0.99999998245E-14  0.12500000000E+03  0.12500000000E+03 0.  0.
        -11    1    3    3    0    0  0.22666323787E+02 -0.35939038141E+01  0.34770104204E+02  0.41660995250E+02  0.51100000000E-03 0. -1.
         23    2    1    0    0    0  0.18273597710E+02 -0.10422488218E+02 -0.19368273453E+02  0.96404849179E+02  0.92066347243E+02 0.  0.
         11    1    3    3    0    0 -0.43927260768E+01 -0.68285844044E+01 -0.54138377657E+02  0.54743853929E+02  0.51100000000E-03 0.  1.
         22    1    1    0    0    0 -0.18273597710E+02  0.10422488218E+02  0.19368273453E+02  0.28595150821E+02  0.00000000000E+00 0.  1.
</event>
<event>
 5    1  0.6650580E-004  0.9118800E+02  0.7818608E-02  0.1130116E+00
         25   -1    0    0    0    0  0.00000000000E+00  0.00000000000E+00  0.99999998245E-14  0.12500000000E+03  0.12500000000E+03 0.  0.
        -11    1    3    3    0    0 -0.46900444209E+01 -0.56485090242E+02 -0.11590995104E+02  0.57852511648E+02  0.51100000000E-03 0.  1.
         23    2    1    0    0    0  0.13444088274E+02 -0.14220600942E+02  0.56419178630E+00  0.10542227508E+03  0.10358845867E+03 0.  0.
         11    1    3    3    0    0  0.18134132695E+02  0.42264489300E+02  0.12155186890E+02  0.47569763432E+02  0.51100000000E-03 0. -1.
         22    1    1    0    0    0 -0.13444088274E+02  0.14220600942E+02 -0.56419178630E+00  0.19577724920E+02  0.00000000000E+00 0.  1.
</event>
<event>
 5    1  0.6650580E-004  0.9118800E+02  0.7818608E-02  0.1130116E+00
         25   -1    0    0    0    0  0.00000000000E+00  0.00000000000E+00  0.99999998245E-14  0.12500000000E+03  0.12500000000E+03 0.  0.
        -11    1    3    3    0    0  0.23084344522E+02 -0.35619515664E+02 -0.16589687816E+02  0.45572520232E+02  0.51100000000E-03 0.  1.
         23    2    1    0    0    0 -0.98024977320E+01 -0.26817057132E+02  0.15632809657E+02  0.92448068371E+02  0.86527551061E+02 0.  0.
         11    1    3    3    0    0 -0.32886842254E+02  0.88024585322E+01  0.32222497474E+02  0.46875548139E+02  0.51100000000E-03 0. -1.
         22    1    1    0    0    0  0.98024977320E+01  0.26817057132E+02 -0.15632809657E+02  0.32551931629E+02  0.00000000000E+00 0.  1.
</event>
<event>
 5    1  0.6650580E-004  0.9118800E+02  0.7818608E-02  0.1130116E+00
         25   -1    0    0    0    0  0.00000000000E+00  0.00000000000E+00  0.99999998245E-14  0.12500000000E+03  0.12500000000E+03 0.  0.
        -11    1    3    3    0    0 -0.21889631502E+02 -0.54056806127E+02  0.20567692999E+02  0.61841121040E+02  0.51100000000E-03 0.  1.
         23    2    1    0    0    0 -0.89434728097E+01 -0.37358320640E+02  0.10952644337E+02  0.85055159971E+02  0.75091877009E+02 0.  0.
         11    1    3    3    0    0  0.12946158693E+02  0.16698485487E+02 -0.96150486626E+01  0.23214038931E+02  0.51100000000E-03 0. -1.
         22    1    1    0    0    0  0.89434728097E+01  0.37358320640E+02 -0.10952644337E+02  0.39944840029E+02  0.00000000000E+00 0.  1.
</event>
<event>
 5    1  0.6650580E-004  0.9118800E+02  0.7818608E-02  0.1130116E+00
         25   -1    0    0    0    0  0.00000000000E+00  0.00000000000E+00  0.99999998245E-14  0.12500000000E+03  0.12500000000E+03 0.  0.
        -11    1    3    3    0    0 -0.19068518723E+02 -0.14766626736E+02 -0.53225878765E+01  0.24698008289E+02  0.51100000000E-03 0.  1.
         23    2    1    0    0    0  0.39083744922E+02  0.24512041238E+01  0.20133614094E+01  0.85787742440E+02  0.76301609486E+02 0.  0.
         11    1    3    3    0    0  0.58152263645E+02  0.17217830860E+02  0.73359492859E+01  0.61089734152E+02  0.51100000000E-03 0. -1.
         22    1    1    0    0    0 -0.39083744922E+02 -0.24512041238E+01 -0.20133614094E+01  0.39212257560E+02  0.00000000000E+00 0. -1.
</event>
<event>
 5    1  0.6650580E-004  0.9118800E+02  0.7818608E-02  0.1130116E+00
         25   -1    0    0    0    0  0.00000000000E+00  0.00000000000E+00  0.99999998245E-14  0.12500000000E+03  0.12500000000E+03 0.  0.
        -11    1    3    3    0    0  0.49727982032E+02 -0.17100359827E+02 -0.15378499061E+01  0.52608549550E+02  0.51100000000E-03 0. -1.
         23    2    1    0    0    0  0.23072139751E+02  0.16540920471E+02 -0.66762590341E+01  0.95836699134E+02  0.91291701613E+02 0.  0.
         11    1    3    3    0    0 -0.26655842281E+02  0.33641280298E+02 -0.51384091280E+01  0.43228149584E+02  0.51100000000E-03 0.  1.
         22    1    1    0    0    0 -0.23072139751E+02 -0.16540920471E+02  0.66762590341E+01  0.29163300866E+02  0.00000000000E+00 0. -1.
</event>
<event>
 5    1  0.6650580E-004  0.9118800E+02  0.7818608E-02  0.1130116E+00
         25   -1    0    0    0    0  0.00000000000E+00  0.00000000000E+00  0.99999998245E-14  0.12500000000E+03  0.12500000000E+03 0.  0.
        -11    1    3    3    0    0  0.17512935279E+02 -0.24646360586E+02  0.23503759124E+02  0.38295857289E+02  0.51100000000E-03 0.  1.
         23    2    1    0    0    0 -0.99389319146E+01 -0.80843849692E+01 -0.25272489877E+02  0.96665597015E+02  0.92419690833E+02 0.  0.
         11    1    3    3    0    0 -0.27451867194E+02  0.16561975617E+02 -0.48776249001E+02  0.58369739726E+02  0.51100000000E-03 0. -1.
         22    1    1    0    0    0  0.99389319146E+01  0.80843849692E+01  0.25272489877E+02  0.28334402985E+02  0.00000000000E+00 0. -1.
</event>
<event>
 5    1  0.6650580E-004  0.9118800E+02  0.7818608E-02  0.1130116E+00
         25   -1    0    0    0    0  0.00000000000E+00  0.00000000000E+00  0.99999998245E-14  0.12500000000E+03  0.12500000000E+03 0.  0.
        -11    1    3    3    0    0  0.24803485042E+02 -0.95856718058E+01  0.23485316612E+02  0.35477571377E+02  0.51100000000E-03 0.  1.
         23    2    1    0    0    0  0.22683139606E+01  0.74812245426E+01 -0.28931345190E+02  0.95031071033E+02  0.90181859364E+02 0.  0.
         11    1    3    3    0    0 -0.22535171081E+02  0.17066896348E+02 -0.52416661802E+02  0.59553499657E+02  0.51100000000E-03 0. -1.
         22    1    1    0    0    0 -0.22683139606E+01 -0.74812245426E+01  0.28931345190E+02  0.29968928967E+02  0.00000000000E+00 0. -1.
</event>
<event>
 5    1  0.6650580E-004  0.9118800E+02  0.7818608E-02  0.1130116E+00
         25   -1    0    0    0    0  0.00000000000E+00  0.00000000000E+00  0.99999998245E-14  0.12500000000E+03  0.12500000000E+03 0.  0.
        -11    1    3    3    0    0  0.46125724109E+01  0.13389572380E+02 -0.38567907065E+02  0.41085763087E+02  0.51100000000E-03 0. -1.
         23    2    1    0    0    0 -0.19994687772E+02 -0.19045282811E+02  0.31680924957E+00  0.97384592986E+02  0.93387088222E+02 0.  0.
         11    1    3    3    0    0 -0.24607260182E+02 -0.32434855191E+02  0.38884716315E+02  0.56298829900E+02  0.51100000000E-03 0.  1.
         22    1    1    0    0    0  0.19994687772E+02  0.19045282811E+02 -0.31680924957E+00  0.27615407014E+02  0.00000000000E+00 0.  1.
</event>
<event>
 5    1  0.6650580E-004  0.9118800E+02  0.7818608E-02  0.1130116E+00
         25   -1    0    0    0    0  0.00000000000E+00  0.00000000000E+00  0.99999998245E-14  0.12500000000E+03  0.12500000000E+03 0.  0.
        -11    1    3    3    0    0  0.38882135674E+02 -0.28405261084E+02  0.30353575991E+02  0.56921163968E+02  0.51100000000E-03 0. -1.
         23    2    1    0    0    0  0.11093550272E+02  0.18310361667E+01  0.24027578830E+02  0.98471824497E+02  0.94831198054E+02 0.  0.
         11    1    3    3    0    0 -0.27788585402E+02  0.30236297251E+02 -0.63259971609E+01  0.41550660529E+02  0.51100000000E-03 0.  1.
         22    1    1    0    0    0 -0.11093550272E+02 -0.18310361667E+01 -0.24027578830E+02  0.26528175503E+02  0.00000000000E+00 0. -1.
</event>
<event>
 5    1  0.6650580E-004  0.9118800E+02  0.7818608E-02  0.1130116E+00
         25   -1    0    0    0    0  0.00000000000E+00  0.00000000000E+00  0.99999998245E-14  0.12500000000E+03  0.12500000000E+03 0.  0.
        -11    1    3    3    0    0 -0.36118475504E+02  0.15361102915E+02 -0.45654955636E+02  0.60206999011E+02  0.51100000000E-03 0.  1.
         23    2    1    0    0    0 -0.11387259970E+02  0.17761376300E+02 -0.22132499859E+02  0.94422496379E+02  0.89334338832E+02 0.  0.
         11    1    3    3    0    0  0.24731215533E+02  0.24002733852E+01  0.23522455777E+02  0.34215497368E+02  0.51100000000E-03 0. -1.
         22    1    1    0    0    0  0.11387259970E+02 -0.17761376300E+02  0.22132499859E+02  0.30577503621E+02  0.00000000000E+00 0.  1.
</event>
<event>
 5    1  0.6650580E-004  0.9118800E+02  0.7818608E-02  0.1130116E+00
         25   -1    0    0    0    0  0.00000000000E+00  0.00000000000E+00  0.99999998245E-14  0.12500000000E+03  0.12500000000E+03 0.  0.
        -11    1    3    3    0    0  0.27579449111E+02  0.39029974548E+02  0.24849515305E+02  0.53865233107E+02  0.51100000000E-03 0.  1.
         23    2    1    0    0    0  0.78971017794E+01  0.25904845164E+02 -0.10123264871E+02  0.96087965981E+02  0.91635099690E+02 0.  0.
         11    1    3    3    0    0 -0.19682347331E+02 -0.13125129384E+02 -0.34972780176E+02  0.42222732874E+02  0.51100000000E-03 0. -1.
         22    1    1    0    0    0 -0.78971017794E+01 -0.25904845164E+02  0.10123264871E+02  0.28912034019E+02  0.00000000000E+00 0. -1.
</event>
<event>
 5    1  0.6650580E-004  0.9118800E+02  0.7818608E-02  0.1130116E+00
         25   -1    0    0    0    0  0.00000000000E+00  0.00000000000E+00  0.99999998245E-14  0.12500000000E+03  0.12500000000E+03 0.  0.
        -11    1    3    3    0    0  0.19775500182E+02 -0.28715627372E+02  0.18771748374E+01  0.34916778896E+02  0.51100000000E-03 0.  1.
         23    2    1    0    0    0 -0.85891937319E+01  0.20494693420E+02 -0.19330954899E+02  0.95546773952E+02  0.90893858362E+02 0.  0.
         11    1    3    3    0    0 -0.28364693914E+02  0.49210320792E+02 -0.21208129736E+02  0.60629995056E+02  0.51100000000E-03 0. -1.
         22    1    1    0    0    0  0.85891937319E+01 -0.20494693420E+02  0.19330954899E+02  0.29453226048E+02  0.00000000000E+00 0. -1.
</event>
<event>
 5    1  0.6650580E-004  0.9118800E+02  0.7818608E-02  0.1130116E+00
         25   -1    0    0    0    0  0.00000000000E+00  0.00000000000E+00  0.99999998245E-14  0.12500000000E+03  0.12500000000E+03 0.  0.
        -11    1    3    3    0    0 -0.18033656813E+02 -0.19428361695E+02  0.47549558060E+02  0.54439273399E+02  0.51100000000E-03 0. -1.
         23    2    1    0    0    0  0.89366586613E+01  0.50328945828E+01  0.26701795050E+02  0.96396158390E+02  0.92054546860E+02 0.  0.
         11    1    3    3    0    0  0.26970315474E+02  0.24461256277E+02 -0.20847763010E+02  0.41956884992E+02  0.51100000000E-03 0.  1.
         22    1    1    0    0    0 -0.89366586613E+01 -0.50328945828E+01 -0.26701795050E+02  0.28603841610E+02  0.00000000000E+00 0. -1.
</event>
<event>
 5    1  0.6650580E-004  0.9118800E+02  0.7818608E-02  0.1130116E+00
         25   -1    0    0    0    0  0.00000000000E+00  0.00000000000E+00  0.99999998245E-14  0.12500000000E+03  0.12500000000E+03 0.  0.
        -11    1    3    3    0    0 -0.53549698724E+02 -0.10598974223E+01  0.10161168566E+02  0.54515529557E+02  0.51100000000E-03 0.  1.
         23    2    1    0    0    0 -0.23641110920E+02  0.12841429511E+02 -0.13298291908E+02  0.94989185198E+02  0.90123783207E+02 0.  0.
         11    1    3    3    0    0  0.29908587805E+02  0.13901326933E+02 -0.23459460474E+02  0.40473655641E+02  0.51100000000E-03 0. -1.
         22    1    1    0    0    0  0.23641110920E+02 -0.12841429511E+02  0.13298291908E+02  0.30010814802E+02  0.00000000000E+00 0. -1.
</event>
<event>
 5    1  0.6650580E-004  0.9118800E+02  0.7818608E-02  0.1130116E+00
         25   -1    0    0    0    0  0.00000000000E+00  0.00000000000E+00  0.99999998245E-14  0.12500000000E+03  0.12500000000E+03 0.  0.
        -11    1    3    3    0    0  0.20860981934E+02 -0.41664348653E+02  0.10898066760E+01  0.46607791138E+02  0.51100000000E-03 0.  1.
         23    2    1    0    0    0  0.26726034231E+02  0.22254829616E+01 -0.15653270777E+02  0.93947486959E+02  0.88667196526E+02 0.  0.
         11    1    3    3    0    0  0.58650522972E+01  0.43889831614E+02 -0.16743077453E+02  0.47339695821E+02  0.51100000000E-03 0. -1.
         22    1    1    0    0    0 -0.26726034231E+02 -0.22254829616E+01  0.15653270777E+02  0.31052513041E+02  0.00000000000E+00 0.  1.
</event>
<event>
 5    1  0.6650580E-004  0.9118800E+02  0.7818608E-02  0.1130116E+00
         25   -1    0    0    0    0  0.00000000000E+00  0.00000000000E+00  0.99999998245E-14  0.12500000000E+03  0.12500000000E+03 0.  0.
        -11    1    3    3    0    0 -0.35476796003E+02  0.46558180209E+02  0.10062003565E+02  0.59392854074E+02  0.51100000000E-03 0. -1.
         23    2    1    0    0    0 -0.48328335880E+01  0.28766698757E+02  0.72754276052E+01  0.94936549022E+02  0.90050748223E+02 0.  0.
         11    1    3    3    0    0  0.30643962415E+02 -0.17791481452E+02 -0.27865759598E+01  0.35543694949E+02  0.51100000000E-03 0.  1.
         22    1    1    0    0    0  0.48328335880E+01 -0.28766698757E+02 -0.72754276052E+01  0.30063450978E+02  0.00000000000E+00 0. -1.
</event>
<event>
 5    1  0.6650580E-004  0.9118800E+02  0.7818608E-02  0.1130116E+00
         25   -1    0    0    0    0  0.00000000000E+00  0.00000000000E+00  0.99999998245E-14  0.12500000000E+03  0.12500000000E+03 0.  0.
        -11    1    3    3    0    0  0.23852101252E+02  0.18511161120E+02 -0.48859266072E+02  0.57435300134E+02  0.51100000000E-03 0. -1.
         23    2    1    0    0    0  0.20884378760E+02  0.19435413200E+02 -0.12625220203E+02  0.93802424010E+02  0.88462455327E+02 0.  0.
         11    1    3    3    0    0 -0.29677224916E+01  0.92425207977E+00  0.36234045869E+02  0.36367123876E+02  0.51100000000E-03 0.  1.
         22    1    1    0    0    0 -0.20884378760E+02 -0.19435413200E+02  0.12625220203E+02  0.31197575990E+02  0.00000000000E+00 0. -1.
</event>
<event>
 5    1  0.6650580E-004  0.9118800E+02  0.7818608E-02  0.1130116E+00
         25   -1    0    0    0    0  0.00000000000E+00  0.00000000000E+00  0.99999998245E-14  0.12500000000E+03  0.12500000000E+03 0.  0.
        -11    1    3    3    0    0  0.22166498770E+02  0.54003078663E+02 -0.32272256312E+00  0.58376282195E+02  0.51100000000E-03 0. -1.
         23    2    1    0    0    0  0.22851039990E+02  0.18188532738E+02  0.70657617858E+01  0.94951410326E+02  0.90071374928E+02 0.  0.
         11    1    3    3    0    0  0.68454122011E+00 -0.35814545925E+02  0.73884843490E+01  0.36575128130E+02  0.51100000000E-03 0.  1.
         22    1    1    0    0    0 -0.22851039990E+02 -0.18188532738E+02 -0.70657617858E+01  0.30048589674E+02  0.00000000000E+00 0. -1.
</event>
<event>
 5    1  0.6650580E-004  0.9118800E+02  0.7818608E-02  0.1130116E+00
         25   -1    0    0    0    0  0.00000000000E+00  0.00000000000E+00  0.99999998245E-14  0.12500000000E+03  0.12500000000E+03 0.  0.
        -11    1    3    3    0    0 -0.49730164100E+02 -0.66800033344E+01 -0.23978067662E+02  0.55611683980E+02  0.51100000000E-03 0. -1.
         23    2    1    0    0    0 -0.25341978345E+02  0.17141900753E+02 -0.73905000320E+01  0.93524928617E+02  0.88069473452E+02 0.  0.
         11    1    3    3    0    0  0.24388185755E+02  0.23821904087E+02  0.16587567630E+02  0.37913244637E+02  0.51100000000E-03 0.  1.
         22    1    1    0    0    0  0.25341978345E+02 -0.17141900753E+02  0.73905000320E+01  0.31475071383E+02  0.00000000000E+00 0. -1.
</event>
<event>
 5    1  0.6650580E-004  0.9118800E+02  0.7818608E-02  0.1130116E+00
         25   -1    0    0    0    0  0.00000000000E+00  0.00000000000E+00  0.99999998245E-14  0.12500000000E+03  0.12500000000E+03 0.  0.
        -11    1    3    3    0    0  0.26866342580E+02  0.23535335916E+02 -0.51007300527E+02  0.62269230826E+02  0.51100000000E-03 0.  1.
         23    2    1    0    0    0  0.13775764955E+02  0.14303265967E+02 -0.22329435247E+02  0.95117583835E+02  0.90301694108E+02 0.  0.
         11    1    3    3    0    0 -0.13090577625E+02 -0.92320699494E+01  0.28677865280E+02  0.32848353009E+02  0.51100000000E-03 0. -1.
         22    1    1    0    0    0 -0.13775764955E+02 -0.14303265967E+02  0.22329435247E+02  0.29882416165E+02  0.00000000000E+00 0.  1.
</event>
<event>
 5    1  0.6650580E-004  0.9118800E+02  0.7818608E-02  0.1130116E+00
         25   -1    0    0    0    0  0.00000000000E+00  0.00000000000E+00  0.99999998245E-14  0.12500000000E+03  0.12500000000E+03 0.  0.
        -11    1    3    3    0    0  0.20881911700E+02 -0.14786398046E+02  0.46860998573E+02  0.53391431812E+02  0.51100000000E-03 0. -1.
         23    2    1    0    0    0 -0.48939595551E+01  0.69508903856E+01  0.34760695631E+02  0.89214923809E+02  0.81723503059E+02 0.  0.
         11    1    3    3    0    0 -0.25775871255E+02  0.21737288432E+02 -0.12100302942E+02  0.35823491997E+02  0.51100000000E-03 0.  1.
         22    1    1    0    0    0  0.48939595551E+01 -0.69508903856E+01 -0.34760695631E+02  0.35785076191E+02  0.00000000000E+00 0. -1.
</event>
<event>
 5    1  0.6650580E-004  0.9118800E+02  0.7818608E-02  0.1130116E+00
         25   -1    0    0    0    0  0.00000000000E+00  0.00000000000E+00  0.99999998245E-14  0.12500000000E+03  0.12500000000E+03 0.  0.
        -11    1    3    3    0    0  0.50717768299E+02  0.13551752430E+02 -0.31143300543E+02  0.61039718087E+02  0.51100000000E-03 0. -1.
         23    2    1    0    0    0  0.18128399906E+02  0.50505840036E+01 -0.22220035961E+02  0.95881667630E+02  0.91353253403E+02 0.  0.
         11    1    3    3    0    0 -0.32589368393E+02 -0.85011684264E+01  0.89232645820E+01  0.34841949543E+02  0.51100000000E-03 0.  1.
         22    1    1    0    0    0 -0.18128399906E+02 -0.50505840036E+01  0.22220035961E+02  0.29118332370E+02  0.00000000000E+00 0. -1.
</event>
<event>
 5    1  0.6650580E-004  0.9118800E+02  0.7818608E-02  0.1130116E+00
         25   -1    0    0    0    0  0.00000000000E+00  0.00000000000E+00  0.99999998245E-14  0.12500000000E+03  0.12500000000E+03 0.  0.
        -11    1    3    3    0    0  0.54167133619E+01 -0.50465783988E+02  0.12489335972E+02  0.52269681943E+02  0.51100000000E-03 0.  1.
         23    2    1    0    0    0  0.25225097936E+02 -0.14592492319E+02 -0.21354786612E+01  0.95780029653E+02  0.91214074644E+02 0.  0.
         11    1    3    3    0    0  0.19808384574E+02  0.35873291668E+02 -0.14624814633E+02  0.43510347710E+02  0.51100000000E-03 0. -1.
         22    1    1    0    0    0 -0.25225097936E+02  0.14592492319E+02  0.21354786612E+01  0.29219970347E+02  0.00000000000E+00 0.  1.
</event>
<event>
 5    1  0.6650580E-004  0.9118800E+02  0.7818608E-02  0.1130116E+00
         25   -1    0    0    0    0  0.00000000000E+00  0.00000000000E+00  0.99999998245E-14  0.12500000000E+03  0.12500000000E+03 0.  0.
        -11    1    3    3    0    0  0.85346450918E+01 -0.52914777635E+01  0.34193048723E+02  0.35637122288E+02  0.51100000000E-03 0. -1.
         23    2    1    0    0    0 -0.24908323840E+02  0.11284363311E+02 -0.12094852125E+02  0.95099382953E+02  0.90276496046E+02 0.  0.
         11    1    3    3    0    0 -0.33442968932E+02  0.16575841074E+02 -0.46287900847E+02  0.59462260665E+02  0.51100000000E-03 0.  1.
         22    1    1    0    0    0  0.24908323840E+02 -0.11284363311E+02  0.12094852125E+02  0.29900617047E+02  0.00000000000E+00 0.  1.
</event>
<event>
 5    1  0.6650580E-004  0.9118800E+02  0.7818608E-02  0.1130116E+00
         25   -1    0    0    0    0  0.00000000000E+00  0.00000000000E+00  0.99999998245E-14  0.12500000000E+03  0.12500000000E+03 0.  0.
        -11    1    3    3    0    0  0.36550256616E+02  0.30074973781E+02 -0.36944697980E+02  0.60044450332E+02  0.51100000000E-03 0.  1.
         23    2    1    0    0    0  0.72870340763E+01  0.10850585570E+02 -0.24551464871E+02  0.97186145536E+02  0.93121084530E+02 0.  0.
         11    1    3    3    0    0 -0.29263222539E+02 -0.19224388211E+02  0.12393233109E+02  0.37141695204E+02  0.51100000000E-03 0. -1.
         22    1    1    0    0    0 -0.72870340763E+01 -0.10850585570E+02  0.24551464871E+02  0.27813854464E+02  0.00000000000E+00 0.  1.
</event>
<event>
 5    1  0.6650580E-004  0.9118800E+02  0.7818608E-02  0.1130116E+00
         25   -1    0    0    0    0  0.00000000000E+00  0.00000000000E+00  0.99999998245E-14  0.12500000000E+03  0.12500000000E+03 0.  0.
        -11    1    3    3    0    0  0.14813216989E+01  0.27917803745E+02 -0.17187723160E+02  0.32817920526E+02  0.51100000000E-03 0.  1.
         23    2    1    0    0    0  0.69775489043E+01 -0.25659733392E+02  0.13889513880E+02  0.94999554965E+02  0.90138164732E+02 0.  0.
         11    1    3    3    0    0  0.54962272055E+01 -0.53577537138E+02  0.31077237040E+02  0.62181634439E+02  0.51100000000E-03 0. -1.
         22    1    1    0    0    0 -0.69775489043E+01  0.25659733392E+02 -0.13889513880E+02  0.30000445035E+02  0.00000000000E+00 0. -1.
</event>
<event>
 5    1  0.6650580E-004  0.9118800E+02  0.7818608E-02  0.1130116E+00
         25   -1    0    0    0    0  0.00000000000E+00  0.00000000000E+00  0.99999998245E-14  0.12500000000E+03  0.12500000000E+03 0.  0.
        -11    1    3    3    0    0 -0.29206630845E+02 -0.17619448724E+02 -0.14748002191E+00  0.34110027986E+02  0.51100000000E-03 0. -1.
         23    2    1    0    0    0  0.29787292109E+02 -0.30785516770E+01 -0.27705550783E+01  0.94926153770E+02  0.90036317354E+02 0.  0.
         11    1    3    3    0    0  0.58993922953E+02  0.14540897047E+02 -0.26230750564E+01  0.60816125784E+02  0.51100000000E-03 0.  1.
         22    1    1    0    0    0 -0.29787292109E+02  0.30785516770E+01  0.27705550783E+01  0.30073846230E+02  0.00000000000E+00 0.  1.
</event>
<event>
 5    1  0.6650580E-004  0.9118800E+02  0.7818608E-02  0.1130116E+00
         25   -1    0    0    0    0  0.00000000000E+00  0.00000000000E+00  0.99999998245E-14  0.12500000000E+03  0.12500000000E+03 0.  0.
        -11    1    3    3    0    0  0.23498932542E+02 -0.21726511877E+02 -0.19168092456E+02  0.37304918142E+02  0.51100000000E-03 0.  1.
         23    2    1    0    0    0 -0.25544357477E+02 -0.10793658704E+02  0.10138005401E+02  0.95473801114E+02  0.90793448434E+02 0.  0.
         11    1    3    3    0    0 -0.49043290019E+02  0.10932853173E+02  0.29306097857E+02  0.58168882972E+02  0.51100000000E-03 0. -1.
         22    1    1    0    0    0  0.25544357477E+02  0.10793658704E+02 -0.10138005401E+02  0.29526198886E+02  0.00000000000E+00 0. -1.
</event>
<event>
 5    1  0.6650580E-004  0.9118800E+02  0.7818608E-02  0.1130116E+00
         25   -1    0    0    0    0  0.00000000000E+00  0.00000000000E+00  0.99999998245E-14  0.12500000000E+03  0.12500000000E+03 0.  0.
        -11    1    3    3    0    0 -0.26589344356E+02  0.18996769193E+02 -0.47941790070E+02  0.58019701037E+02  0.51100000000E-03 0.  1.
         23    2    1    0    0    0  0.46513035082E+01  0.11490929773E+02 -0.23647008478E+02  0.98300616087E+02  0.94605253669E+02 0.  0.
         11    1    3    3    0    0  0.31240647864E+02 -0.75058394195E+01  0.24294781592E+02  0.40280915050E+02  0.51100000000E-03 0. -1.
         22    1    1    0    0    0 -0.46513035082E+01 -0.11490929773E+02  0.23647008478E+02  0.26699383913E+02  0.00000000000E+00 0.  1.
</event>
<event>
 5    1  0.6650580E-004  0.9118800E+02  0.7818608E-02  0.1130116E+00
         25   -1    0    0    0    0  0.00000000000E+00  0.00000000000E+00  0.99999998245E-14  0.12500000000E+03  0.12500000000E+03 0.  0.
        -11    1    3    3    0    0 -0.34054383673E+02 -0.31986602467E+02 -0.24742419029E+02  0.52868053533E+02  0.51100000000E-03 0.  1.
         23    2    1    0    0    0 -0.13734435048E+02  0.23274058013E+01 -0.28854665067E+02  0.92958726305E+02  0.87262142859E+02 0.  0.
         11    1    3    3    0    0  0.20319948625E+02  0.34314008268E+02 -0.41122460380E+01  0.40090672772E+02  0.51100000000E-03 0. -1.
         22    1    1    0    0    0  0.13734435048E+02 -0.23274058013E+01  0.28854665067E+02  0.32041273695E+02  0.00000000000E+00 0.  1.
</event>
<event>
 5    1  0.6650580E-004  0.9118800E+02  0.7818608E-02  0.1130116E+00
         25   -1    0    0    0    0  0.00000000000E+00  0.00000000000E+00  0.99999998245E-14  0.12500000000E+03  0.12500000000E+03 0.  0.
        -11    1    3    3    0    0  0.13641952907E+02  0.50188379851E+02  0.10670569692E+02  0.53092724633E+02  0.51100000000E-03 0. -1.
         23    2    1    0    0    0 -0.80350016878E+01  0.21309387006E+02  0.24306967918E+02  0.91691143579E+02  0.85427079400E+02 0.  0.
         11    1    3    3    0    0 -0.21676954595E+02 -0.28878992845E+02  0.13636398226E+02  0.38598418946E+02  0.51100000000E-03 0.  1.
         22    1    1    0    0    0  0.80350016878E+01 -0.21309387006E+02 -0.24306967918E+02  0.33308856421E+02  0.00000000000E+00 0.  1.
</event>
<event>
 5    1  0.6650580E-004  0.9118800E+02  0.7818608E-02  0.1130116E+00
         25   -1    0    0    0    0  0.00000000000E+00  0.00000000000E+00  0.99999998245E-14  0.12500000000E+03  0.12500000000E+03 0.  0.
        -11    1    3    3    0    0  0.16930688227E+02 -0.14443276000E+02  0.39681808804E+02  0.45496179792E+02  0.51100000000E-03 0. -1.
         23    2    1    0    0    0  0.23168964241E+02 -0.16358143709E+02 -0.94850680354E+01  0.95094209837E+02  0.90269332884E+02 0.  0.
         11    1    3    3    0    0  0.62382760146E+01 -0.19148677083E+01 -0.49166876839E+02  0.49598030045E+02  0.51100000000E-03 0.  1.
         22    1    1    0    0    0 -0.23168964241E+02  0.16358143709E+02  0.94850680354E+01  0.29905790163E+02  0.00000000000E+00 0. -1.
</event>
<event>
 5    1  0.6650580E-004  0.9118800E+02  0.7818608E-02  0.1130116E+00
         25   -1    0    0    0    0  0.00000000000E+00  0.00000000000E+00  0.99999998245E-14  0.12500000000E+03  0.12500000000E+03 0.  0.
        -11    1    3    3    0    0  0.46816570099E+01  0.25332790058E+02 -0.19165537131E+02  0.32108970370E+02  0.51100000000E-03 0.  1.
         23    2    1    0    0    0 -0.35514292647E+00 -0.27881128295E+02  0.12723928030E+02  0.94350664183E+02  0.89233771890E+02 0.  0.
         11    1    3    3    0    0 -0.50367999363E+01 -0.53213918353E+02  0.31889465162E+02  0.62241693812E+02  0.51100000000E-03 0. -1.
         22    1    1    0    0    0  0.35514292647E+00  0.27881128295E+02 -0.12723928030E+02  0.30649335817E+02  0.00000000000E+00 0. -1.
</event>
<event>
 5    1  0.6650580E-004  0.9118800E+02  0.7818608E-02  0.1130116E+00
         25   -1    0    0    0    0  0.00000000000E+00  0.00000000000E+00  0.99999998245E-14  0.12500000000E+03  0.12500000000E+03 0.  0.
        -11    1    3    3    0    0  0.19960647756E+02  0.67729046501E+01 -0.48445023362E+02  0.52831997738E+02  0.51100000000E-03 0. -1.
         23    2    1    0    0    0  0.28295028956E+02  0.77548123363E+01 -0.73775344017E+01  0.94748160521E+02  0.89788864177E+02 0.  0.
         11    1    3    3    0    0  0.83343812009E+01  0.98190768621E+00  0.41067488960E+02  0.41916162783E+02  0.51100000000E-03 0.  1.
         22    1    1    0    0    0 -0.28295028956E+02 -0.77548123363E+01  0.73775344017E+01  0.30251839479E+02  0.00000000000E+00 0.  1.
</event>
<event>
 5    1  0.6650580E-004  0.9118800E+02  0.7818608E-02  0.1130116E+00
         25   -1    0    0    0    0  0.00000000000E+00  0.00000000000E+00  0.99999998245E-14  0.12500000000E+03  0.12500000000E+03 0.  0.
        -11    1    3    3    0    0 -0.22752702581E+02 -0.75111637511E+01 -0.44991169311E+02  0.50973604659E+02  0.51100000000E-03 0.  1.
         23    2    1    0    0    0  0.69110824615E+01  0.17798723869E+02 -0.20321034153E+02  0.97116276052E+02  0.93027248767E+02 0.  0.
         11    1    3    3    0    0  0.29663785042E+02  0.25309887620E+02  0.24670135158E+02  0.46142671394E+02  0.51100000000E-03 0. -1.
         22    1    1    0    0    0 -0.69110824615E+01 -0.17798723869E+02  0.20321034153E+02  0.27883723948E+02  0.00000000000E+00 0. -1.
</event>
<event>
 5    1  0.6650580E-004  0.9118800E+02  0.7818608E-02  0.1130116E+00
         25   -1    0    0    0    0  0.00000000000E+00  0.00000000000E+00  0.99999998245E-14  0.12500000000E+03  0.12500000000E+03 0.  0.
        -11    1    3    3    0    0 -0.33359315588E+02 -0.15107431913E+02  0.42272299172E+02  0.55928755690E+02  0.51100000000E-03 0. -1.
         23    2    1    0    0    0 -0.23622125883E+02  0.10227682049E+02  0.11962474133E+02  0.96614949380E+02  0.92351163204E+02 0.  0.
         11    1    3    3    0    0  0.97371897059E+01  0.25335113962E+02 -0.30309825039E+02  0.40686193690E+02  0.51100000000E-03 0.  1.
         22    1    1    0    0    0  0.23622125883E+02 -0.10227682049E+02 -0.11962474133E+02  0.28385050620E+02  0.00000000000E+00 0. -1.
</event>
<event>
 5    1  0.6650580E-004  0.9118800E+02  0.7818608E-02  0.1130116E+00
         25   -1    0    0    0    0  0.00000000000E+00  0.00000000000E+00  0.99999998245E-14  0.12500000000E+03  0.12500000000E+03 0.  0.
        -11    1    3    3    0    0  0.20034028729E+02  0.26575017136E+02 -0.50900501770E+02  0.60814923527E+02  0.51100000000E-03 0.  1.
         23    2    1    0    0    0  0.18082807744E+02  0.12963457010E+02 -0.18318374188E+02  0.96179833685E+02  0.91760331414E+02 0.  0.
         11    1    3    3    0    0 -0.19512209847E+01 -0.13611560126E+02  0.32582127582E+02  0.35364910157E+02  0.51100000000E-03 0. -1.
         22    1    1    0    0    0 -0.18082807744E+02 -0.12963457010E+02  0.18318374188E+02  0.28820166315E+02  0.00000000000E+00 0.  1.
</event>
<event>
 5    1  0.6650580E-004  0.9118800E+02  0.7818608E-02  0.1130116E+00
         25   -1    0    0    0    0  0.00000000000E+00  0.00000000000E+00  0.99999998245E-14  0.12500000000E+03  0.12500000000E+03 0.  0.
        -11    1    3    3    0    0  0.34051620458E+02 -0.25153866206E+02  0.22625510797E+02  0.48001495601E+02  0.51100000000E-03 0. -1.
         23    2    1    0    0    0 -0.11195961541E+02 -0.10878776439E+02  0.25021661824E+02  0.95507952053E+02  0.90840453617E+02 0.  0.
         11    1    3    3    0    0 -0.45247581999E+02  0.14275089766E+02  0.23961510278E+01  0.47506456452E+02  0.51100000000E-03 0.  1.
         22    1    1    0    0    0  0.11195961541E+02  0.10878776439E+02 -0.25021661824E+02  0.29492047947E+02  0.00000000000E+00 0.  1.
</event>
<event>
 5    1  0.6650580E-004  0.9118800E+02  0.7818608E-02  0.1130116E+00
         25   -1    0    0    0    0  0.00000000000E+00  0.00000000000E+00  0.99999998245E-14  0.12500000000E+03  0.12500000000E+03 0.  0.
        -11    1    3    3    0    0 -0.36462042746E+02 -0.32931508807E+01 -0.99779913178E+00  0.36624049575E+02  0.51100000000E-03 0. -1.
         23    2    1    0    0    0  0.16057125494E+02  0.21514894630E+02 -0.11750904416E+02  0.95694612702E+02  0.91096943832E+02 0.  0.
         11    1    3    3    0    0  0.52519168239E+02  0.24808045511E+02 -0.10753105284E+02  0.59070563127E+02  0.51100000000E-03 0.  1.
         22    1    1    0    0    0 -0.16057125494E+02 -0.21514894630E+02  0.11750904416E+02  0.29305387298E+02  0.00000000000E+00 0.  1.
</event>
<event>
 5    1  0.6650580E-004  0.9118800E+02  0.7818608E-02  0.1130116E+00
         25   -1    0    0    0    0  0.00000000000E+00  0.00000000000E+00  0.99999998245E-14  0.12500000000E+03  0.12500000000E+03 0.  0.
        -11    1    3    3    0    0  0.12175201241E+02 -0.33683588775E+02  0.17500601449E+02  0.39863400876E+02  0.51100000000E-03 0.  1.
         23    2    1    0    0    0 -0.25440308044E+02 -0.15175338325E+02 -0.13935762324E+02  0.92263084473E+02  0.86259904464E+02 0.  0.
         11    1    3    3    0    0 -0.37615509285E+02  0.18508250450E+02 -0.31436363773E+02  0.52399683597E+02  0.51100000000E-03 0. -1.
         22    1    1    0    0    0  0.25440308044E+02  0.15175338325E+02  0.13935762324E+02  0.32736915527E+02  0.00000000000E+00 0. -1.
</event>
<event>
 5    1  0.6650580E-004  0.9118800E+02  0.7818608E-02  0.1130116E+00
         25   -1    0    0    0    0  0.00000000000E+00  0.00000000000E+00  0.99999998245E-14  0.12500000000E+03  0.12500000000E+03 0.  0.
        -11    1    3    3    0    0 -0.10239565855E+02 -0.20186220105E+02  0.21243976979E+02  0.31042531295E+02  0.51100000000E-03 0.  1.
         23    2    1    0    0    0 -0.15707457492E+02  0.24124313191E+02 -0.18470494369E+02  0.90796697966E+02  0.84108111925E+02 0.  0.
         11    1    3    3    0    0 -0.54678916374E+01  0.44310533296E+02 -0.39714471348E+02  0.59754166671E+02  0.51100000000E-03 0. -1.
         22    1    1    0    0    0  0.15707457492E+02 -0.24124313191E+02  0.18470494369E+02  0.34203302034E+02  0.00000000000E+00 0. -1.
</event>
<event>
 5    1  0.6650580E-004  0.9118800E+02  0.7818608E-02  0.1130116E+00
         25   -1    0    0    0    0  0.00000000000E+00  0.00000000000E+00  0.99999998245E-14  0.12500000000E+03  0.12500000000E+03 0.  0.
        -11    1    3    3    0    0  0.45173613211E+02 -0.19716724327E+02 -0.20742454642E+02  0.53475732567E+02  0.51100000000E-03 0. -1.
         23    2    1    0    0    0  0.17333320037E+02 -0.18902530942E+02  0.12187437882E+02  0.96604871867E+02  0.92337521988E+02 0.  0.
         11    1    3    3    0    0 -0.27840293174E+02  0.81419338476E+00  0.32929892524E+02  0.43129139300E+02  0.51100000000E-03 0.  1.
         22    1    1    0    0    0 -0.17333320037E+02  0.18902530942E+02 -0.12187437882E+02  0.28395128133E+02  0.00000000000E+00 0. -1.
</event>
<event>
 5    1  0.6650580E-004  0.9118800E+02  0.7818608E-02  0.1130116E+00
         25   -1    0    0    0    0  0.00000000000E+00  0.00000000000E+00  0.99999998245E-14  0.12500000000E+03  0.12500000000E+03 0.  0.
        -11    1    3    3    0    0 -0.15893757830E+02  0.17921041138E+02  0.25952690062E+02  0.35317380638E+02  0.51100000000E-03 0. -1.
         23    2    1    0    0    0 -0.51599022806E+01 -0.11264259467E+02 -0.26189169898E+02  0.96027931506E+02  0.91553169669E+02 0.  0.
         11    1    3    3    0    0  0.10733855550E+02 -0.29185300604E+02 -0.52141859960E+02  0.60710550868E+02  0.51100000000E-03 0.  1.
         22    1    1    0    0    0  0.51599022806E+01  0.11264259467E+02  0.26189169898E+02  0.28972068494E+02  0.00000000000E+00 0.  1.
</event>
<event>
 5    1  0.6650580E-004  0.9118800E+02  0.7818608E-02  0.1130116E+00
         25   -1    0    0    0    0  0.00000000000E+00  0.00000000000E+00  0.99999998245E-14  0.12500000000E+03  0.12500000000E+03 0.  0.
        -11    1    3    3    0    0 -0.73040058440E+01 -0.39714717638E+02  0.14628073147E+02  0.42948664970E+02  0.51100000000E-03 0. -1.
         23    2    1    0    0    0  0.15230530120E+02 -0.52442596900E+01 -0.21775287428E+02  0.97914312821E+02  0.94093454635E+02 0.  0.
         11    1    3    3    0    0  0.22534535964E+02  0.34470457948E+02 -0.36403360575E+02  0.54965647851E+02  0.51100000000E-03 0.  1.
         22    1    1    0    0    0 -0.15230530120E+02  0.52442596900E+01  0.21775287428E+02  0.27085687179E+02  0.00000000000E+00 0.  1.
</event>
<event>
 5    1  0.6650580E-004  0.9118800E+02  0.7818608E-02  0.1130116E+00
         25   -1    0    0    0    0  0.00000000000E+00  0.00000000000E+00  0.99999998245E-14  0.12500000000E+03  0.12500000000E+03 0.  0.
        -11    1    3    3    0    0  0.15744075182E+02 -0.46060823164E+02  0.24813114952E+02  0.54636672737E+02  0.51100000000E-03 0. -1.
         23    2    1    0    0    0  0.26191059935E+02 -0.10778118671E+02  0.56671447176E+01  0.96116510047E+02  0.91674028556E+02 0.  0.
         11    1    3    3    0    0  0.10446984753E+02  0.35282704493E+02 -0.19145970234E+02  0.41479837310E+02  0.51100000000E-03 0.  1.
         22    1    1    0    0    0 -0.26191059935E+02  0.10778118671E+02 -0.56671447176E+01  0.28883489953E+02  0.00000000000E+00 0. -1.
</event>
<event>
 5    1  0.6650580E-004  0.9118800E+02  0.7818608E-02  0.1130116E+00
         25   -1    0    0    0    0  0.00000000000E+00  0.00000000000E+00  0.99999998245E-14  0.12500000000E+03  0.12500000000E+03 0.  0.
        -11    1    3    3    0    0  0.33926912232E+02  0.20541291532E+02 -0.18887171469E+02  0.43928410826E+02  0.51100000000E-03 0.  1.
         23    2    1    0    0    0 -0.11679907099E+02  0.25680313969E+02  0.60293187532E+01  0.96151231569E+02  0.91721360065E+02 0.  0.
         11    1    3    3    0    0 -0.45606819330E+02  0.51390224371E+01  0.24916490222E+02  0.52222820743E+02  0.51100000000E-03 0. -1.
         22    1    1    0    0    0  0.11679907099E+02 -0.25680313969E+02 -0.60293187532E+01  0.28848768431E+02  0.00000000000E+00 0. -1.
</event>
<event>
 5    1  0.6650580E-004  0.9118800E+02  0.7818608E-02  0.1130116E+00
         25   -1    0    0    0    0  0.00000000000E+00  0.00000000000E+00  0.99999998245E-14  0.12500000000E+03  0.12500000000E+03 0.  0.
        -11    1    3    3    0    0 -0.45285021505E+00  0.34268715519E+02 -0.36720148004E+01  0.34467863722E+02  0.51100000000E-03 0. -1.
         23    2    1    0    0    0  0.43429883003E+01 -0.25003556069E+02 -0.15727844860E+02  0.95143602572E+02  0.90337703330E+02 0.  0.
         11    1    3    3    0    0  0.47958385154E+01 -0.59272271588E+02 -0.12055830060E+02  0.60675738849E+02  0.51100000000E-03 0.  1.
         22    1    1    0    0    0 -0.43429883003E+01  0.25003556069E+02  0.15727844860E+02  0.29856397428E+02  0.00000000000E+00 0.  1.
</event>
<event>
 5    1  0.6650580E-004  0.9118800E+02  0.7818608E-02  0.1130116E+00
         25   -1    0    0    0    0  0.00000000000E+00  0.00000000000E+00  0.99999998245E-14  0.12500000000E+03  0.12500000000E+03 0.  0.
        -11    1    3    3    0    0  0.28410485017E+02 -0.43335266312E+02  0.93685630520E+01  0.52658056735E+02  0.51100000000E-03 0. -1.
         23    2    1    0    0    0  0.18611926341E+02 -0.13830086542E+02 -0.19211019667E+02  0.94887903219E+02  0.89983197347E+02 0.  0.
         11    1    3    3    0    0 -0.97985586758E+01  0.29505179770E+02 -0.28579582719E+02  0.42229846484E+02  0.51100000000E-03 0.  1.
         22    1    1    0    0    0 -0.18611926341E+02  0.13830086542E+02  0.19211019667E+02  0.30112096781E+02  0.00000000000E+00 0. -1.
</event>
<event>
 5    1  0.6650580E-004  0.9118800E+02  0.7818608E-02  0.1130116E+00
         25   -1    0    0    0    0  0.00000000000E+00  0.00000000000E+00  0.99999998245E-14  0.12500000000E+03  0.12500000000E+03 0.  0.
        -11    1    3    3    0    0 -0.30013457074E+02 -0.20160347223E+02  0.29090138242E+02  0.46405639192E+02  0.51100000000E-03 0.  1.
         23    2    1    0    0    0  0.16611377455E+02 -0.20447916451E+02  0.11786490615E+02  0.96138667578E+02  0.91704235968E+02 0.  0.
         11    1    3    3    0    0  0.46624834529E+02 -0.28756922846E+00 -0.17303647627E+02  0.49733028385E+02  0.51100000000E-03 0. -1.
         22    1    1    0    0    0 -0.16611377455E+02  0.20447916451E+02 -0.11786490615E+02  0.28861332422E+02  0.00000000000E+00 0.  1.
</event>
<event>
 5    1  0.6650580E-004  0.9118800E+02  0.7818608E-02  0.1130116E+00
         25   -1    0    0    0    0  0.00000000000E+00  0.00000000000E+00  0.99999998245E-14  0.12500000000E+03  0.12500000000E+03 0.  0.
        -11    1    3    3    0    0 -0.22743428907E+02  0.96482611880E+01 -0.30938184243E+02  0.39591965687E+02  0.51100000000E-03 0. -1.
         23    2    1    0    0    0 -0.44552956886E+01 -0.32354639220E+02 -0.58601227579E+01  0.91818478373E+02  0.85613197542E+02 0.  0.
         11    1    3    3    0    0  0.18288133218E+02 -0.42002900408E+02  0.25078061485E+02  0.52226512687E+02  0.51100000000E-03 0.  1.
         22    1    1    0    0    0  0.44552956886E+01  0.32354639220E+02  0.58601227579E+01  0.33181521627E+02  0.00000000000E+00 0.  1.
</event>
<event>
 5    1  0.6650580E-004  0.9118800E+02  0.7818608E-02  0.1130116E+00
         25   -1    0    0    0    0  0.00000000000E+00  0.00000000000E+00  0.99999998245E-14  0.12500000000E+03  0.12500000000E+03 0.  0.
        -11    1    3    3    0    0 -0.26541914454E+02 -0.20027574952E+02  0.29958320227E+02  0.44755758651E+02  0.51100000000E-03 0.  1.
         23    2    1    0    0    0 -0.89523593280E+01 -0.21256156468E+02 -0.17929364906E+02  0.95786457742E+02  0.91222883288E+02 0.  0.
         11    1    3    3    0    0  0.17589555126E+02 -0.12285815161E+01 -0.47887685133E+02  0.51030699091E+02  0.51100000000E-03 0. -1.
         22    1    1    0    0    0  0.89523593280E+01  0.21256156468E+02  0.17929364906E+02  0.29213542258E+02  0.00000000000E+00 0. -1.
</event>
<event>
 5    1  0.6650580E-004  0.9118800E+02  0.7818608E-02  0.1130116E+00
         25   -1    0    0    0    0  0.00000000000E+00  0.00000000000E+00  0.99999998245E-14  0.12500000000E+03  0.12500000000E+03 0.  0.
        -11    1    3    3    0    0  0.86138555038E+01 -0.20247338278E+01  0.32049211562E+02  0.33248308464E+02  0.51100000000E-03 0. -1.
         23    2    1    0    0    0  0.98514707737E+01 -0.18026947133E+02 -0.25074908956E+02  0.92584365524E+02  0.86724226033E+02 0.  0.
         11    1    3    3    0    0  0.12376152699E+01 -0.16002213305E+02 -0.57124120518E+02  0.59336057060E+02  0.51100000000E-03 0.  1.
         22    1    1    0    0    0 -0.98514707737E+01  0.18026947133E+02  0.25074908956E+02  0.32415634476E+02  0.00000000000E+00 0.  1.
</event>
<event>
 5    1  0.6650580E-004  0.9118800E+02  0.7818608E-02  0.1130116E+00
         25   -1    0    0    0    0  0.00000000000E+00  0.00000000000E+00  0.99999998245E-14  0.12500000000E+03  0.12500000000E+03 0.  0.
        -11    1    3    3    0    0 -0.13831129313E+02 -0.45218792626E+02 -0.25116874035E+02  0.53543409549E+02  0.51100000000E-03 0.  1.
         23    2    1    0    0    0  0.16941491520E+02 -0.19542935590E+02 -0.15807862552E+02  0.94687807983E+02  0.89704804753E+02 0.  0.
         11    1    3    3    0    0  0.30772620833E+02  0.25675857035E+02  0.93090114828E+01  0.41144398434E+02  0.51100000000E-03 0. -1.
         22    1    1    0    0    0 -0.16941491520E+02  0.19542935590E+02  0.15807862552E+02  0.30312192017E+02  0.00000000000E+00 0. -1.
</event>
<event>
 5    1  0.6650580E-004  0.9118800E+02  0.7818608E-02  0.1130116E+00
         25   -1    0    0    0    0  0.00000000000E+00  0.00000000000E+00  0.99999998245E-14  0.12500000000E+03  0.12500000000E+03 0.  0.
        -11    1    3    3    0    0  0.11175703848E+02 -0.39861572032E+02 -0.19662179052E+02  0.45830585494E+02  0.51100000000E-03 0. -1.
         23    2    1    0    0    0 -0.88570110009E+01 -0.18342803877E+02  0.20827063828E+02  0.95868029836E+02  0.91334590704E+02 0.  0.
         11    1    3    3    0    0 -0.20032714849E+02  0.21518768155E+02  0.40489242879E+02  0.50037444342E+02  0.51100000000E-03 0.  1.
         22    1    1    0    0    0  0.88570110009E+01  0.18342803877E+02 -0.20827063828E+02  0.29131970164E+02  0.00000000000E+00 0.  1.
</event>
<event>
 5    1  0.6650580E-004  0.9118800E+02  0.7818608E-02  0.1130116E+00
         25   -1    0    0    0    0  0.00000000000E+00  0.00000000000E+00  0.99999998245E-14  0.12500000000E+03  0.12500000000E+03 0.  0.
        -11    1    3    3    0    0 -0.17377410606E+02 -0.50588713099E+02 -0.16205884589E+00  0.53490359465E+02  0.51100000000E-03 0.  1.
         23    2    1    0    0    0 -0.25706839516E+01 -0.17786552178E+02 -0.22770721375E+02  0.95991801051E+02  0.91503826492E+02 0.  0.
         11    1    3    3    0    0  0.14806726654E+02  0.32802160921E+02 -0.22608662529E+02  0.42501441586E+02  0.51100000000E-03 0. -1.
         22    1    1    0    0    0  0.25706839516E+01  0.17786552178E+02  0.22770721375E+02  0.29008198949E+02  0.00000000000E+00 0.  1.
</event>
<event>
 5    1  0.6650580E-004  0.9118800E+02  0.7818608E-02  0.1130116E+00
         25   -1    0    0    0    0  0.00000000000E+00  0.00000000000E+00  0.99999998245E-14  0.12500000000E+03  0.12500000000E+03 0.  0.
        -11    1    3    3    0    0 -0.39520658789E+02  0.36387196520E+02  0.10709026408E+02  0.54777676006E+02  0.51100000000E-03 0. -1.
         23    2    1    0    0    0 -0.26354720873E+02  0.16650613169E+02 -0.15546550351E+02  0.90164537336E+02  0.83163299201E+02 0.  0.
         11    1    3    3    0    0  0.13165937916E+02 -0.19736583351E+02 -0.26255576759E+02  0.35386861330E+02  0.51100000000E-03 0.  1.
         22    1    1    0    0    0  0.26354720873E+02 -0.16650613169E+02  0.15546550351E+02  0.34835462664E+02  0.00000000000E+00 0. -1.
</event>
<event>
 5    1  0.6650580E-004  0.9118800E+02  0.7818608E-02  0.1130116E+00
         25   -1    0    0    0    0  0.00000000000E+00  0.00000000000E+00  0.99999998245E-14  0.12500000000E+03  0.12500000000E+03 0.  0.
        -11    1    3    3    0    0  0.25299102923E+01  0.30602398575E+02 -0.63176581405E+01  0.31349960913E+02  0.51100000000E-03 0.  1.
         23    2    1    0    0    0  0.63474136926E+01 -0.25221646948E+02 -0.23566815559E+02  0.89902764626E+02  0.82768902109E+02 0.  0.
         11    1    3    3    0    0  0.38175034003E+01 -0.55824045522E+02 -0.17249157419E+02  0.58552803712E+02  0.51100000000E-03 0. -1.
         22    1    1    0    0    0 -0.63474136926E+01  0.25221646948E+02  0.23566815559E+02  0.35097235374E+02  0.00000000000E+00 0. -1.
</event>
<event>
 5    1  0.6650580E-004  0.9118800E+02  0.7818608E-02  0.1130116E+00
         25   -1    0    0    0    0  0.00000000000E+00  0.00000000000E+00  0.99999998245E-14  0.12500000000E+03  0.12500000000E+03 0.  0.
        -11    1    3    3    0    0  0.16470538582E+02  0.55476115540E+02  0.63606909089E+00  0.57872986969E+02  0.51100000000E-03 0.  1.
         23    2    1    0    0    0  0.22442869919E+02  0.17504661817E+02 -0.24356915448E+01  0.96433792887E+02  0.92105636211E+02 0.  0.
         11    1    3    3    0    0  0.59723313362E+01 -0.37971453723E+02 -0.30717606357E+01  0.38560805918E+02  0.51100000000E-03 0. -1.
         22    1    1    0    0    0 -0.22442869919E+02 -0.17504661817E+02  0.24356915448E+01  0.28566207113E+02  0.00000000000E+00 0.  1.
</event>
<event>
 5    1  0.6650580E-004  0.9118800E+02  0.7818608E-02  0.1130116E+00
         25   -1    0    0    0    0  0.00000000000E+00  0.00000000000E+00  0.99999998245E-14  0.12500000000E+03  0.12500000000E+03 0.  0.
        -11    1    3    3    0    0 -0.29673437713E+02 -0.53098192998E+01 -0.15982665634E+02  0.34119681824E+02  0.51100000000E-03 0. -1.
         23    2    1    0    0    0  0.28745415261E+02 -0.10607446043E+01 -0.14676033562E+02  0.92707430596E+02  0.86901424896E+02 0.  0.
         11    1    3    3    0    0  0.58418852974E+02  0.42490746955E+01  0.13066320725E+01  0.58587748772E+02  0.51100000000E-03 0.  1.
         22    1    1    0    0    0 -0.28745415261E+02  0.10607446043E+01  0.14676033562E+02  0.32292569404E+02  0.00000000000E+00 0.  1.
</event>
<event>
 5    1  0.6650580E-004  0.9118800E+02  0.7818608E-02  0.1130116E+00
         25   -1    0    0    0    0  0.00000000000E+00  0.00000000000E+00  0.99999998245E-14  0.12500000000E+03  0.12500000000E+03 0.  0.
        -11    1    3    3    0    0  0.28654381266E+02 -0.25967245920E+02  0.40039895309E+01  0.38876771456E+02  0.51100000000E-03 0. -1.
         23    2    1    0    0    0  0.27422748617E+01  0.25684098618E+02 -0.81241391574E+01  0.97922433080E+02  0.94104241510E+02 0.  0.
         11    1    3    3    0    0 -0.25912106404E+02  0.51651344538E+02 -0.12128128688E+02  0.59045661624E+02  0.51100000000E-03 0.  1.
         22    1    1    0    0    0 -0.27422748617E+01 -0.25684098618E+02  0.81241391574E+01  0.27077566920E+02  0.00000000000E+00 0.  1.
</event>
<event>
 5    1  0.6650580E-004  0.9118800E+02  0.7818608E-02  0.1130116E+00
         25   -1    0    0    0    0  0.00000000000E+00  0.00000000000E+00  0.99999998245E-14  0.12500000000E+03  0.12500000000E+03 0.  0.
        -11    1    3    3    0    0  0.14278605459E+02 -0.22281046445E+01  0.47905548496E+02  0.50037831699E+02  0.51100000000E-03 0.  1.
         23    2    1    0    0    0  0.26141718167E+02 -0.35725750603E+01  0.83160661786E+00  0.98602191552E+02  0.95002883578E+02 0.  0.
         11    1    3    3    0    0  0.11863112708E+02 -0.13444704158E+01 -0.47073941878E+02  0.48564359854E+02  0.51100000000E-03 0. -1.
         22    1    1    0    0    0 -0.26141718167E+02  0.35725750603E+01 -0.83160661786E+00  0.26397808448E+02  0.00000000000E+00 0.  1.
</event>
<event>
 5    1  0.6650580E-004  0.9118800E+02  0.7818608E-02  0.1130116E+00
         25   -1    0    0    0    0  0.00000000000E+00  0.00000000000E+00  0.99999998245E-14  0.12500000000E+03  0.12500000000E+03 0.  0.
        -11    1    3    3    0    0 -0.96392207391E+01  0.17019407252E+02  0.41775650303E+02  0.46127863144E+02  0.51100000000E-03 0. -1.
         23    2    1    0    0    0  0.13195819952E+01 -0.24071855311E+02  0.18527504035E+02  0.94595001718E+02  0.89575389642E+02 0.  0.
         11    1    3    3    0    0  0.10958802734E+02 -0.41091262563E+02 -0.23248146268E+02  0.48467138574E+02  0.51100000000E-03 0.  1.
         22    1    1    0    0    0 -0.13195819952E+01  0.24071855311E+02 -0.18527504035E+02  0.30404998282E+02  0.00000000000E+00 0. -1.
</event>
<event>
 5    1  0.6650580E-004  0.9118800E+02  0.7818608E-02  0.1130116E+00
         25   -1    0    0    0    0  0.00000000000E+00  0.00000000000E+00  0.99999998245E-14  0.12500000000E+03  0.12500000000E+03 0.  0.
        -11    1    3    3    0    0 -0.94531868514E+01 -0.54870734041E+02  0.10936963162E+02  0.56743082040E+02  0.51100000000E-03 0.  1.
         23    2    1    0    0    0 -0.15357586830E+02 -0.17759010524E+02  0.18541190671E+02  0.95083220770E+02  0.90254114546E+02 0.  0.
         11    1    3    3    0    0 -0.59043999789E+01  0.37111723518E+02  0.76042275085E+01  0.38340138730E+02  0.51100000000E-03 0. -1.
         22    1    1    0    0    0  0.15357586830E+02  0.17759010524E+02 -0.18541190671E+02  0.29916779230E+02  0.00000000000E+00 0.  1.
</event>
<event>
 5    1  0.6650580E-004  0.9118800E+02  0.7818608E-02  0.1130116E+00
         25   -1    0    0    0    0  0.00000000000E+00  0.00000000000E+00  0.99999998245E-14  0.12500000000E+03  0.12500000000E+03 0.  0.
        -11    1    3    3    0    0 -0.92971258498E+01  0.18996977713E+02  0.36181514303E+02  0.41909708766E+02  0.51100000000E-03 0.  1.
         23    2    1    0    0    0 -0.25583163684E+02 -0.94757043198E+01 -0.76596572310E+01  0.96663493770E+02  0.92416846097E+02 0.  0.
         11    1    3    3    0    0 -0.16286037834E+02 -0.28472682033E+02 -0.43841171534E+02  0.54753785004E+02  0.51100000000E-03 0. -1.
         22    1    1    0    0    0  0.25583163684E+02  0.94757043198E+01  0.76596572310E+01  0.28336506230E+02  0.00000000000E+00 0. -1.
</event>
<event>
 5    1  0.6650580E-004  0.9118800E+02  0.7818608E-02  0.1130116E+00
         25   -1    0    0    0    0  0.00000000000E+00  0.00000000000E+00  0.99999998245E-14  0.12500000000E+03  0.12500000000E+03 0.  0.
        -11    1    3    3    0    0 -0.47805091847E+01  0.36760860941E+02 -0.60251425928E+01  0.37556843700E+02  0.51100000000E-03 0. -1.
         23    2    1    0    0    0  0.26363452506E+02 -0.92138944751E+01  0.99725203381E+01  0.95345680900E+02  0.90616887085E+02 0.  0.
         11    1    3    3    0    0  0.31143961690E+02 -0.45974755416E+02  0.15997662931E+02  0.57788837199E+02  0.51100000000E-03 0.  1.
         22    1    1    0    0    0 -0.26363452506E+02  0.92138944751E+01 -0.99725203381E+01  0.29654319100E+02  0.00000000000E+00 0.  1.
</event>
<event>
 5    1  0.6650580E-004  0.9118800E+02  0.7818608E-02  0.1130116E+00
         25   -1    0    0    0    0  0.00000000000E+00  0.00000000000E+00  0.99999998245E-14  0.12500000000E+03  0.12500000000E+03 0.  0.
        -11    1    3    3    0    0  0.12700985373E+02  0.47762694948E+02 -0.93459115068E+01  0.50298470358E+02  0.51100000000E-03 0.  1.
         23    2    1    0    0    0 -0.28860211638E+01  0.20262632224E+02  0.22094643173E+02  0.94882286944E+02  0.89975395170E+02 0.  0.
         11    1    3    3    0    0 -0.15587006536E+02 -0.27500062725E+02  0.31440554679E+02  0.44583816587E+02  0.51100000000E-03 0. -1.
         22    1    1    0    0    0  0.28860211638E+01 -0.20262632224E+02 -0.22094643173E+02  0.30117713056E+02  0.00000000000E+00 0.  1.
</event>
<event>
 5    1  0.6650580E-004  0.9118800E+02  0.7818608E-02  0.1130116E+00
         25   -1    0    0    0    0  0.00000000000E+00  0.00000000000E+00  0.99999998245E-14  0.12500000000E+03  0.12500000000E+03 0.  0.
        -11    1    3    3    0    0 -0.18283134561E+02 -0.22184275542E+02  0.36025193303E+02  0.46089365839E+02  0.51100000000E-03 0. -1.
         23    2    1    0    0    0  0.21524894030E+02  0.14220587751E+01  0.21369655201E+02  0.94635456902E+02  0.89631825963E+02 0.  0.
         11    1    3    3    0    0  0.39808028591E+02  0.23606334317E+02 -0.14655538102E+02  0.48546091063E+02  0.51100000000E-03 0.  1.
         22    1    1    0    0    0 -0.21524894030E+02 -0.14220587751E+01 -0.21369655201E+02  0.30364543098E+02  0.00000000000E+00 0.  1.
</event>
<event>
 5    1  0.6650580E-004  0.9118800E+02  0.7818608E-02  0.1130116E+00
         25   -1    0    0    0    0  0.00000000000E+00  0.00000000000E+00  0.99999998245E-14  0.12500000000E+03  0.12500000000E+03 0.  0.
        -11    1    3    3    0    0  0.19255236833E+02 -0.38102138293E+02  0.75855155308E+01  0.43359856252E+02  0.51100000000E-03 0. -1.
         23    2    1    0    0    0 -0.31431996361E+01  0.14046827692E+02  0.18910603232E+02  0.10123439488E+03  0.98405277906E+02 0.  0.
         11    1    3    3    0    0 -0.22398436469E+02  0.52148965986E+02  0.11325087701E+02  0.57874538628E+02  0.51100000000E-03 0.  1.
         22    1    1    0    0    0  0.31431996361E+01 -0.14046827692E+02 -0.18910603232E+02  0.23765605121E+02  0.00000000000E+00 0.  1.
</event>
<event>
 5    1  0.6650580E-004  0.9118800E+02  0.7818608E-02  0.1130116E+00
         25   -1    0    0    0    0  0.00000000000E+00  0.00000000000E+00  0.99999998245E-14  0.12500000000E+03  0.12500000000E+03 0.  0.
        -11    1    3    3    0    0 -0.96571829742E+01  0.33695151269E+02  0.51056052930E+02  0.61930161821E+02  0.51100000000E-03 0.  1.
         23    2    1    0    0    0 -0.15805628172E+00  0.19110882622E+02  0.21469836783E+02  0.96256223145E+02  0.91864333592E+02 0.  0.
         11    1    3    3    0    0  0.94991266925E+01 -0.14584268647E+02 -0.29586216147E+02  0.34326061325E+02  0.51100000000E-03 0. -1.
         22    1    1    0    0    0  0.15805628172E+00 -0.19110882622E+02 -0.21469836783E+02  0.28743776855E+02  0.00000000000E+00 0.  1.
</event>
<event>
 5    1  0.6650580E-004  0.9118800E+02  0.7818608E-02  0.1130116E+00
         25   -1    0    0    0    0  0.00000000000E+00  0.00000000000E+00  0.99999998245E-14  0.12500000000E+03  0.12500000000E+03 0.  0.
        -11    1    3    3    0    0  0.46718762249E+02 -0.32030152630E+01 -0.67234652882E+01  0.47308635983E+02  0.51100000000E-03 0.  1.
         23    2    1    0    0    0  0.68430993275E+01  0.16804392095E+02 -0.23794671783E+02  0.95076731340E+02  0.90245126378E+02 0.  0.
         11    1    3    3    0    0 -0.39875662921E+02  0.20007407357E+02 -0.17071206494E+02  0.47768095357E+02  0.51100000000E-03 0. -1.
         22    1    1    0    0    0 -0.68430993275E+01 -0.16804392095E+02  0.23794671783E+02  0.29923268660E+02  0.00000000000E+00 0.  1.
</event>
<event>
 5    1  0.6650580E-004  0.9118800E+02  0.7818608E-02  0.1130116E+00
         25   -1    0    0    0    0  0.00000000000E+00  0.00000000000E+00  0.99999998245E-14  0.12500000000E+03  0.12500000000E+03 0.  0.
        -11    1    3    3    0    0 -0.32580929279E+02 -0.29595587998E+02  0.22095683759E+02  0.49250736266E+02  0.51100000000E-03 0.  1.
         23    2    1    0    0    0 -0.91674086479E+01  0.10380524690E+02  0.25791043252E+02  0.95725871726E+02  0.91139826264E+02 0.  0.
         11    1    3    3    0    0  0.23413520631E+02  0.39976112688E+02  0.36953594929E+01  0.46475135460E+02  0.51100000000E-03 0. -1.
         22    1    1    0    0    0  0.91674086479E+01 -0.10380524690E+02 -0.25791043252E+02  0.29274128274E+02  0.00000000000E+00 0.  1.
</event>
<event>
 5    1  0.6650580E-004  0.9118800E+02  0.7818608E-02  0.1130116E+00
         25   -1    0    0    0    0  0.00000000000E+00  0.00000000000E+00  0.99999998245E-14  0.12500000000E+03  0.12500000000E+03 0.  0.
        -11    1    3    3    0    0  0.32658065813E+02 -0.20096230618E+02 -0.14417265077E+02  0.40966636184E+02  0.51100000000E-03 0. -1.
         23    2    1    0    0    0  0.52464381665E+01  0.27426966228E+02 -0.50592188737E+01  0.96621147212E+02  0.92359551770E+02 0.  0.
         11    1    3    3    0    0 -0.27411627646E+02  0.47523196847E+02  0.93580462032E+01  0.55654511028E+02  0.51100000000E-03 0.  1.
         22    1    1    0    0    0 -0.52464381665E+01 -0.27426966228E+02  0.50592188737E+01  0.28378852788E+02  0.00000000000E+00 0.  1.
</event>
<event>
 5    1  0.6650580E-004  0.9118800E+02  0.7818608E-02  0.1130116E+00
         25   -1    0    0    0    0  0.00000000000E+00  0.00000000000E+00  0.99999998245E-14  0.12500000000E+03  0.12500000000E+03 0.  0.
        -11    1    3    3    0    0 -0.20040045078E+02  0.27134286864E+02  0.11299857958E+01  0.33751293286E+02  0.51100000000E-03 0.  1.
         23    2    1    0    0    0  0.13791316863E+02 -0.25306780925E+02  0.11015117887E+01  0.96158243642E+02  0.91730915783E+02 0.  0.
         11    1    3    3    0    0  0.33831361941E+02 -0.52441067789E+02 -0.28474007120E-01  0.62406950355E+02  0.51100000000E-03 0. -1.
         22    1    1    0    0    0 -0.13791316863E+02  0.25306780925E+02 -0.11015117887E+01  0.28841756358E+02  0.00000000000E+00 0. -1.
</event>
<event>
 5    1  0.6650580E-004  0.9118800E+02  0.7818608E-02  0.1130116E+00
         25   -1    0    0    0    0  0.00000000000E+00  0.00000000000E+00  0.99999998245E-14  0.12500000000E+03  0.12500000000E+03 0.  0.
        -11    1    3    3    0    0 -0.13741530668E+02  0.31072698382E+02  0.19418358040E+02  0.39133296296E+02  0.51100000000E-03 0.  1.
         23    2    1    0    0    0  0.28462884128E+02  0.10349318994E+01 -0.44549367172E+01  0.96172004612E+02  0.91749665684E+02 0.  0.
         11    1    3    3    0    0  0.42204414796E+02 -0.30037766482E+02 -0.23873294757E+02  0.57038708316E+02  0.51100000000E-03 0. -1.
         22    1    1    0    0    0 -0.28462884128E+02 -0.10349318994E+01  0.44549367172E+01  0.28827995388E+02  0.00000000000E+00 0. -1.
</event>
<event>
 5    1  0.6650580E-004  0.9118800E+02  0.7818608E-02  0.1130116E+00
         25   -1    0    0    0    0  0.00000000000E+00  0.00000000000E+00  0.99999998245E-14  0.12500000000E+03  0.12500000000E+03 0.  0.
        -11    1    3    3    0    0  0.12189459249E+02 -0.29307923661E+02  0.12665298835E+02  0.34175241051E+02  0.51100000000E-03 0. -1.
         23    2    1    0    0    0  0.58004019514E+01  0.28375202738E+02 -0.65446402993E+01  0.95307760107E+02  0.90564562754E+02 0.  0.
         11    1    3    3    0    0 -0.63890572973E+01  0.57683126399E+02 -0.19209939134E+02  0.61132519056E+02  0.51100000000E-03 0.  1.
         22    1    1    0    0    0 -0.58004019514E+01 -0.28375202738E+02  0.65446402993E+01  0.29692239893E+02  0.00000000000E+00 0.  1.
</event>
<event>
 5    1  0.6650580E-004  0.9118800E+02  0.7818608E-02  0.1130116E+00
         25   -1    0    0    0    0  0.00000000000E+00  0.00000000000E+00  0.99999998245E-14  0.12500000000E+03  0.12500000000E+03 0.  0.
        -11    1    3    3    0    0 -0.31567496848E+02 -0.28997263914E+02 -0.30510628028E+02  0.52614129230E+02  0.51100000000E-03 0. -1.
         23    2    1    0    0    0 -0.13410708423E+02  0.90177345563E+01 -0.25182235554E+02  0.95078241622E+02  0.90247218270E+02 0.  0.
         11    1    3    3    0    0  0.18156788425E+02  0.38014998470E+02  0.53283924743E+01  0.42464112391E+02  0.51100000000E-03 0.  1.
         22    1    1    0    0    0  0.13410708423E+02 -0.90177345563E+01  0.25182235554E+02  0.29921758378E+02  0.00000000000E+00 0. -1.
</event>
<event>
 5    1  0.6650580E-004  0.9118800E+02  0.7818608E-02  0.1130116E+00
         25   -1    0    0    0    0  0.00000000000E+00  0.00000000000E+00  0.99999998245E-14  0.12500000000E+03  0.12500000000E+03 0.  0.
        -11    1    3    3    0    0 -0.30323278234E+02 -0.19902294383E+02  0.22921207182E+02  0.42906692526E+02  0.51100000000E-03 0. -1.
         23    2    1    0    0    0  0.81451653892E+01  0.97858236019E+01  0.30372406764E+02  0.92066898788E+02  0.85975139994E+02 0.  0.
         11    1    3    3    0    0  0.38468443623E+02  0.29688117985E+02  0.74511995826E+01  0.49160206262E+02  0.51100000000E-03 0.  1.
         22    1    1    0    0    0 -0.81451653892E+01 -0.97858236019E+01 -0.30372406764E+02  0.32933101212E+02  0.00000000000E+00 0.  1.
</event>
<event>
 5    1  0.6650580E-004  0.9118800E+02  0.7818608E-02  0.1130116E+00
         25   -1    0    0    0    0  0.00000000000E+00  0.00000000000E+00  0.99999998245E-14  0.12500000000E+03  0.12500000000E+03 0.  0.
        -11    1    3    3    0    0 -0.24195206450E+02 -0.65288806067E+01  0.45765225303E+02  0.52177486951E+02  0.51100000000E-03 0.  1.
         23    2    1    0    0    0 -0.12345301202E+02 -0.26097925511E+02  0.10367631126E+02  0.94324342666E+02  0.89196892695E+02 0.  0.
         11    1    3    3    0    0  0.11849905248E+02 -0.19569044904E+02 -0.35397594177E+02  0.42146855715E+02  0.51100000000E-03 0. -1.
         22    1    1    0    0    0  0.12345301202E+02  0.26097925511E+02 -0.10367631126E+02  0.30675657334E+02  0.00000000000E+00 0.  1.
</event>
<event>
 5    1  0.6650580E-004  0.9118800E+02  0.7818608E-02  0.1130116E+00
         25   -1    0    0    0    0  0.00000000000E+00  0.00000000000E+00  0.99999998245E-14  0.12500000000E+03  0.12500000000E+03 0.  0.
        -11    1    3    3    0    0  0.12477880882E+02  0.20318033472E+02  0.38373240814E+02  0.45177711389E+02  0.51100000000E-03 0. -1.
         23    2    1    0    0    0 -0.25511262620E+02  0.17126550656E+01  0.52640540928E+01  0.98895058450E+02  0.95387444732E+02 0.  0.
         11    1    3    3    0    0 -0.37989143502E+02 -0.18605378407E+02 -0.33109186722E+02  0.53717347061E+02  0.51100000000E-03 0.  1.
         22    1    1    0    0    0  0.25511262620E+02 -0.17126550656E+01 -0.52640540928E+01  0.26104941550E+02  0.00000000000E+00 0.  1.
</event>
<event>
 5    1  0.6650580E-004  0.9118800E+02  0.7818608E-02  0.1130116E+00
         25   -1    0    0    0    0  0.00000000000E+00  0.00000000000E+00  0.99999998245E-14  0.12500000000E+03  0.12500000000E+03 0.  0.
        -11    1    3    3    0    0  0.36697857257E+02  0.55019766607E+01  0.21787667535E+02  0.43031464433E+02  0.51100000000E-03 0. -1.
         23    2    1    0    0    0  0.17067253956E+02  0.17476335655E+02 -0.21765609312E+02  0.92282188120E+02  0.86287583289E+02 0.  0.
         11    1    3    3    0    0 -0.19630603301E+02  0.11974358994E+02 -0.43553276847E+02  0.49250723686E+02  0.51100000000E-03 0.  1.
         22    1    1    0    0    0 -0.17067253956E+02 -0.17476335655E+02  0.21765609312E+02  0.32717811880E+02  0.00000000000E+00 0.  1.
</event>
<event>
 5    1  0.6650580E-004  0.9118800E+02  0.7818608E-02  0.1130116E+00
         25   -1    0    0    0    0  0.00000000000E+00  0.00000000000E+00  0.99999998245E-14  0.12500000000E+03  0.12500000000E+03 0.  0.
        -11    1    3    3    0    0 -0.11090631995E+01  0.14189870313E+02  0.32617847036E+02  0.35588009023E+02  0.51100000000E-03 0. -1.
         23    2    1    0    0    0  0.40732530212E+00  0.15339176243E+01 -0.27708408242E+02  0.97246176759E+02  0.93201631905E+02 0.  0.
         11    1    3    3    0    0  0.15163885016E+01 -0.12655952688E+02 -0.60326255278E+02  0.61658167737E+02  0.51100000000E-03 0.  1.
         22    1    1    0    0    0 -0.40732530212E+00 -0.15339176243E+01  0.27708408242E+02  0.27753823241E+02  0.00000000000E+00 0.  1.
</event>
<event>
 5    1  0.6650580E-004  0.9118800E+02  0.7818608E-02  0.1130116E+00
         25   -1    0    0    0    0  0.00000000000E+00  0.00000000000E+00  0.99999998245E-14  0.12500000000E+03  0.12500000000E+03 0.  0.
        -11    1    3    3    0    0 -0.33097369475E+02 -0.99647964637E+01 -0.62113817596E+01  0.35118574834E+02  0.51100000000E-03 0.  1.
         23    2    1    0    0    0  0.23812822233E+02 -0.10817046775E+02  0.13771776166E+02  0.95441231041E+02  0.90748596464E+02 0.  0.
         11    1    3    3    0    0  0.56910191709E+02 -0.85225031090E+00  0.19983157925E+02  0.60322656207E+02  0.51100000000E-03 0. -1.
         22    1    1    0    0    0 -0.23812822233E+02  0.10817046775E+02 -0.13771776166E+02  0.29558768959E+02  0.00000000000E+00 0. -1.
</event>
<event>
 5    1  0.6650580E-004  0.9118800E+02  0.7818608E-02  0.1130116E+00
         25   -1    0    0    0    0  0.00000000000E+00  0.00000000000E+00  0.99999998245E-14  0.12500000000E+03  0.12500000000E+03 0.  0.
        -11    1    3    3    0    0 -0.30851605710E+02 -0.18446565595E+02 -0.17878256411E+02  0.40146349892E+02  0.51100000000E-03 0.  1.
         23    2    1    0    0    0  0.18591028973E+02 -0.20846712730E+02  0.79201913292E+01  0.95966549970E+02  0.91469325419E+02 0.  0.
         11    1    3    3    0    0  0.49442634683E+02 -0.24001471353E+01  0.25798447740E+02  0.55820200078E+02  0.51100000000E-03 0. -1.
         22    1    1    0    0    0 -0.18591028973E+02  0.20846712730E+02 -0.79201913292E+01  0.29033450030E+02  0.00000000000E+00 0. -1.
</event>
<event>
 5    1  0.6650580E-004  0.9118800E+02  0.7818608E-02  0.1130116E+00
         25   -1    0    0    0    0  0.00000000000E+00  0.00000000000E+00  0.99999998245E-14  0.12500000000E+03  0.12500000000E+03 0.  0.
        -11    1    3    3    0    0  0.26023978781E+02  0.47146360949E+02  0.11376988099E+02  0.55040554873E+02  0.51100000000E-03 0.  1.
         23    2    1    0    0    0  0.29272188441E+02  0.88855593725E+01  0.62084062106E+01  0.93785284092E+02  0.88438232813E+02 0.  0.
         11    1    3    3    0    0  0.32482096605E+01 -0.38260801576E+02 -0.51685818884E+01  0.38744729219E+02  0.51100000000E-03 0. -1.
         22    1    1    0    0    0 -0.29272188441E+02 -0.88855593725E+01 -0.62084062106E+01  0.31214715908E+02  0.00000000000E+00 0.  1.
</event>
<event>
 5    1  0.6650580E-004  0.9118800E+02  0.7818608E-02  0.1130116E+00
         25   -1    0    0    0    0  0.00000000000E+00  0.00000000000E+00  0.99999998245E-14  0.12500000000E+03  0.12500000000E+03 0.  0.
        -11    1    3    3    0    0 -0.17512966601E+02 -0.38323065430E+02  0.37017357313E+02  0.56086059639E+02  0.51100000000E-03 0. -1.
         23    2    1    0    0    0  0.10704827554E+02 -0.13956811444E+02  0.23287991221E+02  0.95815818433E+02  0.91263106502E+02 0.  0.
         11    1    3    3    0    0  0.28217794154E+02  0.24366253987E+02 -0.13729366093E+02  0.39729758794E+02  0.51100000000E-03 0.  1.
         22    1    1    0    0    0 -0.10704827554E+02  0.13956811444E+02 -0.23287991221E+02  0.29184181567E+02  0.00000000000E+00 0. -1.
</event>
<event>
 5    1  0.6650580E-004  0.9118800E+02  0.7818608E-02  0.1130116E+00
         25   -1    0    0    0    0  0.00000000000E+00  0.00000000000E+00  0.99999998245E-14  0.12500000000E+03  0.12500000000E+03 0.  0.
        -11    1    3    3    0    0 -0.42841439176E+02  0.14649314881E+01  0.19036708673E+00  0.42866900691E+02  0.51100000000E-03 0. -1.
         23    2    1    0    0    0 -0.65542005384E+01 -0.10944031231E+01 -0.32532111905E+02  0.91796181426E+02  0.85580636575E+02 0.  0.
         11    1    3    3    0    0  0.36287238638E+02 -0.25593346111E+01 -0.32722478992E+02  0.48929280735E+02  0.51100000000E-03 0.  1.
         22    1    1    0    0    0  0.65542005384E+01  0.10944031231E+01  0.32532111905E+02  0.33203818574E+02  0.00000000000E+00 0. -1.
</event>
<event>
 5    1  0.6650580E-004  0.9118800E+02  0.7818608E-02  0.1130116E+00
         25   -1    0    0    0    0  0.00000000000E+00  0.00000000000E+00  0.99999998245E-14  0.12500000000E+03  0.12500000000E+03 0.  0.
        -11    1    3    3    0    0  0.24839941567E+02  0.97469452652E+01  0.28162322904E+02  0.38796160514E+02  0.51100000000E-03 0. -1.
         23    2    1    0    0    0 -0.27283462949E+02  0.90966536579E+01  0.51265315840E+01  0.95786684811E+02  0.91223194433E+02 0.  0.
         11    1    3    3    0    0 -0.52123404516E+02 -0.65029160730E+00 -0.23035791320E+02  0.56990524296E+02  0.51100000000E-03 0.  1.
         22    1    1    0    0    0  0.27283462949E+02 -0.90966536579E+01 -0.51265315840E+01  0.29213315189E+02  0.00000000000E+00 0.  1.
</event>
<event>
 5    1  0.6650580E-004  0.9118800E+02  0.7818608E-02  0.1130116E+00
         25   -1    0    0    0    0  0.00000000000E+00  0.00000000000E+00  0.99999998245E-14  0.12500000000E+03  0.12500000000E+03 0.  0.
        -11    1    3    3    0    0  0.27227060191E+02 -0.19155215215E+02  0.34915278412E+02  0.48242219512E+02  0.51100000000E-03 0.  1.
         23    2    1    0    0    0 -0.35479919821E+01 -0.29777644936E+02  0.13821543182E+01  0.94979894477E+02  0.90110896229E+02 0.  0.
         11    1    3    3    0    0 -0.30775052173E+02 -0.10622429721E+02 -0.33533124094E+02  0.46737674965E+02  0.51100000000E-03 0. -1.
         22    1    1    0    0    0  0.35479919821E+01  0.29777644936E+02 -0.13821543182E+01  0.30020105523E+02  0.00000000000E+00 0. -1.
</event>
<event>
 5    1  0.6650580E-004  0.9118800E+02  0.7818608E-02  0.1130116E+00
         25   -1    0    0    0    0  0.00000000000E+00  0.00000000000E+00  0.99999998245E-14  0.12500000000E+03  0.12500000000E+03 0.  0.
        -11    1    3    3    0    0  0.84882385136E+01 -0.59832100074E+02  0.65404989403E+01  0.60784114035E+02  0.51100000000E-03 0.  1.
         23    2    1    0    0    0  0.61269687733E+00 -0.25770616672E+02  0.12668687338E+02  0.96277261273E+02  0.91892955760E+02 0.  0.
         11    1    3    3    0    0 -0.78755416363E+01  0.34061483402E+02  0.61281883973E+01  0.35493147238E+02  0.51100000000E-03 0. -1.
         22    1    1    0    0    0 -0.61269687733E+00  0.25770616672E+02 -0.12668687338E+02  0.28722738727E+02  0.00000000000E+00 0.  1.
</event>
<event>
 5    1  0.6650580E-004  0.9118800E+02  0.7818608E-02  0.1130116E+00
         25   -1    0    0    0    0  0.00000000000E+00  0.00000000000E+00  0.99999998245E-14  0.12500000000E+03  0.12500000000E+03 0.  0.
        -11    1    3    3    0    0 -0.27180740857E+02  0.13315473769E+02 -0.30427173841E+02  0.42917448939E+02  0.51100000000E-03 0. -1.
         23    2    1    0    0    0 -0.99041559984E+01 -0.26995929236E+02 -0.91039418850E-01  0.96244465062E+02  0.91848332950E+02 0.  0.
         11    1    3    3    0    0  0.17276584859E+02 -0.40311403005E+02  0.30336134423E+02  0.53327016123E+02  0.51100000000E-03 0.  1.
         22    1    1    0    0    0  0.99041559984E+01  0.26995929236E+02  0.91039418850E-01  0.28755534938E+02  0.00000000000E+00 0.  1.
</event>
<event>
 5    1  0.6650580E-004  0.9118800E+02  0.7818608E-02  0.1130116E+00
         25   -1    0    0    0    0  0.00000000000E+00  0.00000000000E+00  0.99999998245E-14  0.12500000000E+03  0.12500000000E+03 0.  0.
        -11    1    3    3    0    0  0.11879755626E+02  0.19119486062E+01  0.44668707229E+02  0.46260972179E+02  0.51100000000E-03 0.  1.
         23    2    1    0    0    0 -0.10816251358E+02  0.28130965085E+02  0.19660083698E+02  0.89015817627E+02  0.81418391085E+02 0.  0.
         11    1    3    3    0    0 -0.22696006983E+02  0.26219016479E+02 -0.25008623531E+02  0.42754845448E+02  0.51100000000E-03 0. -1.
         22    1    1    0    0    0  0.10816251358E+02 -0.28130965085E+02 -0.19660083698E+02  0.35984182373E+02  0.00000000000E+00 0.  1.
</event>
<event>
 5    1  0.6650580E-004  0.9118800E+02  0.7818608E-02  0.1130116E+00
         25   -1    0    0    0    0  0.00000000000E+00  0.00000000000E+00  0.99999998245E-14  0.12500000000E+03  0.12500000000E+03 0.  0.
        -11    1    3    3    0    0  0.25777058368E+02 -0.20375798043E+02  0.22314313668E+02  0.39718490388E+02  0.51100000000E-03 0.  1.
         23    2    1    0    0    0 -0.90789523626E+01 -0.21803533316E+02 -0.19640723879E+02  0.94282261224E+02  0.89137900502E+02 0.  0.
         11    1    3    3    0    0 -0.34856010730E+02 -0.14277352725E+01 -0.41955037546E+02  0.54563770836E+02  0.51100000000E-03 0. -1.
         22    1    1    0    0    0  0.90789523626E+01  0.21803533316E+02  0.19640723879E+02  0.30717738776E+02  0.00000000000E+00 0. -1.
</event>
<event>
 5    1  0.6650580E-004  0.9118800E+02  0.7818608E-02  0.1130116E+00
         25   -1    0    0    0    0  0.00000000000E+00  0.00000000000E+00  0.99999998245E-14  0.12500000000E+03  0.12500000000E+03 0.  0.
        -11    1    3    3    0    0  0.33415086027E+02  0.24938037120E+02 -0.32154828851E+01  0.41818811557E+02  0.51100000000E-03 0. -1.
         23    2    1    0    0    0  0.23308583158E+02 -0.22929458573E+02 -0.90136533521E+01  0.91083985110E+02  0.84533994804E+02 0.  0.
         11    1    3    3    0    0 -0.10106502869E+02 -0.47867495693E+02 -0.57981704670E+01  0.49265173553E+02  0.51100000000E-03 0.  1.
         22    1    1    0    0    0 -0.23308583158E+02  0.22929458573E+02  0.90136533521E+01  0.33916014890E+02  0.00000000000E+00 0.  1.
</event>
<event>
 5    1  0.6650580E-004  0.9118800E+02  0.7818608E-02  0.1130116E+00
         25   -1    0    0    0    0  0.00000000000E+00  0.00000000000E+00  0.99999998245E-14  0.12500000000E+03  0.12500000000E+03 0.  0.
        -11    1    3    3    0    0 -0.11217586211E+02 -0.25048388378E+02 -0.18762922492E+02  0.33246101447E+02  0.51100000000E-03 0. -1.
         23    2    1    0    0    0  0.71311897019E+00  0.32840185818E+01  0.32125379580E+02  0.92699329266E+02  0.86889771070E+02 0.  0.
         11    1    3    3    0    0  0.11930705181E+02  0.28332406959E+02  0.50888302071E+02  0.59453227820E+02  0.51100000000E-03 0.  1.
         22    1    1    0    0    0 -0.71311897019E+00 -0.32840185818E+01 -0.32125379580E+02  0.32300670734E+02  0.00000000000E+00 0.  1.
</event>
<event>
 5    1  0.6650580E-004  0.9118800E+02  0.7818608E-02  0.1130116E+00
         25   -1    0    0    0    0  0.00000000000E+00  0.00000000000E+00  0.99999998245E-14  0.12500000000E+03  0.12500000000E+03 0.  0.
        -11    1    3    3    0    0 -0.16365013428E+02  0.17072936229E+02  0.40951906309E+02  0.47290141114E+02  0.51100000000E-03 0. -1.
         23    2    1    0    0    0  0.99341250347E+01  0.19716812286E+02  0.45794026034E+02  0.74161703930E+02  0.53994684761E+02 0.  0.
         11    1    3    3    0    0  0.26299138463E+02  0.26438760569E+01  0.48421197248E+01  0.26871562816E+02  0.51100000000E-03 0.  1.
         22    1    1    0    0    0 -0.99341250347E+01 -0.19716812286E+02 -0.45794026034E+02  0.50838296070E+02  0.00000000000E+00 0. -1.
</event>
<event>
 5    1  0.6650580E-004  0.9118800E+02  0.7818608E-02  0.1130116E+00
         25   -1    0    0    0    0  0.00000000000E+00  0.00000000000E+00  0.99999998245E-14  0.12500000000E+03  0.12500000000E+03 0.  0.
        -11    1    3    3    0    0  0.41677651052E+02  0.34525762044E+02  0.13025899258E+02  0.55666227586E+02  0.51100000000E-03 0. -1.
         23    2    1    0    0    0  0.17137028928E+02  0.18820783836E+02  0.26925473241E+02  0.87947594222E+02  0.79761510489E+02 0.  0.
         11    1    3    3    0    0 -0.24540622124E+02 -0.15704978208E+02  0.13899573983E+02  0.32281366636E+02  0.51100000000E-03 0.  1.
         22    1    1    0    0    0 -0.17137028928E+02 -0.18820783836E+02 -0.26925473241E+02  0.37052405778E+02  0.00000000000E+00 0. -1.
</event>
<event>
 5    1  0.6650580E-004  0.9118800E+02  0.7818608E-02  0.1130116E+00
         25   -1    0    0    0    0  0.00000000000E+00  0.00000000000E+00  0.99999998245E-14  0.12500000000E+03  0.12500000000E+03 0.  0.
        -11    1    3    3    0    0 -0.36294447804E+02 -0.35489812054E+02  0.35876754594E+02  0.62160720889E+02  0.51100000000E-03 0.  1.
         23    2    1    0    0    0 -0.22869987504E+02 -0.16000816114E+02  0.20149880919E+02  0.90575006960E+02  0.83777990786E+02 0.  0.
         11    1    3    3    0    0  0.13424460300E+02  0.19488995940E+02 -0.15726873675E+02  0.28414286071E+02  0.51100000000E-03 0. -1.
         22    1    1    0    0    0  0.22869987504E+02  0.16000816114E+02 -0.20149880919E+02  0.34424993040E+02  0.00000000000E+00 0.  1.
</event>
<event>
 5    1  0.6650580E-004  0.9118800E+02  0.7818608E-02  0.1130116E+00
         25   -1    0    0    0    0  0.00000000000E+00  0.00000000000E+00  0.99999998245E-14  0.12500000000E+03  0.12500000000E+03 0.  0.
        -11    1    3    3    0    0 -0.32147503446E+02  0.26986654493E+02  0.13729527069E+02  0.44161537704E+02  0.51100000000E-03 0.  1.
         23    2    1    0    0    0  0.11980870275E+02  0.50278265251E+00  0.25380360498E+02  0.96929432818E+02  0.92775849252E+02 0.  0.
         11    1    3    3    0    0  0.44128373721E+02 -0.26483871841E+02  0.11650833429E+02  0.52767895114E+02  0.51100000000E-03 0. -1.
         22    1    1    0    0    0 -0.11980870275E+02 -0.50278265251E+00 -0.25380360498E+02  0.28070567182E+02  0.00000000000E+00 0. -1.
</event>
<event>
 5    1  0.6650580E-004  0.9118800E+02  0.7818608E-02  0.1130116E+00
         25   -1    0    0    0    0  0.00000000000E+00  0.00000000000E+00  0.99999998245E-14  0.12500000000E+03  0.12500000000E+03 0.  0.
        -11    1    3    3    0    0  0.14908865476E+02  0.26588968432E+02 -0.15563529059E+02  0.34226757794E+02  0.51100000000E-03 0. -1.
         23    2    1    0    0    0 -0.23393813913E+02 -0.11441186664E+02  0.13646337789E+02  0.95599424891E+02  0.90966236719E+02 0.  0.
         11    1    3    3    0    0 -0.38302679390E+02 -0.38030155096E+02  0.29209866848E+02  0.61372667097E+02  0.51100000000E-03 0.  1.
         22    1    1    0    0    0  0.23393813913E+02  0.11441186664E+02 -0.13646337789E+02  0.29400575109E+02  0.00000000000E+00 0.  1.
</event>
<event>
 5    1  0.6650580E-004  0.9118800E+02  0.7818608E-02  0.1130116E+00
         25   -1    0    0    0    0  0.00000000000E+00  0.00000000000E+00  0.99999998245E-14  0.12500000000E+03  0.12500000000E+03 0.  0.
        -11    1    3    3    0    0  0.36007612206E+02 -0.24404617768E+02  0.76195830734E+01  0.44160973174E+02  0.51100000000E-03 0.  1.
         23    2    1    0    0    0 -0.11680074263E+02 -0.21208147819E+02 -0.14448910345E+02  0.96804598267E+02  0.92607502757E+02 0.  0.
         11    1    3    3    0    0 -0.47687686470E+02  0.31964699491E+01 -0.22068493418E+02  0.52643625093E+02  0.51100000000E-03 0. -1.
         22    1    1    0    0    0  0.11680074263E+02  0.21208147819E+02  0.14448910345E+02  0.28195401733E+02  0.00000000000E+00 0.  1.
</event>
<event>
 5    1  0.6650580E-004  0.9118800E+02  0.7818608E-02  0.1130116E+00
         25   -1    0    0    0    0  0.00000000000E+00  0.00000000000E+00  0.99999998245E-14  0.12500000000E+03  0.12500000000E+03 0.  0.
        -11    1    3    3    0    0  0.13510207637E+02  0.25533348497E+02 -0.26105299062E+02  0.38935385387E+02  0.51100000000E-03 0. -1.
         23    2    1    0    0    0  0.14918452002E+02 -0.25517408217E+02 -0.20969531870E+01  0.95367323021E+02  0.90646736043E+02 0.  0.
         11    1    3    3    0    0  0.14082443642E+01 -0.51050756714E+02  0.24008345875E+02  0.56431937634E+02  0.51100000000E-03 0.  1.
         22    1    1    0    0    0 -0.14918452002E+02  0.25517408217E+02  0.20969531870E+01  0.29632676979E+02  0.00000000000E+00 0.  1.
</event>
<event>
 5    1  0.6650580E-004  0.9118800E+02  0.7818608E-02  0.1130116E+00
         25   -1    0    0    0    0  0.00000000000E+00  0.00000000000E+00  0.99999998245E-14  0.12500000000E+03  0.12500000000E+03 0.  0.
        -11    1    3    3    0    0 -0.38804638331E+01  0.55873983877E+02  0.27530724814E+02  0.62409141020E+02  0.51100000000E-03 0.  1.
         23    2    1    0    0    0  0.31744400519E+00  0.27058263791E+02  0.12223275211E+02  0.95307259020E+02  0.90563871135E+02 0.  0.
         11    1    3    3    0    0  0.41979078382E+01 -0.28815720086E+02 -0.15307449603E+02  0.32898118000E+02  0.51100000000E-03 0. -1.
         22    1    1    0    0    0 -0.31744400519E+00 -0.27058263791E+02 -0.12223275211E+02  0.29692740980E+02  0.00000000000E+00 0.  1.
</event>
<event>
 5    1  0.6650580E-004  0.9118800E+02  0.7818608E-02  0.1130116E+00
         25   -1    0    0    0    0  0.00000000000E+00  0.00000000000E+00  0.99999998245E-14  0.12500000000E+03  0.12500000000E+03 0.  0.
        -11    1    3    3    0    0 -0.19352196384E+02  0.39189324652E+02  0.25810399738E+02  0.50759111561E+02  0.51100000000E-03 0.  1.
         23    2    1    0    0    0 -0.91394282446E+01  0.29343207753E+02 -0.12659442288E+02  0.91761250491E+02  0.85529600857E+02 0.  0.
         11    1    3    3    0    0  0.10212768139E+02 -0.98461168991E+01 -0.38469842026E+02  0.41002138930E+02  0.51100000000E-03 0. -1.
         22    1    1    0    0    0  0.91394282446E+01 -0.29343207753E+02  0.12659442288E+02  0.33238749509E+02  0.00000000000E+00 0.  1.
</event>
<event>
 5    1  0.6650580E-004  0.9118800E+02  0.7818608E-02  0.1130116E+00
         25   -1    0    0    0    0  0.00000000000E+00  0.00000000000E+00  0.99999998245E-14  0.12500000000E+03  0.12500000000E+03 0.  0.
        -11    1    3    3    0    0  0.39544855958E+02  0.10260200849E+02 -0.21550639072E+02  0.46189797562E+02  0.51100000000E-03 0. -1.
         23    2    1    0    0    0  0.15785628808E+02 -0.23513888979E+02  0.62853866851E+01  0.95989740822E+02  0.91501012046E+02 0.  0.
         11    1    3    3    0    0 -0.23759227149E+02 -0.33774089828E+02  0.27836025757E+02  0.49799943260E+02  0.51100000000E-03 0.  1.
         22    1    1    0    0    0 -0.15785628808E+02  0.23513888979E+02 -0.62853866851E+01  0.29010259178E+02  0.00000000000E+00 0.  1.
</event>
<event>
 5    1  0.6650580E-004  0.9118800E+02  0.7818608E-02  0.1130116E+00
         25   -1    0    0    0    0  0.00000000000E+00  0.00000000000E+00  0.99999998245E-14  0.12500000000E+03  0.12500000000E+03 0.  0.
        -11    1    3    3    0    0 -0.12497540808E+02  0.14215505802E+02 -0.37818857971E+02  0.42291076481E+02  0.51100000000E-03 0.  1.
         23    2    1    0    0    0 -0.19883758194E+02  0.14501404659E+02  0.15365746122E+02  0.95986886915E+02  0.91497113227E+02 0.  0.
         11    1    3    3    0    0 -0.73862173863E+01  0.28589885669E+00  0.53184604093E+02  0.53695810434E+02  0.51100000000E-03 0. -1.
         22    1    1    0    0    0  0.19883758194E+02 -0.14501404659E+02 -0.15365746122E+02  0.29013113085E+02  0.00000000000E+00 0. -1.
</event>
<event>
 5    1  0.6650580E-004  0.9118800E+02  0.7818608E-02  0.1130116E+00
         25   -1    0    0    0    0  0.00000000000E+00  0.00000000000E+00  0.99999998245E-14  0.12500000000E+03  0.12500000000E+03 0.  0.
        -11    1    3    3    0    0  0.38168827596E+02 -0.13564791279E+02 -0.84139032043E+00  0.40516304131E+02  0.51100000000E-03 0.  1.
         23    2    1    0    0    0  0.36465171242E+01  0.28355381711E+02 -0.80529402759E+01  0.95298575687E+02  0.90551885247E+02 0.  0.
         11    1    3    3    0    0 -0.34522310472E+02  0.41920172990E+02 -0.72115499555E+01  0.54782271556E+02  0.51100000000E-03 0. -1.
         22    1    1    0    0    0 -0.36465171242E+01 -0.28355381711E+02  0.80529402759E+01  0.29701424313E+02  0.00000000000E+00 0. -1.
</event>
<event>
 5    1  0.6650580E-004  0.9118800E+02  0.7818608E-02  0.1130116E+00
         25   -1    0    0    0    0  0.00000000000E+00  0.00000000000E+00  0.99999998245E-14  0.12500000000E+03  0.12500000000E+03 0.  0.
        -11    1    3    3    0    0 -0.50950851528E+02  0.10806993396E+02  0.97579817986E+01  0.52990551863E+02  0.51100000000E-03 0.  1.
         23    2    1    0    0    0 -0.21161365246E+02 -0.20356484236E+01 -0.19109300428E+02  0.96414818411E+02  0.92079881640E+02 0.  0.
         11    1    3    3    0    0  0.29789486282E+02 -0.12842641820E+02 -0.28867282227E+02  0.43424266548E+02  0.51100000000E-03 0. -1.
         22    1    1    0    0    0  0.21161365246E+02  0.20356484236E+01  0.19109300428E+02  0.28585181589E+02  0.00000000000E+00 0.  1.
</event>
<event>
 5    1  0.6650580E-004  0.9118800E+02  0.7818608E-02  0.1130116E+00
         25   -1    0    0    0    0  0.00000000000E+00  0.00000000000E+00  0.99999998245E-14  0.12500000000E+03  0.12500000000E+03 0.  0.
        -11    1    3    3    0    0  0.16019612994E+02 -0.11184104827E+02  0.58112435274E+02  0.61308786768E+02  0.51100000000E-03 0. -1.
         23    2    1    0    0    0  0.79375106227E+01 -0.13549854928E+02  0.24985426471E+02  0.95489422585E+02  0.90814952768E+02 0.  0.
         11    1    3    3    0    0 -0.80821023716E+01 -0.23657501016E+01 -0.33127008803E+02  0.34180635816E+02  0.51100000000E-03 0.  1.
         22    1    1    0    0    0 -0.79375106227E+01  0.13549854928E+02 -0.24985426471E+02  0.29510577415E+02  0.00000000000E+00 0. -1.
</event>
<event>
 5    1  0.6650580E-004  0.9118800E+02  0.7818608E-02  0.1130116E+00
         25   -1    0    0    0    0  0.00000000000E+00  0.00000000000E+00  0.99999998245E-14  0.12500000000E+03  0.12500000000E+03 0.  0.
        -11    1    3    3    0    0 -0.84842566121E+01  0.39610559548E+02  0.26364417894E+02  0.48332820828E+02  0.51100000000E-03 0. -1.
         23    2    1    0    0    0 -0.27878358825E+02  0.31697936270E+01  0.20985976760E+02  0.89961996304E+02  0.82858307225E+02 0.  0.
         11    1    3    3    0    0 -0.19394102213E+02 -0.36440765921E+02 -0.53784411345E+01  0.41629175477E+02  0.51100000000E-03 0.  1.
         22    1    1    0    0    0  0.27878358825E+02 -0.31697936270E+01 -0.20985976760E+02  0.35038003696E+02  0.00000000000E+00 0. -1.
</event>
<event>
 5    1  0.6650580E-004  0.9118800E+02  0.7818608E-02  0.1130116E+00
         25   -1    0    0    0    0  0.00000000000E+00  0.00000000000E+00  0.99999998245E-14  0.12500000000E+03  0.12500000000E+03 0.  0.
        -11    1    3    3    0    0 -0.20101223257E+02 -0.85821430347E+01  0.41405923077E+02  0.46820538460E+02  0.51100000000E-03 0.  1.
         23    2    1    0    0    0  0.22641873129E+02 -0.37720687920E+01  0.18282272204E+02  0.95655078826E+02  0.91042680687E+02 0.  0.
         11    1    3    3    0    0  0.42743096386E+02  0.48100742427E+01 -0.23123650873E+02  0.48834540367E+02  0.51100000000E-03 0. -1.
         22    1    1    0    0    0 -0.22641873129E+02  0.37720687920E+01 -0.18282272204E+02  0.29344921174E+02  0.00000000000E+00 0. -1.
</event>
<event>
 5    1  0.6650580E-004  0.9118800E+02  0.7818608E-02  0.1130116E+00
         25   -1    0    0    0    0  0.00000000000E+00  0.00000000000E+00  0.99999998245E-14  0.12500000000E+03  0.12500000000E+03 0.  0.
        -11    1    3    3    0    0  0.24773557501E+02  0.84075486382E+01 -0.23775659169E+02  0.35351067799E+02  0.51100000000E-03 0.  1.
         23    2    1    0    0    0 -0.18425618966E+02  0.73574489009E+01  0.19976489396E+02  0.96845149313E+02  0.92662221688E+02 0.  0.
         11    1    3    3    0    0 -0.43199176467E+02 -0.10500997373E+01  0.43752148565E+02  0.61494081514E+02  0.51100000000E-03 0. -1.
         22    1    1    0    0    0  0.18425618966E+02 -0.73574489009E+01 -0.19976489396E+02  0.28154850687E+02  0.00000000000E+00 0. -1.
</event>
<event>
 5    1  0.6650580E-004  0.9118800E+02  0.7818608E-02  0.1130116E+00
         25   -1    0    0    0    0  0.00000000000E+00  0.00000000000E+00  0.99999998245E-14  0.12500000000E+03  0.12500000000E+03 0.  0.
        -11    1    3    3    0    0 -0.59365279044E+01 -0.36831682382E+02  0.97832175855E+00  0.37319864742E+02  0.51100000000E-03 0. -1.
         23    2    1    0    0    0 -0.41634563556E+01  0.17925270856E+02  0.22281533967E+02  0.96101618384E+02  0.91653721125E+02 0.  0.
         11    1    3    3    0    0  0.17730715488E+01  0.54756953238E+02  0.21303212208E+02  0.58781753642E+02  0.51100000000E-03 0.  1.
         22    1    1    0    0    0  0.41634563556E+01 -0.17925270856E+02 -0.22281533967E+02  0.28898381616E+02  0.00000000000E+00 0.  1.
</event>
<event>
 5    1  0.6650580E-004  0.9118800E+02  0.7818608E-02  0.1130116E+00
         25   -1    0    0    0    0  0.00000000000E+00  0.00000000000E+00  0.99999998245E-14  0.12500000000E+03  0.12500000000E+03 0.  0.
        -11    1    3    3    0    0  0.18351662251E+02  0.16608503276E+02 -0.10266932808E+02  0.26796189990E+02  0.51100000000E-03 0.  1.
         23    2    1    0    0    0 -0.14587649308E+02 -0.31058471310E+02  0.11677974886E+02  0.88753576040E+02  0.81014776491E+02 0.  0.
         11    1    3    3    0    0 -0.32939311559E+02 -0.47666974586E+02  0.21944907694E+02  0.61957386050E+02  0.51100000000E-03 0. -1.
         22    1    1    0    0    0  0.14587649308E+02  0.31058471310E+02 -0.11677974886E+02  0.36246423960E+02  0.00000000000E+00 0. -1.
</event>
<event>
 5    1  0.6650580E-004  0.9118800E+02  0.7818608E-02  0.1130116E+00
         25   -1    0    0    0    0  0.00000000000E+00  0.00000000000E+00  0.99999998245E-14  0.12500000000E+03  0.12500000000E+03 0.  0.
        -11    1    3    3    0    0  0.56460706744E+02  0.12820670647E+02 -0.19205126305E+02  0.61000146545E+02  0.51100000000E-03 0. -1.
         23    2    1    0    0    0  0.27933303658E+02 -0.31235157280E+00 -0.15634199299E+01  0.97021234863E+02  0.92899454873E+02 0.  0.
         11    1    3    3    0    0 -0.28527403086E+02 -0.13133022220E+02  0.17641706376E+02  0.36021088317E+02  0.51100000000E-03 0.  1.
         22    1    1    0    0    0 -0.27933303658E+02  0.31235157280E+00  0.15634199299E+01  0.27978765137E+02  0.00000000000E+00 0. -1.
</event>
<event>
 5    1  0.6650580E-004  0.9118800E+02  0.7818608E-02  0.1130116E+00
         25   -1    0    0    0    0  0.00000000000E+00  0.00000000000E+00  0.99999998245E-14  0.12500000000E+03  0.12500000000E+03 0.  0.
        -11    1    3    3    0    0  0.25522045031E+01 -0.12028125843E+02 -0.54682841805E+02  0.56048218056E+02  0.51100000000E-03 0.  1.
         23    2    1    0    0    0 -0.10145508363E+02 -0.20769162602E+02 -0.18447454631E+02  0.95426396271E+02  0.90728160280E+02 0.  0.
         11    1    3    3    0    0 -0.12697712866E+02 -0.87410367591E+01  0.36235387174E+02  0.39378178215E+02  0.51100000000E-03 0. -1.
         22    1    1    0    0    0  0.10145508363E+02  0.20769162602E+02  0.18447454631E+02  0.29573603729E+02  0.00000000000E+00 0.  1.
</event>
<event>
 5    1  0.6650580E-004  0.9118800E+02  0.7818608E-02  0.1130116E+00
         25   -1    0    0    0    0  0.00000000000E+00  0.00000000000E+00  0.99999998245E-14  0.12500000000E+03  0.12500000000E+03 0.  0.
        -11    1    3    3    0    0 -0.51991979559E+02 -0.15197170762E+01  0.25346253922E+02  0.57861110139E+02  0.51100000000E-03 0.  1.
         23    2    1    0    0    0 -0.26815602824E+02 -0.26624255572E+01 -0.52970198680E+01  0.97536870460E+02  0.93590691925E+02 0.  0.
         11    1    3    3    0    0  0.25176376735E+02 -0.11427084810E+01 -0.30643273790E+02  0.39675760320E+02  0.51100000000E-03 0. -1.
         22    1    1    0    0    0  0.26815602824E+02  0.26624255572E+01  0.52970198680E+01  0.27463129540E+02  0.00000000000E+00 0. -1.
</event>
<event>
 5    1  0.6650580E-004  0.9118800E+02  0.7818608E-02  0.1130116E+00
         25   -1    0    0    0    0  0.00000000000E+00  0.00000000000E+00  0.99999998245E-14  0.12500000000E+03  0.12500000000E+03 0.  0.
        -11    1    3    3    0    0  0.31759449865E+02 -0.24153862930E+02 -0.22444399012E+02  0.45780157246E+02  0.51100000000E-03 0. -1.
         23    2    1    0    0    0  0.84902547553E+01  0.19641580489E+02 -0.20431275822E+02  0.95414308498E+02  0.90711504919E+02 0.  0.
         11    1    3    3    0    0 -0.23269195109E+02  0.43795443419E+02  0.20131231896E+01  0.49634151253E+02  0.51100000000E-03 0.  1.
         22    1    1    0    0    0 -0.84902547553E+01 -0.19641580489E+02  0.20431275822E+02  0.29585691502E+02  0.00000000000E+00 0. -1.
</event>
<event>
 5    1  0.6650580E-004  0.9118800E+02  0.7818608E-02  0.1130116E+00
         25   -1    0    0    0    0  0.00000000000E+00  0.00000000000E+00  0.99999998245E-14  0.12500000000E+03  0.12500000000E+03 0.  0.
        -11    1    3    3    0    0 -0.16864480662E+02  0.10911648429E+02  0.25786041349E+02  0.32686307656E+02  0.51100000000E-03 0.  1.
         23    2    1    0    0    0 -0.27853786166E+02 -0.24490310221E+02 -0.12388187100E+02  0.85896600172E+02  0.76479736160E+02 0.  0.
         11    1    3    3    0    0 -0.10989305504E+02 -0.35401958650E+02 -0.38174228449E+02  0.53210292516E+02  0.51100000000E-03 0. -1.
         22    1    1    0    0    0  0.27853786166E+02  0.24490310221E+02  0.12388187100E+02  0.39103399828E+02  0.00000000000E+00 0. -1.
</event>
<event>
 5    1  0.6650580E-004  0.9118800E+02  0.7818608E-02  0.1130116E+00
         25   -1    0    0    0    0  0.00000000000E+00  0.00000000000E+00  0.99999998245E-14  0.12500000000E+03  0.12500000000E+03 0.  0.
        -11    1    3    3    0    0 -0.18597102779E+02 -0.33537359083E+02  0.10958008277E+02  0.39883387917E+02  0.51100000000E-03 0. -1.
         23    2    1    0    0    0 -0.16612086723E+02  0.20064270305E+02  0.17051207128E+02  0.93866737519E+02  0.88553285539E+02 0.  0.
         11    1    3    3    0    0  0.19850160565E+01  0.53601629388E+02  0.60931988518E+01  0.53983349603E+02  0.51100000000E-03 0.  1.
         22    1    1    0    0    0  0.16612086723E+02 -0.20064270305E+02 -0.17051207128E+02  0.31133262481E+02  0.00000000000E+00 0.  1.
</event>
<event>
 5    1  0.6650580E-004  0.9118800E+02  0.7818608E-02  0.1130116E+00
         25   -1    0    0    0    0  0.00000000000E+00  0.00000000000E+00  0.99999998245E-14  0.12500000000E+03  0.12500000000E+03 0.  0.
        -11    1    3    3    0    0  0.27036032098E+02 -0.26634913990E+01  0.23642848715E+02  0.36014240429E+02  0.51100000000E-03 0. -1.
         23    2    1    0    0    0 -0.12694857997E+02 -0.18887565474E+02 -0.18130054469E+02  0.95903635551E+02  0.91383307490E+02 0.  0.
         11    1    3    3    0    0 -0.39730890095E+02 -0.16224074075E+02 -0.41772903185E+02  0.59889395122E+02  0.51100000000E-03 0.  1.
         22    1    1    0    0    0  0.12694857997E+02  0.18887565474E+02  0.18130054469E+02  0.29096364449E+02  0.00000000000E+00 0.  1.
</event>
<event>
 5    1  0.6650580E-004  0.9118800E+02  0.7818608E-02  0.1130116E+00
         25   -1    0    0    0    0  0.00000000000E+00  0.00000000000E+00  0.99999998245E-14  0.12500000000E+03  0.12500000000E+03 0.  0.
        -11    1    3    3    0    0 -0.49174142928E+02  0.17090458029E+02  0.74902771253E+01  0.52595478323E+02  0.51100000000E-03 0.  1.
         23    2    1    0    0    0 -0.40340491995E+01  0.22701098318E+02 -0.79177186873E+01  0.10062165537E+03  0.97623838492E+02 0.  0.
         11    1    3    3    0    0  0.45140093729E+02  0.56106402892E+01 -0.15407995813E+02  0.48026177045E+02  0.51100000000E-03 0. -1.
         22    1    1    0    0    0  0.40340491995E+01 -0.22701098318E+02  0.79177186873E+01  0.24378344632E+02  0.00000000000E+00 0.  1.
</event>
<event>
 5    1  0.6650580E-004  0.9118800E+02  0.7818608E-02  0.1130116E+00
         25   -1    0    0    0    0  0.00000000000E+00  0.00000000000E+00  0.99999998245E-14  0.12500000000E+03  0.12500000000E+03 0.  0.
        -11    1    3    3    0    0 -0.16462864535E+02  0.35947073239E+02  0.35500004060E+02  0.53136317822E+02  0.51100000000E-03 0. -1.
         23    2    1    0    0    0 -0.24273669175E+02  0.14846573627E+02 -0.15727532648E+01  0.96502538421E+02  0.92198886138E+02 0.  0.
         11    1    3    3    0    0 -0.78108046391E+01 -0.21100499613E+02 -0.37072757325E+02  0.43366220598E+02  0.51100000000E-03 0.  1.
         22    1    1    0    0    0  0.24273669175E+02 -0.14846573627E+02  0.15727532648E+01  0.28497461579E+02  0.00000000000E+00 0. -1.
</event>
<event>
 5    1  0.6650580E-004  0.9118800E+02  0.7818608E-02  0.1130116E+00
         25   -1    0    0    0    0  0.00000000000E+00  0.00000000000E+00  0.99999998245E-14  0.12500000000E+03  0.12500000000E+03 0.  0.
        -11    1    3    3    0    0  0.31945641295E+02 -0.75461197778E+00  0.78506608653E+01  0.32904806841E+02  0.51100000000E-03 0.  1.
         23    2    1    0    0    0 -0.28728819435E+02 -0.42868618081E+01 -0.62317139752E+01  0.95292147345E+02  0.90543010974E+02 0.  0.
         11    1    3    3    0    0 -0.60674460730E+02 -0.35322498303E+01 -0.14082374841E+02  0.62387340504E+02  0.51100000000E-03 0. -1.
         22    1    1    0    0    0  0.28728819435E+02  0.42868618081E+01  0.62317139752E+01  0.29707852655E+02  0.00000000000E+00 0. -1.
</event>
<event>
 5    1  0.6650580E-004  0.9118800E+02  0.7818608E-02  0.1130116E+00
         25   -1    0    0    0    0  0.00000000000E+00  0.00000000000E+00  0.99999998245E-14  0.12500000000E+03  0.12500000000E+03 0.  0.
        -11    1    3    3    0    0  0.28396190640E+02  0.46769822388E+01  0.31068659157E+02  0.42349490998E+02  0.51100000000E-03 0. -1.
         23    2    1    0    0    0 -0.20247494635E+02 -0.82745971255E+01  0.22875133509E+02  0.93350328128E+02  0.87821307391E+02 0.  0.
         11    1    3    3    0    0 -0.48643685275E+02 -0.12951579364E+02 -0.81935256476E+01  0.51000837130E+02  0.51100000000E-03 0.  1.
         22    1    1    0    0    0  0.20247494635E+02  0.82745971255E+01 -0.22875133509E+02  0.31649671872E+02  0.00000000000E+00 0. -1.
</event>
<event>
 5    1  0.6650580E-004  0.9118800E+02  0.7818608E-02  0.1130116E+00
         25   -1    0    0    0    0  0.00000000000E+00  0.00000000000E+00  0.99999998245E-14  0.12500000000E+03  0.12500000000E+03 0.  0.
        -11    1    3    3    0    0 -0.75440467623E+01 -0.25444097354E+02 -0.19738181249E+02  0.33074318300E+02  0.51100000000E-03 0. -1.
         23    2    1    0    0    0 -0.90433455693E+01  0.10814679931E+02  0.28361415975E+02  0.93328098933E+02  0.87789661881E+02 0.  0.
         11    1    3    3    0    0 -0.14992988070E+01  0.36258777286E+02  0.48099597224E+02  0.60253780633E+02  0.51100000000E-03 0.  1.
         22    1    1    0    0    0  0.90433455693E+01 -0.10814679931E+02 -0.28361415975E+02  0.31671901067E+02  0.00000000000E+00 0.  1.
</event>
<event>
 5    1  0.6650580E-004  0.9118800E+02  0.7818608E-02  0.1130116E+00
         25   -1    0    0    0    0  0.00000000000E+00  0.00000000000E+00  0.99999998245E-14  0.12500000000E+03  0.12500000000E+03 0.  0.
        -11    1    3    3    0    0 -0.54837601977E+01  0.16877755085E+02 -0.45607981161E+02  0.48938923042E+02  0.51100000000E-03 0.  1.
         23    2    1    0    0    0  0.22555813196E+01  0.29061742014E+02 -0.98951408824E+00  0.95834067234E+02  0.91288097847E+02 0.  0.
         11    1    3    3    0    0  0.77393415173E+01  0.12183986929E+02  0.44618467073E+02  0.46895144193E+02  0.51100000000E-03 0. -1.
         22    1    1    0    0    0 -0.22555813196E+01 -0.29061742014E+02  0.98951408824E+00  0.29165932766E+02  0.00000000000E+00 0. -1.
</event>
<event>
 5    1  0.6650580E-004  0.9118800E+02  0.7818608E-02  0.1130116E+00
         25   -1    0    0    0    0  0.00000000000E+00  0.00000000000E+00  0.99999998245E-14  0.12500000000E+03  0.12500000000E+03 0.  0.
        -11    1    3    3    0    0  0.82587398174E+01 -0.12515709278E+02 -0.31569404667E+02  0.34949636241E+02  0.51100000000E-03 0.  1.
         23    2    1    0    0    0  0.10632128188E+02  0.24839799167E+01  0.27221601534E+02  0.95670358064E+02  0.91063656394E+02 0.  0.
         11    1    3    3    0    0  0.23733883704E+01  0.14999689195E+02  0.58791006201E+02  0.60720721823E+02  0.51100000000E-03 0. -1.
         22    1    1    0    0    0 -0.10632128188E+02 -0.24839799167E+01 -0.27221601534E+02  0.29329641936E+02  0.00000000000E+00 0. -1.
</event>
<event>
 5    1  0.6650580E-004  0.9118800E+02  0.7818608E-02  0.1130116E+00
         25   -1    0    0    0    0  0.00000000000E+00  0.00000000000E+00  0.99999998245E-14  0.12500000000E+03  0.12500000000E+03 0.  0.
        -11    1    3    3    0    0  0.67965398362E+00  0.15387515656E+02 -0.35351142499E+02  0.38560871928E+02  0.51100000000E-03 0. -1.
         23    2    1    0    0    0 -0.23163028839E+02 -0.19583541709E+02  0.14288549843E+01  0.94634186370E+02  0.89630054069E+02 0.  0.
         11    1    3    3    0    0 -0.23842682823E+02 -0.34971057365E+02  0.36779997483E+02  0.56073314442E+02  0.51100000000E-03 0.  1.
         22    1    1    0    0    0  0.23163028839E+02  0.19583541709E+02 -0.14288549843E+01  0.30365813630E+02  0.00000000000E+00 0.  1.
</event>
<event>
 5    1  0.6650580E-004  0.9118800E+02  0.7818608E-02  0.1130116E+00
         25   -1    0    0    0    0  0.00000000000E+00  0.00000000000E+00  0.99999998245E-14  0.12500000000E+03  0.12500000000E+03 0.  0.
        -11    1    3    3    0    0  0.16463755986E+02 -0.28538278146E+01  0.41026322773E+02  0.44298518653E+02  0.51100000000E-03 0.  1.
         23    2    1    0    0    0 -0.78535770961E+01  0.21689991108E+02 -0.45468971770E+01  0.10148811659E+03  0.98727043651E+02 0.  0.
         11    1    3    3    0    0 -0.24317333082E+02  0.24543818922E+02 -0.45573219950E+02  0.57189597939E+02  0.51100000000E-03 0. -1.
         22    1    1    0    0    0  0.78535770961E+01 -0.21689991108E+02  0.45468971770E+01  0.23511883408E+02  0.00000000000E+00 0. -1.
</event>
<event>
 5    1  0.6650580E-004  0.9118800E+02  0.7818608E-02  0.1130116E+00
         25   -1    0    0    0    0  0.00000000000E+00  0.00000000000E+00  0.99999998245E-14  0.12500000000E+03  0.12500000000E+03 0.  0.
        -11    1    3    3    0    0  0.21076235211E+02 -0.23517507437E+02  0.15160293164E+02  0.35030206048E+02  0.51100000000E-03 0.  1.
         23    2    1    0    0    0 -0.21422021851E+02 -0.20539444672E+01 -0.21088376354E+02  0.94869594671E+02  0.89957760464E+02 0.  0.
         11    1    3    3    0    0 -0.42498257062E+02  0.21463562970E+02 -0.36248669517E+02  0.59839388622E+02  0.51100000000E-03 0. -1.
         22    1    1    0    0    0  0.21422021851E+02  0.20539444672E+01  0.21088376354E+02  0.30130405329E+02  0.00000000000E+00 0. -1.
</event>
<event>
 5    1  0.6650580E-004  0.9118800E+02  0.7818608E-02  0.1130116E+00
         25   -1    0    0    0    0  0.00000000000E+00  0.00000000000E+00  0.99999998245E-14  0.12500000000E+03  0.12500000000E+03 0.  0.
        -11    1    3    3    0    0  0.19164625883E+02 -0.59592688628E+01 -0.53736245791E+02  0.57361832978E+02  0.51100000000E-03 0.  1.
         23    2    1    0    0    0  0.93511115613E+00  0.13283389961E+02 -0.26358706549E+02  0.95468588035E+02  0.90786271036E+02 0.  0.
         11    1    3    3    0    0 -0.18229514726E+02  0.19242658824E+02  0.27377539242E+02  0.38106755057E+02  0.51100000000E-03 0. -1.
         22    1    1    0    0    0 -0.93511115613E+00 -0.13283389961E+02  0.26358706549E+02  0.29531411965E+02  0.00000000000E+00 0.  1.
</event>
<event>
 5    1  0.6650580E-004  0.9118800E+02  0.7818608E-02  0.1130116E+00
         25   -1    0    0    0    0  0.00000000000E+00  0.00000000000E+00  0.99999998245E-14  0.12500000000E+03  0.12500000000E+03 0.  0.
        -11    1    3    3    0    0  0.14596052521E+02 -0.28387301373E+02  0.23896074263E+02  0.39873625292E+02  0.51100000000E-03 0.  1.
         23    2    1    0    0    0  0.60763649685E+00  0.25134030643E+02  0.14475427028E+02  0.95989196734E+02  0.91500268762E+02 0.  0.
         11    1    3    3    0    0 -0.13988416024E+02  0.53521332016E+02 -0.94206472352E+01  0.56115571442E+02  0.51100000000E-03 0. -1.
         22    1    1    0    0    0 -0.60763649685E+00 -0.25134030643E+02 -0.14475427028E+02  0.29010803266E+02  0.00000000000E+00 0. -1.
</event>
<event>
 5    1  0.6650580E-004  0.9118800E+02  0.7818608E-02  0.1130116E+00
         25   -1    0    0    0    0  0.00000000000E+00  0.00000000000E+00  0.99999998245E-14  0.12500000000E+03  0.12500000000E+03 0.  0.
        -11    1    3    3    0    0 -0.26474661083E+01 -0.31372968934E+02 -0.26282200538E+02  0.41012514211E+02  0.51100000000E-03 0.  1.
         23    2    1    0    0    0  0.19000996576E+02  0.13275007119E+02  0.70316181875E+01  0.10077795758E+03  0.97823767019E+02 0.  0.
         11    1    3    3    0    0  0.21648462684E+02  0.44647976053E+02  0.33313818725E+02  0.59765443364E+02  0.51100000000E-03 0. -1.
         22    1    1    0    0    0 -0.19000996576E+02 -0.13275007119E+02 -0.70316181875E+01  0.24222042425E+02  0.00000000000E+00 0. -1.
</event>
<event>
 5    1  0.6650580E-004  0.9118800E+02  0.7818608E-02  0.1130116E+00
         25   -1    0    0    0    0  0.00000000000E+00  0.00000000000E+00  0.99999998245E-14  0.12500000000E+03  0.12500000000E+03 0.  0.
        -11    1    3    3    0    0 -0.40676131475E+02 -0.13039137527E+02  0.26333361100E+02  0.50179803569E+02  0.51100000000E-03 0.  1.
         23    2    1    0    0    0 -0.23967445072E+02 -0.87721126177E+01 -0.15299754806E+02  0.95243137259E+02  0.90475324341E+02 0.  0.
         11    1    3    3    0    0  0.16708686402E+02  0.42670249097E+01 -0.41633115906E+02  0.45063333689E+02  0.51100000000E-03 0. -1.
         22    1    1    0    0    0  0.23967445072E+02  0.87721126177E+01  0.15299754806E+02  0.29756862741E+02  0.00000000000E+00 0. -1.
</event>
<event>
 5    1  0.6650580E-004  0.9118800E+02  0.7818608E-02  0.1130116E+00
         25   -1    0    0    0    0  0.00000000000E+00  0.00000000000E+00  0.99999998245E-14  0.12500000000E+03  0.12500000000E+03 0.  0.
        -11    1    3    3    0    0  0.16747289245E+02 -0.59141320730E+01  0.30957423228E+02  0.35690484844E+02  0.51100000000E-03 0. -1.
         23    2    1    0    0    0  0.87504923823E+01 -0.40170678469E+01 -0.28089215373E+02  0.95306364802E+02  0.90562636890E+02 0.  0.
         11    1    3    3    0    0 -0.79967968622E+01  0.18970642261E+01 -0.59046638601E+02  0.59615879957E+02  0.51100000000E-03 0.  1.
         22    1    1    0    0    0 -0.87504923823E+01  0.40170678469E+01  0.28089215373E+02  0.29693635198E+02  0.00000000000E+00 0.  1.
</event>
<event>
 5    1  0.6650580E-004  0.9118800E+02  0.7818608E-02  0.1130116E+00
         25   -1    0    0    0    0  0.00000000000E+00  0.00000000000E+00  0.99999998245E-14  0.12500000000E+03  0.12500000000E+03 0.  0.
        -11    1    3    3    0    0  0.26354537478E+02  0.27332463110E+02 -0.33032187920E+02  0.50326440609E+02  0.51100000000E-03 0.  1.
         23    2    1    0    0    0  0.22374069131E+02 -0.13315768236E+02 -0.14766341096E+02  0.95067517936E+02  0.90232363839E+02 0.  0.
         11    1    3    3    0    0 -0.39804683472E+01 -0.40648231346E+02  0.18265846824E+02  0.44741077326E+02  0.51100000000E-03 0. -1.
         22    1    1    0    0    0 -0.22374069131E+02  0.13315768236E+02  0.14766341096E+02  0.29932482064E+02  0.00000000000E+00 0.  1.
</event>
<event>
 5    1  0.6650580E-004  0.9118800E+02  0.7818608E-02  0.1130116E+00
         25   -1    0    0    0    0  0.00000000000E+00  0.00000000000E+00  0.99999998245E-14  0.12500000000E+03  0.12500000000E+03 0.  0.
        -11    1    3    3    0    0  0.11315290099E+02 -0.20561014535E+02 -0.25105359665E+02  0.34366701804E+02  0.51100000000E-03 0.  1.
         23    2    1    0    0    0 -0.26516284066E+02  0.12769265397E+02  0.77742862251E+01  0.94559780130E+02  0.89526225389E+02 0.  0.
         11    1    3    3    0    0 -0.37831574165E+02  0.33330279932E+02  0.32879645890E+02  0.60193078325E+02  0.51100000000E-03 0. -1.
         22    1    1    0    0    0  0.26516284066E+02 -0.12769265397E+02 -0.77742862251E+01  0.30440219870E+02  0.00000000000E+00 0. -1.
</event>
<event>
 5    1  0.6650580E-004  0.9118800E+02  0.7818608E-02  0.1130116E+00
         25   -1    0    0    0    0  0.00000000000E+00  0.00000000000E+00  0.99999998245E-14  0.12500000000E+03  0.12500000000E+03 0.  0.
        -11    1    3    3    0    0  0.24704712342E+02  0.15000816613E+02  0.20687261296E+02  0.35543073744E+02  0.51100000000E-03 0.  1.
         23    2    1    0    0    0 -0.15480173696E+02 -0.24901075858E+02  0.46487736005E+00  0.95675684705E+02  0.91070967802E+02 0.  0.
         11    1    3    3    0    0 -0.40184886038E+02 -0.39901892472E+02 -0.20222383936E+02  0.60132610961E+02  0.51100000000E-03 0. -1.
         22    1    1    0    0    0  0.15480173696E+02  0.24901075858E+02 -0.46487736005E+00  0.29324315295E+02  0.00000000000E+00 0. -1.
</event>
<event>
 5    1  0.6650580E-004  0.9118800E+02  0.7818608E-02  0.1130116E+00
         25   -1    0    0    0    0  0.00000000000E+00  0.00000000000E+00  0.99999998245E-14  0.12500000000E+03  0.12500000000E+03 0.  0.
        -11    1    3    3    0    0  0.20045720691E+02 -0.12093462889E+02  0.32325379552E+02  0.39912566018E+02  0.51100000000E-03 0. -1.
         23    2    1    0    0    0  0.19562364123E+01  0.28267375757E+02 -0.29852209974E+01  0.96508195257E+02  0.92206555159E+02 0.  0.
         11    1    3    3    0    0 -0.18089484278E+02  0.40360838645E+02 -0.35310600550E+02  0.56595629240E+02  0.51100000000E-03 0.  1.
         22    1    1    0    0    0 -0.19562364123E+01 -0.28267375757E+02  0.29852209974E+01  0.28491804743E+02  0.00000000000E+00 0.  1.
</event>
<event>
 5    1  0.6650580E-004  0.9118800E+02  0.7818608E-02  0.1130116E+00
         25   -1    0    0    0    0  0.00000000000E+00  0.00000000000E+00  0.99999998245E-14  0.12500000000E+03  0.12500000000E+03 0.  0.
        -11    1    3    3    0    0  0.34124553027E+02 -0.10986240080E+02 -0.34935547227E+02  0.50056718337E+02  0.51100000000E-03 0.  1.
         23    2    1    0    0    0  0.23614632140E+02  0.16057768054E+02  0.12227530621E+01  0.96416825035E+02  0.92082605626E+02 0.  0.
         11    1    3    3    0    0 -0.10509920887E+02  0.27044008135E+02  0.36158300289E+02  0.46360106698E+02  0.51100000000E-03 0. -1.
         22    1    1    0    0    0 -0.23614632140E+02 -0.16057768054E+02 -0.12227530621E+01  0.28583174965E+02  0.00000000000E+00 0.  1.
</event>
<event>
 5    1  0.6650580E-004  0.9118800E+02  0.7818608E-02  0.1130116E+00
         25   -1    0    0    0    0  0.00000000000E+00  0.00000000000E+00  0.99999998245E-14  0.12500000000E+03  0.12500000000E+03 0.  0.
        -11    1    3    3    0    0 -0.25162178362E+02  0.47193532027E+02  0.22567681166E+02  0.58048814963E+02  0.51100000000E-03 0.  1.
         23    2    1    0    0    0  0.54634681879E+01  0.18339209961E+02 -0.14277493395E+00  0.10586373884E+03  0.10411980940E+03 0.  0.
         11    1    3    3    0    0  0.30625646550E+02 -0.28854322066E+02 -0.22710456100E+02  0.47814923873E+02  0.51100000000E-03 0. -1.
         22    1    1    0    0    0 -0.54634681879E+01 -0.18339209961E+02  0.14277493395E+00  0.19136261164E+02  0.00000000000E+00 0.  1.
</event>
<event>
 5    1  0.6650580E-004  0.9118800E+02  0.7818608E-02  0.1130116E+00
         25   -1    0    0    0    0  0.00000000000E+00  0.00000000000E+00  0.99999998245E-14  0.12500000000E+03  0.12500000000E+03 0.  0.
        -11    1    3    3    0    0 -0.44863138031E+02 -0.41447276400E+02  0.78032945422E+01  0.61574907884E+02  0.51100000000E-03 0.  1.
         23    2    1    0    0    0 -0.17824257039E+02 -0.25832441371E+02  0.71763759918E+01  0.92804976494E+02  0.87041622937E+02 0.  0.
         11    1    3    3    0    0  0.27038880992E+02  0.15614835029E+02 -0.62691855044E+00  0.31230068610E+02  0.51100000000E-03 0. -1.
         22    1    1    0    0    0  0.17824257039E+02  0.25832441371E+02 -0.71763759918E+01  0.32195023506E+02  0.00000000000E+00 0.  1.
</event>
<event>
 5    1  0.6650580E-004  0.9118800E+02  0.7818608E-02  0.1130116E+00
         25   -1    0    0    0    0  0.00000000000E+00  0.00000000000E+00  0.99999998245E-14  0.12500000000E+03  0.12500000000E+03 0.  0.
        -11    1    3    3    0    0  0.33329348630E+01 -0.26633760808E+02  0.51307681420E+02  0.57904609856E+02  0.51100000000E-03 0. -1.
         23    2    1    0    0    0 -0.47143278183E+00  0.49242430660E+01  0.25995040831E+02  0.98538470066E+02  0.94919005033E+02 0.  0.
         11    1    3    3    0    0 -0.38043676448E+01  0.31558003874E+02 -0.25312640589E+02  0.40633860210E+02  0.51100000000E-03 0.  1.
         22    1    1    0    0    0  0.47143278183E+00 -0.49242430660E+01 -0.25995040831E+02  0.26461529934E+02  0.00000000000E+00 0. -1.
</event>
<event>
 5    1  0.6650580E-004  0.9118800E+02  0.7818608E-02  0.1130116E+00
         25   -1    0    0    0    0  0.00000000000E+00  0.00000000000E+00  0.99999998245E-14  0.12500000000E+03  0.12500000000E+03 0.  0.
        -11    1    3    3    0    0  0.36245199410E+02 -0.22400166551E+02  0.15637422098E+02  0.45387343081E+02  0.51100000000E-03 0. -1.
         23    2    1    0    0    0 -0.11293955575E+02 -0.27364523900E+02  0.98645502775E+00  0.95380011912E+02  0.90664232077E+02 0.  0.
         11    1    3    3    0    0 -0.47539154985E+02 -0.49643573484E+01 -0.14650967070E+02  0.49992668832E+02  0.51100000000E-03 0.  1.
         22    1    1    0    0    0  0.11293955575E+02  0.27364523900E+02 -0.98645502775E+00  0.29619988088E+02  0.00000000000E+00 0.  1.
</event>
<event>
 5    1  0.6650580E-004  0.9118800E+02  0.7818608E-02  0.1130116E+00
         25   -1    0    0    0    0  0.00000000000E+00  0.00000000000E+00  0.99999998245E-14  0.12500000000E+03  0.12500000000E+03 0.  0.
        -11    1    3    3    0    0 -0.35737996976E+02  0.22305624854E+02  0.10600853719E+02  0.43441033917E+02  0.51100000000E-03 0.  1.
         23    2    1    0    0    0  0.83359951080E+01 -0.98504145133E+00  0.27633226211E+02  0.96120001525E+02  0.91678789156E+02 0.  0.
         11    1    3    3    0    0  0.44073992084E+02 -0.23290666306E+02  0.17032372493E+02  0.52678967607E+02  0.51100000000E-03 0. -1.
         22    1    1    0    0    0 -0.83359951080E+01  0.98504145133E+00 -0.27633226211E+02  0.28879998475E+02  0.00000000000E+00 0. -1.
</event>
<event>
 5    1  0.6650580E-004  0.9118800E+02  0.7818608E-02  0.1130116E+00
         25   -1    0    0    0    0  0.00000000000E+00  0.00000000000E+00  0.99999998245E-14  0.12500000000E+03  0.12500000000E+03 0.  0.
        -11    1    3    3    0    0  0.14788878972E+02  0.16583092592E+02 -0.26638480682E+02  0.34688882289E+02  0.51100000000E-03 0. -1.
         23    2    1    0    0    0 -0.25237351768E+02 -0.10919360280E+02  0.10227961441E+02  0.95661159730E+02  0.91051029277E+02 0.  0.
         11    1    3    3    0    0 -0.40026230740E+02 -0.27502452871E+02  0.36866442123E+02  0.60972277440E+02  0.51100000000E-03 0.  1.
         22    1    1    0    0    0  0.25237351768E+02  0.10919360280E+02 -0.10227961441E+02  0.29338840270E+02  0.00000000000E+00 0.  1.
</event>
<event>
 5    1  0.6650580E-004  0.9118800E+02  0.7818608E-02  0.1130116E+00
         25   -1    0    0    0    0  0.00000000000E+00  0.00000000000E+00  0.99999998245E-14  0.12500000000E+03  0.12500000000E+03 0.  0.
        -11    1    3    3    0    0 -0.42587130760E+02  0.12103890529E+02 -0.28052676235E+01  0.44362567543E+02  0.51100000000E-03 0. -1.
         23    2    1    0    0    0 -0.24863780065E+01  0.66638196523E+00 -0.30480757700E+02  0.94410741584E+02  0.89317889563E+02 0.  0.
         11    1    3    3    0    0  0.40100752754E+02 -0.11437508563E+02 -0.27675490076E+02  0.50048174040E+02  0.51100000000E-03 0.  1.
         22    1    1    0    0    0  0.24863780065E+01 -0.66638196523E+00  0.30480757700E+02  0.30589258416E+02  0.00000000000E+00 0.  1.
</event>
<event>
 5    1  0.6650580E-004  0.9118800E+02  0.7818608E-02  0.1130116E+00
         25   -1    0    0    0    0  0.00000000000E+00  0.00000000000E+00  0.99999998245E-14  0.12500000000E+03  0.12500000000E+03 0.  0.
        -11    1    3    3    0    0 -0.77900536099E+01 -0.72918525548E+00 -0.40071333062E+02  0.40828034242E+02  0.51100000000E-03 0. -1.
         23    2    1    0    0    0  0.21936032255E+02 -0.23489013292E+02 -0.43614243706E+01  0.92566294090E+02  0.86698174851E+02 0.  0.
         11    1    3    3    0    0  0.29726085865E+02 -0.22759828037E+02  0.35709908692E+02  0.51738259848E+02  0.51100000000E-03 0.  1.
         22    1    1    0    0    0 -0.21936032255E+02  0.23489013292E+02  0.43614243706E+01  0.32433705910E+02  0.00000000000E+00 0.  1.
</event>
<event>
 5    1  0.6650580E-004  0.9118800E+02  0.7818608E-02  0.1130116E+00
         25   -1    0    0    0    0  0.00000000000E+00  0.00000000000E+00  0.99999998245E-14  0.12500000000E+03  0.12500000000E+03 0.  0.
        -11    1    3    3    0    0  0.33847484528E+02  0.27677546735E+02 -0.26199078883E+02  0.50971467869E+02  0.51100000000E-03 0. -1.
         23    2    1    0    0    0  0.27908008043E+02 -0.76039381122E+01  0.12218759400E+01  0.96048838218E+02  0.91581709716E+02 0.  0.
         11    1    3    3    0    0 -0.59394764854E+01 -0.35281484847E+02  0.27420954823E+02  0.45077370349E+02  0.51100000000E-03 0.  1.
         22    1    1    0    0    0 -0.27908008043E+02  0.76039381122E+01 -0.12218759400E+01  0.28951161782E+02  0.00000000000E+00 0. -1.
</event>
<event>
 5    1  0.6650580E-004  0.9118800E+02  0.7818608E-02  0.1130116E+00
         25   -1    0    0    0    0  0.00000000000E+00  0.00000000000E+00  0.99999998245E-14  0.12500000000E+03  0.12500000000E+03 0.  0.
        -11    1    3    3    0    0  0.54852737933E+01  0.50954427736E+02 -0.28321263719E+02  0.58553701107E+02  0.51100000000E-03 0.  1.
         23    2    1    0    0    0 -0.56788891039E+01  0.28857959694E+02 -0.79124859052E+00  0.95577938660E+02  0.90936706918E+02 0.  0.
         11    1    3    3    0    0 -0.11164162897E+02 -0.22096468042E+02  0.27530015128E+02  0.37024237553E+02  0.51100000000E-03 0. -1.
         22    1    1    0    0    0  0.56788891039E+01 -0.28857959694E+02  0.79124859052E+00  0.29422061340E+02  0.00000000000E+00 0.  1.
</event>
<event>
 5    1  0.6650580E-004  0.9118800E+02  0.7818608E-02  0.1130116E+00
         25   -1    0    0    0    0  0.00000000000E+00  0.00000000000E+00  0.99999998245E-14  0.12500000000E+03  0.12500000000E+03 0.  0.
        -11    1    3    3    0    0 -0.26805385933E+02 -0.12659709203E+02  0.21855486890E+02  0.36830140640E+02  0.51100000000E-03 0.  1.
         23    2    1    0    0    0  0.22791778422E+02 -0.16053196388E+02 -0.94325368118E+01  0.95569692006E+02  0.90925370505E+02 0.  0.
         11    1    3    3    0    0  0.49597164355E+02 -0.33934871846E+01 -0.31288023701E+02  0.58739551366E+02  0.51100000000E-03 0. -1.
         22    1    1    0    0    0 -0.22791778422E+02  0.16053196388E+02  0.94325368118E+01  0.29430307994E+02  0.00000000000E+00 0. -1.
</event>
<event>
 5    1  0.6650580E-004  0.9118800E+02  0.7818608E-02  0.1130116E+00
         25   -1    0    0    0    0  0.00000000000E+00  0.00000000000E+00  0.99999998245E-14  0.12500000000E+03  0.12500000000E+03 0.  0.
        -11    1    3    3    0    0  0.37310208379E+02 -0.35722890003E+02 -0.16532794973E+02  0.54235687783E+02  0.51100000000E-03 0. -1.
         23    2    1    0    0    0  0.83281556281E+01 -0.76974740576E+01 -0.26852006268E+02  0.95851423300E+02  0.91311860264E+02 0.  0.
         11    1    3    3    0    0 -0.28982052751E+02  0.28025415945E+02 -0.10319211295E+02  0.41615735517E+02  0.51100000000E-03 0.  1.
         22    1    1    0    0    0 -0.83281556281E+01  0.76974740576E+01  0.26852006268E+02  0.29148576700E+02  0.00000000000E+00 0. -1.
</event>
<event>
 5    1  0.6650580E-004  0.9118800E+02  0.7818608E-02  0.1130116E+00
         25   -1    0    0    0    0  0.00000000000E+00  0.00000000000E+00  0.99999998245E-14  0.12500000000E+03  0.12500000000E+03 0.  0.
        -11    1    3    3    0    0 -0.29911693624E+02  0.45605307404E+01  0.10316257739E+02  0.31967687281E+02  0.51100000000E-03 0. -1.
         23    2    1    0    0    0  0.26697928497E+02 -0.14642222796E+02 -0.60712160184E+01  0.93951107293E+02  0.88672300202E+02 0.  0.
         11    1    3    3    0    0  0.56609622121E+02 -0.19202753536E+02 -0.16387473757E+02  0.61983420012E+02  0.51100000000E-03 0.  1.
         22    1    1    0    0    0 -0.26697928497E+02  0.14642222796E+02  0.60712160184E+01  0.31048892707E+02  0.00000000000E+00 0.  1.
</event>
<event>
 5    1  0.6650580E-004  0.9118800E+02  0.7818608E-02  0.1130116E+00
         25   -1    0    0    0    0  0.00000000000E+00  0.00000000000E+00  0.99999998245E-14  0.12500000000E+03  0.12500000000E+03 0.  0.
        -11    1    3    3    0    0  0.34727151050E+02 -0.53245682143E+01  0.83816803376E+01  0.36118950874E+02  0.51100000000E-03 0.  1.
         23    2    1    0    0    0 -0.16721976006E+02 -0.69656202057E+01 -0.22474456992E+02  0.96134006799E+02  0.91697882744E+02 0.  0.
         11    1    3    3    0    0 -0.51449127056E+02 -0.16410519913E+01 -0.30856137330E+02  0.60015055925E+02  0.51100000000E-03 0. -1.
         22    1    1    0    0    0  0.16721976006E+02  0.69656202057E+01  0.22474456992E+02  0.28865993201E+02  0.00000000000E+00 0. -1.
</event>
<event>
 5    1  0.6650580E-004  0.9118800E+02  0.7818608E-02  0.1130116E+00
         25   -1    0    0    0    0  0.00000000000E+00  0.00000000000E+00  0.99999998245E-14  0.12500000000E+03  0.12500000000E+03 0.  0.
        -11    1    3    3    0    0  0.41784733649E+01  0.29572361511E+02  0.32625583156E+02  0.44231356315E+02  0.51100000000E-03 0.  1.
         23    2    1    0    0    0 -0.27086466155E+02  0.19912643518E+01  0.27688860703E+02  0.86214502845E+02  0.76997569516E+02 0.  0.
         11    1    3    3    0    0 -0.31264939520E+02 -0.27581097159E+02 -0.49367224524E+01  0.41983146530E+02  0.51100000000E-03 0. -1.
         22    1    1    0    0    0  0.27086466155E+02 -0.19912643518E+01 -0.27688860703E+02  0.38785497155E+02  0.00000000000E+00 0.  1.
</event>
<event>
 5    1  0.6650580E-004  0.9118800E+02  0.7818608E-02  0.1130116E+00
         25   -1    0    0    0    0  0.00000000000E+00  0.00000000000E+00  0.99999998245E-14  0.12500000000E+03  0.12500000000E+03 0.  0.
        -11    1    3    3    0    0 -0.36980307339E+02 -0.20490862907E+02 -0.24164184454E+02  0.48696266840E+02  0.51100000000E-03 0.  1.
         23    2    1    0    0    0 -0.18614180361E+02 -0.15263241496E+02  0.17973162709E+02  0.94958548150E+02  0.90081280172E+02 0.  0.
         11    1    3    3    0    0  0.18366126977E+02  0.52276214114E+01  0.42137347163E+02  0.46262281310E+02  0.51100000000E-03 0. -1.
         22    1    1    0    0    0  0.18614180361E+02  0.15263241496E+02 -0.17973162709E+02  0.30041451850E+02  0.00000000000E+00 0. -1.
</event>
<event>
 5    1  0.6650580E-004  0.9118800E+02  0.7818608E-02  0.1130116E+00
         25   -1    0    0    0    0  0.00000000000E+00  0.00000000000E+00  0.99999998245E-14  0.12500000000E+03  0.12500000000E+03 0.  0.
        -11    1    3    3    0    0  0.31035844755E+02 -0.23022122799E+02  0.24880479041E+02  0.45959547815E+02  0.51100000000E-03 0.  1.
         23    2    1    0    0    0 -0.16377814926E+02 -0.22203874384E+02  0.98044616924E+01  0.95719079105E+02  0.91130509580E+02 0.  0.
         11    1    3    3    0    0 -0.47413659681E+02  0.81824841523E+00 -0.15076017349E+02  0.49759531289E+02  0.51100000000E-03 0. -1.
         22    1    1    0    0    0  0.16377814926E+02  0.22203874384E+02 -0.98044616924E+01  0.29280920895E+02  0.00000000000E+00 0. -1.
</event>
