<event>
 5    1  0.1691145E-003  0.9118800E+02  0.7818608E-02  0.1130116E+00
         25   -1    0    0    0    0  0.00000000000E+00  0.00000000000E+00  0.99999998245E-14  0.12500000000E+03  0.12500000000E+03 0.  0.
        -11    1    3    3    0    0  0.39462780185E+01  0.18316641181E+02 -0.23159133793E+02  0.29789560800E+02  0.51100000000E-03 0.  1.
         23    2    1    0    0    0 -0.14118493857E+02 -0.20840904248E+02  0.21517808566E+02  0.91883671034E+02  0.85708329575E+02 0.  0.
         11    1    3    3    0    0 -0.18064771875E+02 -0.39157545429E+02  0.44676942359E+02  0.62094110234E+02  0.51100000000E-03 0. -1.
         22    1    1    0    0    0  0.14118493857E+02  0.20840904248E+02 -0.21517808566E+02  0.33116328966E+02  0.00000000000E+00 0. -1.
</event>
<event>
 5    1  0.1691145E-003  0.9118800E+02  0.7818608E-02  0.1130116E+00
         25   -1    0    0    0    0  0.00000000000E+00  0.00000000000E+00  0.99999998245E-14  0.12500000000E+03  0.12500000000E+03 0.  0.
        -11    1    3    3    0    0  0.33295703367E+02 -0.19512139363E+02  0.15701434744E+02  0.41663683208E+02  0.51100000000E-03 0.  1.
         23    2    1    0    0    0 -0.17993426167E+02 -0.24276668103E+02  0.79521960303E+01  0.93753281434E+02  0.88392988175E+02 0.  0.
         11    1    3    3    0    0 -0.51289129534E+02 -0.47645287409E+01 -0.77492387139E+01  0.52089598226E+02  0.51100000000E-03 0. -1.
         22    1    1    0    0    0  0.17993426167E+02  0.24276668103E+02 -0.79521960303E+01  0.31246718566E+02  0.00000000000E+00 0. -1.
</event>
<event>
 5    1  0.1691145E-003  0.9118800E+02  0.7818608E-02  0.1130116E+00
         25   -1    0    0    0    0  0.00000000000E+00  0.00000000000E+00  0.99999998245E-14  0.12500000000E+03  0.12500000000E+03 0.  0.
        -11    1    3    3    0    0  0.47670422690E+02  0.36574493294E+02 -0.19558582032E+01  0.60116454824E+02  0.51100000000E-03 0.  1.
         23    2    1    0    0    0  0.20150770504E+02  0.18274724503E+02  0.11057990548E+02  0.95635084496E+02  0.91015224683E+02 0.  0.
         11    1    3    3    0    0 -0.27519652185E+02 -0.18299768791E+02  0.13013848751E+02  0.35518629672E+02  0.51100000000E-03 0. -1.
         22    1    1    0    0    0 -0.20150770504E+02 -0.18274724503E+02 -0.11057990548E+02  0.29364915504E+02  0.00000000000E+00 0.  1.
</event>
<event>
 5    1  0.1691145E-003  0.9118800E+02  0.7818608E-02  0.1130116E+00
         25   -1    0    0    0    0  0.00000000000E+00  0.00000000000E+00  0.99999998245E-14  0.12500000000E+03  0.12500000000E+03 0.  0.
        -11    1    3    3    0    0 -0.30310266518E+02 -0.31541505786E+01  0.12718351038E+01  0.30500466998E+02  0.51100000000E-03 0. -1.
         23    2    1    0    0    0  0.31186183230E+02 -0.69522418228E+00  0.90107548381E+01  0.92530705830E+02  0.86646849092E+02 0.  0.
         11    1    3    3    0    0  0.61496449749E+02  0.24589263964E+01  0.77389197343E+01  0.62030238832E+02  0.51100000000E-03 0.  1.
         22    1    1    0    0    0 -0.31186183230E+02  0.69522418228E+00 -0.90107548381E+01  0.32469294170E+02  0.00000000000E+00 0.  1.
</event>
<event>
 5    1  0.1691145E-003  0.9118800E+02  0.7818608E-02  0.1130116E+00
         25   -1    0    0    0    0  0.00000000000E+00  0.00000000000E+00  0.99999998245E-14  0.12500000000E+03  0.12500000000E+03 0.  0.
        -11    1    3    3    0    0 -0.32506109477E+02  0.92302081638E+01  0.17070703650E+02  0.37858325630E+02  0.51100000000E-03 0.  1.
         23    2    1    0    0    0  0.17097466961E+02  0.24686196161E+02 -0.54422871748E+01  0.94481970131E+02  0.89417518042E+02 0.  0.
         11    1    3    3    0    0  0.49603576439E+02  0.15455987997E+02 -0.22512990825E+02  0.56623644501E+02  0.51100000000E-03 0. -1.
         22    1    1    0    0    0 -0.17097466961E+02 -0.24686196161E+02  0.54422871748E+01  0.30518029869E+02  0.00000000000E+00 0. -1.
</event>
<event>
 5    1  0.1691145E-003  0.9118800E+02  0.7818608E-02  0.1130116E+00
         25   -1    0    0    0    0  0.00000000000E+00  0.00000000000E+00  0.99999998245E-14  0.12500000000E+03  0.12500000000E+03 0.  0.
        -11    1    3    3    0    0 -0.23883401047E+02 -0.42664439827E+01  0.27861996309E+02  0.36944691478E+02  0.51100000000E-03 0.  1.
         23    2    1    0    0    0  0.14363678768E+02 -0.22171538934E+02 -0.12866808738E+02  0.95615528360E+02  0.90988362388E+02 0.  0.
         11    1    3    3    0    0  0.38247079815E+02 -0.17905094952E+02 -0.40728805047E+02  0.58670836882E+02  0.51100000000E-03 0. -1.
         22    1    1    0    0    0 -0.14363678768E+02  0.22171538934E+02  0.12866808738E+02  0.29384471640E+02  0.00000000000E+00 0. -1.
</event>
<event>
 5    1  0.1691145E-003  0.9118800E+02  0.7818608E-02  0.1130116E+00
         25   -1    0    0    0    0  0.00000000000E+00  0.00000000000E+00  0.99999998245E-14  0.12500000000E+03  0.12500000000E+03 0.  0.
        -11    1    3    3    0    0  0.38101714385E+02 -0.27046890903E+02 -0.70936962195E+01  0.47260929666E+02  0.51100000000E-03 0. -1.
         23    2    1    0    0    0  0.28080097677E+02  0.16590666855E+02 -0.19922869732E+01  0.92324147760E+02  0.86348346481E+02 0.  0.
         11    1    3    3    0    0 -0.10021616708E+02  0.43637557757E+02  0.51014092463E+01  0.45063218095E+02  0.51100000000E-03 0.  1.
         22    1    1    0    0    0 -0.28080097677E+02 -0.16590666855E+02  0.19922869732E+01  0.32675852240E+02  0.00000000000E+00 0. -1.
</event>
<event>
 5    1  0.1691145E-003  0.9118800E+02  0.7818608E-02  0.1130116E+00
         25   -1    0    0    0    0  0.00000000000E+00  0.00000000000E+00  0.99999998245E-14  0.12500000000E+03  0.12500000000E+03 0.  0.
        -11    1    3    3    0    0 -0.32590036744E+02  0.16102817518E+02 -0.32745441453E+02  0.48925199675E+02  0.51100000000E-03 0.  1.
         23    2    1    0    0    0  0.12617186819E+02 -0.15732886986E+00 -0.24180447395E+02  0.97725246255E+02  0.93841949915E+02 0.  0.
         11    1    3    3    0    0  0.45207223563E+02 -0.16260146388E+02  0.85649940576E+01  0.48800046581E+02  0.51100000000E-03 0. -1.
         22    1    1    0    0    0 -0.12617186819E+02  0.15732886986E+00  0.24180447395E+02  0.27274753745E+02  0.00000000000E+00 0. -1.
</event>
<event>
 5    1  0.1691145E-003  0.9118800E+02  0.7818608E-02  0.1130116E+00
         25   -1    0    0    0    0  0.00000000000E+00  0.00000000000E+00  0.99999998245E-14  0.12500000000E+03  0.12500000000E+03 0.  0.
        -11    1    3    3    0    0  0.26988903880E+02 -0.17120088462E+02 -0.47449307421E+02  0.57209572071E+02  0.51100000000E-03 0.  1.
         23    2    1    0    0    0 -0.19560959336E+01 -0.19194973418E+02 -0.21126772786E+02  0.96388571441E+02  0.92044244036E+02 0.  0.
         11    1    3    3    0    0 -0.28944999813E+02 -0.20748849564E+01  0.26322534635E+02  0.39178999370E+02  0.51100000000E-03 0. -1.
         22    1    1    0    0    0  0.19560959336E+01  0.19194973418E+02  0.21126772786E+02  0.28611428559E+02  0.00000000000E+00 0.  1.
</event>
<event>
 5    1  0.1691145E-003  0.9118800E+02  0.7818608E-02  0.1130116E+00
         25   -1    0    0    0    0  0.00000000000E+00  0.00000000000E+00  0.99999998245E-14  0.12500000000E+03  0.12500000000E+03 0.  0.
        -11    1    3    3    0    0 -0.18993018880E+02  0.21563972695E+02  0.26771579494E+02  0.39274128296E+02  0.51100000000E-03 0.  1.
         23    2    1    0    0    0 -0.20372183458E+02 -0.73297475116E+01 -0.20817325434E+02  0.94964819034E+02  0.90089981455E+02 0.  0.
         11    1    3    3    0    0 -0.13791645774E+01 -0.28893720207E+02 -0.47588904928E+02  0.55690690738E+02  0.51100000000E-03 0. -1.
         22    1    1    0    0    0  0.20372183458E+02  0.73297475116E+01  0.20817325434E+02  0.30035180966E+02  0.00000000000E+00 0. -1.
</event>
<event>
 5    1  0.1691145E-003  0.9118800E+02  0.7818608E-02  0.1130116E+00
         25   -1    0    0    0    0  0.00000000000E+00  0.00000000000E+00  0.99999998245E-14  0.12500000000E+03  0.12500000000E+03 0.  0.
        -11    1    3    3    0    0  0.32088112000E+02  0.20674115109E+02  0.14580397596E+02  0.40861399408E+02  0.51100000000E-03 0.  1.
         23    2    1    0    0    0  0.58028683485E+01  0.18655619447E+02 -0.27949370312E+02  0.90899080381E+02  0.84260133487E+02 0.  0.
         11    1    3    3    0    0 -0.26285243652E+02 -0.20184956616E+01 -0.42529767908E+02  0.50037680973E+02  0.51100000000E-03 0. -1.
         22    1    1    0    0    0 -0.58028683485E+01 -0.18655619447E+02  0.27949370312E+02  0.34100919619E+02  0.00000000000E+00 0. -1.
</event>
<event>
 5    1  0.1691145E-003  0.9118800E+02  0.7818608E-02  0.1130116E+00
         25   -1    0    0    0    0  0.00000000000E+00  0.00000000000E+00  0.99999998245E-14  0.12500000000E+03  0.12500000000E+03 0.  0.
        -11    1    3    3    0    0 -0.26466910055E+02 -0.15165540858E+01  0.25601868844E+02  0.36854483482E+02  0.51100000000E-03 0. -1.
         23    2    1    0    0    0  0.27272106283E+02  0.10424931150E+02  0.68490889781E+01  0.95010718741E+02  0.90153644880E+02 0.  0.
         11    1    3    3    0    0  0.53739016338E+02  0.11941485236E+02 -0.18752779866E+02  0.58156235259E+02  0.51100000000E-03 0.  1.
         22    1    1    0    0    0 -0.27272106283E+02 -0.10424931150E+02 -0.68490889781E+01  0.29989281259E+02  0.00000000000E+00 0.  1.
</event>
<event>
 5    1  0.1691145E-003  0.9118800E+02  0.7818608E-02  0.1130116E+00
         25   -1    0    0    0    0  0.00000000000E+00  0.00000000000E+00  0.99999998245E-14  0.12500000000E+03  0.12500000000E+03 0.  0.
        -11    1    3    3    0    0 -0.37661241081E+00  0.45992280089E+02  0.12537893242E+02  0.47672113777E+02  0.51100000000E-03 0. -1.
         23    2    1    0    0    0  0.22640885539E+02  0.57903939677E+01  0.19558333420E+02  0.94525965701E+02  0.89478999912E+02 0.  0.
         11    1    3    3    0    0  0.23017497950E+02 -0.40201886122E+02  0.70204401778E+01  0.46853851925E+02  0.51100000000E-03 0.  1.
         22    1    1    0    0    0 -0.22640885539E+02 -0.57903939677E+01 -0.19558333420E+02  0.30474034299E+02  0.00000000000E+00 0. -1.
</event>
<event>
 5    1  0.1691145E-003  0.9118800E+02  0.7818608E-02  0.1130116E+00
         25   -1    0    0    0    0  0.00000000000E+00  0.00000000000E+00  0.99999998245E-14  0.12500000000E+03  0.12500000000E+03 0.  0.
        -11    1    3    3    0    0  0.20006385301E+02 -0.33020403456E+02  0.39433718248E+02  0.55187141912E+02  0.51100000000E-03 0.  1.
         23    2    1    0    0    0  0.25766181919E+02 -0.69968650877E+01  0.65631351660E+01  0.97505873447E+02  0.93549283063E+02 0.  0.
         11    1    3    3    0    0  0.57597966175E+01  0.26023538368E+02 -0.32870583082E+02  0.42318731535E+02  0.51100000000E-03 0. -1.
         22    1    1    0    0    0 -0.25766181919E+02  0.69968650877E+01 -0.65631351660E+01  0.27494126553E+02  0.00000000000E+00 0.  1.
</event>
<event>
 5    1  0.1691145E-003  0.9118800E+02  0.7818608E-02  0.1130116E+00
         25   -1    0    0    0    0  0.00000000000E+00  0.00000000000E+00  0.99999998245E-14  0.12500000000E+03  0.12500000000E+03 0.  0.
        -11    1    3    3    0    0  0.11014105824E+02  0.22400267898E+02 -0.28272135067E+02  0.37714667578E+02  0.51100000000E-03 0.  1.
         23    2    1    0    0    0  0.33980943147E+02 -0.15132331418E+02 -0.50731876756E+01  0.87457634804E+02  0.78989927845E+02 0.  0.
         11    1    3    3    0    0  0.22966837323E+02 -0.37532599316E+02  0.23198947392E+02  0.49742967226E+02  0.51100000000E-03 0. -1.
         22    1    1    0    0    0 -0.33980943147E+02  0.15132331418E+02  0.50731876756E+01  0.37542365196E+02  0.00000000000E+00 0.  1.
</event>
<event>
 5    1  0.1691145E-003  0.9118800E+02  0.7818608E-02  0.1130116E+00
         25   -1    0    0    0    0  0.00000000000E+00  0.00000000000E+00  0.99999998245E-14  0.12500000000E+03  0.12500000000E+03 0.  0.
        -11    1    3    3    0    0  0.15811064440E+02 -0.15553642500E+02  0.34349002829E+02  0.40887156288E+02  0.51100000000E-03 0. -1.
         23    2    1    0    0    0  0.22768765328E+02  0.14783074566E+02 -0.10849348380E+02  0.95765357391E+02  0.91193965523E+02 0.  0.
         11    1    3    3    0    0  0.69577008886E+01  0.30336717066E+02 -0.45198351209E+02  0.54878201103E+02  0.51100000000E-03 0.  1.
         22    1    1    0    0    0 -0.22768765328E+02 -0.14783074566E+02  0.10849348380E+02  0.29234642609E+02  0.00000000000E+00 0.  1.
</event>
<event>
 5    1  0.1691145E-003  0.9118800E+02  0.7818608E-02  0.1130116E+00
         25   -1    0    0    0    0  0.00000000000E+00  0.00000000000E+00  0.99999998245E-14  0.12500000000E+03  0.12500000000E+03 0.  0.
        -11    1    3    3    0    0  0.33098357220E+02  0.47003728485E+02 -0.12502611597E+01  0.57501433855E+02  0.51100000000E-03 0. -1.
         23    2    1    0    0    0  0.24098092181E+02  0.10003532541E+02  0.97632218261E+01  0.97141263300E+02  0.93060817883E+02 0.  0.
         11    1    3    3    0    0 -0.90002650393E+01 -0.37000195944E+02  0.11013482986E+02  0.39639829445E+02  0.51100000000E-03 0.  1.
         22    1    1    0    0    0 -0.24098092181E+02 -0.10003532541E+02 -0.97632218261E+01  0.27858736700E+02  0.00000000000E+00 0.  1.
</event>
<event>
 5    1  0.1691145E-003  0.9118800E+02  0.7818608E-02  0.1130116E+00
         25   -1    0    0    0    0  0.00000000000E+00  0.00000000000E+00  0.99999998245E-14  0.12500000000E+03  0.12500000000E+03 0.  0.
        -11    1    3    3    0    0  0.23120193271E+02  0.37972281584E+02 -0.25913234338E+02  0.51458072445E+02  0.51100000000E-03 0.  1.
         23    2    1    0    0    0  0.29021053216E+02 -0.12394025032E+01 -0.87787009329E+01  0.94654930575E+02  0.89658979716E+02 0.  0.
         11    1    3    3    0    0  0.59008599447E+01 -0.39211684087E+02  0.17134533405E+02  0.43196858130E+02  0.51100000000E-03 0. -1.
         22    1    1    0    0    0 -0.29021053216E+02  0.12394025032E+01  0.87787009329E+01  0.30345069425E+02  0.00000000000E+00 0. -1.
</event>
<event>
 5    1  0.1691145E-003  0.9118800E+02  0.7818608E-02  0.1130116E+00
         25   -1    0    0    0    0  0.00000000000E+00  0.00000000000E+00  0.99999998245E-14  0.12500000000E+03  0.12500000000E+03 0.  0.
        -11    1    3    3    0    0  0.64956027905E+01  0.25745715622E+02  0.19165153912E+02  0.32746570098E+02  0.51100000000E-03 0.  1.
         23    2    1    0    0    0 -0.83768934257E+01 -0.24942320935E+02 -0.14075951728E+02  0.95160024562E+02  0.90360423530E+02 0.  0.
         11    1    3    3    0    0 -0.14872496216E+02 -0.50688036557E+02 -0.33241105640E+02  0.62413454464E+02  0.51100000000E-03 0. -1.
         22    1    1    0    0    0  0.83768934257E+01  0.24942320935E+02  0.14075951728E+02  0.29839975438E+02  0.00000000000E+00 0. -1.
</event>
<event>
 5    1  0.1691145E-003  0.9118800E+02  0.7818608E-02  0.1130116E+00
         25   -1    0    0    0    0  0.00000000000E+00  0.00000000000E+00  0.99999998245E-14  0.12500000000E+03  0.12500000000E+03 0.  0.
        -11    1    3    3    0    0  0.13192827519E+02 -0.50453386521E+02  0.47629837445E+01  0.52366792186E+02  0.51100000000E-03 0.  1.
         23    2    1    0    0    0 -0.19237729101E+02 -0.22386372412E+02  0.35189700673E+01  0.95274202432E+02  0.90518233566E+02 0.  0.
         11    1    3    3    0    0 -0.32430556620E+02  0.28067014109E+02 -0.12440136772E+01  0.42907410246E+02  0.51100000000E-03 0. -1.
         22    1    1    0    0    0  0.19237729101E+02  0.22386372412E+02 -0.35189700673E+01  0.29725797568E+02  0.00000000000E+00 0.  1.
</event>
<event>
 5    1  0.1691145E-003  0.9118800E+02  0.7818608E-02  0.1130116E+00
         25   -1    0    0    0    0  0.00000000000E+00  0.00000000000E+00  0.99999998245E-14  0.12500000000E+03  0.12500000000E+03 0.  0.
        -11    1    3    3    0    0 -0.19004526983E+02 -0.23522378531E+02  0.22198507583E+02  0.37513305330E+02  0.51100000000E-03 0. -1.
         23    2    1    0    0    0 -0.11890256824E+02  0.15703654445E+02 -0.20939825166E+02  0.96251795739E+02  0.91858309013E+02 0.  0.
         11    1    3    3    0    0  0.71142701595E+01  0.39226032976E+02 -0.43138332748E+02  0.58738490409E+02  0.51100000000E-03 0.  1.
         22    1    1    0    0    0  0.11890256824E+02 -0.15703654445E+02  0.20939825166E+02  0.28748204261E+02  0.00000000000E+00 0.  1.
</event>
<event>
 5    1  0.1691145E-003  0.9118800E+02  0.7818608E-02  0.1130116E+00
         25   -1    0    0    0    0  0.00000000000E+00  0.00000000000E+00  0.99999998245E-14  0.12500000000E+03  0.12500000000E+03 0.  0.
        -11    1    3    3    0    0 -0.17755558048E+02 -0.19979760493E+02 -0.20028425697E+02  0.33400426751E+02  0.51100000000E-03 0. -1.
         23    2    1    0    0    0  0.27230930400E+02  0.11031561365E+02  0.76346825939E+01  0.94643661372E+02  0.89643267137E+02 0.  0.
         11    1    3    3    0    0  0.44986488448E+02  0.31011321858E+02  0.27663108291E+02  0.61243234621E+02  0.51100000000E-03 0.  1.
         22    1    1    0    0    0 -0.27230930400E+02 -0.11031561365E+02 -0.76346825939E+01  0.30356338628E+02  0.00000000000E+00 0.  1.
</event>
<event>
 5    1  0.1691145E-003  0.9118800E+02  0.7818608E-02  0.1130116E+00
         25   -1    0    0    0    0  0.00000000000E+00  0.00000000000E+00  0.99999998245E-14  0.12500000000E+03  0.12500000000E+03 0.  0.
        -11    1    3    3    0    0  0.13013841507E+01 -0.57936502128E+02 -0.10710341982E+02  0.58932531807E+02  0.51100000000E-03 0. -1.
         23    2    1    0    0    0  0.14281436100E+02 -0.25071692500E+02  0.91664779608E+00  0.96131515020E+02  0.91694485958E+02 0.  0.
         11    1    3    3    0    0  0.12980051949E+02  0.32864809629E+02  0.11626989778E+02  0.37198983213E+02  0.51100000000E-03 0.  1.
         22    1    1    0    0    0 -0.14281436100E+02  0.25071692500E+02 -0.91664779608E+00  0.28868484980E+02  0.00000000000E+00 0. -1.
</event>
<event>
 5    1  0.1691145E-003  0.9118800E+02  0.7818608E-02  0.1130116E+00
         25   -1    0    0    0    0  0.00000000000E+00  0.00000000000E+00  0.99999998245E-14  0.12500000000E+03  0.12500000000E+03 0.  0.
        -11    1    3    3    0    0 -0.11128228402E+02 -0.47583526340E+02  0.37756017280E+02  0.61753917183E+02  0.51100000000E-03 0. -1.
         23    2    1    0    0    0  0.99514296334E+00 -0.24545828847E+02  0.15977738730E+02  0.95695117161E+02  0.91097636030E+02 0.  0.
         11    1    3    3    0    0  0.12123371365E+02  0.23037697494E+02 -0.21778278550E+02  0.33941199978E+02  0.51100000000E-03 0.  1.
         22    1    1    0    0    0 -0.99514296334E+00  0.24545828847E+02 -0.15977738730E+02  0.29304882839E+02  0.00000000000E+00 0. -1.
</event>
<event>
 5    1  0.1691145E-003  0.9118800E+02  0.7818608E-02  0.1130116E+00
         25   -1    0    0    0    0  0.00000000000E+00  0.00000000000E+00  0.99999998245E-14  0.12500000000E+03  0.12500000000E+03 0.  0.
        -11    1    3    3    0    0  0.19254722163E+02 -0.52381146869E+02  0.11087692923E+02  0.56898732916E+02  0.51100000000E-03 0. -1.
         23    2    1    0    0    0  0.14396565016E+02 -0.22362771520E+02 -0.12719792760E+02  0.95518687917E+02  0.90855225382E+02 0.  0.
         11    1    3    3    0    0 -0.48581571473E+01  0.30018375349E+02 -0.23807485682E+02  0.38619955001E+02  0.51100000000E-03 0.  1.
         22    1    1    0    0    0 -0.14396565016E+02  0.22362771520E+02  0.12719792760E+02  0.29481312083E+02  0.00000000000E+00 0. -1.
</event>
<event>
 5    1  0.1691145E-003  0.9118800E+02  0.7818608E-02  0.1130116E+00
         25   -1    0    0    0    0  0.00000000000E+00  0.00000000000E+00  0.99999998245E-14  0.12500000000E+03  0.12500000000E+03 0.  0.
        -11    1    3    3    0    0 -0.15199034230E+02  0.17950865614E+02  0.22770673414E+02  0.32737559252E+02  0.51100000000E-03 0. -1.
         23    2    1    0    0    0  0.15978484787E+02 -0.10410176282E+02 -0.23109205820E+02  0.95038038450E+02  0.90191516300E+02 0.  0.
         11    1    3    3    0    0  0.31177519016E+02 -0.28361041896E+02 -0.45879879234E+02  0.62300479198E+02  0.51100000000E-03 0.  1.
         22    1    1    0    0    0 -0.15978484787E+02  0.10410176282E+02  0.23109205820E+02  0.29961961550E+02  0.00000000000E+00 0.  1.
</event>
<event>
 5    1  0.1691145E-003  0.9118800E+02  0.7818608E-02  0.1130116E+00
         25   -1    0    0    0    0  0.00000000000E+00  0.00000000000E+00  0.99999998245E-14  0.12500000000E+03  0.12500000000E+03 0.  0.
        -11    1    3    3    0    0 -0.35629142792E+00  0.24729735275E+02  0.53451682442E+02  0.58896257152E+02  0.51100000000E-03 0. -1.
         23    2    1    0    0    0  0.92815516403E+01  0.22276923550E+02  0.20438081033E+02  0.93375267906E+02  0.87856798123E+02 0.  0.
         11    1    3    3    0    0  0.96378430682E+01 -0.24528117250E+01 -0.33013601408E+02  0.34479010754E+02  0.51100000000E-03 0.  1.
         22    1    1    0    0    0 -0.92815516403E+01 -0.22276923550E+02 -0.20438081033E+02  0.31624732094E+02  0.00000000000E+00 0. -1.
</event>
<event>
 5    1  0.1691145E-003  0.9118800E+02  0.7818608E-02  0.1130116E+00
         25   -1    0    0    0    0  0.00000000000E+00  0.00000000000E+00  0.99999998245E-14  0.12500000000E+03  0.12500000000E+03 0.  0.
        -11    1    3    3    0    0 -0.97245087032E+01 -0.26558717427E+02  0.20756338424E+02  0.35082148251E+02  0.51100000000E-03 0.  1.
         23    2    1    0    0    0 -0.18225819546E+01  0.56579655250E+01 -0.29284032722E+02  0.95118752514E+02  0.90303311836E+02 0.  0.
         11    1    3    3    0    0  0.79019267486E+01  0.32216682952E+02 -0.50040371146E+02  0.60036604263E+02  0.51100000000E-03 0. -1.
         22    1    1    0    0    0  0.18225819546E+01 -0.56579655250E+01  0.29284032722E+02  0.29881247486E+02  0.00000000000E+00 0. -1.
</event>
<event>
 5    1  0.1691145E-003  0.9118800E+02  0.7818608E-02  0.1130116E+00
         25   -1    0    0    0    0  0.00000000000E+00  0.00000000000E+00  0.99999998245E-14  0.12500000000E+03  0.12500000000E+03 0.  0.
        -11    1    3    3    0    0  0.78690835250E+01  0.29648564902E+02  0.24426162767E+02  0.39212208610E+02  0.51100000000E-03 0.  1.
         23    2    1    0    0    0 -0.63034741510E+01  0.69542729665E+01 -0.26580741999E+02  0.96810790290E+02  0.92615860264E+02 0.  0.
         11    1    3    3    0    0 -0.14172557676E+02 -0.22694291935E+02 -0.51006904766E+02  0.57598581680E+02  0.51100000000E-03 0. -1.
         22    1    1    0    0    0  0.63034741510E+01 -0.69542729665E+01  0.26580741999E+02  0.28189209710E+02  0.00000000000E+00 0. -1.
</event>
<event>
 5    1  0.1691145E-003  0.9118800E+02  0.7818608E-02  0.1130116E+00
         25   -1    0    0    0    0  0.00000000000E+00  0.00000000000E+00  0.99999998245E-14  0.12500000000E+03  0.12500000000E+03 0.  0.
        -11    1    3    3    0    0 -0.14364940486E+02  0.53318598184E+02 -0.18834405596E+02  0.58343459461E+02  0.51100000000E-03 0. -1.
         23    2    1    0    0    0 -0.20980051225E+02  0.17234192172E+02 -0.98893359971E+01  0.96103998621E+02  0.91656967304E+02 0.  0.
         11    1    3    3    0    0 -0.66151107386E+01 -0.36084406012E+02  0.89450695988E+01  0.37760539160E+02  0.51100000000E-03 0.  1.
         22    1    1    0    0    0  0.20980051225E+02 -0.17234192172E+02  0.98893359971E+01  0.28896001379E+02  0.00000000000E+00 0. -1.
</event>
<event>
 5    1  0.1691145E-003  0.9118800E+02  0.7818608E-02  0.1130116E+00
         25   -1    0    0    0    0  0.00000000000E+00  0.00000000000E+00  0.99999998245E-14  0.12500000000E+03  0.12500000000E+03 0.  0.
        -11    1    3    3    0    0  0.25989634562E+02  0.34567189377E+01  0.50638069002E+02  0.57023013275E+02  0.51100000000E-03 0.  1.
         23    2    1    0    0    0 -0.27041879099E+01  0.81211986451E+00  0.35149442551E+02  0.89737335855E+02  0.82518688573E+02 0.  0.
         11    1    3    3    0    0 -0.28693822471E+02 -0.26445990732E+01 -0.15488626451E+02  0.32714322580E+02  0.51100000000E-03 0. -1.
         22    1    1    0    0    0  0.27041879099E+01 -0.81211986451E+00 -0.35149442551E+02  0.35262664145E+02  0.00000000000E+00 0.  1.
</event>
<event>
 5    1  0.1691145E-003  0.9118800E+02  0.7818608E-02  0.1130116E+00
         25   -1    0    0    0    0  0.00000000000E+00  0.00000000000E+00  0.99999998245E-14  0.12500000000E+03  0.12500000000E+03 0.  0.
        -11    1    3    3    0    0 -0.40962525656E+02 -0.31652626930E+02 -0.33097419707E+02  0.61443115898E+02  0.51100000000E-03 0.  1.
         23    2    1    0    0    0 -0.13922024023E+02 -0.20825302256E+02 -0.13575279460E+02  0.96507822488E+02  0.92206049812E+02 0.  0.
         11    1    3    3    0    0  0.27040501633E+02  0.10827324675E+02  0.19522140246E+02  0.35064706590E+02  0.51100000000E-03 0. -1.
         22    1    1    0    0    0  0.13922024023E+02  0.20825302256E+02  0.13575279460E+02  0.28492177512E+02  0.00000000000E+00 0.  1.
</event>
<event>
 5    1  0.1691145E-003  0.9118800E+02  0.7818608E-02  0.1130116E+00
         25   -1    0    0    0    0  0.00000000000E+00  0.00000000000E+00  0.99999998245E-14  0.12500000000E+03  0.12500000000E+03 0.  0.
        -11    1    3    3    0    0 -0.45332262564E+02  0.17597075297E+02  0.26665289078E+02  0.55459072567E+02  0.51100000000E-03 0.  1.
         23    2    1    0    0    0 -0.15219624467E+02  0.24293038867E+02 -0.14983166568E+00  0.96332751164E+02  0.91968406482E+02 0.  0.
         11    1    3    3    0    0  0.30112638096E+02  0.66959635703E+01 -0.26815120744E+02  0.40873678596E+02  0.51100000000E-03 0. -1.
         22    1    1    0    0    0  0.15219624467E+02 -0.24293038867E+02  0.14983166568E+00  0.28667248836E+02  0.00000000000E+00 0.  1.
</event>
<event>
 5    1  0.1691145E-003  0.9118800E+02  0.7818608E-02  0.1130116E+00
         25   -1    0    0    0    0  0.00000000000E+00  0.00000000000E+00  0.99999998245E-14  0.12500000000E+03  0.12500000000E+03 0.  0.
        -11    1    3    3    0    0 -0.47333451757E+01 -0.25150579999E+02 -0.27648896123E+02  0.37675160091E+02  0.51100000000E-03 0.  1.
         23    2    1    0    0    0 -0.12866375610E+02  0.25657554637E+02  0.43211822411E+00  0.96293895119E+02  0.91915579636E+02 0.  0.
         11    1    3    3    0    0 -0.81330304342E+01  0.50808134636E+02  0.28081014347E+02  0.58618735028E+02  0.51100000000E-03 0. -1.
         22    1    1    0    0    0  0.12866375610E+02 -0.25657554637E+02 -0.43211822411E+00  0.28706104881E+02  0.00000000000E+00 0. -1.
</event>
<event>
 5    1  0.1691145E-003  0.9118800E+02  0.7818608E-02  0.1130116E+00
         25   -1    0    0    0    0  0.00000000000E+00  0.00000000000E+00  0.99999998245E-14  0.12500000000E+03  0.12500000000E+03 0.  0.
        -11    1    3    3    0    0 -0.16461467531E+02 -0.24553602829E+02  0.49547801250E+02  0.57696134481E+02  0.51100000000E-03 0.  1.
         23    2    1    0    0    0 -0.61794028894E+01 -0.25733810716E+02  0.13323096298E+02  0.95370303259E+02  0.90650845637E+02 0.  0.
         11    1    3    3    0    0  0.10282064641E+02 -0.11802078868E+01 -0.36224704952E+02  0.37674168777E+02  0.51100000000E-03 0. -1.
         22    1    1    0    0    0  0.61794028894E+01  0.25733810716E+02 -0.13323096298E+02  0.29629696741E+02  0.00000000000E+00 0.  1.
</event>
<event>
 5    1  0.1691145E-003  0.9118800E+02  0.7818608E-02  0.1130116E+00
         25   -1    0    0    0    0  0.00000000000E+00  0.00000000000E+00  0.99999998245E-14  0.12500000000E+03  0.12500000000E+03 0.  0.
        -11    1    3    3    0    0 -0.59629986942E+02  0.17486250519E+02 -0.46272091220E+01  0.62313043293E+02  0.51100000000E-03 0. -1.
         23    2    1    0    0    0 -0.28180771194E+02  0.83121092236E+01  0.12330229947E+01  0.95593072746E+02  0.90957507587E+02 0.  0.
         11    1    3    3    0    0  0.31449215748E+02 -0.91741412957E+01  0.58602321167E+01  0.33280029453E+02  0.51100000000E-03 0.  1.
         22    1    1    0    0    0  0.28180771194E+02 -0.83121092236E+01 -0.12330229947E+01  0.29406927254E+02  0.00000000000E+00 0. -1.
</event>
<event>
 5    1  0.1691145E-003  0.9118800E+02  0.7818608E-02  0.1130116E+00
         25   -1    0    0    0    0  0.00000000000E+00  0.00000000000E+00  0.99999998245E-14  0.12500000000E+03  0.12500000000E+03 0.  0.
        -11    1    3    3    0    0  0.43227786555E+02  0.34208851570E+02  0.25914447133E+02  0.60913427310E+02  0.51100000000E-03 0. -1.
         23    2    1    0    0    0  0.19835450757E+02  0.19590219903E+02  0.26554016254E+01  0.96995125775E+02  0.92864317386E+02 0.  0.
         11    1    3    3    0    0 -0.23392335797E+02 -0.14618631668E+02 -0.23259045508E+02  0.36081698464E+02  0.51100000000E-03 0.  1.
         22    1    1    0    0    0 -0.19835450757E+02 -0.19590219903E+02 -0.26554016254E+01  0.28004874225E+02  0.00000000000E+00 0. -1.
</event>
<event>
 5    1  0.1691145E-003  0.9118800E+02  0.7818608E-02  0.1130116E+00
         25   -1    0    0    0    0  0.00000000000E+00  0.00000000000E+00  0.99999998245E-14  0.12500000000E+03  0.12500000000E+03 0.  0.
        -11    1    3    3    0    0  0.53734058228E+02  0.18408365453E+02  0.74535051158E+01  0.57286749524E+02  0.51100000000E-03 0.  1.
         23    2    1    0    0    0  0.32027154075E+02  0.15635589226E+02 -0.12826438238E+02  0.87122199556E+02  0.78457312528E+02 0.  0.
         11    1    3    3    0    0 -0.21706904153E+02 -0.27727762267E+01 -0.20279943354E+02  0.29835450032E+02  0.51100000000E-03 0. -1.
         22    1    1    0    0    0 -0.32027154075E+02 -0.15635589226E+02  0.12826438238E+02  0.37877800444E+02  0.00000000000E+00 0.  1.
</event>
<event>
 5    1  0.1691145E-003  0.9118800E+02  0.7818608E-02  0.1130116E+00
         25   -1    0    0    0    0  0.00000000000E+00  0.00000000000E+00  0.99999998245E-14  0.12500000000E+03  0.12500000000E+03 0.  0.
        -11    1    3    3    0    0  0.59435068244E+01 -0.52488759199E+02  0.32029647790E+02  0.61776156027E+02  0.51100000000E-03 0. -1.
         23    2    1    0    0    0 -0.76685682046E+00 -0.21901997298E+02  0.20028072712E+02  0.95311462623E+02  0.90569672936E+02 0.  0.
         11    1    3    3    0    0 -0.67103636449E+01  0.30586761901E+02 -0.12001575078E+02  0.33535306596E+02  0.51100000000E-03 0.  1.
         22    1    1    0    0    0  0.76685682046E+00  0.21901997298E+02 -0.20028072712E+02  0.29688537377E+02  0.00000000000E+00 0. -1.
</event>
<event>
 5    1  0.1691145E-003  0.9118800E+02  0.7818608E-02  0.1130116E+00
         25   -1    0    0    0    0  0.00000000000E+00  0.00000000000E+00  0.99999998245E-14  0.12500000000E+03  0.12500000000E+03 0.  0.
        -11    1    3    3    0    0 -0.28209590161E+02  0.37015257529E+02  0.96536647244E+01  0.47530027454E+02  0.51100000000E-03 0.  1.
         23    2    1    0    0    0 -0.23572829262E+02 -0.10709400589E+02  0.13803777091E+02  0.95658667338E+02  0.91047607517E+02 0.  0.
         11    1    3    3    0    0  0.46367608987E+01 -0.47724658118E+02  0.41501123668E+01  0.48128639883E+02  0.51100000000E-03 0. -1.
         22    1    1    0    0    0  0.23572829262E+02  0.10709400589E+02 -0.13803777091E+02  0.29341332662E+02  0.00000000000E+00 0. -1.
</event>
<event>
 5    1  0.1691145E-003  0.9118800E+02  0.7818608E-02  0.1130116E+00
         25   -1    0    0    0    0  0.00000000000E+00  0.00000000000E+00  0.99999998245E-14  0.12500000000E+03  0.12500000000E+03 0.  0.
        -11    1    3    3    0    0  0.65831615633E+01  0.30902681399E+02  0.11353630773E+02  0.33574077289E+02  0.51100000000E-03 0. -1.
         23    2    1    0    0    0 -0.89990193748E+01 -0.28182533324E+02  0.47779247621E+01  0.95032249012E+02  0.90183492131E+02 0.  0.
         11    1    3    3    0    0 -0.15582180938E+02 -0.59085214723E+02 -0.65757060108E+01  0.61458171723E+02  0.51100000000E-03 0.  1.
         22    1    1    0    0    0  0.89990193748E+01  0.28182533324E+02 -0.47779247621E+01  0.29967750988E+02  0.00000000000E+00 0.  1.
</event>
<event>
 5    1  0.1691145E-003  0.9118800E+02  0.7818608E-02  0.1130116E+00
         25   -1    0    0    0    0  0.00000000000E+00  0.00000000000E+00  0.99999998245E-14  0.12500000000E+03  0.12500000000E+03 0.  0.
        -11    1    3    3    0    0 -0.44096848298E+02 -0.15756797762E+02  0.83727315783E+01  0.47570067688E+02  0.51100000000E-03 0.  1.
         23    2    1    0    0    0 -0.15354611521E+01 -0.29652491840E+02 -0.62253856190E+01  0.94662179720E+02  0.89669085698E+02 0.  0.
         11    1    3    3    0    0  0.42561387146E+02 -0.13895694078E+02 -0.14598117197E+02  0.47092112032E+02  0.51100000000E-03 0. -1.
         22    1    1    0    0    0  0.15354611521E+01  0.29652491840E+02  0.62253856190E+01  0.30337820280E+02  0.00000000000E+00 0.  1.
</event>
<event>
 5    1  0.1691145E-003  0.9118800E+02  0.7818608E-02  0.1130116E+00
         25   -1    0    0    0    0  0.00000000000E+00  0.00000000000E+00  0.99999998245E-14  0.12500000000E+03  0.12500000000E+03 0.  0.
        -11    1    3    3    0    0  0.39848120773E+02 -0.31594184219E+02  0.25777838041E+02  0.57013701335E+02  0.51100000000E-03 0.  1.
         23    2    1    0    0    0  0.20937578608E+02  0.19192070951E+01  0.20103117053E+02  0.95910468050E+02  0.91392652946E+02 0.  0.
         11    1    3    3    0    0 -0.18910542165E+02  0.33513391314E+02 -0.56747209880E+01  0.38896766715E+02  0.51100000000E-03 0. -1.
         22    1    1    0    0    0 -0.20937578608E+02 -0.19192070951E+01 -0.20103117053E+02  0.29089531950E+02  0.00000000000E+00 0.  1.
</event>
<event>
 5    1  0.1691145E-003  0.9118800E+02  0.7818608E-02  0.1130116E+00
         25   -1    0    0    0    0  0.00000000000E+00  0.00000000000E+00  0.99999998245E-14  0.12500000000E+03  0.12500000000E+03 0.  0.
        -11    1    3    3    0    0 -0.75641407384E+01  0.24906476636E+02 -0.54002724437E+02  0.59948670130E+02  0.51100000000E-03 0.  1.
         23    2    1    0    0    0 -0.15691956308E+02  0.14355380989E+02 -0.23093111632E+02  0.93605633292E+02  0.88183945949E+02 0.  0.
         11    1    3    3    0    0 -0.81278155696E+01 -0.10551095647E+02  0.30909612805E+02  0.33656963162E+02  0.51100000000E-03 0. -1.
         22    1    1    0    0    0  0.15691956308E+02 -0.14355380989E+02  0.23093111632E+02  0.31394366708E+02  0.00000000000E+00 0.  1.
</event>
<event>
 5    1  0.1691145E-003  0.9118800E+02  0.7818608E-02  0.1130116E+00
         25   -1    0    0    0    0  0.00000000000E+00  0.00000000000E+00  0.99999998245E-14  0.12500000000E+03  0.12500000000E+03 0.  0.
        -11    1    3    3    0    0  0.11767899362E+02  0.26532552004E+02 -0.21787234683E+02  0.36292469833E+02  0.51100000000E-03 0.  1.
         23    2    1    0    0    0 -0.30028333526E+02 -0.18761837161E+01  0.65164294868E+01  0.94215511488E+02  0.89044246709E+02 0.  0.
         11    1    3    3    0    0 -0.41796232888E+02 -0.28408735720E+02  0.28303664170E+02  0.57923041654E+02  0.51100000000E-03 0. -1.
         22    1    1    0    0    0  0.30028333526E+02  0.18761837161E+01 -0.65164294868E+01  0.30784488512E+02  0.00000000000E+00 0. -1.
</event>
<event>
 5    1  0.1691145E-003  0.9118800E+02  0.7818608E-02  0.1130116E+00
         25   -1    0    0    0    0  0.00000000000E+00  0.00000000000E+00  0.99999998245E-14  0.12500000000E+03  0.12500000000E+03 0.  0.
        -11    1    3    3    0    0 -0.21214130070E+02 -0.11889109091E+02 -0.45882488431E+02  0.51928729760E+02  0.51100000000E-03 0. -1.
         23    2    1    0    0    0 -0.27623307230E+02 -0.10062700192E+02 -0.28624383265E+01  0.95461912881E+02  0.90777079818E+02 0.  0.
         11    1    3    3    0    0 -0.64091771604E+01  0.18264088991E+01  0.43020050105E+02  0.43533183121E+02  0.51100000000E-03 0.  1.
         22    1    1    0    0    0  0.27623307230E+02  0.10062700192E+02  0.28624383265E+01  0.29538087119E+02  0.00000000000E+00 0.  1.
</event>
<event>
 5    1  0.1691145E-003  0.9118800E+02  0.7818608E-02  0.1130116E+00
         25   -1    0    0    0    0  0.00000000000E+00  0.00000000000E+00  0.99999998245E-14  0.12500000000E+03  0.12500000000E+03 0.  0.
        -11    1    3    3    0    0 -0.32690345530E+02 -0.16643172278E+01  0.72640727005E+01  0.33529023176E+02  0.51100000000E-03 0.  1.
         23    2    1    0    0    0  0.28688582570E+02 -0.70976494370E+01  0.29765179573E+01  0.95296952067E+02  0.90549643934E+02 0.  0.
         11    1    3    3    0    0  0.61378928099E+02 -0.54333322092E+01 -0.42875547432E+01  0.61767928891E+02  0.51100000000E-03 0. -1.
         22    1    1    0    0    0 -0.28688582570E+02  0.70976494370E+01 -0.29765179573E+01  0.29703047933E+02  0.00000000000E+00 0. -1.
</event>
<event>
 5    1  0.1691145E-003  0.9118800E+02  0.7818608E-02  0.1130116E+00
         25   -1    0    0    0    0  0.00000000000E+00  0.00000000000E+00  0.99999998245E-14  0.12500000000E+03  0.12500000000E+03 0.  0.
        -11    1    3    3    0    0  0.13686213742E+02  0.16145884276E+02  0.41470362374E+02  0.46559563801E+02  0.51100000000E-03 0.  1.
         23    2    1    0    0    0 -0.19038437607E+02 -0.12544024268E+02  0.17610275663E+02  0.96191382187E+02  0.91776061948E+02 0.  0.
         11    1    3    3    0    0 -0.32724651349E+02 -0.28689908545E+02 -0.23860086710E+02  0.49631818386E+02  0.51100000000E-03 0. -1.
         22    1    1    0    0    0  0.19038437607E+02  0.12544024268E+02 -0.17610275663E+02  0.28808617813E+02  0.00000000000E+00 0. -1.
</event>
<event>
 5    1  0.1691145E-003  0.9118800E+02  0.7818608E-02  0.1130116E+00
         25   -1    0    0    0    0  0.00000000000E+00  0.00000000000E+00  0.99999998245E-14  0.12500000000E+03  0.12500000000E+03 0.  0.
        -11    1    3    3    0    0 -0.46149716429E+02  0.29332802439E+02 -0.10436467801E+02  0.55669825632E+02  0.51100000000E-03 0. -1.
         23    2    1    0    0    0 -0.11166136784E+02 -0.14401765868E+01 -0.18877182542E+02  0.10302035624E+03  0.10064834355E+03 0.  0.
         11    1    3    3    0    0  0.34983579645E+02 -0.30772979026E+02 -0.84407147409E+01  0.47350530604E+02  0.51100000000E-03 0.  1.
         22    1    1    0    0    0  0.11166136784E+02  0.14401765868E+01  0.18877182542E+02  0.21979643764E+02  0.00000000000E+00 0. -1.
</event>
<event>
 5    1  0.1691145E-003  0.9118800E+02  0.7818608E-02  0.1130116E+00
         25   -1    0    0    0    0  0.00000000000E+00  0.00000000000E+00  0.99999998245E-14  0.12500000000E+03  0.12500000000E+03 0.  0.
        -11    1    3    3    0    0  0.98576404499E+00 -0.53215231814E+01  0.45806731013E+02  0.46125339523E+02  0.51100000000E-03 0. -1.
         23    2    1    0    0    0  0.99143776133E+01 -0.24438228333E+02 -0.21715770521E+01  0.98537996402E+02  0.94918381258E+02 0.  0.
         11    1    3    3    0    0  0.89286135684E+01 -0.19116705152E+02 -0.47978308065E+02  0.52412656879E+02  0.51100000000E-03 0.  1.
         22    1    1    0    0    0 -0.99143776133E+01  0.24438228333E+02  0.21715770521E+01  0.26462003598E+02  0.00000000000E+00 0. -1.
</event>
<event>
 5    1  0.1691145E-003  0.9118800E+02  0.7818608E-02  0.1130116E+00
         25   -1    0    0    0    0  0.00000000000E+00  0.00000000000E+00  0.99999998245E-14  0.12500000000E+03  0.12500000000E+03 0.  0.
        -11    1    3    3    0    0 -0.51862018964E+01  0.28215125161E+02 -0.43508623424E+02  0.52115163729E+02  0.51100000000E-03 0. -1.
         23    2    1    0    0    0  0.47979296698E+01  0.35620164114E+02 -0.10243490905E+02  0.87626943843E+02  0.79257403192E+02 0.  0.
         11    1    3    3    0    0  0.99841315662E+01  0.74050389529E+01  0.33265132520E+02  0.35511780114E+02  0.51100000000E-03 0.  1.
         22    1    1    0    0    0 -0.47979296698E+01 -0.35620164114E+02  0.10243490905E+02  0.37373056157E+02  0.00000000000E+00 0.  1.
</event>
<event>
 5    1  0.1691145E-003  0.9118800E+02  0.7818608E-02  0.1130116E+00
         25   -1    0    0    0    0  0.00000000000E+00  0.00000000000E+00  0.99999998245E-14  0.12500000000E+03  0.12500000000E+03 0.  0.
        -11    1    3    3    0    0  0.21080103504E+02 -0.32067029368E+02 -0.10414890726E+02  0.39763489350E+02  0.51100000000E-03 0.  1.
         23    2    1    0    0    0 -0.21444434242E+02  0.64476119676E+01 -0.16103325799E+02  0.97418256729E+02  0.93432136775E+02 0.  0.
         11    1    3    3    0    0 -0.42524537746E+02  0.38514641335E+02 -0.56884350731E+01  0.57654767379E+02  0.51100000000E-03 0. -1.
         22    1    1    0    0    0  0.21444434242E+02 -0.64476119676E+01  0.16103325799E+02  0.27581743271E+02  0.00000000000E+00 0. -1.
</event>
<event>
 5    1  0.1691145E-003  0.9118800E+02  0.7818608E-02  0.1130116E+00
         25   -1    0    0    0    0  0.00000000000E+00  0.00000000000E+00  0.99999998245E-14  0.12500000000E+03  0.12500000000E+03 0.  0.
        -11    1    3    3    0    0  0.21654150029E+02 -0.55949854372E+02  0.12786985206E+02  0.61341628676E+02  0.51100000000E-03 0. -1.
         23    2    1    0    0    0  0.16612369877E+02 -0.22524633319E+02  0.10075941306E+02  0.95253495461E+02  0.90489634021E+02 0.  0.
         11    1    3    3    0    0 -0.50417801518E+01  0.33425221053E+02 -0.27110439003E+01  0.33911866785E+02  0.51100000000E-03 0.  1.
         22    1    1    0    0    0 -0.16612369877E+02  0.22524633319E+02 -0.10075941306E+02  0.29746504539E+02  0.00000000000E+00 0. -1.
</event>
<event>
 5    1  0.1691145E-003  0.9118800E+02  0.7818608E-02  0.1130116E+00
         25   -1    0    0    0    0  0.00000000000E+00  0.00000000000E+00  0.99999998245E-14  0.12500000000E+03  0.12500000000E+03 0.  0.
        -11    1    3    3    0    0  0.48908623246E+01 -0.10815870563E+01 -0.38771921047E+02  0.39094145684E+02  0.51100000000E-03 0. -1.
         23    2    1    0    0    0  0.21902597735E+02 -0.18158594269E+02  0.11079907214E+02  0.94467678155E+02  0.89397536536E+02 0.  0.
         11    1    3    3    0    0  0.17011735410E+02 -0.17077007213E+02  0.49851828262E+02  0.55373532471E+02  0.51100000000E-03 0.  1.
         22    1    1    0    0    0 -0.21902597735E+02  0.18158594269E+02 -0.11079907214E+02  0.30532321845E+02  0.00000000000E+00 0.  1.
</event>
<event>
 5    1  0.1691145E-003  0.9118800E+02  0.7818608E-02  0.1130116E+00
         25   -1    0    0    0    0  0.00000000000E+00  0.00000000000E+00  0.99999998245E-14  0.12500000000E+03  0.12500000000E+03 0.  0.
        -11    1    3    3    0    0 -0.14805073162E+02 -0.36370240509E+02  0.43054570119E+02  0.58272468580E+02  0.51100000000E-03 0.  1.
         23    2    1    0    0    0 -0.21181771202E+02 -0.94259138394E+01  0.17486159130E+02  0.95960698286E+02  0.91461328284E+02 0.  0.
         11    1    3    3    0    0 -0.63766980398E+01  0.26944326669E+02 -0.25568410989E+02  0.37688229706E+02  0.51100000000E-03 0. -1.
         22    1    1    0    0    0  0.21181771202E+02  0.94259138394E+01 -0.17486159130E+02  0.29039301714E+02  0.00000000000E+00 0.  1.
</event>
<event>
 5    1  0.1691145E-003  0.9118800E+02  0.7818608E-02  0.1130116E+00
         25   -1    0    0    0    0  0.00000000000E+00  0.00000000000E+00  0.99999998245E-14  0.12500000000E+03  0.12500000000E+03 0.  0.
        -11    1    3    3    0    0 -0.39504623266E+02  0.32019828351E+02  0.15889239214E+02  0.53276191587E+02  0.51100000000E-03 0. -1.
         23    2    1    0    0    0 -0.15832610029E+02 -0.24884204127E+01  0.24232533491E+02  0.95946954448E+02  0.91442542681E+02 0.  0.
         11    1    3    3    0    0  0.23672013237E+02 -0.34508248764E+02  0.83432942770E+01  0.42670762860E+02  0.51100000000E-03 0.  1.
         22    1    1    0    0    0  0.15832610029E+02  0.24884204127E+01 -0.24232533491E+02  0.29053045552E+02  0.00000000000E+00 0. -1.
</event>
<event>
 5    1  0.1691145E-003  0.9118800E+02  0.7818608E-02  0.1130116E+00
         25   -1    0    0    0    0  0.00000000000E+00  0.00000000000E+00  0.99999998245E-14  0.12500000000E+03  0.12500000000E+03 0.  0.
        -11    1    3    3    0    0 -0.61111476317E+01 -0.23938436484E+02  0.34190545898E+02  0.42182796206E+02  0.51100000000E-03 0. -1.
         23    2    1    0    0    0 -0.19042485668E+02 -0.16404984862E+02 -0.16431767844E+02  0.94970967661E+02  0.90098512281E+02 0.  0.
         11    1    3    3    0    0 -0.12931338036E+02  0.75334516221E+01 -0.50622313742E+02  0.52788171455E+02  0.51100000000E-03 0.  1.
         22    1    1    0    0    0  0.19042485668E+02  0.16404984862E+02  0.16431767844E+02  0.30029032339E+02  0.00000000000E+00 0.  1.
</event>
<event>
 5    1  0.1691145E-003  0.9118800E+02  0.7818608E-02  0.1130116E+00
         25   -1    0    0    0    0  0.00000000000E+00  0.00000000000E+00  0.99999998245E-14  0.12500000000E+03  0.12500000000E+03 0.  0.
        -11    1    3    3    0    0 -0.98316343880E+01 -0.48891195068E+02 -0.29688428161E+02  0.58038028540E+02  0.51100000000E-03 0.  1.
         23    2    1    0    0    0  0.87489127365E+01 -0.15858243218E+02 -0.21635871377E+02  0.96784077505E+02  0.92579800044E+02 0.  0.
         11    1    3    3    0    0  0.18580547125E+02  0.33032951850E+02  0.80525567840E+01  0.38746048965E+02  0.51100000000E-03 0. -1.
         22    1    1    0    0    0 -0.87489127365E+01  0.15858243218E+02  0.21635871377E+02  0.28215922495E+02  0.00000000000E+00 0.  1.
</event>
<event>
 5    1  0.1691145E-003  0.9118800E+02  0.7818608E-02  0.1130116E+00
         25   -1    0    0    0    0  0.00000000000E+00  0.00000000000E+00  0.99999998245E-14  0.12500000000E+03  0.12500000000E+03 0.  0.
        -11    1    3    3    0    0  0.18100661607E+01 -0.47429269265E+02 -0.30573187020E+02  0.56458229581E+02  0.51100000000E-03 0.  1.
         23    2    1    0    0    0  0.99909805868E+01 -0.30531620904E+02  0.62455928003E+00  0.92869179245E+02  0.87133775376E+02 0.  0.
         11    1    3    3    0    0  0.81809144261E+01  0.16897648362E+02  0.31197746300E+02  0.36410949664E+02  0.51100000000E-03 0. -1.
         22    1    1    0    0    0 -0.99909805868E+01  0.30531620904E+02 -0.62455928003E+00  0.32130820755E+02  0.00000000000E+00 0.  1.
</event>
<event>
 5    1  0.1691145E-003  0.9118800E+02  0.7818608E-02  0.1130116E+00
         25   -1    0    0    0    0  0.00000000000E+00  0.00000000000E+00  0.99999998245E-14  0.12500000000E+03  0.12500000000E+03 0.  0.
        -11    1    3    3    0    0 -0.15588869113E+02 -0.45921012168E+01  0.94941900706E+01  0.18821261359E+02  0.51100000000E-03 0. -1.
         23    2    1    0    0    0  0.30176014024E+02 -0.34299527323E+02 -0.12480456105E+02  0.77641672521E+02  0.61525751765E+02 0.  0.
         11    1    3    3    0    0  0.45764883137E+02 -0.29707426107E+02 -0.21974646176E+02  0.58820411162E+02  0.51100000000E-03 0.  1.
         22    1    1    0    0    0 -0.30176014024E+02  0.34299527323E+02  0.12480456105E+02  0.47358327479E+02  0.00000000000E+00 0.  1.
</event>
<event>
 5    1  0.1691145E-003  0.9118800E+02  0.7818608E-02  0.1130116E+00
         25   -1    0    0    0    0  0.00000000000E+00  0.00000000000E+00  0.99999998245E-14  0.12500000000E+03  0.12500000000E+03 0.  0.
        -11    1    3    3    0    0 -0.46467478135E+02 -0.28192879915E+00 -0.23284118489E+02  0.51975534458E+02  0.51100000000E-03 0. -1.
         23    2    1    0    0    0 -0.85719846101E+01 -0.22469974319E+02 -0.14978665033E+02  0.96667349714E+02  0.92422061374E+02 0.  0.
         11    1    3    3    0    0  0.37895493525E+02 -0.22188045520E+02  0.83054534565E+01  0.44691815256E+02  0.51100000000E-03 0.  1.
         22    1    1    0    0    0  0.85719846101E+01  0.22469974319E+02  0.14978665033E+02  0.28332650286E+02  0.00000000000E+00 0.  1.
</event>
<event>
 5    1  0.1691145E-003  0.9118800E+02  0.7818608E-02  0.1130116E+00
         25   -1    0    0    0    0  0.00000000000E+00  0.00000000000E+00  0.99999998245E-14  0.12500000000E+03  0.12500000000E+03 0.  0.
        -11    1    3    3    0    0 -0.15016284429E+02  0.57560955986E+02 -0.14606622350E+02  0.61254435503E+02  0.51100000000E-03 0.  1.
         23    2    1    0    0    0 -0.48222187541E+01  0.24475699357E+02 -0.15027587730E+02  0.95877121610E+02  0.91347032807E+02 0.  0.
         11    1    3    3    0    0  0.10194065675E+02 -0.33085256629E+02 -0.42096537920E+00  0.34622686107E+02  0.51100000000E-03 0. -1.
         22    1    1    0    0    0  0.48222187541E+01 -0.24475699357E+02  0.15027587730E+02  0.29122878390E+02  0.00000000000E+00 0.  1.
</event>
<event>
 5    1  0.1691145E-003  0.9118800E+02  0.7818608E-02  0.1130116E+00
         25   -1    0    0    0    0  0.00000000000E+00  0.00000000000E+00  0.99999998245E-14  0.12500000000E+03  0.12500000000E+03 0.  0.
        -11    1    3    3    0    0  0.25251018981E+02 -0.22510326939E+02 -0.77736875132E+01  0.34709638377E+02  0.51100000000E-03 0.  1.
         23    2    1    0    0    0 -0.18304055246E+02  0.90884424572E+01 -0.26366086875E+02  0.91641211626E+02  0.85353985885E+02 0.  0.
         11    1    3    3    0    0 -0.43555074226E+02  0.31598769396E+02 -0.18592399361E+02  0.56931573248E+02  0.51100000000E-03 0. -1.
         22    1    1    0    0    0  0.18304055246E+02 -0.90884424572E+01  0.26366086875E+02  0.33358788374E+02  0.00000000000E+00 0. -1.
</event>
<event>
 5    1  0.1691145E-003  0.9118800E+02  0.7818608E-02  0.1130116E+00
         25   -1    0    0    0    0  0.00000000000E+00  0.00000000000E+00  0.99999998245E-14  0.12500000000E+03  0.12500000000E+03 0.  0.
        -11    1    3    3    0    0  0.40671603760E+02  0.13477538063E+02  0.25217391291E+02  0.49716598922E+02  0.51100000000E-03 0. -1.
         23    2    1    0    0    0  0.21181517607E+02 -0.13480849166E+02 -0.98290089896E+01  0.98037073600E+02  0.94256397130E+02 0.  0.
         11    1    3    3    0    0 -0.19490086153E+02 -0.26958387228E+02 -0.35046400280E+02  0.48320474678E+02  0.51100000000E-03 0.  1.
         22    1    1    0    0    0 -0.21181517607E+02  0.13480849166E+02  0.98290089896E+01  0.26962926400E+02  0.00000000000E+00 0.  1.
</event>
<event>
 5    1  0.1691145E-003  0.9118800E+02  0.7818608E-02  0.1130116E+00
         25   -1    0    0    0    0  0.00000000000E+00  0.00000000000E+00  0.99999998245E-14  0.12500000000E+03  0.12500000000E+03 0.  0.
        -11    1    3    3    0    0  0.38415241259E+02 -0.15328762630E+02  0.49148140336E+01  0.41651616079E+02  0.51100000000E-03 0. -1.
         23    2    1    0    0    0  0.38925593829E+01  0.25873076102E+02 -0.92652040375E+01  0.97243701771E+02  0.93198312446E+02 0.  0.
         11    1    3    3    0    0 -0.34522681876E+02  0.41201838731E+02 -0.14180018071E+02  0.55592085692E+02  0.51100000000E-03 0.  1.
         22    1    1    0    0    0 -0.38925593829E+01 -0.25873076102E+02  0.92652040375E+01  0.27756298229E+02  0.00000000000E+00 0.  1.
</event>
<event>
 5    1  0.1691145E-003  0.9118800E+02  0.7818608E-02  0.1130116E+00
         25   -1    0    0    0    0  0.00000000000E+00  0.00000000000E+00  0.99999998245E-14  0.12500000000E+03  0.12500000000E+03 0.  0.
        -11    1    3    3    0    0  0.47200253938E+02  0.28917904028E+02  0.13567971750E+02  0.56992973276E+02  0.51100000000E-03 0.  1.
         23    2    1    0    0    0  0.28437886098E+02 -0.17489717369E+01 -0.25552806739E+01  0.96394026372E+02  0.92051651767E+02 0.  0.
         11    1    3    3    0    0 -0.18762367840E+02 -0.30666875764E+02 -0.16123252424E+02  0.39401053096E+02  0.51100000000E-03 0. -1.
         22    1    1    0    0    0 -0.28437886098E+02  0.17489717369E+01  0.25552806739E+01  0.28605973628E+02  0.00000000000E+00 0.  1.
</event>
<event>
 5    1  0.1691145E-003  0.9118800E+02  0.7818608E-02  0.1130116E+00
         25   -1    0    0    0    0  0.00000000000E+00  0.00000000000E+00  0.99999998245E-14  0.12500000000E+03  0.12500000000E+03 0.  0.
        -11    1    3    3    0    0 -0.23937732150E+02 -0.82115997364E+01 -0.32747353423E+02  0.41386405343E+02  0.51100000000E-03 0. -1.
         23    2    1    0    0    0 -0.12475627347E+02  0.54442315929E+01  0.22092089260E+02  0.99051178385E+02  0.95591812391E+02 0.  0.
         11    1    3    3    0    0  0.11462104804E+02  0.13655831329E+02  0.54839442684E+02  0.57664773042E+02  0.51100000000E-03 0.  1.
         22    1    1    0    0    0  0.12475627347E+02 -0.54442315929E+01 -0.22092089260E+02  0.25948821615E+02  0.00000000000E+00 0.  1.
</event>
<event>
 5    1  0.1691145E-003  0.9118800E+02  0.7818608E-02  0.1130116E+00
         25   -1    0    0    0    0  0.00000000000E+00  0.00000000000E+00  0.99999998245E-14  0.12500000000E+03  0.12500000000E+03 0.  0.
        -11    1    3    3    0    0 -0.39355537965E+02  0.50734992127E+01 -0.18334359775E+02  0.43712097998E+02  0.51100000000E-03 0.  1.
         23    2    1    0    0    0  0.11136394198E+02  0.13786947075E+02 -0.23893529200E+02  0.95251051733E+02  0.90486258256E+02 0.  0.
         11    1    3    3    0    0  0.50491932163E+02  0.87134478619E+01 -0.55591694250E+01  0.51538953735E+02  0.51100000000E-03 0. -1.
         22    1    1    0    0    0 -0.11136394198E+02 -0.13786947075E+02  0.23893529200E+02  0.29748948267E+02  0.00000000000E+00 0. -1.
</event>
<event>
 5    1  0.1691145E-003  0.9118800E+02  0.7818608E-02  0.1130116E+00
         25   -1    0    0    0    0  0.00000000000E+00  0.00000000000E+00  0.99999998245E-14  0.12500000000E+03  0.12500000000E+03 0.  0.
        -11    1    3    3    0    0 -0.17968859699E+02  0.22003757486E+02 -0.38301884996E+02  0.47687311278E+02  0.51100000000E-03 0.  1.
         23    2    1    0    0    0  0.22343041449E+02  0.13011184872E+02 -0.14730492526E+02  0.95242818631E+02  0.90474884127E+02 0.  0.
         11    1    3    3    0    0  0.40311901148E+02 -0.89925726136E+01  0.23571392470E+02  0.47555507353E+02  0.51100000000E-03 0. -1.
         22    1    1    0    0    0 -0.22343041449E+02 -0.13011184872E+02  0.14730492526E+02  0.29757181369E+02  0.00000000000E+00 0. -1.
</event>
<event>
 5    1  0.1691145E-003  0.9118800E+02  0.7818608E-02  0.1130116E+00
         25   -1    0    0    0    0  0.00000000000E+00  0.00000000000E+00  0.99999998245E-14  0.12500000000E+03  0.12500000000E+03 0.  0.
        -11    1    3    3    0    0 -0.18284979227E+02 -0.26263099593E+02  0.51267265298E+02  0.60435282385E+02  0.51100000000E-03 0.  1.
         23    2    1    0    0    0  0.15906293335E+01 -0.15669965029E+02  0.14281979689E+02  0.10373846549E+03  0.10153628107E+03 0.  0.
         11    1    3    3    0    0  0.19875608561E+02  0.10593134563E+02 -0.36985285609E+02  0.43303183109E+02  0.51100000000E-03 0. -1.
         22    1    1    0    0    0 -0.15906293335E+01  0.15669965029E+02 -0.14281979689E+02  0.21261534506E+02  0.00000000000E+00 0.  1.
</event>
<event>
 5    1  0.1691145E-003  0.9118800E+02  0.7818608E-02  0.1130116E+00
         25   -1    0    0    0    0  0.00000000000E+00  0.00000000000E+00  0.99999998245E-14  0.12500000000E+03  0.12500000000E+03 0.  0.
        -11    1    3    3    0    0 -0.22505221943E+02  0.43191695117E+02  0.84566257811E+01  0.49431994312E+02  0.51100000000E-03 0.  1.
         23    2    1    0    0    0 -0.22096255874E+02 -0.52241724548E+01  0.14247454530E+02  0.98194656091E+02  0.94465147133E+02 0.  0.
         11    1    3    3    0    0  0.40896606958E+00 -0.48415867572E+02  0.57908287491E+01  0.48762661780E+02  0.51100000000E-03 0. -1.
         22    1    1    0    0    0  0.22096255874E+02  0.52241724548E+01 -0.14247454530E+02  0.26805343909E+02  0.00000000000E+00 0. -1.
</event>
<event>
 5    1  0.1691145E-003  0.9118800E+02  0.7818608E-02  0.1130116E+00
         25   -1    0    0    0    0  0.00000000000E+00  0.00000000000E+00  0.99999998245E-14  0.12500000000E+03  0.12500000000E+03 0.  0.
        -11    1    3    3    0    0  0.21643952252E+02  0.29338508228E+02 -0.55476590063E+01  0.36877977912E+02  0.51100000000E-03 0.  1.
         23    2    1    0    0    0 -0.11498265436E+02 -0.18795804928E+02 -0.17902041161E+02  0.96610292910E+02  0.92344860320E+02 0.  0.
         11    1    3    3    0    0 -0.33142217688E+02 -0.48134313157E+02 -0.12354382154E+02  0.59732314998E+02  0.51100000000E-03 0. -1.
         22    1    1    0    0    0  0.11498265436E+02  0.18795804928E+02  0.17902041161E+02  0.28389707090E+02  0.00000000000E+00 0. -1.
</event>
<event>
 5    1  0.1691145E-003  0.9118800E+02  0.7818608E-02  0.1130116E+00
         25   -1    0    0    0    0  0.00000000000E+00  0.00000000000E+00  0.99999998245E-14  0.12500000000E+03  0.12500000000E+03 0.  0.
        -11    1    3    3    0    0  0.23766983758E+02 -0.74553939793E+01  0.24141918563E+02  0.34688393571E+02  0.51100000000E-03 0.  1.
         23    2    1    0    0    0 -0.37329510107E+01 -0.66201100762E+01 -0.29264393181E+02  0.94764830265E+02  0.89812068043E+02 0.  0.
         11    1    3    3    0    0 -0.27499934769E+02  0.83528390315E+00 -0.53406311744E+02  0.60076436694E+02  0.51100000000E-03 0. -1.
         22    1    1    0    0    0  0.37329510107E+01  0.66201100762E+01  0.29264393181E+02  0.30235169735E+02  0.00000000000E+00 0. -1.
</event>
<event>
 5    1  0.1691145E-003  0.9118800E+02  0.7818608E-02  0.1130116E+00
         25   -1    0    0    0    0  0.00000000000E+00  0.00000000000E+00  0.99999998245E-14  0.12500000000E+03  0.12500000000E+03 0.  0.
        -11    1    3    3    0    0  0.11279573700E+02  0.25813983976E+02 -0.14758391722E+02  0.31802526284E+02  0.51100000000E-03 0. -1.
         23    2    1    0    0    0 -0.19516603629E+02 -0.15065597714E+02  0.19647839992E+02  0.93473698789E+02  0.87996731174E+02 0.  0.
         11    1    3    3    0    0 -0.30796177328E+02 -0.40879581690E+02  0.34406231714E+02  0.61671172505E+02  0.51100000000E-03 0.  1.
         22    1    1    0    0    0  0.19516603629E+02  0.15065597714E+02 -0.19647839992E+02  0.31526301211E+02  0.00000000000E+00 0.  1.
</event>
<event>
 5    1  0.1691145E-003  0.9118800E+02  0.7818608E-02  0.1130116E+00
         25   -1    0    0    0    0  0.00000000000E+00  0.00000000000E+00  0.99999998245E-14  0.12500000000E+03  0.12500000000E+03 0.  0.
        -11    1    3    3    0    0 -0.36000963241E+01 -0.44510873379E+02 -0.40626538425E+02  0.60371302513E+02  0.51100000000E-03 0.  1.
         23    2    1    0    0    0  0.97873568436E+01 -0.17588094217E+02 -0.17940551528E+02  0.98037121791E+02  0.94256461040E+02 0.  0.
         11    1    3    3    0    0  0.13387453168E+02  0.26922779162E+02  0.22685986897E+02  0.37665819278E+02  0.51100000000E-03 0. -1.
         22    1    1    0    0    0 -0.97873568436E+01  0.17588094217E+02  0.17940551528E+02  0.26962878209E+02  0.00000000000E+00 0.  1.
</event>
<event>
 5    1  0.1691145E-003  0.9118800E+02  0.7818608E-02  0.1130116E+00
         25   -1    0    0    0    0  0.00000000000E+00  0.00000000000E+00  0.99999998245E-14  0.12500000000E+03  0.12500000000E+03 0.  0.
        -11    1    3    3    0    0  0.25279520318E+02 -0.72925155944E+01  0.52213196349E+02  0.58467536329E+02  0.51100000000E-03 0.  1.
         23    2    1    0    0    0  0.15419358722E+02  0.11884312007E+02  0.21483328750E+02  0.96008157881E+02  0.91526168226E+02 0.  0.
         11    1    3    3    0    0 -0.98601615957E+01  0.19176827601E+02 -0.30729867599E+02  0.37540621551E+02  0.51100000000E-03 0. -1.
         22    1    1    0    0    0 -0.15419358722E+02 -0.11884312007E+02 -0.21483328750E+02  0.28991842119E+02  0.00000000000E+00 0.  1.
</event>
<event>
 5    1  0.1691145E-003  0.9118800E+02  0.7818608E-02  0.1130116E+00
         25   -1    0    0    0    0  0.00000000000E+00  0.00000000000E+00  0.99999998245E-14  0.12500000000E+03  0.12500000000E+03 0.  0.
        -11    1    3    3    0    0 -0.58674313891E+02  0.12894609265E+02 -0.14479190265E+02  0.61794765228E+02  0.51100000000E-03 0. -1.
         23    2    1    0    0    0 -0.26085535347E+02  0.50642944869E+01  0.30198213865E+00  0.98425699892E+02  0.94770380252E+02 0.  0.
         11    1    3    3    0    0  0.32588778543E+02 -0.78303147779E+01  0.14781172404E+02  0.36630934664E+02  0.51100000000E-03 0.  1.
         22    1    1    0    0    0  0.26085535347E+02 -0.50642944869E+01 -0.30198213865E+00  0.26574300108E+02  0.00000000000E+00 0. -1.
</event>
<event>
 5    1  0.1691145E-003  0.9118800E+02  0.7818608E-02  0.1130116E+00
         25   -1    0    0    0    0  0.00000000000E+00  0.00000000000E+00  0.99999998245E-14  0.12500000000E+03  0.12500000000E+03 0.  0.
        -11    1    3    3    0    0 -0.17500925962E+02 -0.18940642115E+01  0.33787314072E+02  0.38097932768E+02  0.51100000000E-03 0. -1.
         23    2    1    0    0    0  0.20752707493E+02  0.25301450075E+02  0.96105132015E+01  0.90894278952E+02  0.84253010261E+02 0.  0.
         11    1    3    3    0    0  0.38253633455E+02  0.27195514287E+02 -0.24176800870E+02  0.52796346184E+02  0.51100000000E-03 0.  1.
         22    1    1    0    0    0 -0.20752707493E+02 -0.25301450075E+02 -0.96105132015E+01  0.34105721048E+02  0.00000000000E+00 0.  1.
</event>
<event>
 5    1  0.1691145E-003  0.9118800E+02  0.7818608E-02  0.1130116E+00
         25   -1    0    0    0    0  0.00000000000E+00  0.00000000000E+00  0.99999998245E-14  0.12500000000E+03  0.12500000000E+03 0.  0.
        -11    1    3    3    0    0  0.25734836194E+02 -0.47523823796E+02  0.92846047440E+01  0.54836114994E+02  0.51100000000E-03 0. -1.
         23    2    1    0    0    0 -0.56759924989E+01 -0.21906831855E+02  0.17745219860E+02  0.96242061955E+02  0.91845062408E+02 0.  0.
         11    1    3    3    0    0 -0.31410828693E+02  0.25616991941E+02  0.84606151155E+01  0.41405946961E+02  0.51100000000E-03 0.  1.
         22    1    1    0    0    0  0.56759924989E+01  0.21906831855E+02 -0.17745219860E+02  0.28757938045E+02  0.00000000000E+00 0. -1.
</event>
<event>
 5    1  0.1691145E-003  0.9118800E+02  0.7818608E-02  0.1130116E+00
         25   -1    0    0    0    0  0.00000000000E+00  0.00000000000E+00  0.99999998245E-14  0.12500000000E+03  0.12500000000E+03 0.  0.
        -11    1    3    3    0    0 -0.11996774074E+02  0.35940576051E+02 -0.23516797327E+02  0.44594700939E+02  0.51100000000E-03 0.  1.
         23    2    1    0    0    0 -0.19538759076E+01 -0.14762766499E+02 -0.24542217600E+02  0.96293252527E+02  0.91914705743E+02 0.  0.
         11    1    3    3    0    0  0.10042898166E+02 -0.50703342550E+02 -0.10254202725E+01  0.51698551588E+02  0.51100000000E-03 0. -1.
         22    1    1    0    0    0  0.19538759076E+01  0.14762766499E+02  0.24542217600E+02  0.28706747473E+02  0.00000000000E+00 0.  1.
</event>
<event>
 5    1  0.1691145E-003  0.9118800E+02  0.7818608E-02  0.1130116E+00
         25   -1    0    0    0    0  0.00000000000E+00  0.00000000000E+00  0.99999998245E-14  0.12500000000E+03  0.12500000000E+03 0.  0.
        -11    1    3    3    0    0 -0.35363903390E+02  0.51549163517E+01  0.24365848115E+02  0.43253593841E+02  0.51100000000E-03 0. -1.
         23    2    1    0    0    0 -0.73952161589E+01 -0.46373492934E+01 -0.23713170542E+02  0.99731270557E+02  0.96477031667E+02 0.  0.
         11    1    3    3    0    0  0.27968687231E+02 -0.97922656451E+01 -0.48079018657E+02  0.56477676716E+02  0.51100000000E-03 0.  1.
         22    1    1    0    0    0  0.73952161589E+01  0.46373492934E+01  0.23713170542E+02  0.25268729443E+02  0.00000000000E+00 0.  1.
</event>
<event>
 5    1  0.1691145E-003  0.9118800E+02  0.7818608E-02  0.1130116E+00
         25   -1    0    0    0    0  0.00000000000E+00  0.00000000000E+00  0.99999998245E-14  0.12500000000E+03  0.12500000000E+03 0.  0.
        -11    1    3    3    0    0 -0.35124535123E+01  0.33892260794E+02 -0.50528451509E+01  0.34446391913E+02  0.51100000000E-03 0. -1.
         23    2    1    0    0    0 -0.21527465198E+02 -0.21891263489E+02  0.49094187743E+01  0.93907210359E+02  0.88610397751E+02 0.  0.
         11    1    3    3    0    0 -0.18015011686E+02 -0.55783524283E+02  0.99622639252E+01  0.59460818446E+02  0.51100000000E-03 0.  1.
         22    1    1    0    0    0  0.21527465198E+02  0.21891263489E+02 -0.49094187743E+01  0.31092789641E+02  0.00000000000E+00 0.  1.
</event>
<event>
 5    1  0.1691145E-003  0.9118800E+02  0.7818608E-02  0.1130116E+00
         25   -1    0    0    0    0  0.00000000000E+00  0.00000000000E+00  0.99999998245E-14  0.12500000000E+03  0.12500000000E+03 0.  0.
        -11    1    3    3    0    0  0.80711828825E+01  0.30287456719E+02  0.91184704584E+01  0.32643843698E+02  0.51100000000E-03 0. -1.
         23    2    1    0    0    0 -0.37585584142E+02  0.10366349287E+01  0.18186621501E+01  0.87356165455E+02  0.78829191064E+02 0.  0.
         11    1    3    3    0    0 -0.45656767024E+02 -0.29250821790E+02 -0.72998083082E+01  0.54712321757E+02  0.51100000000E-03 0.  1.
         22    1    1    0    0    0  0.37585584142E+02 -0.10366349287E+01 -0.18186621501E+01  0.37643834545E+02  0.00000000000E+00 0.  1.
</event>
<event>
 5    1  0.1691145E-003  0.9118800E+02  0.7818608E-02  0.1130116E+00
         25   -1    0    0    0    0  0.00000000000E+00  0.00000000000E+00  0.99999998245E-14  0.12500000000E+03  0.12500000000E+03 0.  0.
        -11    1    3    3    0    0  0.40816484433E+02 -0.44483069035E+01  0.46780881461E+02  0.62243262336E+02  0.51100000000E-03 0.  1.
         23    2    1    0    0    0  0.27676916256E+02 -0.62078404548E+01  0.28859618497E+02  0.84534872343E+02  0.74220738919E+02 0.  0.
         11    1    3    3    0    0 -0.13139568177E+02 -0.17595335513E+01 -0.17921262964E+02  0.22291610006E+02  0.51100000000E-03 0. -1.
         22    1    1    0    0    0 -0.27676916256E+02  0.62078404548E+01 -0.28859618497E+02  0.40465127657E+02  0.00000000000E+00 0.  1.
</event>
<event>
 5    1  0.1691145E-003  0.9118800E+02  0.7818608E-02  0.1130116E+00
         25   -1    0    0    0    0  0.00000000000E+00  0.00000000000E+00  0.99999998245E-14  0.12500000000E+03  0.12500000000E+03 0.  0.
        -11    1    3    3    0    0 -0.10800492444E+02 -0.12303538732E+02 -0.36412420757E+02  0.39923578096E+02  0.51100000000E-03 0. -1.
         23    2    1    0    0    0  0.12770621733E+02  0.26259827379E+02 -0.40316906654E+01  0.95522519730E+02  0.90860497096E+02 0.  0.
         11    1    3    3    0    0  0.23571114177E+02  0.38563366111E+02  0.32380730091E+02  0.55598941634E+02  0.51100000000E-03 0.  1.
         22    1    1    0    0    0 -0.12770621733E+02 -0.26259827379E+02  0.40316906654E+01  0.29477480270E+02  0.00000000000E+00 0. -1.
</event>
<event>
 5    1  0.1691145E-003  0.9118800E+02  0.7818608E-02  0.1130116E+00
         25   -1    0    0    0    0  0.00000000000E+00  0.00000000000E+00  0.99999998245E-14  0.12500000000E+03  0.12500000000E+03 0.  0.
        -11    1    3    3    0    0  0.36779937054E+02  0.18958940369E+02 -0.67564012537E+00  0.41384316830E+02  0.51100000000E-03 0. -1.
         23    2    1    0    0    0 -0.85247419996E+01  0.54661155896E+01  0.27001496553E+02  0.96161996222E+02  0.91736029212E+02 0.  0.
         11    1    3    3    0    0 -0.45304679054E+02 -0.13492824779E+02  0.27677136678E+02  0.54777679393E+02  0.51100000000E-03 0.  1.
         22    1    1    0    0    0  0.85247419996E+01 -0.54661155896E+01 -0.27001496553E+02  0.28838003778E+02  0.00000000000E+00 0.  1.
</event>
<event>
 5    1  0.1691145E-003  0.9118800E+02  0.7818608E-02  0.1130116E+00
         25   -1    0    0    0    0  0.00000000000E+00  0.00000000000E+00  0.99999998245E-14  0.12500000000E+03  0.12500000000E+03 0.  0.
        -11    1    3    3    0    0 -0.47331393743E+02  0.31043109441E+02  0.17618721882E+02  0.59281994218E+02  0.51100000000E-03 0. -1.
         23    2    1    0    0    0 -0.20581604470E+02  0.23116755273E+02 -0.28982227772E+01  0.93913242174E+02  0.88618906241E+02 0.  0.
         11    1    3    3    0    0  0.26749789273E+02 -0.79263541683E+01 -0.20516944659E+02  0.34631247956E+02  0.51100000000E-03 0.  1.
         22    1    1    0    0    0  0.20581604470E+02 -0.23116755273E+02  0.28982227772E+01  0.31086757826E+02  0.00000000000E+00 0. -1.
</event>
<event>
 5    1  0.1691145E-003  0.9118800E+02  0.7818608E-02  0.1130116E+00
         25   -1    0    0    0    0  0.00000000000E+00  0.00000000000E+00  0.99999998245E-14  0.12500000000E+03  0.12500000000E+03 0.  0.
        -11    1    3    3    0    0 -0.31122326402E+02 -0.12143596335E+02  0.52057999090E+02  0.61855488051E+02  0.51100000000E-03 0.  1.
         23    2    1    0    0    0 -0.12412362788E+02 -0.11640235812E+02  0.24284716777E+02  0.95346849937E+02  0.90618499679E+02 0.  0.
         11    1    3    3    0    0  0.18709963614E+02  0.50336052284E+00 -0.27773282312E+02  0.33491361885E+02  0.51100000000E-03 0. -1.
         22    1    1    0    0    0  0.12412362788E+02  0.11640235812E+02 -0.24284716777E+02  0.29653150063E+02  0.00000000000E+00 0.  1.
</event>
<event>
 5    1  0.1691145E-003  0.9118800E+02  0.7818608E-02  0.1130116E+00
         25   -1    0    0    0    0  0.00000000000E+00  0.00000000000E+00  0.99999998245E-14  0.12500000000E+03  0.12500000000E+03 0.  0.
        -11    1    3    3    0    0  0.82720151485E+01  0.27321979078E+02  0.42215764075E+02  0.50961627840E+02  0.51100000000E-03 0.  1.
         23    2    1    0    0    0 -0.10218995361E+02 -0.96425700634E+01  0.26166780397E+02  0.95299706736E+02  0.90553446561E+02 0.  0.
         11    1    3    3    0    0 -0.18491010509E+02 -0.36964549141E+02 -0.16048983678E+02  0.44338078897E+02  0.51100000000E-03 0. -1.
         22    1    1    0    0    0  0.10218995361E+02  0.96425700634E+01 -0.26166780397E+02  0.29700293264E+02  0.00000000000E+00 0.  1.
</event>
<event>
 5    1  0.1691145E-003  0.9118800E+02  0.7818608E-02  0.1130116E+00
         25   -1    0    0    0    0  0.00000000000E+00  0.00000000000E+00  0.99999998245E-14  0.12500000000E+03  0.12500000000E+03 0.  0.
        -11    1    3    3    0    0 -0.61532238191E+02  0.26115512325E+01 -0.53181179724E+01  0.61816817418E+02  0.51100000000E-03 0. -1.
         23    2    1    0    0    0 -0.30605178531E+02 -0.42045952156E+01 -0.61685833790E+01  0.93497508118E+02  0.88030546003E+02 0.  0.
         11    1    3    3    0    0  0.30927059660E+02 -0.68161464481E+01 -0.85046540656E+00  0.31680690700E+02  0.51100000000E-03 0.  1.
         22    1    1    0    0    0  0.30605178531E+02  0.42045952156E+01  0.61685833790E+01  0.31502491882E+02  0.00000000000E+00 0. -1.
</event>
<event>
 5    1  0.1691145E-003  0.9118800E+02  0.7818608E-02  0.1130116E+00
         25   -1    0    0    0    0  0.00000000000E+00  0.00000000000E+00  0.99999998245E-14  0.12500000000E+03  0.12500000000E+03 0.  0.
        -11    1    3    3    0    0  0.29140351427E+02 -0.13903532863E+02  0.86160908265E+01  0.33417141242E+02  0.51100000000E-03 0. -1.
         23    2    1    0    0    0 -0.26386301588E+02  0.12463551463E+02  0.73842428781E+01  0.94898437426E+02  0.89997829732E+02 0.  0.
         11    1    3    3    0    0 -0.55526653015E+02  0.26367084326E+02 -0.12318479484E+01  0.61481296184E+02  0.51100000000E-03 0.  1.
         22    1    1    0    0    0  0.26386301588E+02 -0.12463551463E+02 -0.73842428781E+01  0.30101562574E+02  0.00000000000E+00 0.  1.
</event>
<event>
 5    1  0.1691145E-003  0.9118800E+02  0.7818608E-02  0.1130116E+00
         25   -1    0    0    0    0  0.00000000000E+00  0.00000000000E+00  0.99999998245E-14  0.12500000000E+03  0.12500000000E+03 0.  0.
        -11    1    3    3    0    0 -0.11760587921E+02 -0.19225198666E+02  0.57063851427E+02  0.61353099611E+02  0.51100000000E-03 0.  1.
         23    2    1    0    0    0 -0.13265009462E+02 -0.70501811437E+01  0.23293487684E+02  0.97282639038E+02  0.93250521497E+02 0.  0.
         11    1    3    3    0    0 -0.15044215413E+01  0.12175017522E+02 -0.33770363743E+02  0.35929539427E+02  0.51100000000E-03 0. -1.
         22    1    1    0    0    0  0.13265009462E+02  0.70501811437E+01 -0.23293487684E+02  0.27717360962E+02  0.00000000000E+00 0.  1.
</event>
<event>
 5    1  0.1691145E-003  0.9118800E+02  0.7818608E-02  0.1130116E+00
         25   -1    0    0    0    0  0.00000000000E+00  0.00000000000E+00  0.99999998245E-14  0.12500000000E+03  0.12500000000E+03 0.  0.
        -11    1    3    3    0    0  0.64084604591E+01  0.36553850183E+02 -0.23907719263E+02  0.44145570211E+02  0.51100000000E-03 0.  1.
         23    2    1    0    0    0  0.24457351412E+02 -0.10471286484E+02 -0.11468424291E+02  0.96028727429E+02  0.91554256357E+02 0.  0.
         11    1    3    3    0    0  0.18048890952E+02 -0.47025136667E+02  0.12439294972E+02  0.51883157217E+02  0.51100000000E-03 0. -1.
         22    1    1    0    0    0 -0.24457351412E+02  0.10471286484E+02  0.11468424291E+02  0.28971272571E+02  0.00000000000E+00 0. -1.
</event>
<event>
 5    1  0.1691145E-003  0.9118800E+02  0.7818608E-02  0.1130116E+00
         25   -1    0    0    0    0  0.00000000000E+00  0.00000000000E+00  0.99999998245E-14  0.12500000000E+03  0.12500000000E+03 0.  0.
        -11    1    3    3    0    0  0.35311264131E+02 -0.30185311446E+02  0.27990988148E+02  0.54235908948E+02  0.51100000000E-03 0.  1.
         23    2    1    0    0    0  0.80832007760E+01 -0.26193428119E+02 -0.49342708241E+01  0.97147157417E+02  0.93068734569E+02 0.  0.
         11    1    3    3    0    0 -0.27228063355E+02  0.39918833278E+01 -0.32925258972E+02  0.42911248469E+02  0.51100000000E-03 0. -1.
         22    1    1    0    0    0 -0.80832007760E+01  0.26193428119E+02  0.49342708241E+01  0.27852842583E+02  0.00000000000E+00 0.  1.
</event>
<event>
 5    1  0.1691145E-003  0.9118800E+02  0.7818608E-02  0.1130116E+00
         25   -1    0    0    0    0  0.00000000000E+00  0.00000000000E+00  0.99999998245E-14  0.12500000000E+03  0.12500000000E+03 0.  0.
        -11    1    3    3    0    0 -0.25150233857E+02  0.31408012651E+02  0.56051939361E+01  0.40625308874E+02  0.51100000000E-03 0. -1.
         23    2    1    0    0    0  0.13080654885E+02 -0.15720708536E+01  0.26607228780E+02  0.95309604881E+02  0.90567108932E+02 0.  0.
         11    1    3    3    0    0  0.38230888742E+02 -0.32980083504E+02  0.21002034844E+02  0.54684296007E+02  0.51100000000E-03 0.  1.
         22    1    1    0    0    0 -0.13080654885E+02  0.15720708536E+01 -0.26607228780E+02  0.29690395119E+02  0.00000000000E+00 0.  1.
</event>
<event>
 5    1  0.1691145E-003  0.9118800E+02  0.7818608E-02  0.1130116E+00
         25   -1    0    0    0    0  0.00000000000E+00  0.00000000000E+00  0.99999998245E-14  0.12500000000E+03  0.12500000000E+03 0.  0.
        -11    1    3    3    0    0 -0.75925141696E+01 -0.10428041221E+02 -0.31343638920E+02  0.33894159027E+02  0.51100000000E-03 0. -1.
         23    2    1    0    0    0 -0.82102542039E+01  0.92788593527E+01  0.26899644256E+02  0.95384187230E+02  0.90669988460E+02 0.  0.
         11    1    3    3    0    0 -0.61774003429E+00  0.19706900574E+02  0.58243283176E+02  0.61490028202E+02  0.51100000000E-03 0.  1.
         22    1    1    0    0    0  0.82102542039E+01 -0.92788593527E+01 -0.26899644256E+02  0.29615812770E+02  0.00000000000E+00 0.  1.
</event>
<event>
 5    1  0.1691145E-003  0.9118800E+02  0.7818608E-02  0.1130116E+00
         25   -1    0    0    0    0  0.00000000000E+00  0.00000000000E+00  0.99999998245E-14  0.12500000000E+03  0.12500000000E+03 0.  0.
        -11    1    3    3    0    0  0.74765382772E+01 -0.32158898028E+02 -0.87046435977E+01  0.34144753146E+02  0.51100000000E-03 0. -1.
         23    2    1    0    0    0 -0.41212243947E+01  0.15509557303E+02  0.26145623503E+02  0.94322247693E+02  0.89193956764E+02 0.  0.
         11    1    3    3    0    0 -0.11597762672E+02  0.47668455331E+02  0.34850267101E+02  0.60177494547E+02  0.51100000000E-03 0.  1.
         22    1    1    0    0    0  0.41212243947E+01 -0.15509557303E+02 -0.26145623503E+02  0.30677752307E+02  0.00000000000E+00 0.  1.
</event>
<event>
 5    1  0.1691145E-003  0.9118800E+02  0.7818608E-02  0.1130116E+00
         25   -1    0    0    0    0  0.00000000000E+00  0.00000000000E+00  0.99999998245E-14  0.12500000000E+03  0.12500000000E+03 0.  0.
        -11    1    3    3    0    0 -0.19840258099E+02 -0.11968618792E+02 -0.35982881028E+02  0.42797796726E+02  0.51100000000E-03 0. -1.
         23    2    1    0    0    0  0.97051631621E+01 -0.20823990909E+02  0.11413507144E+02  0.99346599939E+02  0.95977340996E+02 0.  0.
         11    1    3    3    0    0  0.29545421261E+02 -0.88553721171E+01  0.47396388172E+02  0.56548803213E+02  0.51100000000E-03 0.  1.
         22    1    1    0    0    0 -0.97051631621E+01  0.20823990909E+02 -0.11413507144E+02  0.25653400061E+02  0.00000000000E+00 0.  1.
</event>
<event>
 5    1  0.1691145E-003  0.9118800E+02  0.7818608E-02  0.1130116E+00
         25   -1    0    0    0    0  0.00000000000E+00  0.00000000000E+00  0.99999998245E-14  0.12500000000E+03  0.12500000000E+03 0.  0.
        -11    1    3    3    0    0 -0.37444500506E+02  0.14070163618E+01  0.75934773953E+01  0.38232593587E+02  0.51100000000E-03 0.  1.
         23    2    1    0    0    0  0.18699485595E+02  0.69708541007E+01 -0.16034870504E+02  0.99399596869E+02  0.96046338906E+02 0.  0.
         11    1    3    3    0    0  0.56143986101E+02  0.55638377389E+01 -0.23628347899E+02  0.61167003281E+02  0.51100000000E-03 0. -1.
         22    1    1    0    0    0 -0.18699485595E+02 -0.69708541007E+01  0.16034870504E+02  0.25600403131E+02  0.00000000000E+00 0. -1.
</event>
<event>
 5    1  0.1691145E-003  0.9118800E+02  0.7818608E-02  0.1130116E+00
         25   -1    0    0    0    0  0.00000000000E+00  0.00000000000E+00  0.99999998245E-14  0.12500000000E+03  0.12500000000E+03 0.  0.
        -11    1    3    3    0    0  0.45926468936E+02  0.36900097152E+02  0.18681131750E+02  0.61804873614E+02  0.51100000000E-03 0.  1.
         23    2    1    0    0    0  0.15257218701E+02  0.19361289988E+02  0.11229909429E+02  0.97912121931E+02  0.94090544067E+02 0.  0.
         11    1    3    3    0    0 -0.30669250234E+02 -0.17538807165E+02 -0.74512223207E+01  0.36107248317E+02  0.51100000000E-03 0. -1.
         22    1    1    0    0    0 -0.15257218701E+02 -0.19361289988E+02 -0.11229909429E+02  0.27087878069E+02  0.00000000000E+00 0.  1.
</event>
<event>
 5    1  0.1691145E-003  0.9118800E+02  0.7818608E-02  0.1130116E+00
         25   -1    0    0    0    0  0.00000000000E+00  0.00000000000E+00  0.99999998245E-14  0.12500000000E+03  0.12500000000E+03 0.  0.
        -11    1    3    3    0    0 -0.52869182194E+02 -0.10550916628E+02 -0.23254250509E+02  0.58713136814E+02  0.51100000000E-03 0.  1.
         23    2    1    0    0    0 -0.14186396339E+02 -0.15857357187E+02 -0.15884578640E+02  0.98447609211E+02  0.94799273746E+02 0.  0.
         11    1    3    3    0    0  0.38682785855E+02 -0.53064405594E+01  0.73696718689E+01  0.39734472396E+02  0.51100000000E-03 0. -1.
         22    1    1    0    0    0  0.14186396339E+02  0.15857357187E+02  0.15884578640E+02  0.26552390789E+02  0.00000000000E+00 0.  1.
</event>
<event>
 5    1  0.1691145E-003  0.9118800E+02  0.7818608E-02  0.1130116E+00
         25   -1    0    0    0    0  0.00000000000E+00  0.00000000000E+00  0.99999998245E-14  0.12500000000E+03  0.12500000000E+03 0.  0.
        -11    1    3    3    0    0 -0.44357426606E+02  0.49133706768E+01  0.41761248820E+02  0.61120572721E+02  0.51100000000E-03 0.  1.
         23    2    1    0    0    0 -0.17789836831E+02  0.10423519019E+02  0.23016151000E+02  0.94099008914E+02  0.88880550339E+02 0.  0.
         11    1    3    3    0    0  0.26567589774E+02  0.55101483422E+01 -0.18745097820E+02  0.32978436193E+02  0.51100000000E-03 0. -1.
         22    1    1    0    0    0  0.17789836831E+02 -0.10423519019E+02 -0.23016151000E+02  0.30900991086E+02  0.00000000000E+00 0.  1.
</event>
<event>
 5    1  0.1691145E-003  0.9118800E+02  0.7818608E-02  0.1130116E+00
         25   -1    0    0    0    0  0.00000000000E+00  0.00000000000E+00  0.99999998245E-14  0.12500000000E+03  0.12500000000E+03 0.  0.
        -11    1    3    3    0    0 -0.34295057926E+02 -0.19327884770E+02  0.26046509411E+02  0.47203164943E+02  0.51100000000E-03 0. -1.
         23    2    1    0    0    0 -0.14473945714E+01  0.16731125771E+02  0.23590858340E+02  0.96042201087E+02  0.91572650239E+02 0.  0.
         11    1    3    3    0    0  0.32847663354E+02  0.36059010542E+02 -0.24556510712E+01  0.48839036145E+02  0.51100000000E-03 0.  1.
         22    1    1    0    0    0  0.14473945714E+01 -0.16731125771E+02 -0.23590858340E+02  0.28957798913E+02  0.00000000000E+00 0.  1.
</event>
<event>
 5    1  0.1691145E-003  0.9118800E+02  0.7818608E-02  0.1130116E+00
         25   -1    0    0    0    0  0.00000000000E+00  0.00000000000E+00  0.99999998245E-14  0.12500000000E+03  0.12500000000E+03 0.  0.
        -11    1    3    3    0    0  0.31556705734E+02 -0.26148781301E+02 -0.23949472193E+02  0.47467480014E+02  0.51100000000E-03 0. -1.
         23    2    1    0    0    0 -0.17839859603E+01  0.72386813493E+01 -0.29126424355E+02  0.94934576183E+02  0.90048009672E+02 0.  0.
         11    1    3    3    0    0 -0.33340691694E+02  0.33387462650E+02 -0.51769521616E+01  0.47467096170E+02  0.51100000000E-03 0.  1.
         22    1    1    0    0    0  0.17839859603E+01 -0.72386813493E+01  0.29126424355E+02  0.30065423817E+02  0.00000000000E+00 0. -1.
</event>
<event>
 5    1  0.1691145E-003  0.9118800E+02  0.7818608E-02  0.1130116E+00
         25   -1    0    0    0    0  0.00000000000E+00  0.00000000000E+00  0.99999998245E-14  0.12500000000E+03  0.12500000000E+03 0.  0.
        -11    1    3    3    0    0 -0.34394098991E+02 -0.42331293507E+02 -0.14743840489E+02  0.56500206088E+02  0.51100000000E-03 0.  1.
         23    2    1    0    0    0  0.28736419803E+00 -0.28985173659E+02 -0.14156435164E+01  0.95978853972E+02  0.91486138256E+02 0.  0.
         11    1    3    3    0    0  0.34681463189E+02  0.13346119848E+02  0.13328196972E+02  0.39478647884E+02  0.51100000000E-03 0. -1.
         22    1    1    0    0    0 -0.28736419803E+00  0.28985173659E+02  0.14156435164E+01  0.29021146028E+02  0.00000000000E+00 0.  1.
</event>
<event>
 5    1  0.1691145E-003  0.9118800E+02  0.7818608E-02  0.1130116E+00
         25   -1    0    0    0    0  0.00000000000E+00  0.00000000000E+00  0.99999998245E-14  0.12500000000E+03  0.12500000000E+03 0.  0.
        -11    1    3    3    0    0  0.18937871725E+02  0.49642842471E+02  0.14666142183E+02  0.55119420542E+02  0.51100000000E-03 0.  1.
         23    2    1    0    0    0  0.14583107824E+01  0.29793433752E+02 -0.12156505188E+02  0.92788884163E+02  0.87018509759E+02 0.  0.
         11    1    3    3    0    0 -0.17479560943E+02 -0.19849408718E+02 -0.26822647371E+02  0.37669463621E+02  0.51100000000E-03 0. -1.
         22    1    1    0    0    0 -0.14583107824E+01 -0.29793433752E+02  0.12156505188E+02  0.32211115837E+02  0.00000000000E+00 0.  1.
</event>
<event>
 5    1  0.1691145E-003  0.9118800E+02  0.7818608E-02  0.1130116E+00
         25   -1    0    0    0    0  0.00000000000E+00  0.00000000000E+00  0.99999998245E-14  0.12500000000E+03  0.12500000000E+03 0.  0.
        -11    1    3    3    0    0  0.33115299655E+02  0.19177078953E+02  0.13345166487E+02  0.40527483234E+02  0.51100000000E-03 0. -1.
         23    2    1    0    0    0  0.16719066693E+02  0.16973459136E+02 -0.29864792407E+02  0.86796186949E+02  0.77936170917E+02 0.  0.
         11    1    3    3    0    0 -0.16396232962E+02 -0.22036198172E+01 -0.43209958894E+02  0.46268703716E+02  0.51100000000E-03 0.  1.
         22    1    1    0    0    0 -0.16719066693E+02 -0.16973459136E+02  0.29864792407E+02  0.38203813051E+02  0.00000000000E+00 0.  1.
</event>
<event>
 5    1  0.1691145E-003  0.9118800E+02  0.7818608E-02  0.1130116E+00
         25   -1    0    0    0    0  0.00000000000E+00  0.00000000000E+00  0.99999998245E-14  0.12500000000E+03  0.12500000000E+03 0.  0.
        -11    1    3    3    0    0 -0.18486074196E+02 -0.41511753870E+02 -0.30392186613E+02  0.54668506985E+02  0.51100000000E-03 0. -1.
         23    2    1    0    0    0  0.11664525866E+02 -0.16912952181E+02  0.64793106082E+00  0.10444449150E+03  0.10240177183E+03 0.  0.
         11    1    3    3    0    0  0.30150600062E+02  0.24598801689E+02  0.31040117674E+02  0.49775984512E+02  0.51100000000E-03 0.  1.
         22    1    1    0    0    0 -0.11664525866E+02  0.16912952181E+02 -0.64793106082E+00  0.20555508503E+02  0.00000000000E+00 0. -1.
</event>
<event>
 5    1  0.1691145E-003  0.9118800E+02  0.7818608E-02  0.1130116E+00
         25   -1    0    0    0    0  0.00000000000E+00  0.00000000000E+00  0.99999998245E-14  0.12500000000E+03  0.12500000000E+03 0.  0.
        -11    1    3    3    0    0 -0.24709876370E+02 -0.48749807761E+02  0.11435794028E+02  0.55838151225E+02  0.51100000000E-03 0.  1.
         23    2    1    0    0    0 -0.22239976652E+02 -0.95030306844E+01  0.16836236686E+02  0.95531660728E+02  0.90873071820E+02 0.  0.
         11    1    3    3    0    0  0.24698997177E+01  0.39246777076E+02  0.54004426585E+01  0.39693509503E+02  0.51100000000E-03 0. -1.
         22    1    1    0    0    0  0.22239976652E+02  0.95030306844E+01 -0.16836236686E+02  0.29468339272E+02  0.00000000000E+00 0.  1.
</event>
<event>
 5    1  0.1691145E-003  0.9118800E+02  0.7818608E-02  0.1130116E+00
         25   -1    0    0    0    0  0.00000000000E+00  0.00000000000E+00  0.99999998245E-14  0.12500000000E+03  0.12500000000E+03 0.  0.
        -11    1    3    3    0    0  0.13181064161E+02  0.23596938229E+02 -0.19334571214E+02  0.33232237218E+02  0.51100000000E-03 0.  1.
         23    2    1    0    0    0 -0.11637946026E+02 -0.15821665983E+02  0.21999645731E+02  0.95508453508E+02  0.90841143636E+02 0.  0.
         11    1    3    3    0    0 -0.24819010187E+02 -0.39418604212E+02  0.41334216945E+02  0.62276216290E+02  0.51100000000E-03 0. -1.
         22    1    1    0    0    0  0.11637946026E+02  0.15821665983E+02 -0.21999645731E+02  0.29491546492E+02  0.00000000000E+00 0. -1.
</event>
<event>
 5    1  0.1691145E-003  0.9118800E+02  0.7818608E-02  0.1130116E+00
         25   -1    0    0    0    0  0.00000000000E+00  0.00000000000E+00  0.99999998245E-14  0.12500000000E+03  0.12500000000E+03 0.  0.
        -11    1    3    3    0    0 -0.18174788809E+02 -0.41438473134E+02  0.11311024647E+02  0.46641283031E+02  0.51100000000E-03 0. -1.
         23    2    1    0    0    0  0.20295081910E+02 -0.14851921521E+02  0.18264576820E+02  0.93918418814E+02  0.88626207769E+02 0.  0.
         11    1    3    3    0    0  0.38469870719E+02  0.26586551612E+02  0.69535521731E+01  0.47277135783E+02  0.51100000000E-03 0.  1.
         22    1    1    0    0    0 -0.20295081910E+02  0.14851921521E+02 -0.18264576820E+02  0.31081581186E+02  0.00000000000E+00 0.  1.
</event>
<event>
 5    1  0.1691145E-003  0.9118800E+02  0.7818608E-02  0.1130116E+00
         25   -1    0    0    0    0  0.00000000000E+00  0.00000000000E+00  0.99999998245E-14  0.12500000000E+03  0.12500000000E+03 0.  0.
        -11    1    3    3    0    0 -0.12865125047E+02 -0.48759541733E+02  0.27547816692E+02  0.57462044493E+02  0.51100000000E-03 0. -1.
         23    2    1    0    0    0  0.10349104215E+02 -0.24259002458E+02  0.19609153884E+02  0.92134789300E+02  0.86073790000E+02 0.  0.
         11    1    3    3    0    0  0.23214229263E+02  0.24500539275E+02 -0.79386628077E+01  0.34672744807E+02  0.51100000000E-03 0.  1.
         22    1    1    0    0    0 -0.10349104215E+02  0.24259002458E+02 -0.19609153884E+02  0.32865210700E+02  0.00000000000E+00 0. -1.
</event>
<event>
 5    1  0.1691145E-003  0.9118800E+02  0.7818608E-02  0.1130116E+00
         25   -1    0    0    0    0  0.00000000000E+00  0.00000000000E+00  0.99999998245E-14  0.12500000000E+03  0.12500000000E+03 0.  0.
        -11    1    3    3    0    0 -0.53352651129E+02 -0.16607033369E+02 -0.72273874109E+01  0.56343003726E+02  0.51100000000E-03 0.  1.
         23    2    1    0    0    0 -0.25413121397E+02  0.48306347088E+01  0.12019603635E+02  0.96475753430E+02  0.92162564838E+02 0.  0.
         11    1    3    3    0    0  0.27939529732E+02  0.21437668077E+02  0.19246991046E+02  0.40132749704E+02  0.51100000000E-03 0. -1.
         22    1    1    0    0    0  0.25413121397E+02 -0.48306347088E+01 -0.12019603635E+02  0.28524246570E+02  0.00000000000E+00 0.  1.
</event>
<event>
 5    1  0.1691145E-003  0.9118800E+02  0.7818608E-02  0.1130116E+00
         25   -1    0    0    0    0  0.00000000000E+00  0.00000000000E+00  0.99999998245E-14  0.12500000000E+03  0.12500000000E+03 0.  0.
        -11    1    3    3    0    0 -0.24568739706E+02 -0.34806468526E+02  0.16792835503E+02  0.45794241412E+02  0.51100000000E-03 0.  1.
         23    2    1    0    0    0 -0.29034083566E+02  0.88744513204E+01 -0.40006389485E+01  0.94377475500E+02  0.89271321682E+02 0.  0.
         11    1    3    3    0    0 -0.44653438605E+01  0.43680919847E+02 -0.20793474451E+02  0.48583234088E+02  0.51100000000E-03 0. -1.
         22    1    1    0    0    0  0.29034083566E+02 -0.88744513204E+01  0.40006389485E+01  0.30622524500E+02  0.00000000000E+00 0. -1.
</event>
<event>
 5    1  0.1691145E-003  0.9118800E+02  0.7818608E-02  0.1130116E+00
         25   -1    0    0    0    0  0.00000000000E+00  0.00000000000E+00  0.99999998245E-14  0.12500000000E+03  0.12500000000E+03 0.  0.
        -11    1    3    3    0    0 -0.23051887076E+02 -0.31466078593E+02  0.48538967682E+02  0.62269856140E+02  0.51100000000E-03 0. -1.
         23    2    1    0    0    0 -0.14021524195E+02 -0.14191110935E+02  0.20734792795E+02  0.96226359240E+02  0.91823688720E+02 0.  0.
         11    1    3    3    0    0  0.90303628814E+01  0.17274967658E+02 -0.27804174888E+02  0.33956503100E+02  0.51100000000E-03 0.  1.
         22    1    1    0    0    0  0.14021524195E+02  0.14191110935E+02 -0.20734792795E+02  0.28773640760E+02  0.00000000000E+00 0. -1.
</event>
<event>
 5    1  0.1691145E-003  0.9118800E+02  0.7818608E-02  0.1130116E+00
         25   -1    0    0    0    0  0.00000000000E+00  0.00000000000E+00  0.99999998245E-14  0.12500000000E+03  0.12500000000E+03 0.  0.
        -11    1    3    3    0    0  0.12886259855E+02  0.42710044866E+02 -0.14124245299E+02  0.46794208307E+02  0.51100000000E-03 0.  1.
         23    2    1    0    0    0  0.74907255195E+01 -0.46626350746E+01 -0.27340527236E+02  0.96270997856E+02  0.91884435374E+02 0.  0.
         11    1    3    3    0    0 -0.53955343353E+01 -0.47372679941E+02 -0.13216281937E+02  0.49476789549E+02  0.51100000000E-03 0. -1.
         22    1    1    0    0    0 -0.74907255195E+01  0.46626350746E+01  0.27340527236E+02  0.28729002144E+02  0.00000000000E+00 0.  1.
</event>
<event>
 5    1  0.1691145E-003  0.9118800E+02  0.7818608E-02  0.1130116E+00
         25   -1    0    0    0    0  0.00000000000E+00  0.00000000000E+00  0.99999998245E-14  0.12500000000E+03  0.12500000000E+03 0.  0.
        -11    1    3    3    0    0 -0.11814750840E+02  0.62293317424E+01  0.31848573477E+02  0.34535844338E+02  0.51100000000E-03 0. -1.
         23    2    1    0    0    0  0.46032454826E+01 -0.19555255939E+02 -0.21220073138E+02  0.95778613862E+02  0.91212134421E+02 0.  0.
         11    1    3    3    0    0  0.16417996322E+02 -0.25784587682E+02 -0.53068646615E+02  0.61242769524E+02  0.51100000000E-03 0.  1.
         22    1    1    0    0    0 -0.46032454826E+01  0.19555255939E+02  0.21220073138E+02  0.29221386138E+02  0.00000000000E+00 0.  1.
</event>
<event>
 5    1  0.1691145E-003  0.9118800E+02  0.7818608E-02  0.1130116E+00
         25   -1    0    0    0    0  0.00000000000E+00  0.00000000000E+00  0.99999998245E-14  0.12500000000E+03  0.12500000000E+03 0.  0.
        -11    1    3    3    0    0 -0.36693875589E+02 -0.16206928657E+02  0.12045640411E+02  0.41883200635E+02  0.51100000000E-03 0. -1.
         23    2    1    0    0    0 -0.76203294388E+01  0.27707626267E+02 -0.13680635947E+01  0.96231031091E+02  0.91830048311E+02 0.  0.
         11    1    3    3    0    0  0.29073546150E+02  0.43914554924E+02 -0.13413704006E+02  0.54347830456E+02  0.51100000000E-03 0.  1.
         22    1    1    0    0    0  0.76203294388E+01 -0.27707626267E+02  0.13680635947E+01  0.28768968909E+02  0.00000000000E+00 0. -1.
</event>
<event>
 5    1  0.1691145E-003  0.9118800E+02  0.7818608E-02  0.1130116E+00
         25   -1    0    0    0    0  0.00000000000E+00  0.00000000000E+00  0.99999998245E-14  0.12500000000E+03  0.12500000000E+03 0.  0.
        -11    1    3    3    0    0 -0.38913087147E+02 -0.97066298758E+01 -0.12174192961E+02  0.41912503974E+02  0.51100000000E-03 0.  1.
         23    2    1    0    0    0  0.41181197577E+01 -0.26106770839E+02  0.14216959848E+02  0.94989262900E+02  0.90123890978E+02 0.  0.
         11    1    3    3    0    0  0.43031206905E+02 -0.16400140963E+02  0.26391152808E+02  0.53076758926E+02  0.51100000000E-03 0. -1.
         22    1    1    0    0    0 -0.41181197577E+01  0.26106770839E+02 -0.14216959848E+02  0.30010737100E+02  0.00000000000E+00 0. -1.
</event>
<event>
 5    1  0.1691145E-003  0.9118800E+02  0.7818608E-02  0.1130116E+00
         25   -1    0    0    0    0  0.00000000000E+00  0.00000000000E+00  0.99999998245E-14  0.12500000000E+03  0.12500000000E+03 0.  0.
        -11    1    3    3    0    0 -0.14685454211E+02 -0.34811576172E+02  0.66101917856E+01  0.38356264634E+02  0.51100000000E-03 0.  1.
         23    2    1    0    0    0  0.22743967197E+02 -0.77192264744E+00 -0.19266187436E+02  0.95182725028E+02  0.90391820741E+02 0.  0.
         11    1    3    3    0    0  0.37429421408E+02  0.34039653524E+02 -0.25876379222E+02  0.56826460394E+02  0.51100000000E-03 0. -1.
         22    1    1    0    0    0 -0.22743967197E+02  0.77192264744E+00  0.19266187436E+02  0.29817274972E+02  0.00000000000E+00 0. -1.
</event>
<event>
 5    1  0.1691145E-003  0.9118800E+02  0.7818608E-02  0.1130116E+00
         25   -1    0    0    0    0  0.00000000000E+00  0.00000000000E+00  0.99999998245E-14  0.12500000000E+03  0.12500000000E+03 0.  0.
        -11    1    3    3    0    0 -0.18044892114E+02  0.40294345790E+02 -0.23963792074E+02  0.50234607243E+02  0.51100000000E-03 0. -1.
         23    2    1    0    0    0 -0.24948354454E+02 -0.45767299455E+01 -0.71542351522E+01  0.98645684840E+02  0.95060092625E+02 0.  0.
         11    1    3    3    0    0 -0.69034623400E+01 -0.44871075735E+02  0.16809556922E+02  0.48411077597E+02  0.51100000000E-03 0.  1.
         22    1    1    0    0    0  0.24948354454E+02  0.45767299455E+01  0.71542351522E+01  0.26354315160E+02  0.00000000000E+00 0.  1.
</event>
<event>
 5    1  0.1691145E-003  0.9118800E+02  0.7818608E-02  0.1130116E+00
         25   -1    0    0    0    0  0.00000000000E+00  0.00000000000E+00  0.99999998245E-14  0.12500000000E+03  0.12500000000E+03 0.  0.
        -11    1    3    3    0    0  0.19987449207E+02 -0.38157047294E+02  0.17085265357E+02  0.46339666341E+02  0.51100000000E-03 0.  1.
         23    2    1    0    0    0  0.20406345542E+02 -0.49118658055E+01 -0.19903148500E+02  0.96074566826E+02  0.91616819998E+02 0.  0.
         11    1    3    3    0    0  0.41889633531E+00  0.33245181488E+02 -0.36988413858E+02  0.49734900485E+02  0.51100000000E-03 0. -1.
         22    1    1    0    0    0 -0.20406345542E+02  0.49118658055E+01  0.19903148500E+02  0.28925433174E+02  0.00000000000E+00 0. -1.
</event>
<event>
 5    1  0.1691145E-003  0.9118800E+02  0.7818608E-02  0.1130116E+00
         25   -1    0    0    0    0  0.00000000000E+00  0.00000000000E+00  0.99999998245E-14  0.12500000000E+03  0.12500000000E+03 0.  0.
        -11    1    3    3    0    0  0.23779366887E+02  0.11255099801E+02 -0.31991023305E+02  0.41419332846E+02  0.51100000000E-03 0. -1.
         23    2    1    0    0    0 -0.22514404228E+02 -0.10503423407E+02 -0.17587966869E+02  0.94560603166E+02  0.89527374538E+02 0.  0.
         11    1    3    3    0    0 -0.46293771115E+02 -0.21758523208E+02  0.14403056436E+02  0.53141270320E+02  0.51100000000E-03 0.  1.
         22    1    1    0    0    0  0.22514404228E+02  0.10503423407E+02  0.17587966869E+02  0.30439396834E+02  0.00000000000E+00 0.  1.
</event>
<event>
 5    1  0.1691145E-003  0.9118800E+02  0.7818608E-02  0.1130116E+00
         25   -1    0    0    0    0  0.00000000000E+00  0.00000000000E+00  0.99999998245E-14  0.12500000000E+03  0.12500000000E+03 0.  0.
        -11    1    3    3    0    0  0.17745074690E+01  0.28245370446E+02  0.31053587233E+02  0.42015177123E+02  0.51100000000E-03 0.  1.
         23    2    1    0    0    0 -0.51046799690E+01 -0.23190145614E+02  0.17057743386E+02  0.95762913609E+02  0.91190615758E+02 0.  0.
         11    1    3    3    0    0 -0.68791874380E+01 -0.51435516060E+02 -0.13995843846E+02  0.53747736486E+02  0.51100000000E-03 0. -1.
         22    1    1    0    0    0  0.51046799690E+01  0.23190145614E+02 -0.17057743386E+02  0.29237086391E+02  0.00000000000E+00 0. -1.
</event>
<event>
 5    1  0.1691145E-003  0.9118800E+02  0.7818608E-02  0.1130116E+00
         25   -1    0    0    0    0  0.00000000000E+00  0.00000000000E+00  0.99999998245E-14  0.12500000000E+03  0.12500000000E+03 0.  0.
        -11    1    3    3    0    0 -0.34271120386E+02 -0.32342829382E+02 -0.33222155807E+02  0.57656568938E+02  0.51100000000E-03 0. -1.
         23    2    1    0    0    0 -0.81779334545E+01 -0.35777121357E+01 -0.26456617852E+02  0.97078122415E+02  0.92975967882E+02 0.  0.
         11    1    3    3    0    0  0.26093186932E+02  0.28765117246E+02  0.67655379550E+01  0.39421553477E+02  0.51100000000E-03 0.  1.
         22    1    1    0    0    0  0.81779334545E+01  0.35777121357E+01  0.26456617852E+02  0.27921877585E+02  0.00000000000E+00 0. -1.
</event>
<event>
 5    1  0.1691145E-003  0.9118800E+02  0.7818608E-02  0.1130116E+00
         25   -1    0    0    0    0  0.00000000000E+00  0.00000000000E+00  0.99999998245E-14  0.12500000000E+03  0.12500000000E+03 0.  0.
        -11    1    3    3    0    0  0.31755027815E+02 -0.16193440419E+02 -0.38114112702E+02  0.52185198011E+02  0.51100000000E-03 0. -1.
         23    2    1    0    0    0 -0.30063512955E+01  0.73742873981E+01 -0.28687548813E+02  0.95227634967E+02  0.90453903961E+02 0.  0.
         11    1    3    3    0    0 -0.34761379111E+02  0.23567727817E+02  0.94265638884E+01  0.43042436956E+02  0.51100000000E-03 0.  1.
         22    1    1    0    0    0  0.30063512955E+01 -0.73742873981E+01  0.28687548813E+02  0.29772365033E+02  0.00000000000E+00 0. -1.
</event>
<event>
 5    1  0.1691145E-003  0.9118800E+02  0.7818608E-02  0.1130116E+00
         25   -1    0    0    0    0  0.00000000000E+00  0.00000000000E+00  0.99999998245E-14  0.12500000000E+03  0.12500000000E+03 0.  0.
        -11    1    3    3    0    0  0.22401230616E+02 -0.22999865484E+01  0.39418369693E+02  0.45397279001E+02  0.51100000000E-03 0.  1.
         23    2    1    0    0    0 -0.45699523736E+01  0.28124823719E+02  0.16736562321E+02  0.91954535981E+02  0.85811619232E+02 0.  0.
         11    1    3    3    0    0 -0.26971182989E+02  0.30424810267E+02 -0.22681807372E+02  0.46557256980E+02  0.51100000000E-03 0. -1.
         22    1    1    0    0    0  0.45699523736E+01 -0.28124823719E+02 -0.16736562321E+02  0.33045464019E+02  0.00000000000E+00 0. -1.
</event>
<event>
 5    1  0.1691145E-003  0.9118800E+02  0.7818608E-02  0.1130116E+00
         25   -1    0    0    0    0  0.00000000000E+00  0.00000000000E+00  0.99999998245E-14  0.12500000000E+03  0.12500000000E+03 0.  0.
        -11    1    3    3    0    0 -0.44858288121E+01  0.22944231559E+01 -0.34685483056E+02  0.35049533133E+02  0.51100000000E-03 0.  1.
         23    2    1    0    0    0  0.50548296098E+01  0.19349726663E+02  0.22153775273E+02  0.95154514861E+02  0.90352801369E+02 0.  0.
         11    1    3    3    0    0  0.95406584220E+01  0.17055303507E+02  0.56839258329E+02  0.60104981728E+02  0.51100000000E-03 0. -1.
         22    1    1    0    0    0 -0.50548296098E+01 -0.19349726663E+02 -0.22153775273E+02  0.29845485139E+02  0.00000000000E+00 0. -1.
</event>
<event>
 5    1  0.1691145E-003  0.9118800E+02  0.7818608E-02  0.1130116E+00
         25   -1    0    0    0    0  0.00000000000E+00  0.00000000000E+00  0.99999998245E-14  0.12500000000E+03  0.12500000000E+03 0.  0.
        -11    1    3    3    0    0 -0.20831448150E+02 -0.25420522606E+02 -0.13924722275E+02  0.35693838296E+02  0.51100000000E-03 0.  1.
         23    2    1    0    0    0  0.11019867682E+02  0.44446993782E+00  0.28334355653E+02  0.94594889450E+02  0.89575232975E+02 0.  0.
         11    1    3    3    0    0  0.31851315832E+02  0.25864992544E+02  0.42259077929E+02  0.58901051155E+02  0.51100000000E-03 0. -1.
         22    1    1    0    0    0 -0.11019867682E+02 -0.44446993782E+00 -0.28334355653E+02  0.30405110550E+02  0.00000000000E+00 0. -1.
</event>
<event>
 5    1  0.1691145E-003  0.9118800E+02  0.7818608E-02  0.1130116E+00
         25   -1    0    0    0    0  0.00000000000E+00  0.00000000000E+00  0.99999998245E-14  0.12500000000E+03  0.12500000000E+03 0.  0.
        -11    1    3    3    0    0  0.46610945473E+02  0.30010934030E+02  0.20015506248E+02  0.58939434081E+02  0.51100000000E-03 0.  1.
         23    2    1    0    0    0  0.28840903705E+02  0.13886355892E+01  0.55815677426E+01  0.95591158918E+02  0.90954877437E+02 0.  0.
         11    1    3    3    0    0 -0.17770041768E+02 -0.28622298441E+02 -0.14433938506E+02  0.36651724837E+02  0.51100000000E-03 0. -1.
         22    1    1    0    0    0 -0.28840903705E+02 -0.13886355892E+01 -0.55815677426E+01  0.29408841082E+02  0.00000000000E+00 0.  1.
</event>
<event>
 5    1  0.1691145E-003  0.9118800E+02  0.7818608E-02  0.1130116E+00
         25   -1    0    0    0    0  0.00000000000E+00  0.00000000000E+00  0.99999998245E-14  0.12500000000E+03  0.12500000000E+03 0.  0.
        -11    1    3    3    0    0  0.20939973768E+02 -0.31987534127E+02 -0.67249082454E+01  0.38818928786E+02  0.51100000000E-03 0. -1.
         23    2    1    0    0    0  0.11266920941E+02  0.22130962417E+02 -0.17209490362E+02  0.94785937653E+02  0.89841440401E+02 0.  0.
         11    1    3    3    0    0 -0.96730528266E+01  0.54118496544E+02 -0.10484582116E+02  0.55967008867E+02  0.51100000000E-03 0.  1.
         22    1    1    0    0    0 -0.11266920941E+02 -0.22130962417E+02  0.17209490362E+02  0.30214062347E+02  0.00000000000E+00 0.  1.
</event>
<event>
 5    1  0.1691145E-003  0.9118800E+02  0.7818608E-02  0.1130116E+00
         25   -1    0    0    0    0  0.00000000000E+00  0.00000000000E+00  0.99999998245E-14  0.12500000000E+03  0.12500000000E+03 0.  0.
        -11    1    3    3    0    0 -0.10867878267E+02  0.32773590519E+02 -0.51153624883E+01  0.34905385648E+02  0.51100000000E-03 0.  1.
         23    2    1    0    0    0  0.82800216768E+00 -0.23014809194E+02  0.17342013574E+02  0.96170978778E+02  0.91748268073E+02 0.  0.
         11    1    3    3    0    0  0.11695880435E+02 -0.55788399713E+02  0.22457376063E+02  0.61265593130E+02  0.51100000000E-03 0. -1.
         22    1    1    0    0    0 -0.82800216768E+00  0.23014809194E+02 -0.17342013574E+02  0.28829021222E+02  0.00000000000E+00 0. -1.
</event>
<event>
 5    1  0.1691145E-003  0.9118800E+02  0.7818608E-02  0.1130116E+00
         25   -1    0    0    0    0  0.00000000000E+00  0.00000000000E+00  0.99999998245E-14  0.12500000000E+03  0.12500000000E+03 0.  0.
        -11    1    3    3    0    0 -0.25586318543E+01  0.48038811792E+02 -0.13115298916E+02  0.49862662396E+02  0.51100000000E-03 0. -1.
         23    2    1    0    0    0 -0.93114418309E+01  0.55411465029E+01 -0.27666600341E+02  0.95287241327E+02  0.90536237672E+02 0.  0.
         11    1    3    3    0    0 -0.67528099766E+01 -0.42497665289E+02 -0.14551301425E+02  0.45424578931E+02  0.51100000000E-03 0.  1.
         22    1    1    0    0    0  0.93114418309E+01 -0.55411465029E+01  0.27666600341E+02  0.29712758673E+02  0.00000000000E+00 0.  1.
</event>
<event>
 5    1  0.1691145E-003  0.9118800E+02  0.7818608E-02  0.1130116E+00
         25   -1    0    0    0    0  0.00000000000E+00  0.00000000000E+00  0.99999998245E-14  0.12500000000E+03  0.12500000000E+03 0.  0.
        -11    1    3    3    0    0  0.87560021231E+01  0.22931044527E+02 -0.30801805487E+02  0.39385931470E+02  0.51100000000E-03 0.  1.
         23    2    1    0    0    0 -0.22782519054E+02 -0.62395329423E+01 -0.35240571854E+02  0.82575091627E+02  0.70843298249E+02 0.  0.
         11    1    3    3    0    0 -0.31538521177E+02 -0.29170577469E+02 -0.44387663674E+01  0.43189160157E+02  0.51100000000E-03 0. -1.
         22    1    1    0    0    0  0.22782519054E+02  0.62395329423E+01  0.35240571854E+02  0.42424908373E+02  0.00000000000E+00 0. -1.
</event>
<event>
 5    1  0.1691145E-003  0.9118800E+02  0.7818608E-02  0.1130116E+00
         25   -1    0    0    0    0  0.00000000000E+00  0.00000000000E+00  0.99999998245E-14  0.12500000000E+03  0.12500000000E+03 0.  0.
        -11    1    3    3    0    0  0.18850017422E+02  0.24025844317E+01 -0.24715216868E+02  0.31175912398E+02  0.51100000000E-03 0.  1.
         23    2    1    0    0    0 -0.54740476907E+01 -0.29643389777E+01  0.31620366306E+02  0.92772681325E+02  0.86995231658E+02 0.  0.
         11    1    3    3    0    0 -0.24324065112E+02 -0.53669234094E+01  0.56335583173E+02  0.61596768927E+02  0.51100000000E-03 0. -1.
         22    1    1    0    0    0  0.54740476907E+01  0.29643389777E+01 -0.31620366306E+02  0.32227318675E+02  0.00000000000E+00 0. -1.
</event>
<event>
 5    1  0.1691145E-003  0.9118800E+02  0.7818608E-02  0.1130116E+00
         25   -1    0    0    0    0  0.00000000000E+00  0.00000000000E+00  0.99999998245E-14  0.12500000000E+03  0.12500000000E+03 0.  0.
        -11    1    3    3    0    0  0.35022459755E+01 -0.49602920113E+02  0.11192852285E+02  0.50970534166E+02  0.51100000000E-03 0. -1.
         23    2    1    0    0    0  0.22229905122E+02 -0.14869800468E+02 -0.10813034191E+02  0.96152099624E+02  0.91722543063E+02 0.  0.
         11    1    3    3    0    0  0.18727659146E+02  0.34733119645E+02 -0.22005886476E+02  0.45181565458E+02  0.51100000000E-03 0.  1.
         22    1    1    0    0    0 -0.22229905122E+02  0.14869800468E+02  0.10813034191E+02  0.28847900376E+02  0.00000000000E+00 0. -1.
</event>
<event>
 5    1  0.1691145E-003  0.9118800E+02  0.7818608E-02  0.1130116E+00
         25   -1    0    0    0    0  0.00000000000E+00  0.00000000000E+00  0.99999998245E-14  0.12500000000E+03  0.12500000000E+03 0.  0.
        -11    1    3    3    0    0 -0.10688349243E+02  0.39605378942E+02  0.25956764798E+02  0.48544623695E+02  0.51100000000E-03 0.  1.
         23    2    1    0    0    0 -0.24776413312E+02 -0.36685639360E+01  0.16444435573E+02  0.95037548845E+02  0.90190837734E+02 0.  0.
         11    1    3    3    0    0 -0.14088064069E+02 -0.43273942878E+02 -0.95123292252E+01  0.46492925149E+02  0.51100000000E-03 0. -1.
         22    1    1    0    0    0  0.24776413312E+02  0.36685639360E+01 -0.16444435573E+02  0.29962451155E+02  0.00000000000E+00 0. -1.
</event>
<event>
 5    1  0.1691145E-003  0.9118800E+02  0.7818608E-02  0.1130116E+00
         25   -1    0    0    0    0  0.00000000000E+00  0.00000000000E+00  0.99999998245E-14  0.12500000000E+03  0.12500000000E+03 0.  0.
        -11    1    3    3    0    0 -0.23136783360E+02  0.22463612125E+02  0.51005626924E+02  0.60344830699E+02  0.51100000000E-03 0.  1.
         23    2    1    0    0    0 -0.13183194669E+02 -0.55179161928E+00  0.26451183860E+02  0.95440463075E+02  0.90747538637E+02 0.  0.
         11    1    3    3    0    0  0.99535886912E+01 -0.23015403745E+02 -0.24554443064E+02  0.35095632375E+02  0.51100000000E-03 0. -1.
         22    1    1    0    0    0  0.13183194669E+02  0.55179161928E+00 -0.26451183860E+02  0.29559536925E+02  0.00000000000E+00 0.  1.
</event>
<event>
 5    1  0.1691145E-003  0.9118800E+02  0.7818608E-02  0.1130116E+00
         25   -1    0    0    0    0  0.00000000000E+00  0.00000000000E+00  0.99999998245E-14  0.12500000000E+03  0.12500000000E+03 0.  0.
        -11    1    3    3    0    0  0.24020072984E+02  0.21859939171E+02 -0.24247281354E+02  0.40530870951E+02  0.51100000000E-03 0.  1.
         23    2    1    0    0    0 -0.13650134867E+02  0.17121939425E+02  0.17506063615E+02  0.96965213487E+02  0.92824045224E+02 0.  0.
         11    1    3    3    0    0 -0.37670207851E+02 -0.47379997463E+01  0.41753344969E+02  0.56434342536E+02  0.51100000000E-03 0. -1.
         22    1    1    0    0    0  0.13650134867E+02 -0.17121939425E+02 -0.17506063615E+02  0.28034786513E+02  0.00000000000E+00 0. -1.
</event>
<event>
 5    1  0.1691145E-003  0.9118800E+02  0.7818608E-02  0.1130116E+00
         25   -1    0    0    0    0  0.00000000000E+00  0.00000000000E+00  0.99999998245E-14  0.12500000000E+03  0.12500000000E+03 0.  0.
        -11    1    3    3    0    0 -0.96134888889E+01  0.48091853331E+02  0.36764323263E+02  0.61293237724E+02  0.51100000000E-03 0.  1.
         23    2    1    0    0    0 -0.14712675111E+02  0.37053251704E+02  0.27973119256E+02  0.76297826829E+02  0.58732075624E+02 0.  0.
         11    1    3    3    0    0 -0.50991862220E+01 -0.11038601628E+02 -0.87912040078E+01  0.15004589104E+02  0.51100000000E-03 0. -1.
         22    1    1    0    0    0  0.14712675111E+02 -0.37053251704E+02 -0.27973119256E+02  0.48702173171E+02  0.00000000000E+00 0.  1.
</event>
<event>
 5    1  0.1691145E-003  0.9118800E+02  0.7818608E-02  0.1130116E+00
         25   -1    0    0    0    0  0.00000000000E+00  0.00000000000E+00  0.99999998245E-14  0.12500000000E+03  0.12500000000E+03 0.  0.
        -11    1    3    3    0    0  0.17282746960E+02  0.47307695497E+02 -0.19084233172E+02  0.53860183361E+02  0.51100000000E-03 0. -1.
         23    2    1    0    0    0  0.13834934175E+02  0.22132970370E+02  0.13845655138E+02  0.95453833628E+02  0.90765954009E+02 0.  0.
         11    1    3    3    0    0 -0.34478127842E+01 -0.25174725127E+02  0.32929888310E+02  0.41593650267E+02  0.51100000000E-03 0.  1.
         22    1    1    0    0    0 -0.13834934175E+02 -0.22132970370E+02 -0.13845655138E+02  0.29546166372E+02  0.00000000000E+00 0. -1.
</event>
<event>
 5    1  0.1691145E-003  0.9118800E+02  0.7818608E-02  0.1130116E+00
         25   -1    0    0    0    0  0.00000000000E+00  0.00000000000E+00  0.99999998245E-14  0.12500000000E+03  0.12500000000E+03 0.  0.
        -11    1    3    3    0    0  0.10705980708E+02  0.35317538164E+02 -0.10108490157E+02  0.38263926855E+02  0.51100000000E-03 0. -1.
         23    2    1    0    0    0  0.27772862347E+01 -0.56499093542E+01  0.28922205449E+02  0.95400527664E+02  0.90692513009E+02 0.  0.
         11    1    3    3    0    0 -0.79286944728E+01 -0.40967447518E+02  0.39030695606E+02  0.57136600808E+02  0.51100000000E-03 0.  1.
         22    1    1    0    0    0 -0.27772862347E+01  0.56499093542E+01 -0.28922205449E+02  0.29599472336E+02  0.00000000000E+00 0.  1.
</event>
<event>
 5    1  0.1691145E-003  0.9118800E+02  0.7818608E-02  0.1130116E+00
         25   -1    0    0    0    0  0.00000000000E+00  0.00000000000E+00  0.99999998245E-14  0.12500000000E+03  0.12500000000E+03 0.  0.
        -11    1    3    3    0    0 -0.11646851479E+02 -0.37184933886E+02  0.20991877167E+02  0.44260901084E+02  0.51100000000E-03 0. -1.
         23    2    1    0    0    0  0.23939385984E+02  0.28932481869E+01  0.95408371383E+01  0.99067536568E+02  0.95613200668E+02 0.  0.
         11    1    3    3    0    0  0.35586237463E+02  0.40078182073E+02 -0.11451040029E+02  0.54806635484E+02  0.51100000000E-03 0.  1.
         22    1    1    0    0    0 -0.23939385984E+02 -0.28932481869E+01 -0.95408371383E+01  0.25932463432E+02  0.00000000000E+00 0.  1.
</event>
<event>
 5    1  0.1691145E-003  0.9118800E+02  0.7818608E-02  0.1130116E+00
         25   -1    0    0    0    0  0.00000000000E+00  0.00000000000E+00  0.99999998245E-14  0.12500000000E+03  0.12500000000E+03 0.  0.
        -11    1    3    3    0    0 -0.29514817830E+02  0.36013778657E+02  0.89660994608E+01  0.47418431696E+02  0.51100000000E-03 0. -1.
         23    2    1    0    0    0  0.15568452440E+02  0.19782151770E+02  0.14973503478E+02  0.95709796068E+02  0.91117775526E+02 0.  0.
         11    1    3    3    0    0  0.45083270269E+02 -0.16231626887E+02  0.60074040171E+01  0.48291364372E+02  0.51100000000E-03 0.  1.
         22    1    1    0    0    0 -0.15568452440E+02 -0.19782151770E+02 -0.14973503478E+02  0.29290203932E+02  0.00000000000E+00 0.  1.
</event>
<event>
 5    1  0.1691145E-003  0.9118800E+02  0.7818608E-02  0.1130116E+00
         25   -1    0    0    0    0  0.00000000000E+00  0.00000000000E+00  0.99999998245E-14  0.12500000000E+03  0.12500000000E+03 0.  0.
        -11    1    3    3    0    0 -0.44647694142E+02 -0.15528575655E+02 -0.10205533574E+02  0.48360171317E+02  0.51100000000E-03 0. -1.
         23    2    1    0    0    0 -0.17473523226E+02  0.22906265883E+02 -0.22107180864E+01  0.96105220107E+02  0.91658633127E+02 0.  0.
         11    1    3    3    0    0  0.27174170916E+02  0.38434841537E+02  0.79948154875E+01  0.47745048789E+02  0.51100000000E-03 0.  1.
         22    1    1    0    0    0  0.17473523226E+02 -0.22906265883E+02  0.22107180864E+01  0.28894779893E+02  0.00000000000E+00 0.  1.
</event>
<event>
 5    1  0.1691145E-003  0.9118800E+02  0.7818608E-02  0.1130116E+00
         25   -1    0    0    0    0  0.00000000000E+00  0.00000000000E+00  0.99999998245E-14  0.12500000000E+03  0.12500000000E+03 0.  0.
        -11    1    3    3    0    0 -0.33367987382E+02  0.21591070290E+02  0.18731157849E+02  0.43936922660E+02  0.51100000000E-03 0. -1.
         23    2    1    0    0    0 -0.73138761564E+01 -0.24332840572E+02  0.12288429595E+01  0.99562036839E+02  0.96257515083E+02 0.  0.
         11    1    3    3    0    0  0.26054111226E+02 -0.45923910862E+02 -0.17502314890E+02  0.55625114179E+02  0.51100000000E-03 0.  1.
         22    1    1    0    0    0  0.73138761564E+01  0.24332840572E+02 -0.12288429595E+01  0.25437963161E+02  0.00000000000E+00 0.  1.
</event>
<event>
 5    1  0.1691145E-003  0.9118800E+02  0.7818608E-02  0.1130116E+00
         25   -1    0    0    0    0  0.00000000000E+00  0.00000000000E+00  0.99999998245E-14  0.12500000000E+03  0.12500000000E+03 0.  0.
        -11    1    3    3    0    0 -0.29822753177E+02  0.27670007770E+01  0.29144940751E+02  0.41790913749E+02  0.51100000000E-03 0. -1.
         23    2    1    0    0    0 -0.74839018385E+01 -0.28456109475E+02 -0.72547768077E+01  0.94695037705E+02  0.89714878511E+02 0.  0.
         11    1    3    3    0    0  0.22338851338E+02 -0.31223110252E+02 -0.36399717559E+02  0.52904123956E+02  0.51100000000E-03 0.  1.
         22    1    1    0    0    0  0.74839018385E+01  0.28456109475E+02  0.72547768077E+01  0.30304962295E+02  0.00000000000E+00 0.  1.
</event>
<event>
 5    1  0.1691145E-003  0.9118800E+02  0.7818608E-02  0.1130116E+00
         25   -1    0    0    0    0  0.00000000000E+00  0.00000000000E+00  0.99999998245E-14  0.12500000000E+03  0.12500000000E+03 0.  0.
        -11    1    3    3    0    0  0.36630834700E+02  0.30350726482E+00  0.19685121619E+01  0.36684945248E+02  0.51100000000E-03 0.  1.
         23    2    1    0    0    0 -0.12987540027E+02  0.25533027942E+02 -0.11786734244E+02  0.94023576450E+02  0.88774400096E+02 0.  0.
         11    1    3    3    0    0 -0.49618374727E+02  0.25229520677E+02 -0.13755246406E+02  0.57338631201E+02  0.51100000000E-03 0. -1.
         22    1    1    0    0    0  0.12987540027E+02 -0.25533027942E+02  0.11786734244E+02  0.30976423550E+02  0.00000000000E+00 0. -1.
</event>
<event>
 5    1  0.1691145E-003  0.9118800E+02  0.7818608E-02  0.1130116E+00
         25   -1    0    0    0    0  0.00000000000E+00  0.00000000000E+00  0.99999998245E-14  0.12500000000E+03  0.12500000000E+03 0.  0.
        -11    1    3    3    0    0 -0.87144297377E+01 -0.22794525312E+02 -0.53900407895E+02  0.59167437340E+02  0.51100000000E-03 0.  1.
         23    2    1    0    0    0  0.10284781437E+02 -0.90863740411E+01 -0.26004807515E+02  0.95596106783E+02  0.90961677072E+02 0.  0.
         11    1    3    3    0    0  0.18999211175E+02  0.13708151271E+02  0.27895600380E+02  0.36428669443E+02  0.51100000000E-03 0. -1.
         22    1    1    0    0    0 -0.10284781437E+02  0.90863740411E+01  0.26004807515E+02  0.29403893217E+02  0.00000000000E+00 0.  1.
</event>
<event>
 5    1  0.1691145E-003  0.9118800E+02  0.7818608E-02  0.1130116E+00
         25   -1    0    0    0    0  0.00000000000E+00  0.00000000000E+00  0.99999998245E-14  0.12500000000E+03  0.12500000000E+03 0.  0.
        -11    1    3    3    0    0  0.48170870122E+01  0.30048156204E+02 -0.25065195191E+02  0.39425372905E+02  0.51100000000E-03 0.  1.
         23    2    1    0    0    0  0.21999124730E+02 -0.19005841514E+02 -0.34234294607E+01  0.95727088122E+02  0.91141494560E+02 0.  0.
         11    1    3    3    0    0  0.17182037718E+02 -0.49053997717E+02  0.21641765730E+02  0.56301715217E+02  0.51100000000E-03 0. -1.
         22    1    1    0    0    0 -0.21999124730E+02  0.19005841514E+02  0.34234294607E+01  0.29272911878E+02  0.00000000000E+00 0. -1.
</event>
<event>
 5    1  0.1691145E-003  0.9118800E+02  0.7818608E-02  0.1130116E+00
         25   -1    0    0    0    0  0.00000000000E+00  0.00000000000E+00  0.99999998245E-14  0.12500000000E+03  0.12500000000E+03 0.  0.
        -11    1    3    3    0    0  0.36707868494E+02 -0.60406864916E+01  0.28965597661E+01  0.37314173733E+02  0.51100000000E-03 0. -1.
         23    2    1    0    0    0 -0.19251426367E+01  0.24226602083E+02 -0.21886596700E+02  0.92294380639E+02  0.86305244104E+02 0.  0.
         11    1    3    3    0    0 -0.38633011131E+02  0.30267288575E+02 -0.24783156466E+02  0.54980206906E+02  0.51100000000E-03 0.  1.
         22    1    1    0    0    0  0.19251426367E+01 -0.24226602083E+02  0.21886596700E+02  0.32705619361E+02  0.00000000000E+00 0. -1.
</event>
<event>
 5    1  0.1691145E-003  0.9118800E+02  0.7818608E-02  0.1130116E+00
         25   -1    0    0    0    0  0.00000000000E+00  0.00000000000E+00  0.99999998245E-14  0.12500000000E+03  0.12500000000E+03 0.  0.
        -11    1    3    3    0    0  0.54948826319E+01  0.46300514280E+02  0.15537714177E+01  0.46651318991E+02  0.51100000000E-03 0.  1.
         23    2    1    0    0    0 -0.22911292504E+02  0.51606774966E+01  0.13304892729E+02  0.98007777287E+02  0.94217537231E+02 0.  0.
         11    1    3    3    0    0 -0.28406175136E+02 -0.41139836783E+02  0.11751121311E+02  0.51356458296E+02  0.51100000000E-03 0. -1.
         22    1    1    0    0    0  0.22911292504E+02 -0.51606774966E+01 -0.13304892729E+02  0.26992222713E+02  0.00000000000E+00 0.  1.
</event>
<event>
 5    1  0.1691145E-003  0.9118800E+02  0.7818608E-02  0.1130116E+00
         25   -1    0    0    0    0  0.00000000000E+00  0.00000000000E+00  0.99999998245E-14  0.12500000000E+03  0.12500000000E+03 0.  0.
        -11    1    3    3    0    0 -0.44411035512E+02 -0.31007960815E+02 -0.29606871233E+02  0.61728441854E+02  0.51100000000E-03 0.  1.
         23    2    1    0    0    0 -0.25765161184E+02 -0.18636181827E+02 -0.94981204999E+01  0.91813178866E+02  0.85605459619E+02 0.  0.
         11    1    3    3    0    0  0.18645874328E+02  0.12371778989E+02  0.20108750733E+02  0.30084737013E+02  0.51100000000E-03 0. -1.
         22    1    1    0    0    0  0.25765161184E+02  0.18636181827E+02  0.94981204999E+01  0.33186821134E+02  0.00000000000E+00 0.  1.
</event>
<event>
 5    1  0.1691145E-003  0.9118800E+02  0.7818608E-02  0.1130116E+00
         25   -1    0    0    0    0  0.00000000000E+00  0.00000000000E+00  0.99999998245E-14  0.12500000000E+03  0.12500000000E+03 0.  0.
        -11    1    3    3    0    0 -0.58021727229E+02 -0.17961808702E+02 -0.89060244979E+01  0.61387821879E+02  0.51100000000E-03 0.  1.
         23    2    1    0    0    0 -0.26095294626E+02 -0.35103640559E+01 -0.10930290087E+02  0.96491083871E+02  0.92183355156E+02 0.  0.
         11    1    3    3    0    0  0.31926432602E+02  0.14451444646E+02 -0.20242655892E+01  0.35103261992E+02  0.51100000000E-03 0. -1.
         22    1    1    0    0    0  0.26095294626E+02  0.35103640559E+01  0.10930290087E+02  0.28508916129E+02  0.00000000000E+00 0.  1.
</event>
<event>
 5    1  0.1691145E-003  0.9118800E+02  0.7818608E-02  0.1130116E+00
         25   -1    0    0    0    0  0.00000000000E+00  0.00000000000E+00  0.99999998245E-14  0.12500000000E+03  0.12500000000E+03 0.  0.
        -11    1    3    3    0    0  0.38619727081E+02  0.18579005239E+02 -0.17831519703E+02  0.46417947506E+02  0.51100000000E-03 0.  1.
         23    2    1    0    0    0  0.14578382305E+02  0.56714557655E+01  0.23993817882E+02  0.96357410423E+02  0.92001916315E+02 0.  0.
         11    1    3    3    0    0 -0.24041344776E+02 -0.12907549473E+02  0.41825337585E+02  0.49939462917E+02  0.51100000000E-03 0. -1.
         22    1    1    0    0    0 -0.14578382305E+02 -0.56714557655E+01 -0.23993817882E+02  0.28642589577E+02  0.00000000000E+00 0. -1.
</event>
<event>
 5    1  0.1691145E-003  0.9118800E+02  0.7818608E-02  0.1130116E+00
         25   -1    0    0    0    0  0.00000000000E+00  0.00000000000E+00  0.99999998245E-14  0.12500000000E+03  0.12500000000E+03 0.  0.
        -11    1    3    3    0    0 -0.62580537519E+01  0.19805097837E+02  0.34334600052E+02  0.40128168387E+02  0.51100000000E-03 0. -1.
         23    2    1    0    0    0  0.62358870151E+01 -0.24221257123E+02 -0.38038144500E+01  0.99701292763E+02  0.96438183262E+02 0.  0.
         11    1    3    3    0    0  0.12493940767E+02 -0.44026354960E+02 -0.38138414502E+02  0.59573124376E+02  0.51100000000E-03 0.  1.
         22    1    1    0    0    0 -0.62358870151E+01  0.24221257123E+02  0.38038144500E+01  0.25298707237E+02  0.00000000000E+00 0.  1.
</event>
<event>
 5    1  0.1691145E-003  0.9118800E+02  0.7818608E-02  0.1130116E+00
         25   -1    0    0    0    0  0.00000000000E+00  0.00000000000E+00  0.99999998245E-14  0.12500000000E+03  0.12500000000E+03 0.  0.
        -11    1    3    3    0    0  0.25103320827E+02 -0.55490723086E+02 -0.78533775508E+01  0.61409059627E+02  0.51100000000E-03 0. -1.
         23    2    1    0    0    0  0.13189096752E+02 -0.25869445846E+02  0.44465989337E+01  0.95623942681E+02  0.90999921265E+02 0.  0.
         11    1    3    3    0    0 -0.11914224074E+02  0.29621277239E+02  0.12299976484E+02  0.34214883054E+02  0.51100000000E-03 0.  1.
         22    1    1    0    0    0 -0.13189096752E+02  0.25869445846E+02 -0.44465989337E+01  0.29376057319E+02  0.00000000000E+00 0. -1.
</event>
<event>
 5    1  0.1691145E-003  0.9118800E+02  0.7818608E-02  0.1130116E+00
         25   -1    0    0    0    0  0.00000000000E+00  0.00000000000E+00  0.99999998245E-14  0.12500000000E+03  0.12500000000E+03 0.  0.
        -11    1    3    3    0    0 -0.66580193586E+01 -0.59736159032E+00  0.55126915317E+02  0.55530737932E+02  0.51100000000E-03 0.  1.
         23    2    1    0    0    0 -0.52763649836E+01  0.20434431122E+02  0.29861385170E+02  0.88433508139E+02  0.80519420234E+02 0.  0.
         11    1    3    3    0    0  0.13816543750E+01  0.21031792712E+02 -0.25265530146E+02  0.32902770207E+02  0.51100000000E-03 0. -1.
         22    1    1    0    0    0  0.52763649836E+01 -0.20434431122E+02 -0.29861385170E+02  0.36566491861E+02  0.00000000000E+00 0.  1.
</event>
<event>
 5    1  0.1691145E-003  0.9118800E+02  0.7818608E-02  0.1130116E+00
         25   -1    0    0    0    0  0.00000000000E+00  0.00000000000E+00  0.99999998245E-14  0.12500000000E+03  0.12500000000E+03 0.  0.
        -11    1    3    3    0    0  0.28935186826E+02  0.32779559900E+02 -0.44181473080E+02  0.62159047191E+02  0.51100000000E-03 0.  1.
         23    2    1    0    0    0  0.11706870087E+02  0.12044102214E+02 -0.23390496656E+02  0.96203706156E+02  0.91792845794E+02 0.  0.
         11    1    3    3    0    0 -0.17228316739E+02 -0.20735457686E+02  0.20790976425E+02  0.34044658965E+02  0.51100000000E-03 0. -1.
         22    1    1    0    0    0 -0.11706870087E+02 -0.12044102214E+02  0.23390496656E+02  0.28796293844E+02  0.00000000000E+00 0.  1.
</event>
<event>
 5    1  0.1691145E-003  0.9118800E+02  0.7818608E-02  0.1130116E+00
         25   -1    0    0    0    0  0.00000000000E+00  0.00000000000E+00  0.99999998245E-14  0.12500000000E+03  0.12500000000E+03 0.  0.
        -11    1    3    3    0    0 -0.44689621139E+02  0.78322550289E+01  0.20658612882E+02  0.49852630250E+02  0.51100000000E-03 0. -1.
         23    2    1    0    0    0 -0.20349648175E+02  0.11248904726E+02 -0.17953324051E+02  0.95623685002E+02  0.90999567309E+02 0.  0.
         11    1    3    3    0    0  0.24339972964E+02  0.34166496974E+01 -0.38611936934E+02  0.45771054752E+02  0.51100000000E-03 0.  1.
         22    1    1    0    0    0  0.20349648175E+02 -0.11248904726E+02  0.17953324051E+02  0.29376314998E+02  0.00000000000E+00 0.  1.
</event>
<event>
 5    1  0.1691145E-003  0.9118800E+02  0.7818608E-02  0.1130116E+00
         25   -1    0    0    0    0  0.00000000000E+00  0.00000000000E+00  0.99999998245E-14  0.12500000000E+03  0.12500000000E+03 0.  0.
        -11    1    3    3    0    0 -0.12065034908E+02 -0.22973891613E+02  0.33559018809E+02  0.42421368517E+02  0.51100000000E-03 0.  1.
         23    2    1    0    0    0 -0.73562963620E+00 -0.27418181652E+02 -0.15859857612E+02  0.93316677581E+02  0.87773397993E+02 0.  0.
         11    1    3    3    0    0  0.11329405272E+02 -0.44442900387E+01 -0.49418876421E+02  0.50895309064E+02  0.51100000000E-03 0. -1.
         22    1    1    0    0    0  0.73562963620E+00  0.27418181652E+02  0.15859857612E+02  0.31683322419E+02  0.00000000000E+00 0. -1.
</event>
<event>
 5    1  0.1691145E-003  0.9118800E+02  0.7818608E-02  0.1130116E+00
         25   -1    0    0    0    0  0.00000000000E+00  0.00000000000E+00  0.99999998245E-14  0.12500000000E+03  0.12500000000E+03 0.  0.
        -11    1    3    3    0    0 -0.25113728185E+02  0.30755952424E+02  0.47762541484E+01  0.39993006349E+02  0.51100000000E-03 0.  1.
         23    2    1    0    0    0 -0.84024217194E+01 -0.82248942208E+01 -0.28674142880E+02  0.94008774700E+02  0.88753555844E+02 0.  0.
         11    1    3    3    0    0  0.16711306466E+02 -0.38980846645E+02 -0.33450397028E+02  0.54015768351E+02  0.51100000000E-03 0. -1.
         22    1    1    0    0    0  0.84024217194E+01  0.82248942208E+01  0.28674142880E+02  0.30991225300E+02  0.00000000000E+00 0.  1.
</event>
<event>
 5    1  0.1691145E-003  0.9118800E+02  0.7818608E-02  0.1130116E+00
         25   -1    0    0    0    0  0.00000000000E+00  0.00000000000E+00  0.99999998245E-14  0.12500000000E+03  0.12500000000E+03 0.  0.
        -11    1    3    3    0    0  0.13212959491E+02  0.35991881283E+02 -0.89537802010E+01  0.39372172875E+02  0.51100000000E-03 0.  1.
         23    2    1    0    0    0 -0.27467484396E+02 -0.43638674031E+01 -0.42290436548E+01  0.96868330160E+02  0.92693487042E+02 0.  0.
         11    1    3    3    0    0 -0.40680443887E+02 -0.40355748686E+02  0.47247365462E+01  0.57496157285E+02  0.51100000000E-03 0. -1.
         22    1    1    0    0    0  0.27467484396E+02  0.43638674031E+01  0.42290436548E+01  0.28131669840E+02  0.00000000000E+00 0. -1.
</event>
<event>
 5    1  0.1691145E-003  0.9118800E+02  0.7818608E-02  0.1130116E+00
         25   -1    0    0    0    0  0.00000000000E+00  0.00000000000E+00  0.99999998245E-14  0.12500000000E+03  0.12500000000E+03 0.  0.
        -11    1    3    3    0    0 -0.37767605929E+01 -0.53431233476E+02  0.25476909078E+02  0.59314699087E+02  0.51100000000E-03 0.  1.
         23    2    1    0    0    0 -0.12941564348E+02 -0.19784448139E+02  0.18740235891E+02  0.94832054807E+02  0.89905582150E+02 0.  0.
         11    1    3    3    0    0 -0.91648037551E+01  0.33646785337E+02 -0.67366731871E+01  0.35517355719E+02  0.51100000000E-03 0. -1.
         22    1    1    0    0    0  0.12941564348E+02  0.19784448139E+02 -0.18740235891E+02  0.30167945193E+02  0.00000000000E+00 0.  1.
</event>
<event>
 5    1  0.1691145E-003  0.9118800E+02  0.7818608E-02  0.1130116E+00
         25   -1    0    0    0    0  0.00000000000E+00  0.00000000000E+00  0.99999998245E-14  0.12500000000E+03  0.12500000000E+03 0.  0.
        -11    1    3    3    0    0  0.52155343386E+02  0.71517410501E+01  0.17952305815E+01  0.52673998299E+02  0.51100000000E-03 0. -1.
         23    2    1    0    0    0  0.18088045002E+02 -0.95998869949E+01 -0.19939112103E+02  0.96418478106E+02  0.92084849603E+02 0.  0.
         11    1    3    3    0    0 -0.34067298384E+02 -0.16751628045E+02 -0.21734342685E+02  0.43744479806E+02  0.51100000000E-03 0.  1.
         22    1    1    0    0    0 -0.18088045002E+02  0.95998869949E+01  0.19939112103E+02  0.28581521894E+02  0.00000000000E+00 0. -1.
</event>
<event>
 5    1  0.1691145E-003  0.9118800E+02  0.7818608E-02  0.1130116E+00
         25   -1    0    0    0    0  0.00000000000E+00  0.00000000000E+00  0.99999998245E-14  0.12500000000E+03  0.12500000000E+03 0.  0.
        -11    1    3    3    0    0 -0.12019477751E+02 -0.32817963928E+02 -0.13253726944E+02  0.37378441379E+02  0.51100000000E-03 0. -1.
         23    2    1    0    0    0  0.25002729711E+02  0.11254896777E+02  0.35785564101E+01  0.97348322647E+02  0.93338527210E+02 0.  0.
         11    1    3    3    0    0  0.37022207463E+02  0.44072860704E+02  0.16832283354E+02  0.59969881268E+02  0.51100000000E-03 0.  1.
         22    1    1    0    0    0 -0.25002729711E+02 -0.11254896777E+02 -0.35785564101E+01  0.27651677353E+02  0.00000000000E+00 0.  1.
</event>
<event>
 5    1  0.1691145E-003  0.9118800E+02  0.7818608E-02  0.1130116E+00
         25   -1    0    0    0    0  0.00000000000E+00  0.00000000000E+00  0.99999998245E-14  0.12500000000E+03  0.12500000000E+03 0.  0.
        -11    1    3    3    0    0 -0.18896052132E+01  0.45156978154E+02 -0.40628406385E+02  0.60773272822E+02  0.51100000000E-03 0.  1.
         23    2    1    0    0    0  0.27706197088E+01  0.30009123861E+02 -0.13979451433E+02  0.91778788239E+02  0.85555228127E+02 0.  0.
         11    1    3    3    0    0  0.46602249219E+01 -0.15147854293E+02  0.26648954952E+02  0.31005515417E+02  0.51100000000E-03 0. -1.
         22    1    1    0    0    0 -0.27706197088E+01 -0.30009123861E+02  0.13979451433E+02  0.33221211761E+02  0.00000000000E+00 0.  1.
</event>
<event>
 5    1  0.1691145E-003  0.9118800E+02  0.7818608E-02  0.1130116E+00
         25   -1    0    0    0    0  0.00000000000E+00  0.00000000000E+00  0.99999998245E-14  0.12500000000E+03  0.12500000000E+03 0.  0.
        -11    1    3    3    0    0  0.10828869540E+02 -0.22364759204E+02  0.27332537312E+02  0.36939334942E+02  0.51100000000E-03 0. -1.
         23    2    1    0    0    0 -0.10071497926E+02  0.21595281946E+02 -0.10863416417E+02  0.98812119424E+02  0.95278695709E+02 0.  0.
         11    1    3    3    0    0 -0.20900367466E+02  0.43960041149E+02 -0.38195953730E+02  0.61872784483E+02  0.51100000000E-03 0.  1.
         22    1    1    0    0    0  0.10071497926E+02 -0.21595281946E+02  0.10863416417E+02  0.26187880576E+02  0.00000000000E+00 0.  1.
</event>
<event>
 5    1  0.1691145E-003  0.9118800E+02  0.7818608E-02  0.1130116E+00
         25   -1    0    0    0    0  0.00000000000E+00  0.00000000000E+00  0.99999998245E-14  0.12500000000E+03  0.12500000000E+03 0.  0.
        -11    1    3    3    0    0  0.16626198294E+01 -0.40552040546E+02  0.76799340556E+01  0.41306339519E+02  0.51100000000E-03 0. -1.
         23    2    1    0    0    0 -0.56281788441E+01  0.95453482718E+01  0.27250556793E+02  0.95582608609E+02  0.90943125920E+02 0.  0.
         11    1    3    3    0    0 -0.72907986734E+01  0.50097388818E+02  0.19570622738E+02  0.54276269089E+02  0.51100000000E-03 0.  1.
         22    1    1    0    0    0  0.56281788441E+01 -0.95453482718E+01 -0.27250556793E+02  0.29417391391E+02  0.00000000000E+00 0.  1.
</event>
<event>
 5    1  0.1691145E-003  0.9118800E+02  0.7818608E-02  0.1130116E+00
         25   -1    0    0    0    0  0.00000000000E+00  0.00000000000E+00  0.99999998245E-14  0.12500000000E+03  0.12500000000E+03 0.  0.
        -11    1    3    3    0    0  0.41650664845E+02 -0.30762083366E+02  0.22021178709E+02  0.56267361472E+02  0.51100000000E-03 0.  1.
         23    2    1    0    0    0  0.30354247314E+02  0.18428280215E+01  0.76812481746E+01  0.93634765765E+02  0.88225231319E+02 0.  0.
         11    1    3    3    0    0 -0.11296417531E+02  0.32604911387E+02 -0.14339930535E+02  0.37367404293E+02  0.51100000000E-03 0. -1.
         22    1    1    0    0    0 -0.30354247314E+02 -0.18428280215E+01 -0.76812481746E+01  0.31365234235E+02  0.00000000000E+00 0.  1.
</event>
<event>
 5    1  0.1691145E-003  0.9118800E+02  0.7818608E-02  0.1130116E+00
         25   -1    0    0    0    0  0.00000000000E+00  0.00000000000E+00  0.99999998245E-14  0.12500000000E+03  0.12500000000E+03 0.  0.
        -11    1    3    3    0    0 -0.23251779606E+02 -0.25055786546E+02 -0.16914610211E+02  0.38138454782E+02  0.51100000000E-03 0.  1.
         23    2    1    0    0    0  0.28676945160E+02 -0.81345362654E+01 -0.42842262756E+00  0.95188569140E+02  0.90399902018E+02 0.  0.
         11    1    3    3    0    0  0.51928724767E+02  0.16921250280E+02  0.16486187583E+02  0.57050114358E+02  0.51100000000E-03 0. -1.
         22    1    1    0    0    0 -0.28676945160E+02  0.81345362654E+01  0.42842262756E+00  0.29811430860E+02  0.00000000000E+00 0. -1.
</event>
<event>
 5    1  0.1691145E-003  0.9118800E+02  0.7818608E-02  0.1130116E+00
         25   -1    0    0    0    0  0.00000000000E+00  0.00000000000E+00  0.99999998245E-14  0.12500000000E+03  0.12500000000E+03 0.  0.
        -11    1    3    3    0    0 -0.34545789536E+02 -0.34468210603E+02 -0.37637256019E+02  0.61628176654E+02  0.51100000000E-03 0. -1.
         23    2    1    0    0    0 -0.20239962581E+02 -0.10089947774E+02 -0.18739821773E+02  0.95629197296E+02  0.91007138863E+02 0.  0.
         11    1    3    3    0    0  0.14305826954E+02  0.24378262828E+02  0.18897434246E+02  0.34001020642E+02  0.51100000000E-03 0.  1.
         22    1    1    0    0    0  0.20239962581E+02  0.10089947774E+02  0.18739821773E+02  0.29370802704E+02  0.00000000000E+00 0. -1.
</event>
<event>
 5    1  0.1691145E-003  0.9118800E+02  0.7818608E-02  0.1130116E+00
         25   -1    0    0    0    0  0.00000000000E+00  0.00000000000E+00  0.99999998245E-14  0.12500000000E+03  0.12500000000E+03 0.  0.
        -11    1    3    3    0    0  0.57186144365E+02  0.20464127743E+02  0.13678499324E+01  0.60752832406E+02  0.51100000000E-03 0. -1.
         23    2    1    0    0    0  0.27452306163E+02  0.63613924350E+01  0.10536341125E+02  0.94914938729E+02  0.90020745844E+02 0.  0.
         11    1    3    3    0    0 -0.29733838203E+02 -0.14102735308E+02  0.91684911927E+01  0.34162106323E+02  0.51100000000E-03 0.  1.
         22    1    1    0    0    0 -0.27452306163E+02 -0.63613924350E+01 -0.10536341125E+02  0.30085061271E+02  0.00000000000E+00 0. -1.
</event>
<event>
 5    1  0.1691145E-003  0.9118800E+02  0.7818608E-02  0.1130116E+00
         25   -1    0    0    0    0  0.00000000000E+00  0.00000000000E+00  0.99999998245E-14  0.12500000000E+03  0.12500000000E+03 0.  0.
        -11    1    3    3    0    0  0.16791094898E+02 -0.19499515060E+02 -0.28255434733E+02  0.38217032167E+02  0.51100000000E-03 0. -1.
         23    2    1    0    0    0  0.79545929019E+01 -0.53505502778E+01  0.27217295315E+02  0.96143716442E+02  0.91711117704E+02 0.  0.
         11    1    3    3    0    0 -0.88365019962E+01  0.14148964782E+02  0.55472730048E+02  0.57926684275E+02  0.51100000000E-03 0.  1.
         22    1    1    0    0    0 -0.79545929019E+01  0.53505502778E+01 -0.27217295315E+02  0.28856283558E+02  0.00000000000E+00 0.  1.
</event>
<event>
 5    1  0.1691145E-003  0.9118800E+02  0.7818608E-02  0.1130116E+00
         25   -1    0    0    0    0  0.00000000000E+00  0.00000000000E+00  0.99999998245E-14  0.12500000000E+03  0.12500000000E+03 0.  0.
        -11    1    3    3    0    0 -0.19893775618E+02  0.35775723728E+02  0.46354501782E+02  0.61841770287E+02  0.51100000000E-03 0.  1.
         23    2    1    0    0    0 -0.13521331980E+02  0.18844692074E+02  0.17312112122E+02  0.96057676942E+02  0.91593772908E+02 0.  0.
         11    1    3    3    0    0  0.63724436385E+01 -0.16931031654E+02 -0.29042389660E+02  0.34215906655E+02  0.51100000000E-03 0. -1.
         22    1    1    0    0    0  0.13521331980E+02 -0.18844692074E+02 -0.17312112122E+02  0.28942323058E+02  0.00000000000E+00 0.  1.
</event>
<event>
 5    1  0.1691145E-003  0.9118800E+02  0.7818608E-02  0.1130116E+00
         25   -1    0    0    0    0  0.00000000000E+00  0.00000000000E+00  0.99999998245E-14  0.12500000000E+03  0.12500000000E+03 0.  0.
        -11    1    3    3    0    0  0.41217037301E+02  0.26200557516E+02 -0.37852470516E+02  0.61790961333E+02  0.51100000000E-03 0. -1.
         23    2    1    0    0    0  0.15066170061E+02  0.11165132010E+02 -0.22725686634E+02  0.95536353143E+02  0.90879526219E+02 0.  0.
         11    1    3    3    0    0 -0.26150867240E+02 -0.15035425506E+02  0.15126783882E+02  0.33745391810E+02  0.51100000000E-03 0.  1.
         22    1    1    0    0    0 -0.15066170061E+02 -0.11165132010E+02  0.22725686634E+02  0.29463646857E+02  0.00000000000E+00 0. -1.
</event>
<event>
 5    1  0.1691145E-003  0.9118800E+02  0.7818608E-02  0.1130116E+00
         25   -1    0    0    0    0  0.00000000000E+00  0.00000000000E+00  0.99999998245E-14  0.12500000000E+03  0.12500000000E+03 0.  0.
        -11    1    3    3    0    0  0.21918815171E+02  0.29567059644E+02 -0.76971515485E+01  0.37601750182E+02  0.51100000000E-03 0. -1.
         23    2    1    0    0    0  0.56761970750E+01 -0.26761141605E+02 -0.88842299457E+01  0.96237047179E+02  0.91838237106E+02 0.  0.
         11    1    3    3    0    0 -0.16242618096E+02 -0.56328201249E+02 -0.11870783973E+01  0.58635296997E+02  0.51100000000E-03 0.  1.
         22    1    1    0    0    0 -0.56761970750E+01  0.26761141605E+02  0.88842299457E+01  0.28762952821E+02  0.00000000000E+00 0.  1.
</event>
<event>
 5    1  0.1691145E-003  0.9118800E+02  0.7818608E-02  0.1130116E+00
         25   -1    0    0    0    0  0.00000000000E+00  0.00000000000E+00  0.99999998245E-14  0.12500000000E+03  0.12500000000E+03 0.  0.
        -11    1    3    3    0    0  0.15011816730E+02 -0.13040627936E+02  0.58762468684E+02  0.62035798896E+02  0.51100000000E-03 0. -1.
         23    2    1    0    0    0  0.29930607839E+01 -0.27541297308E+01  0.28762890627E+02  0.95950946303E+02  0.91447999299E+02 0.  0.
         11    1    3    3    0    0 -0.12018755946E+02  0.10286498206E+02 -0.29999578057E+02  0.33915147408E+02  0.51100000000E-03 0.  1.
         22    1    1    0    0    0 -0.29930607839E+01  0.27541297308E+01 -0.28762890627E+02  0.29049053697E+02  0.00000000000E+00 0. -1.
</event>
<event>
 5    1  0.1691145E-003  0.9118800E+02  0.7818608E-02  0.1130116E+00
         25   -1    0    0    0    0  0.00000000000E+00  0.00000000000E+00  0.99999998245E-14  0.12500000000E+03  0.12500000000E+03 0.  0.
        -11    1    3    3    0    0  0.16096541023E+02 -0.10408677393E+02  0.20859961052E+02  0.28329793034E+02  0.51100000000E-03 0. -1.
         23    2    1    0    0    0 -0.30607605272E+02  0.90976640068E+01  0.31605956321E+02  0.80071952348E+02  0.66279620451E+02 0.  0.
         11    1    3    3    0    0 -0.46704146295E+02  0.19506341400E+02  0.10745995268E+02  0.51742159314E+02  0.51100000000E-03 0.  1.
         22    1    1    0    0    0  0.30607605272E+02 -0.90976640068E+01 -0.31605956321E+02  0.44928047652E+02  0.00000000000E+00 0.  1.
</event>
<event>
 5    1  0.1691145E-003  0.9118800E+02  0.7818608E-02  0.1130116E+00
         25   -1    0    0    0    0  0.00000000000E+00  0.00000000000E+00  0.99999998245E-14  0.12500000000E+03  0.12500000000E+03 0.  0.
        -11    1    3    3    0    0  0.30756793577E+02 -0.17545019376E+02  0.55466099478E+01  0.35840939416E+02  0.51100000000E-03 0. -1.
         23    2    1    0    0    0 -0.22806975463E+02 -0.18027361448E+02 -0.13833732723E+02  0.92805030648E+02  0.87041700708E+02 0.  0.
         11    1    3    3    0    0 -0.53563769040E+02 -0.48234207200E+00 -0.19380342670E+02  0.56964091232E+02  0.51100000000E-03 0.  1.
         22    1    1    0    0    0  0.22806975463E+02  0.18027361448E+02  0.13833732723E+02  0.32194969352E+02  0.00000000000E+00 0.  1.
</event>
<event>
 5    1  0.1691145E-003  0.9118800E+02  0.7818608E-02  0.1130116E+00
         25   -1    0    0    0    0  0.00000000000E+00  0.00000000000E+00  0.99999998245E-14  0.12500000000E+03  0.12500000000E+03 0.  0.
        -11    1    3    3    0    0  0.34631527442E+02  0.32324416048E+02 -0.46476388595E+01  0.47600536899E+02  0.51100000000E-03 0. -1.
         23    2    1    0    0    0  0.82806359490E+01  0.64297447385E+01  0.26866638021E+02  0.96160326152E+02  0.91733753537E+02 0.  0.
         11    1    3    3    0    0 -0.26350891493E+02 -0.25894671310E+02  0.31514276881E+02  0.48559789253E+02  0.51100000000E-03 0.  1.
         22    1    1    0    0    0 -0.82806359490E+01 -0.64297447385E+01 -0.26866638021E+02  0.28839673848E+02  0.00000000000E+00 0. -1.
</event>
<event>
 5    1  0.1691145E-003  0.9118800E+02  0.7818608E-02  0.1130116E+00
         25   -1    0    0    0    0  0.00000000000E+00  0.00000000000E+00  0.99999998245E-14  0.12500000000E+03  0.12500000000E+03 0.  0.
        -11    1    3    3    0    0  0.38476564192E+02  0.16240160981E+02 -0.13129259265E+02  0.43778605161E+02  0.51100000000E-03 0. -1.
         23    2    1    0    0    0  0.12029526401E+02  0.29333123266E+01  0.27958893467E+02  0.94422008722E+02  0.89333656483E+02 0.  0.
         11    1    3    3    0    0 -0.26447037791E+02 -0.13306848655E+02  0.41088152732E+02  0.50643403561E+02  0.51100000000E-03 0.  1.
         22    1    1    0    0    0 -0.12029526401E+02 -0.29333123266E+01 -0.27958893467E+02  0.30577991278E+02  0.00000000000E+00 0.  1.
</event>
<event>
 5    1  0.1691145E-003  0.9118800E+02  0.7818608E-02  0.1130116E+00
         25   -1    0    0    0    0  0.00000000000E+00  0.00000000000E+00  0.99999998245E-14  0.12500000000E+03  0.12500000000E+03 0.  0.
        -11    1    3    3    0    0  0.15302379766E+02  0.17387857237E+02  0.15338228168E+02  0.27780598435E+02  0.51100000000E-03 0.  1.
         23    2    1    0    0    0 -0.11309853517E+02 -0.27650337814E+02 -0.18291755121E+02  0.89970836818E+02  0.82871642945E+02 0.  0.
         11    1    3    3    0    0 -0.26612233284E+02 -0.45038195051E+02 -0.33629983289E+02  0.62190238383E+02  0.51100000000E-03 0. -1.
         22    1    1    0    0    0  0.11309853517E+02  0.27650337814E+02  0.18291755121E+02  0.35029163182E+02  0.00000000000E+00 0. -1.
</event>
<event>
 5    1  0.1691145E-003  0.9118800E+02  0.7818608E-02  0.1130116E+00
         25   -1    0    0    0    0  0.00000000000E+00  0.00000000000E+00  0.99999998245E-14  0.12500000000E+03  0.12500000000E+03 0.  0.
        -11    1    3    3    0    0  0.23086232691E+02 -0.21876410095E+02 -0.11842457384E+02  0.33938109194E+02  0.51100000000E-03 0.  1.
         23    2    1    0    0    0 -0.12214400136E+02  0.17410918331E+02  0.20161219997E+02  0.95694600505E+02  0.91096927095E+02 0.  0.
         11    1    3    3    0    0 -0.35300632827E+02  0.39287328426E+02  0.32003677381E+02  0.61756491311E+02  0.51100000000E-03 0. -1.
         22    1    1    0    0    0  0.12214400136E+02 -0.17410918331E+02 -0.20161219997E+02  0.29305399495E+02  0.00000000000E+00 0. -1.
</event>
<event>
 5    1  0.1691145E-003  0.9118800E+02  0.7818608E-02  0.1130116E+00
         25   -1    0    0    0    0  0.00000000000E+00  0.00000000000E+00  0.99999998245E-14  0.12500000000E+03  0.12500000000E+03 0.  0.
        -11    1    3    3    0    0 -0.11180981416E+02 -0.31385671176E+02 -0.26363040329E+02  0.42486287155E+02  0.51100000000E-03 0.  1.
         23    2    1    0    0    0  0.22015795686E+01  0.18018247104E+02 -0.25526357341E+02  0.93677498497E+02  0.88285755500E+02 0.  0.
         11    1    3    3    0    0  0.13382560985E+02  0.49403918280E+02  0.83668298746E+00  0.51191211342E+02  0.51100000000E-03 0. -1.
         22    1    1    0    0    0 -0.22015795686E+01 -0.18018247104E+02  0.25526357341E+02  0.31322501503E+02  0.00000000000E+00 0. -1.
</event>
<event>
 5    1  0.1691145E-003  0.9118800E+02  0.7818608E-02  0.1130116E+00
         25   -1    0    0    0    0  0.00000000000E+00  0.00000000000E+00  0.99999998245E-14  0.12500000000E+03  0.12500000000E+03 0.  0.
        -11    1    3    3    0    0 -0.19983512202E+02  0.53630173211E+02  0.12155002507E+02  0.58508805532E+02  0.51100000000E-03 0.  1.
         23    2    1    0    0    0 -0.22715044088E+01  0.28250363597E+02 -0.81326107478E+01  0.95514713276E+02  0.90849756846E+02 0.  0.
         11    1    3    3    0    0  0.17712007793E+02 -0.25379809614E+02 -0.20287613255E+02  0.37005907744E+02  0.51100000000E-03 0. -1.
         22    1    1    0    0    0  0.22715044088E+01 -0.28250363597E+02  0.81326107478E+01  0.29485286724E+02  0.00000000000E+00 0.  1.
</event>
<event>
 5    1  0.1691145E-003  0.9118800E+02  0.7818608E-02  0.1130116E+00
         25   -1    0    0    0    0  0.00000000000E+00  0.00000000000E+00  0.99999998245E-14  0.12500000000E+03  0.12500000000E+03 0.  0.
        -11    1    3    3    0    0 -0.19808400300E+02 -0.45767618533E+02 -0.16117203695E+02  0.52410036098E+02  0.51100000000E-03 0.  1.
         23    2    1    0    0    0 -0.29295285114E+02 -0.11572172717E+02  0.40746830603E+01  0.93239459178E+02  0.87663360615E+02 0.  0.
         11    1    3    3    0    0 -0.94868848136E+01  0.34195445816E+02  0.20191886755E+02  0.40829423079E+02  0.51100000000E-03 0. -1.
         22    1    1    0    0    0  0.29295285114E+02  0.11572172717E+02 -0.40746830603E+01  0.31760540822E+02  0.00000000000E+00 0.  1.
</event>
<event>
 5    1  0.1691145E-003  0.9118800E+02  0.7818608E-02  0.1130116E+00
         25   -1    0    0    0    0  0.00000000000E+00  0.00000000000E+00  0.99999998245E-14  0.12500000000E+03  0.12500000000E+03 0.  0.
        -11    1    3    3    0    0  0.82117557576E+01  0.37551482393E+02  0.14882374268E+02  0.41219313758E+02  0.51100000000E-03 0. -1.
         23    2    1    0    0    0 -0.28854891912E+02 -0.31706706639E+00  0.10108246671E+02  0.94424160363E+02  0.89336667112E+02 0.  0.
         11    1    3    3    0    0 -0.37066647670E+02 -0.37868549460E+02 -0.47741275974E+01  0.53204846605E+02  0.51100000000E-03 0.  1.
         22    1    1    0    0    0  0.28854891912E+02  0.31706706639E+00 -0.10108246671E+02  0.30575839637E+02  0.00000000000E+00 0.  1.
</event>
<event>
 5    1  0.1691145E-003  0.9118800E+02  0.7818608E-02  0.1130116E+00
         25   -1    0    0    0    0  0.00000000000E+00  0.00000000000E+00  0.99999998245E-14  0.12500000000E+03  0.12500000000E+03 0.  0.
        -11    1    3    3    0    0  0.41264454993E+02 -0.69065493078E+01 -0.40588997460E+02  0.58291700818E+02  0.51100000000E-03 0. -1.
         23    2    1    0    0    0  0.72259502110E+01 -0.11078796592E+02 -0.26531153321E+02  0.95354491286E+02  0.90629039614E+02 0.  0.
         11    1    3    3    0    0 -0.34038504782E+02 -0.41722472838E+01  0.14057844139E+02  0.37062790468E+02  0.51100000000E-03 0.  1.
         22    1    1    0    0    0 -0.72259502110E+01  0.11078796592E+02  0.26531153321E+02  0.29645508714E+02  0.00000000000E+00 0. -1.
</event>
<event>
 5    1  0.1691145E-003  0.9118800E+02  0.7818608E-02  0.1130116E+00
         25   -1    0    0    0    0  0.00000000000E+00  0.00000000000E+00  0.99999998245E-14  0.12500000000E+03  0.12500000000E+03 0.  0.
        -11    1    3    3    0    0 -0.39756138731E+02  0.43179903692E+01 -0.79301260489E+01  0.40768646127E+02  0.51100000000E-03 0. -1.
         23    2    1    0    0    0 -0.11558471688E+02  0.36208793251E+02 -0.15402932149E+02  0.83988717464E+02  0.73295152404E+02 0.  0.
         11    1    3    3    0    0  0.28197667042E+02  0.31890802882E+02 -0.74728060999E+01  0.43220071337E+02  0.51100000000E-03 0.  1.
         22    1    1    0    0    0  0.11558471688E+02 -0.36208793251E+02  0.15402932149E+02  0.41011282536E+02  0.00000000000E+00 0.  1.
</event>
<event>
 5    1  0.1691145E-003  0.9118800E+02  0.7818608E-02  0.1130116E+00
         25   -1    0    0    0    0  0.00000000000E+00  0.00000000000E+00  0.99999998245E-14  0.12500000000E+03  0.12500000000E+03 0.  0.
        -11    1    3    3    0    0 -0.48081766323E+02  0.17561690199E+02  0.29609941478E+02  0.59135588692E+02  0.51100000000E-03 0.  1.
         23    2    1    0    0    0 -0.13236282180E+02  0.13627772004E+02  0.23583320435E+02  0.94716533579E+02  0.89744823777E+02 0.  0.
         11    1    3    3    0    0  0.34845484143E+02 -0.39339181954E+01 -0.60266210427E+01  0.35580944886E+02  0.51100000000E-03 0. -1.
         22    1    1    0    0    0  0.13236282180E+02 -0.13627772004E+02 -0.23583320435E+02  0.30283466421E+02  0.00000000000E+00 0.  1.
</event>
<event>
 5    1  0.1691145E-003  0.9118800E+02  0.7818608E-02  0.1130116E+00
         25   -1    0    0    0    0  0.00000000000E+00  0.00000000000E+00  0.99999998245E-14  0.12500000000E+03  0.12500000000E+03 0.  0.
        -11    1    3    3    0    0 -0.27785677508E+02 -0.22759434431E+02 -0.11896695208E+02  0.37836055388E+02  0.51100000000E-03 0.  1.
         23    2    1    0    0    0  0.25254022498E+02 -0.34855050001E+00 -0.15220387606E+02  0.95511911920E+02  0.90845902384E+02 0.  0.
         11    1    3    3    0    0  0.53039700006E+02  0.22410883931E+02 -0.33236923979E+01  0.57675856532E+02  0.51100000000E-03 0. -1.
         22    1    1    0    0    0 -0.25254022498E+02  0.34855050001E+00  0.15220387606E+02  0.29488088080E+02  0.00000000000E+00 0. -1.
</event>
<event>
 5    1  0.1691145E-003  0.9118800E+02  0.7818608E-02  0.1130116E+00
         25   -1    0    0    0    0  0.00000000000E+00  0.00000000000E+00  0.99999998245E-14  0.12500000000E+03  0.12500000000E+03 0.  0.
        -11    1    3    3    0    0 -0.24339316235E+02 -0.54690192767E+02  0.12090177447E+02  0.61070384726E+02  0.51100000000E-03 0. -1.
         23    2    1    0    0    0 -0.59955740777E+01 -0.28240930716E+02 -0.16817664483E+01  0.96080708608E+02  0.91625199329E+02 0.  0.
         11    1    3    3    0    0  0.18343742157E+02  0.26449262051E+02 -0.13771943896E+02  0.35010323882E+02  0.51100000000E-03 0.  1.
         22    1    1    0    0    0  0.59955740777E+01  0.28240930716E+02  0.16817664483E+01  0.28919291392E+02  0.00000000000E+00 0. -1.
</event>
<event>
 5    1  0.1691145E-003  0.9118800E+02  0.7818608E-02  0.1130116E+00
         25   -1    0    0    0    0  0.00000000000E+00  0.00000000000E+00  0.99999998245E-14  0.12500000000E+03  0.12500000000E+03 0.  0.
        -11    1    3    3    0    0 -0.17525983799E+02 -0.48878555635E+02 -0.25225130024E+02  0.57728506772E+02  0.51100000000E-03 0.  1.
         23    2    1    0    0    0 -0.11603683058E+02 -0.11343245789E+02 -0.24350296841E+02  0.95738222170E+02  0.91156763559E+02 0.  0.
         11    1    3    3    0    0  0.59223007411E+01  0.37535309846E+02  0.87483318340E+00  0.38009715399E+02  0.51100000000E-03 0. -1.
         22    1    1    0    0    0  0.11603683058E+02  0.11343245789E+02  0.24350296841E+02  0.29261777830E+02  0.00000000000E+00 0.  1.
</event>
<event>
 5    1  0.1691145E-003  0.9118800E+02  0.7818608E-02  0.1130116E+00
         25   -1    0    0    0    0  0.00000000000E+00  0.00000000000E+00  0.99999998245E-14  0.12500000000E+03  0.12500000000E+03 0.  0.
        -11    1    3    3    0    0  0.15274234065E+02  0.40860878100E+02 -0.38230462751E+02  0.58004153884E+02  0.51100000000E-03 0.  1.
         23    2    1    0    0    0  0.28225880260E+01  0.30635922388E+02 -0.65522035212E+01  0.93544346856E+02  0.88097030108E+02 0.  0.
         11    1    3    3    0    0 -0.12451646039E+02 -0.10224955711E+02  0.31678259230E+02  0.35540192972E+02  0.51100000000E-03 0. -1.
         22    1    1    0    0    0 -0.28225880260E+01 -0.30635922388E+02  0.65522035212E+01  0.31455653144E+02  0.00000000000E+00 0.  1.
</event>
<event>
 5    1  0.1691145E-003  0.9118800E+02  0.7818608E-02  0.1130116E+00
         25   -1    0    0    0    0  0.00000000000E+00  0.00000000000E+00  0.99999998245E-14  0.12500000000E+03  0.12500000000E+03 0.  0.
        -11    1    3    3    0    0 -0.32738523698E+02 -0.80443878831E+01  0.10080142234E+01  0.33727425091E+02  0.51100000000E-03 0.  1.
         23    2    1    0    0    0  0.28799939185E+02  0.17721070260E+01 -0.16285143134E+01  0.96099672680E+02  0.91651067478E+02 0.  0.
         11    1    3    3    0    0  0.61538462883E+02  0.98164949091E+01 -0.26365285368E+01  0.62372247589E+02  0.51100000000E-03 0. -1.
         22    1    1    0    0    0 -0.28799939185E+02 -0.17721070260E+01  0.16285143134E+01  0.28900327320E+02  0.00000000000E+00 0. -1.
</event>
<event>
 5    1  0.1691145E-003  0.9118800E+02  0.7818608E-02  0.1130116E+00
         25   -1    0    0    0    0  0.00000000000E+00  0.00000000000E+00  0.99999998245E-14  0.12500000000E+03  0.12500000000E+03 0.  0.
        -11    1    3    3    0    0 -0.55875876994E+01 -0.15099529351E+02 -0.44424332309E+02  0.47251859479E+02  0.51100000000E-03 0. -1.
         23    2    1    0    0    0  0.36888516202E+01  0.21593684008E+02 -0.30215584883E+02  0.87678740842E+02  0.79339052241E+02 0.  0.
         11    1    3    3    0    0  0.92764393196E+01  0.36693213359E+02  0.14208747426E+02  0.40426881363E+02  0.51100000000E-03 0.  1.
         22    1    1    0    0    0 -0.36888516202E+01 -0.21593684008E+02  0.30215584883E+02  0.37321259158E+02  0.00000000000E+00 0.  1.
</event>
<event>
 5    1  0.1691145E-003  0.9118800E+02  0.7818608E-02  0.1130116E+00
         25   -1    0    0    0    0  0.00000000000E+00  0.00000000000E+00  0.99999998245E-14  0.12500000000E+03  0.12500000000E+03 0.  0.
        -11    1    3    3    0    0  0.45940103665E+02 -0.23215145298E+02  0.34647469399E+02  0.62047427280E+02  0.51100000000E-03 0.  1.
         23    2    1    0    0    0  0.20499993197E+02 -0.15484956738E+02  0.13782425228E+02  0.95845431723E+02  0.91303657817E+02 0.  0.
         11    1    3    3    0    0 -0.25440110469E+02  0.77301885602E+01 -0.20865044171E+02  0.33798004443E+02  0.51100000000E-03 0. -1.
         22    1    1    0    0    0 -0.20499993197E+02  0.15484956738E+02 -0.13782425228E+02  0.29154568277E+02  0.00000000000E+00 0.  1.
</event>
<event>
 5    1  0.1691145E-003  0.9118800E+02  0.7818608E-02  0.1130116E+00
         25   -1    0    0    0    0  0.00000000000E+00  0.00000000000E+00  0.99999998245E-14  0.12500000000E+03  0.12500000000E+03 0.  0.
        -11    1    3    3    0    0  0.24877535757E+02  0.34254487398E+02 -0.41521309766E+02  0.59298236544E+02  0.51100000000E-03 0.  1.
         23    2    1    0    0    0  0.15643003926E+02  0.28797289018E+01 -0.23450604334E+02  0.96664028974E+02  0.92417569993E+02 0.  0.
         11    1    3    3    0    0 -0.92345318318E+01 -0.31374758496E+02  0.18070705432E+02  0.37365792430E+02  0.51100000000E-03 0. -1.
         22    1    1    0    0    0 -0.15643003926E+02 -0.28797289018E+01  0.23450604334E+02  0.28335971026E+02  0.00000000000E+00 0.  1.
</event>
<event>
 5    1  0.1691145E-003  0.9118800E+02  0.7818608E-02  0.1130116E+00
         25   -1    0    0    0    0  0.00000000000E+00  0.00000000000E+00  0.99999998245E-14  0.12500000000E+03  0.12500000000E+03 0.  0.
        -11    1    3    3    0    0  0.37890018013E+02 -0.15895971269E+02  0.32697079047E+02  0.52511278275E+02  0.51100000000E-03 0. -1.
         23    2    1    0    0    0 -0.20303039428E+01 -0.22152753698E+02  0.20575444135E+02  0.94697928588E+02  0.89718906296E+02 0.  0.
         11    1    3    3    0    0 -0.39920321956E+02 -0.62567824291E+01 -0.12121634912E+02  0.42186650313E+02  0.51100000000E-03 0.  1.
         22    1    1    0    0    0  0.20303039428E+01  0.22152753698E+02 -0.20575444135E+02  0.30302071412E+02  0.00000000000E+00 0. -1.
</event>
<event>
 5    1  0.1691145E-003  0.9118800E+02  0.7818608E-02  0.1130116E+00
         25   -1    0    0    0    0  0.00000000000E+00  0.00000000000E+00  0.99999998245E-14  0.12500000000E+03  0.12500000000E+03 0.  0.
        -11    1    3    3    0    0 -0.23487348320E+02  0.81615838969E+00 -0.20364943977E+02  0.31097469175E+02  0.51100000000E-03 0.  1.
         23    2    1    0    0    0 -0.27175881598E+02  0.42088344290E+02 -0.86408767818E+01  0.74160822024E+02  0.53992643073E+02 0.  0.
         11    1    3    3    0    0 -0.36885332780E+01  0.41272185901E+02  0.11724067195E+02  0.43063352849E+02  0.51100000000E-03 0. -1.
         22    1    1    0    0    0  0.27175881598E+02 -0.42088344290E+02  0.86408767818E+01  0.50839177976E+02  0.00000000000E+00 0.  1.
</event>
<event>
 5    1  0.1691145E-003  0.9118800E+02  0.7818608E-02  0.1130116E+00
         25   -1    0    0    0    0  0.00000000000E+00  0.00000000000E+00  0.99999998245E-14  0.12500000000E+03  0.12500000000E+03 0.  0.
        -11    1    3    3    0    0  0.78205745147E+01  0.41972974597E+02 -0.42072695029E+01  0.42902133970E+02  0.51100000000E-03 0. -1.
         23    2    1    0    0    0  0.56010442779E+01 -0.49686927248E+01 -0.28309887080E+02  0.95716740092E+02  0.91127301194E+02 0.  0.
         11    1    3    3    0    0 -0.22195302368E+01 -0.46941667322E+02 -0.24102617577E+02  0.52814606121E+02  0.51100000000E-03 0.  1.
         22    1    1    0    0    0 -0.56010442779E+01  0.49686927248E+01  0.28309887080E+02  0.29283259908E+02  0.00000000000E+00 0.  1.
</event>
<event>
 5    1  0.1691145E-003  0.9118800E+02  0.7818608E-02  0.1130116E+00
         25   -1    0    0    0    0  0.00000000000E+00  0.00000000000E+00  0.99999998245E-14  0.12500000000E+03  0.12500000000E+03 0.  0.
        -11    1    3    3    0    0 -0.23318175478E+02  0.55294214822E+01  0.27410062388E+02  0.36409110534E+02  0.51100000000E-03 0.  1.
         23    2    1    0    0    0  0.28773299496E+02  0.48402564839E+01 -0.11107116222E+01  0.95801292374E+02  0.91243208479E+02 0.  0.
         11    1    3    3    0    0  0.52091474974E+02 -0.68916499834E+00 -0.28520774010E+02  0.59392181840E+02  0.51100000000E-03 0. -1.
         22    1    1    0    0    0 -0.28773299496E+02 -0.48402564839E+01  0.11107116222E+01  0.29198707626E+02  0.00000000000E+00 0. -1.
</event>
<event>
 5    1  0.1691145E-003  0.9118800E+02  0.7818608E-02  0.1130116E+00
         25   -1    0    0    0    0  0.00000000000E+00  0.00000000000E+00  0.99999998245E-14  0.12500000000E+03  0.12500000000E+03 0.  0.
        -11    1    3    3    0    0  0.75389792075E+01 -0.55021712422E+02  0.27634628145E+01  0.55604512158E+02  0.51100000000E-03 0. -1.
         23    2    1    0    0    0  0.13189158669E+02 -0.20541192584E+02 -0.16531075973E+02  0.95518294283E+02  0.90854683813E+02 0.  0.
         11    1    3    3    0    0  0.56501794611E+01  0.34480519838E+02 -0.19294538787E+02  0.39913782125E+02  0.51100000000E-03 0.  1.
         22    1    1    0    0    0 -0.13189158669E+02  0.20541192584E+02  0.16531075973E+02  0.29481705717E+02  0.00000000000E+00 0. -1.
</event>
<event>
 5    1  0.1691145E-003  0.9118800E+02  0.7818608E-02  0.1130116E+00
         25   -1    0    0    0    0  0.00000000000E+00  0.00000000000E+00  0.99999998245E-14  0.12500000000E+03  0.12500000000E+03 0.  0.
        -11    1    3    3    0    0 -0.47165317061E+02 -0.10075341484E+02  0.23224195532E+02  0.53529831850E+02  0.51100000000E-03 0. -1.
         23    2    1    0    0    0 -0.22588915890E+02  0.18609051938E+02  0.56425818396E+01  0.95194049840E+02  0.90407480111E+02 0.  0.
         11    1    3    3    0    0  0.24576401171E+02  0.28684393421E+02 -0.17581613692E+02  0.41664217990E+02  0.51100000000E-03 0.  1.
         22    1    1    0    0    0  0.22588915890E+02 -0.18609051938E+02 -0.56425818396E+01  0.29805950160E+02  0.00000000000E+00 0. -1.
</event>
<event>
 5    1  0.1691145E-003  0.9118800E+02  0.7818608E-02  0.1130116E+00
         25   -1    0    0    0    0  0.00000000000E+00  0.00000000000E+00  0.99999998245E-14  0.12500000000E+03  0.12500000000E+03 0.  0.
        -11    1    3    3    0    0  0.19201496973E+02 -0.77518711154E+01 -0.33909462007E+02  0.39732110511E+02  0.51100000000E-03 0.  1.
         23    2    1    0    0    0 -0.27838197874E+02 -0.38123564020E+01 -0.17554725410E+01  0.96847184758E+02  0.92664967434E+02 0.  0.
         11    1    3    3    0    0 -0.47039694847E+02  0.39395147134E+01  0.32153989466E+02  0.57115074247E+02  0.51100000000E-03 0. -1.
         22    1    1    0    0    0  0.27838197874E+02  0.38123564020E+01  0.17554725410E+01  0.28152815242E+02  0.00000000000E+00 0. -1.
</event>
<event>
 5    1  0.1691145E-003  0.9118800E+02  0.7818608E-02  0.1130116E+00
         25   -1    0    0    0    0  0.00000000000E+00  0.00000000000E+00  0.99999998245E-14  0.12500000000E+03  0.12500000000E+03 0.  0.
        -11    1    3    3    0    0  0.35253007691E+02 -0.21797102038E+02  0.14381665692E+02  0.43871636816E+02  0.51100000000E-03 0.  1.
         23    2    1    0    0    0  0.41367925173E+01 -0.17829168371E+02 -0.24872179404E+02  0.94119300438E+02  0.88909083391E+02 0.  0.
         11    1    3    3    0    0 -0.31116215174E+02  0.39679336670E+01 -0.39253845096E+02  0.50247663622E+02  0.51100000000E-03 0. -1.
         22    1    1    0    0    0 -0.41367925173E+01  0.17829168371E+02  0.24872179404E+02  0.30880699562E+02  0.00000000000E+00 0.  1.
</event>
<event>
 5    1  0.1691145E-003  0.9118800E+02  0.7818608E-02  0.1130116E+00
         25   -1    0    0    0    0  0.00000000000E+00  0.00000000000E+00  0.99999998245E-14  0.12500000000E+03  0.12500000000E+03 0.  0.
        -11    1    3    3    0    0  0.20425190065E+02 -0.25038536944E+02  0.12443523245E+02  0.34625972802E+02  0.51100000000E-03 0.  1.
         23    2    1    0    0    0 -0.20353393934E+02  0.11309834058E+02 -0.16514354022E+02  0.96453601282E+02  0.92132515001E+02 0.  0.
         11    1    3    3    0    0 -0.40778583998E+02  0.36348371001E+02 -0.28957877267E+02  0.61827628480E+02  0.51100000000E-03 0. -1.
         22    1    1    0    0    0  0.20353393934E+02 -0.11309834058E+02  0.16514354022E+02  0.28546398718E+02  0.00000000000E+00 0. -1.
</event>
<event>
 5    1  0.1691145E-003  0.9118800E+02  0.7818608E-02  0.1130116E+00
         25   -1    0    0    0    0  0.00000000000E+00  0.00000000000E+00  0.99999998245E-14  0.12500000000E+03  0.12500000000E+03 0.  0.
        -11    1    3    3    0    0  0.26920665227E+02  0.15952023304E+02 -0.46656322564E+02  0.56178302744E+02  0.51100000000E-03 0.  1.
         23    2    1    0    0    0 -0.47514063158E+01 -0.27013538502E+01 -0.26183534114E+02  0.98252091048E+02  0.94541116781E+02 0.  0.
         11    1    3    3    0    0 -0.31672071542E+02 -0.18653377155E+02  0.20472788451E+02  0.42073788304E+02  0.51100000000E-03 0. -1.
         22    1    1    0    0    0  0.47514063158E+01  0.27013538502E+01  0.26183534114E+02  0.26747908952E+02  0.00000000000E+00 0.  1.
</event>
<event>
 5    1  0.1691145E-003  0.9118800E+02  0.7818608E-02  0.1130116E+00
         25   -1    0    0    0    0  0.00000000000E+00  0.00000000000E+00  0.99999998245E-14  0.12500000000E+03  0.12500000000E+03 0.  0.
        -11    1    3    3    0    0  0.10503265487E+02 -0.42504846208E+02 -0.18414800920E+02  0.47498267655E+02  0.51100000000E-03 0. -1.
         23    2    1    0    0    0 -0.21024955131E+02 -0.31681201544E+01 -0.16740452567E+02  0.97938431758E+02  0.94125490381E+02 0.  0.
         11    1    3    3    0    0 -0.31528220618E+02  0.39336726054E+02  0.16743483535E+01  0.50440164102E+02  0.51100000000E-03 0.  1.
         22    1    1    0    0    0  0.21024955131E+02  0.31681201544E+01  0.16740452567E+02  0.27061568242E+02  0.00000000000E+00 0.  1.
</event>
<event>
 5    1  0.1691145E-003  0.9118800E+02  0.7818608E-02  0.1130116E+00
         25   -1    0    0    0    0  0.00000000000E+00  0.00000000000E+00  0.99999998245E-14  0.12500000000E+03  0.12500000000E+03 0.  0.
        -11    1    3    3    0    0 -0.46975015097E+02  0.18321418098E+02 -0.83592216178E+01  0.51109715230E+02  0.51100000000E-03 0.  1.
         23    2    1    0    0    0 -0.11266710359E+02 -0.23462853499E+01 -0.26446171612E+02  0.96158297377E+02  0.91730989007E+02 0.  0.
         11    1    3    3    0    0  0.35708304738E+02 -0.20667703448E+02 -0.18086949995E+02  0.45048582147E+02  0.51100000000E-03 0. -1.
         22    1    1    0    0    0  0.11266710359E+02  0.23462853499E+01  0.26446171612E+02  0.28841702623E+02  0.00000000000E+00 0. -1.
</event>
<event>
 5    1  0.1691145E-003  0.9118800E+02  0.7818608E-02  0.1130116E+00
         25   -1    0    0    0    0  0.00000000000E+00  0.00000000000E+00  0.99999998245E-14  0.12500000000E+03  0.12500000000E+03 0.  0.
        -11    1    3    3    0    0 -0.29765452433E+02  0.27922756319E+02  0.44857484079E+02  0.60645332525E+02  0.51100000000E-03 0. -1.
         23    2    1    0    0    0 -0.45439586552E+01  0.18113034508E+02  0.22587830201E+02  0.95692327752E+02  0.91093808451E+02 0.  0.
         11    1    3    3    0    0  0.25221493777E+02 -0.98097218106E+01 -0.22269653878E+02  0.35046995227E+02  0.51100000000E-03 0.  1.
         22    1    1    0    0    0  0.45439586552E+01 -0.18113034508E+02 -0.22587830201E+02  0.29307672248E+02  0.00000000000E+00 0. -1.
</event>
<event>
 5    1  0.1691145E-003  0.9118800E+02  0.7818608E-02  0.1130116E+00
         25   -1    0    0    0    0  0.00000000000E+00  0.00000000000E+00  0.99999998245E-14  0.12500000000E+03  0.12500000000E+03 0.  0.
        -11    1    3    3    0    0 -0.16651337365E+02  0.43487545113E+02 -0.36926318694E+02  0.59430519336E+02  0.51100000000E-03 0.  1.
         23    2    1    0    0    0 -0.16930901521E+02  0.98898773055E+01 -0.19767454759E+02  0.97157274431E+02  0.93082321672E+02 0.  0.
         11    1    3    3    0    0 -0.27956415572E+00 -0.33597667808E+02  0.17158863935E+02  0.37726755095E+02  0.51100000000E-03 0. -1.
         22    1    1    0    0    0  0.16930901521E+02 -0.98898773055E+01  0.19767454759E+02  0.27842725569E+02  0.00000000000E+00 0.  1.
</event>
<event>
 5    1  0.1691145E-003  0.9118800E+02  0.7818608E-02  0.1130116E+00
         25   -1    0    0    0    0  0.00000000000E+00  0.00000000000E+00  0.99999998245E-14  0.12500000000E+03  0.12500000000E+03 0.  0.
        -11    1    3    3    0    0 -0.50765789753E+02  0.10950711682E+02  0.33350063592E+01  0.52040424319E+02  0.51100000000E-03 0. -1.
         23    2    1    0    0    0 -0.10404612702E+02 -0.10734875280E+02  0.19324114879E+02  0.10056815749E+03  0.97555314420E+02 0.  0.
         11    1    3    3    0    0  0.40361177051E+02 -0.21685586963E+02  0.15989108520E+02  0.48527733168E+02  0.51100000000E-03 0.  1.
         22    1    1    0    0    0  0.10404612702E+02  0.10734875280E+02 -0.19324114879E+02  0.24431842514E+02  0.00000000000E+00 0. -1.
</event>
<event>
 5    1  0.1691145E-003  0.9118800E+02  0.7818608E-02  0.1130116E+00
         25   -1    0    0    0    0  0.00000000000E+00  0.00000000000E+00  0.99999998245E-14  0.12500000000E+03  0.12500000000E+03 0.  0.
        -11    1    3    3    0    0 -0.33395279196E+02 -0.29630653258E+02 -0.39120890298E+02  0.59360461108E+02  0.51100000000E-03 0.  1.
         23    2    1    0    0    0 -0.19525933578E+02 -0.10891708204E+01 -0.22521668311E+02  0.95172597856E+02  0.90377815110E+02 0.  0.
         11    1    3    3    0    0  0.13869345618E+02  0.28541482437E+02  0.16599221987E+02  0.35812136748E+02  0.51100000000E-03 0. -1.
         22    1    1    0    0    0  0.19525933578E+02  0.10891708204E+01  0.22521668311E+02  0.29827402144E+02  0.00000000000E+00 0.  1.
</event>
<event>
 5    1  0.1691145E-003  0.9118800E+02  0.7818608E-02  0.1130116E+00
         25   -1    0    0    0    0  0.00000000000E+00  0.00000000000E+00  0.99999998245E-14  0.12500000000E+03  0.12500000000E+03 0.  0.
        -11    1    3    3    0    0  0.48923424795E+02  0.37217690088E+02  0.80548068437E+01  0.61996272975E+02  0.51100000000E-03 0.  1.
         23    2    1    0    0    0  0.24049199417E+02  0.14119676912E+02 -0.88386856244E+00  0.97098199120E+02  0.93002955760E+02 0.  0.
         11    1    3    3    0    0 -0.24874225378E+02 -0.23098013177E+02 -0.89386754062E+01  0.35101926145E+02  0.51100000000E-03 0. -1.
         22    1    1    0    0    0 -0.24049199417E+02 -0.14119676912E+02  0.88386856244E+00  0.27901800880E+02  0.00000000000E+00 0.  1.
</event>
<event>
 5    1  0.1691145E-003  0.9118800E+02  0.7818608E-02  0.1130116E+00
         25   -1    0    0    0    0  0.00000000000E+00  0.00000000000E+00  0.99999998245E-14  0.12500000000E+03  0.12500000000E+03 0.  0.
        -11    1    3    3    0    0 -0.10124117007E+02  0.19354125077E+02  0.31960039607E+02  0.38710774141E+02  0.51100000000E-03 0. -1.
         23    2    1    0    0    0  0.25783955972E+01  0.10554448359E+02 -0.25006084095E+02  0.97735577289E+02  0.93855710120E+02 0.  0.
         11    1    3    3    0    0  0.12702512604E+02 -0.87996767172E+01 -0.56966123702E+02  0.59024803148E+02  0.51100000000E-03 0.  1.
         22    1    1    0    0    0 -0.25783955972E+01 -0.10554448359E+02  0.25006084095E+02  0.27264422711E+02  0.00000000000E+00 0.  1.
</event>
<event>
 5    1  0.1691145E-003  0.9118800E+02  0.7818608E-02  0.1130116E+00
         25   -1    0    0    0    0  0.00000000000E+00  0.00000000000E+00  0.99999998245E-14  0.12500000000E+03  0.12500000000E+03 0.  0.
        -11    1    3    3    0    0  0.27775773854E+02 -0.22198373384E+02 -0.32670862924E+02  0.48287127462E+02  0.51100000000E-03 0.  1.
         23    2    1    0    0    0  0.25552566126E+02  0.50105837927E+01  0.84316919326E+01  0.97629705620E+02  0.93714600811E+02 0.  0.
         11    1    3    3    0    0 -0.22232077272E+01  0.27208957177E+02  0.41102554857E+02  0.49342578158E+02  0.51100000000E-03 0. -1.
         22    1    1    0    0    0 -0.25552566126E+02 -0.50105837927E+01 -0.84316919326E+01  0.27370294380E+02  0.00000000000E+00 0. -1.
</event>
<event>
 5    1  0.1691145E-003  0.9118800E+02  0.7818608E-02  0.1130116E+00
         25   -1    0    0    0    0  0.00000000000E+00  0.00000000000E+00  0.99999998245E-14  0.12500000000E+03  0.12500000000E+03 0.  0.
        -11    1    3    3    0    0 -0.50775426022E+01 -0.68747799674E+01 -0.38542676539E+02  0.39478879841E+02  0.51100000000E-03 0. -1.
         23    2    1    0    0    0 -0.26375267180E+02  0.87384344326E+01  0.10595211138E+02  0.95263264231E+02  0.90503127337E+02 0.  0.
         11    1    3    3    0    0 -0.21297724578E+02  0.15613214400E+02  0.49137887677E+02  0.55784384389E+02  0.51100000000E-03 0.  1.
         22    1    1    0    0    0  0.26375267180E+02 -0.87384344326E+01 -0.10595211138E+02  0.29736735769E+02  0.00000000000E+00 0.  1.
</event>
<event>
 5    1  0.1691145E-003  0.9118800E+02  0.7818608E-02  0.1130116E+00
         25   -1    0    0    0    0  0.00000000000E+00  0.00000000000E+00  0.99999998245E-14  0.12500000000E+03  0.12500000000E+03 0.  0.
        -11    1    3    3    0    0 -0.16876041626E+02 -0.22160251086E+02 -0.20210549512E+02  0.34414296753E+02  0.51100000000E-03 0. -1.
         23    2    1    0    0    0 -0.18168028428E+02  0.30178848917E+02 -0.24917126691E+01  0.89686421720E+02  0.82441527339E+02 0.  0.
         11    1    3    3    0    0 -0.12919868017E+01  0.52339100003E+02  0.17718836843E+02  0.55272124967E+02  0.51100000000E-03 0.  1.
         22    1    1    0    0    0  0.18168028428E+02 -0.30178848917E+02  0.24917126691E+01  0.35313578280E+02  0.00000000000E+00 0.  1.
</event>
<event>
 5    1  0.1691145E-003  0.9118800E+02  0.7818608E-02  0.1130116E+00
         25   -1    0    0    0    0  0.00000000000E+00  0.00000000000E+00  0.99999998245E-14  0.12500000000E+03  0.12500000000E+03 0.  0.
        -11    1    3    3    0    0 -0.10841775212E+02  0.40952604675E+02  0.37515381689E+02  0.56586780991E+02  0.51100000000E-03 0. -1.
         23    2    1    0    0    0 -0.14571011484E+02  0.25861649579E+02  0.21257420287E+01  0.95239992040E+02  0.90470978828E+02 0.  0.
         11    1    3    3    0    0 -0.37292362720E+01 -0.15090955096E+02 -0.35389639660E+02  0.38653211049E+02  0.51100000000E-03 0.  1.
         22    1    1    0    0    0  0.14571011484E+02 -0.25861649579E+02 -0.21257420287E+01  0.29760007960E+02  0.00000000000E+00 0. -1.
</event>
<event>
 5    1  0.1691145E-003  0.9118800E+02  0.7818608E-02  0.1130116E+00
         25   -1    0    0    0    0  0.00000000000E+00  0.00000000000E+00  0.99999998245E-14  0.12500000000E+03  0.12500000000E+03 0.  0.
        -11    1    3    3    0    0 -0.51788248935E+02  0.16151111441E+02  0.27736460029E+02  0.60927763325E+02  0.51100000000E-03 0. -1.
         23    2    1    0    0    0 -0.25046137698E+02  0.15174219338E+02  0.67184660675E+01  0.94954971586E+02  0.90076317068E+02 0.  0.
         11    1    3    3    0    0  0.26742111237E+02 -0.97689210280E+00 -0.21017993961E+02  0.34027208261E+02  0.51100000000E-03 0.  1.
         22    1    1    0    0    0  0.25046137698E+02 -0.15174219338E+02 -0.67184660675E+01  0.30045028414E+02  0.00000000000E+00 0. -1.
</event>
<event>
 5    1  0.1691145E-003  0.9118800E+02  0.7818608E-02  0.1130116E+00
         25   -1    0    0    0    0  0.00000000000E+00  0.00000000000E+00  0.99999998245E-14  0.12500000000E+03  0.12500000000E+03 0.  0.
        -11    1    3    3    0    0 -0.96786983851E+01  0.12926889036E+02 -0.53288684627E+02  0.55681824432E+02  0.51100000000E-03 0. -1.
         23    2    1    0    0    0 -0.13341245365E+02  0.22446715592E+02 -0.15920249834E+02  0.94417354210E+02  0.89327143425E+02 0.  0.
         11    1    3    3    0    0 -0.36625469798E+01  0.95198265561E+01  0.37368434793E+02  0.38735529778E+02  0.51100000000E-03 0.  1.
         22    1    1    0    0    0  0.13341245365E+02 -0.22446715592E+02  0.15920249834E+02  0.30582645790E+02  0.00000000000E+00 0. -1.
</event>
<event>
 5    1  0.1691145E-003  0.9118800E+02  0.7818608E-02  0.1130116E+00
         25   -1    0    0    0    0  0.00000000000E+00  0.00000000000E+00  0.99999998245E-14  0.12500000000E+03  0.12500000000E+03 0.  0.
        -11    1    3    3    0    0 -0.22229603867E+02 -0.62269595412E+01 -0.27279686086E+02  0.35736698035E+02  0.51100000000E-03 0. -1.
         23    2    1    0    0    0  0.20045020988E+02  0.17169223727E+02  0.10012861386E+02  0.96771601127E+02  0.92562953073E+02 0.  0.
         11    1    3    3    0    0  0.42274624856E+02  0.23396183268E+02  0.37292547472E+02  0.61034903092E+02  0.51100000000E-03 0.  1.
         22    1    1    0    0    0 -0.20045020988E+02 -0.17169223727E+02 -0.10012861386E+02  0.28228398873E+02  0.00000000000E+00 0.  1.
</event>
<event>
 5    1  0.1691145E-003  0.9118800E+02  0.7818608E-02  0.1130116E+00
         25   -1    0    0    0    0  0.00000000000E+00  0.00000000000E+00  0.99999998245E-14  0.12500000000E+03  0.12500000000E+03 0.  0.
        -11    1    3    3    0    0  0.44923378537E+01 -0.14966851558E+02  0.31615319792E+02  0.35266360611E+02  0.51100000000E-03 0. -1.
         23    2    1    0    0    0  0.86937999047E+01  0.62265445392E+01 -0.26046857666E+02  0.96843458878E+02  0.92659941288E+02 0.  0.
         11    1    3    3    0    0  0.42014620510E+01  0.21193396097E+02 -0.57662177458E+02  0.61577098267E+02  0.51100000000E-03 0.  1.
         22    1    1    0    0    0 -0.86937999047E+01 -0.62265445392E+01  0.26046857666E+02  0.28156541122E+02  0.00000000000E+00 0.  1.
</event>
<event>
 5    1  0.1691145E-003  0.9118800E+02  0.7818608E-02  0.1130116E+00
         25   -1    0    0    0    0  0.00000000000E+00  0.00000000000E+00  0.99999998245E-14  0.12500000000E+03  0.12500000000E+03 0.  0.
        -11    1    3    3    0    0  0.17475422577E+02  0.20198846548E+02 -0.29707040053E+02  0.39948617311E+02  0.51100000000E-03 0.  1.
         23    2    1    0    0    0 -0.16319727496E+02 -0.20763935680E+02 -0.12585513607E+02  0.95744749476E+02  0.91165713779E+02 0.  0.
         11    1    3    3    0    0 -0.33795150073E+02 -0.40962782229E+02  0.17121526445E+02  0.55796132164E+02  0.51100000000E-03 0. -1.
         22    1    1    0    0    0  0.16319727496E+02  0.20763935680E+02  0.12585513607E+02  0.29255250524E+02  0.00000000000E+00 0. -1.
</event>
<event>
 5    1  0.1691145E-003  0.9118800E+02  0.7818608E-02  0.1130116E+00
         25   -1    0    0    0    0  0.00000000000E+00  0.00000000000E+00  0.99999998245E-14  0.12500000000E+03  0.12500000000E+03 0.  0.
        -11    1    3    3    0    0 -0.45937551147E+01  0.59857926729E+02  0.14776991819E+02  0.61825831704E+02  0.51100000000E-03 0.  1.
         23    2    1    0    0    0  0.42079495597E+01  0.27522297580E+02  0.81799451227E+01  0.95981123285E+02  0.91489238828E+02 0.  0.
         11    1    3    3    0    0  0.88017046744E+01 -0.32335629149E+02 -0.65970466965E+01  0.34155291581E+02  0.51100000000E-03 0. -1.
         22    1    1    0    0    0 -0.42079495597E+01 -0.27522297580E+02 -0.81799451227E+01  0.29018876715E+02  0.00000000000E+00 0.  1.
</event>
<event>
 5    1  0.1691145E-003  0.9118800E+02  0.7818608E-02  0.1130116E+00
         25   -1    0    0    0    0  0.00000000000E+00  0.00000000000E+00  0.99999998245E-14  0.12500000000E+03  0.12500000000E+03 0.  0.
        -11    1    3    3    0    0 -0.19453929928E+02  0.31406611806E+02 -0.90161317999E+01  0.38027901436E+02  0.51100000000E-03 0. -1.
         23    2    1    0    0    0 -0.84806661922E+01 -0.25071084374E+02 -0.12628280548E+02  0.95675020199E+02  0.91070055725E+02 0.  0.
         11    1    3    3    0    0  0.10973263736E+02 -0.56477696179E+02 -0.36121487486E+01  0.57647118762E+02  0.51100000000E-03 0.  1.
         22    1    1    0    0    0  0.84806661922E+01  0.25071084374E+02  0.12628280548E+02  0.29324979801E+02  0.00000000000E+00 0.  1.
</event>
<event>
 5    1  0.1691145E-003  0.9118800E+02  0.7818608E-02  0.1130116E+00
         25   -1    0    0    0    0  0.00000000000E+00  0.00000000000E+00  0.99999998245E-14  0.12500000000E+03  0.12500000000E+03 0.  0.
        -11    1    3    3    0    0 -0.40929663542E+02 -0.28185031624E+01  0.34199350155E+00  0.41028018202E+02  0.51100000000E-03 0. -1.
         23    2    1    0    0    0  0.46498081533E+01 -0.22431454165E+01 -0.29200106985E+02  0.95347029404E+02  0.90618747239E+02 0.  0.
         11    1    3    3    0    0  0.45579471696E+02  0.57535774584E+00 -0.29542100486E+02  0.54319011202E+02  0.51100000000E-03 0.  1.
         22    1    1    0    0    0 -0.46498081533E+01  0.22431454165E+01  0.29200106985E+02  0.29652970596E+02  0.00000000000E+00 0.  1.
</event>
<event>
 5    1  0.1691145E-003  0.9118800E+02  0.7818608E-02  0.1130116E+00
         25   -1    0    0    0    0  0.00000000000E+00  0.00000000000E+00  0.99999998245E-14  0.12500000000E+03  0.12500000000E+03 0.  0.
        -11    1    3    3    0    0 -0.34340907443E+02  0.31288809496E+02 -0.34624582143E+02  0.57940911388E+02  0.51100000000E-03 0.  1.
         23    2    1    0    0    0 -0.80089100340E+01  0.28350339806E+02 -0.10646732281E+02  0.93675292255E+02  0.88282631722E+02 0.  0.
         11    1    3    3    0    0  0.26331997409E+02 -0.29384696904E+01  0.23977849862E+02  0.35734380867E+02  0.51100000000E-03 0. -1.
         22    1    1    0    0    0  0.80089100340E+01 -0.28350339806E+02  0.10646732281E+02  0.31324707745E+02  0.00000000000E+00 0.  1.
</event>
<event>
 5    1  0.1691145E-003  0.9118800E+02  0.7818608E-02  0.1130116E+00
         25   -1    0    0    0    0  0.00000000000E+00  0.00000000000E+00  0.99999998245E-14  0.12500000000E+03  0.12500000000E+03 0.  0.
        -11    1    3    3    0    0  0.33101093137E+02  0.51842969077E+02 -0.89445070209E+00  0.61515655340E+02  0.51100000000E-03 0.  1.
         23    2    1    0    0    0  0.19895343147E+02  0.20210214522E+02 -0.55293994702E+01  0.96106199480E+02  0.91659968743E+02 0.  0.
         11    1    3    3    0    0 -0.13205749990E+02 -0.31632754555E+02 -0.46349487681E+01  0.34590544140E+02  0.51100000000E-03 0. -1.
         22    1    1    0    0    0 -0.19895343147E+02 -0.20210214522E+02  0.55293994702E+01  0.28893800520E+02  0.00000000000E+00 0.  1.
</event>
<event>
 5    1  0.1691145E-003  0.9118800E+02  0.7818608E-02  0.1130116E+00
         25   -1    0    0    0    0  0.00000000000E+00  0.00000000000E+00  0.99999998245E-14  0.12500000000E+03  0.12500000000E+03 0.  0.
        -11    1    3    3    0    0 -0.25614426533E+02  0.32011368600E+02  0.24976932485E+01  0.41073897284E+02  0.51100000000E-03 0.  1.
         23    2    1    0    0    0 -0.13428223894E+02 -0.17973004612E+02  0.19516194008E+02  0.95264029858E+02  0.90504184790E+02 0.  0.
         11    1    3    3    0    0  0.12186202639E+02 -0.49984373211E+02  0.17018500759E+02  0.54190132575E+02  0.51100000000E-03 0. -1.
         22    1    1    0    0    0  0.13428223894E+02  0.17973004612E+02 -0.19516194008E+02  0.29735970142E+02  0.00000000000E+00 0. -1.
</event>
<event>
 5    1  0.1691145E-003  0.9118800E+02  0.7818608E-02  0.1130116E+00
         25   -1    0    0    0    0  0.00000000000E+00  0.00000000000E+00  0.99999998245E-14  0.12500000000E+03  0.12500000000E+03 0.  0.
        -11    1    3    3    0    0 -0.19618986687E+02  0.44775287429E+02  0.23297549548E+02  0.54152625219E+02  0.51100000000E-03 0.  1.
         23    2    1    0    0    0  0.12460512425E+02  0.26930004984E+02  0.14838603778E+02  0.91823597235E+02  0.85620671036E+02 0.  0.
         11    1    3    3    0    0  0.32079499112E+02 -0.17845282445E+02 -0.84589457692E+01  0.37670972016E+02  0.51100000000E-03 0. -1.
         22    1    1    0    0    0 -0.12460512425E+02 -0.26930004984E+02 -0.14838603778E+02  0.33176402765E+02  0.00000000000E+00 0.  1.
</event>
<event>
 5    1  0.1691145E-003  0.9118800E+02  0.7818608E-02  0.1130116E+00
         25   -1    0    0    0    0  0.00000000000E+00  0.00000000000E+00  0.99999998245E-14  0.12500000000E+03  0.12500000000E+03 0.  0.
        -11    1    3    3    0    0  0.53920158355E+02  0.56682605329E+01  0.15477588195E+02  0.56383227924E+02  0.51100000000E-03 0. -1.
         23    2    1    0    0    0  0.23358247701E+02  0.20293368670E+02 -0.96348002678E+00  0.94042660944E+02  0.88801268212E+02 0.  0.
         11    1    3    3    0    0 -0.30561910654E+02  0.14625108137E+02 -0.16441068222E+02  0.37659433020E+02  0.51100000000E-03 0.  1.
         22    1    1    0    0    0 -0.23358247701E+02 -0.20293368670E+02  0.96348002678E+00  0.30957339056E+02  0.00000000000E+00 0. -1.
</event>
<event>
 5    1  0.1691145E-003  0.9118800E+02  0.7818608E-02  0.1130116E+00
         25   -1    0    0    0    0  0.00000000000E+00  0.00000000000E+00  0.99999998245E-14  0.12500000000E+03  0.12500000000E+03 0.  0.
        -11    1    3    3    0    0  0.33137203400E+02 -0.36260612236E+02  0.26091646172E+02  0.55620861636E+02  0.51100000000E-03 0. -1.
         23    2    1    0    0    0  0.15807391706E+02 -0.65389350376E+00  0.25217469624E+02  0.95230519260E+02  0.90457889734E+02 0.  0.
         11    1    3    3    0    0 -0.17329811694E+02  0.35606718732E+02 -0.87417654798E+00  0.39609657624E+02  0.51100000000E-03 0.  1.
         22    1    1    0    0    0 -0.15807391706E+02  0.65389350376E+00 -0.25217469624E+02  0.29769480740E+02  0.00000000000E+00 0. -1.
</event>
<event>
 5    1  0.1691145E-003  0.9118800E+02  0.7818608E-02  0.1130116E+00
         25   -1    0    0    0    0  0.00000000000E+00  0.00000000000E+00  0.99999998245E-14  0.12500000000E+03  0.12500000000E+03 0.  0.
        -11    1    3    3    0    0 -0.17702336268E+01  0.93639573746E+00  0.37619175703E+02  0.37672442779E+02  0.51100000000E-03 0.  1.
         23    2    1    0    0    0  0.29523953357E+02  0.23490688696E+02  0.76926521709E+01  0.86494764322E+02  0.77451217424E+02 0.  0.
         11    1    3    3    0    0  0.31294186983E+02  0.22554292959E+02 -0.29926523532E+02  0.48822321543E+02  0.51100000000E-03 0. -1.
         22    1    1    0    0    0 -0.29523953357E+02 -0.23490688696E+02 -0.76926521709E+01  0.38505235678E+02  0.00000000000E+00 0. -1.
</event>
<event>
 5    1  0.1691145E-003  0.9118800E+02  0.7818608E-02  0.1130116E+00
         25   -1    0    0    0    0  0.00000000000E+00  0.00000000000E+00  0.99999998245E-14  0.12500000000E+03  0.12500000000E+03 0.  0.
        -11    1    3    3    0    0  0.18057648023E+02  0.13761555450E+02  0.26457964086E+02  0.34863776680E+02  0.51100000000E-03 0.  1.
         23    2    1    0    0    0 -0.92289975590E+00 -0.12040748878E+02 -0.26002464553E+02  0.96330163232E+02  0.91964888996E+02 0.  0.
         11    1    3    3    0    0 -0.18980547779E+02 -0.25802304327E+02 -0.52460428638E+02  0.61466386552E+02  0.51100000000E-03 0. -1.
         22    1    1    0    0    0  0.92289975590E+00  0.12040748878E+02  0.26002464553E+02  0.28669836768E+02  0.00000000000E+00 0. -1.
</event>
<event>
 5    1  0.1691145E-003  0.9118800E+02  0.7818608E-02  0.1130116E+00
         25   -1    0    0    0    0  0.00000000000E+00  0.00000000000E+00  0.99999998245E-14  0.12500000000E+03  0.12500000000E+03 0.  0.
        -11    1    3    3    0    0 -0.36136415217E+02  0.88910984339E+01 -0.48098393630E+02  0.60814041192E+02  0.51100000000E-03 0.  1.
         23    2    1    0    0    0 -0.10575507713E+02  0.10720393253E+02 -0.27315780747E+02  0.93808333282E+02  0.88470804904E+02 0.  0.
         11    1    3    3    0    0  0.25560907504E+02  0.18292948188E+01  0.20782612883E+02  0.32994292089E+02  0.51100000000E-03 0. -1.
         22    1    1    0    0    0  0.10575507713E+02 -0.10720393253E+02  0.27315780747E+02  0.31191666718E+02  0.00000000000E+00 0.  1.
</event>
<event>
 5    1  0.1691145E-003  0.9118800E+02  0.7818608E-02  0.1130116E+00
         25   -1    0    0    0    0  0.00000000000E+00  0.00000000000E+00  0.99999998245E-14  0.12500000000E+03  0.12500000000E+03 0.  0.
        -11    1    3    3    0    0  0.40604619668E+01  0.62104332289E+01  0.38869600611E+02  0.39571488274E+02  0.51100000000E-03 0.  1.
         23    2    1    0    0    0 -0.31778553429E+02 -0.57621915120E+01  0.15715095791E+01  0.92665050620E+02  0.86840443659E+02 0.  0.
         11    1    3    3    0    0 -0.35839015396E+02 -0.11972624741E+02 -0.37298091032E+02  0.53093562346E+02  0.51100000000E-03 0. -1.
         22    1    1    0    0    0  0.31778553429E+02  0.57621915120E+01 -0.15715095791E+01  0.32334949380E+02  0.00000000000E+00 0. -1.
</event>
<event>
 5    1  0.1691145E-003  0.9118800E+02  0.7818608E-02  0.1130116E+00
         25   -1    0    0    0    0  0.00000000000E+00  0.00000000000E+00  0.99999998245E-14  0.12500000000E+03  0.12500000000E+03 0.  0.
        -11    1    3    3    0    0  0.17895461623E+00  0.17037720853E+02  0.32874191449E+02  0.37027400939E+02  0.51100000000E-03 0.  1.
         23    2    1    0    0    0 -0.26369820844E+02 -0.98682189038E+01 -0.10850801005E+02  0.94825688439E+02  0.89896730251E+02 0.  0.
         11    1    3    3    0    0 -0.26548775461E+02 -0.26905939757E+02 -0.43724992454E+02  0.57798287501E+02  0.51100000000E-03 0. -1.
         22    1    1    0    0    0  0.26369820844E+02  0.98682189038E+01  0.10850801005E+02  0.30174311561E+02  0.00000000000E+00 0. -1.
</event>
<event>
 5    1  0.1691145E-003  0.9118800E+02  0.7818608E-02  0.1130116E+00
         25   -1    0    0    0    0  0.00000000000E+00  0.00000000000E+00  0.99999998245E-14  0.12500000000E+03  0.12500000000E+03 0.  0.
        -11    1    3    3    0    0  0.18073456542E+02 -0.10435881738E+02  0.56691081246E+02  0.60410563250E+02  0.51100000000E-03 0.  1.
         23    2    1    0    0    0 -0.16578629089E+01  0.91663803536E-02  0.28872949362E+02  0.96079491735E+02  0.91623539190E+02 0.  0.
         11    1    3    3    0    0 -0.19731319451E+02  0.10445048118E+02 -0.27818131884E+02  0.35668928485E+02  0.51100000000E-03 0. -1.
         22    1    1    0    0    0  0.16578629089E+01 -0.91663803536E-02 -0.28872949362E+02  0.28920508265E+02  0.00000000000E+00 0.  1.
</event>
<event>
 5    1  0.1691145E-003  0.9118800E+02  0.7818608E-02  0.1130116E+00
         25   -1    0    0    0    0  0.00000000000E+00  0.00000000000E+00  0.99999998245E-14  0.12500000000E+03  0.12500000000E+03 0.  0.
        -11    1    3    3    0    0 -0.63968778379E+01 -0.28791510557E+02  0.22687295910E+02  0.37210005673E+02  0.51100000000E-03 0. -1.
         23    2    1    0    0    0  0.26581281826E+02  0.13242671715E+02 -0.12265398654E+00  0.95302391651E+02  0.90557152742E+02 0.  0.
         11    1    3    3    0    0  0.32978159664E+02  0.42034182272E+02 -0.22809949896E+02  0.58092385978E+02  0.51100000000E-03 0.  1.
         22    1    1    0    0    0 -0.26581281826E+02 -0.13242671715E+02  0.12265398654E+00  0.29697608349E+02  0.00000000000E+00 0.  1.
</event>
<event>
 5    1  0.1691145E-003  0.9118800E+02  0.7818608E-02  0.1130116E+00
         25   -1    0    0    0    0  0.00000000000E+00  0.00000000000E+00  0.99999998245E-14  0.12500000000E+03  0.12500000000E+03 0.  0.
        -11    1    3    3    0    0  0.45245021652E+02  0.36154595304E+02 -0.64682394944E+01  0.58276108898E+02  0.51100000000E-03 0.  1.
         23    2    1    0    0    0  0.29159939292E+02  0.32361705082E+01  0.89750263455E+00  0.95647310684E+02  0.91032014539E+02 0.  0.
         11    1    3    3    0    0 -0.16085082360E+02 -0.32918424796E+02  0.73657421290E+01  0.37371201786E+02  0.51100000000E-03 0. -1.
         22    1    1    0    0    0 -0.29159939292E+02 -0.32361705082E+01 -0.89750263455E+00  0.29352689316E+02  0.00000000000E+00 0.  1.
</event>
<event>
 5    1  0.1691145E-003  0.9118800E+02  0.7818608E-02  0.1130116E+00
         25   -1    0    0    0    0  0.00000000000E+00  0.00000000000E+00  0.99999998245E-14  0.12500000000E+03  0.12500000000E+03 0.  0.
        -11    1    3    3    0    0 -0.37080191205E+02 -0.24548477336E+02  0.14839951456E+02  0.46880619437E+02  0.51100000000E-03 0. -1.
         23    2    1    0    0    0 -0.20516768234E+02  0.88411227793E+01 -0.17808544193E+02  0.96429954900E+02  0.92100427388E+02 0.  0.
         11    1    3    3    0    0  0.16563422971E+02  0.33389600115E+02 -0.32648495649E+02  0.49549335463E+02  0.51100000000E-03 0.  1.
         22    1    1    0    0    0  0.20516768234E+02 -0.88411227793E+01  0.17808544193E+02  0.28570045100E+02  0.00000000000E+00 0. -1.
</event>
<event>
 5    1  0.1691145E-003  0.9118800E+02  0.7818608E-02  0.1130116E+00
         25   -1    0    0    0    0  0.00000000000E+00  0.00000000000E+00  0.99999998245E-14  0.12500000000E+03  0.12500000000E+03 0.  0.
        -11    1    3    3    0    0  0.21793187121E+01  0.22070546979E+02  0.30021898633E+02  0.37325231035E+02  0.51100000000E-03 0. -1.
         23    2    1    0    0    0 -0.17009407079E+02 -0.23649972753E+02 -0.10661144286E+01  0.95849052496E+02  0.91308614731E+02 0.  0.
         11    1    3    3    0    0 -0.19188725791E+02 -0.45720519732E+02 -0.31088013062E+02  0.58523821461E+02  0.51100000000E-03 0.  1.
         22    1    1    0    0    0  0.17009407079E+02  0.23649972753E+02  0.10661144286E+01  0.29150947504E+02  0.00000000000E+00 0.  1.
</event>
<event>
 5    1  0.1691145E-003  0.9118800E+02  0.7818608E-02  0.1130116E+00
         25   -1    0    0    0    0  0.00000000000E+00  0.00000000000E+00  0.99999998245E-14  0.12500000000E+03  0.12500000000E+03 0.  0.
        -11    1    3    3    0    0  0.22898484788E+02 -0.56296152636E+02  0.13592904895E+01  0.60790172545E+02  0.51100000000E-03 0.  1.
         23    2    1    0    0    0  0.88096516777E+00 -0.27682069140E+02 -0.29334373830E+01  0.97149001699E+02  0.93071211579E+02 0.  0.
         11    1    3    3    0    0 -0.22017519620E+02  0.28614083496E+02 -0.42927278725E+01  0.36358829153E+02  0.51100000000E-03 0. -1.
         22    1    1    0    0    0 -0.88096516777E+00  0.27682069140E+02  0.29334373830E+01  0.27850998301E+02  0.00000000000E+00 0.  1.
</event>
<event>
 5    1  0.1691145E-003  0.9118800E+02  0.7818608E-02  0.1130116E+00
         25   -1    0    0    0    0  0.00000000000E+00  0.00000000000E+00  0.99999998245E-14  0.12500000000E+03  0.12500000000E+03 0.  0.
        -11    1    3    3    0    0 -0.54541188345E+02  0.12967796748E+02  0.25063314784E+02  0.61409076909E+02  0.51100000000E-03 0. -1.
         23    2    1    0    0    0 -0.21606977308E+02  0.99781981869E+01  0.17834413874E+02  0.95259585987E+02  0.90498046922E+02 0.  0.
         11    1    3    3    0    0  0.32934211037E+02 -0.29895985609E+01 -0.72289009104E+01  0.33850509078E+02  0.51100000000E-03 0.  1.
         22    1    1    0    0    0  0.21606977308E+02 -0.99781981869E+01 -0.17834413874E+02  0.29740414013E+02  0.00000000000E+00 0. -1.
</event>
<event>
 5    1  0.1691145E-003  0.9118800E+02  0.7818608E-02  0.1130116E+00
         25   -1    0    0    0    0  0.00000000000E+00  0.00000000000E+00  0.99999998245E-14  0.12500000000E+03  0.12500000000E+03 0.  0.
        -11    1    3    3    0    0  0.79272155674E+01 -0.15164124951E+02 -0.34493614078E+02  0.38504556154E+02  0.51100000000E-03 0. -1.
         23    2    1    0    0    0 -0.31527721469E+02  0.57910973539E+01 -0.37703508579E+01  0.92723854394E+02  0.86925045864E+02 0.  0.
         11    1    3    3    0    0 -0.39454937037E+02  0.20955222305E+02  0.30723263220E+02  0.54219298240E+02  0.51100000000E-03 0.  1.
         22    1    1    0    0    0  0.31527721469E+02 -0.57910973539E+01  0.37703508579E+01  0.32276145606E+02  0.00000000000E+00 0.  1.
</event>
<event>
 5    1  0.1691145E-003  0.9118800E+02  0.7818608E-02  0.1130116E+00
         25   -1    0    0    0    0  0.00000000000E+00  0.00000000000E+00  0.99999998245E-14  0.12500000000E+03  0.12500000000E+03 0.  0.
        -11    1    3    3    0    0  0.37147458023E+02  0.29454032008E-01 -0.35432366685E+02  0.51336021606E+02  0.51100000000E-03 0. -1.
         23    2    1    0    0    0  0.29033827080E+02 -0.11175905318E+01  0.74585072437E+01  0.95002642553E+02  0.90142446374E+02 0.  0.
         11    1    3    3    0    0 -0.81136309436E+01 -0.11470445638E+01  0.42890873929E+02  0.43666620947E+02  0.51100000000E-03 0.  1.
         22    1    1    0    0    0 -0.29033827080E+02  0.11175905318E+01 -0.74585072437E+01  0.29997357447E+02  0.00000000000E+00 0. -1.
</event>
<event>
 5    1  0.1691145E-003  0.9118800E+02  0.7818608E-02  0.1130116E+00
         25   -1    0    0    0    0  0.00000000000E+00  0.00000000000E+00  0.99999998245E-14  0.12500000000E+03  0.12500000000E+03 0.  0.
        -11    1    3    3    0    0  0.66762928529E+01  0.40324030781E+02 -0.29738608978E+02  0.50546861514E+02  0.51100000000E-03 0. -1.
         23    2    1    0    0    0 -0.22451156669E+02  0.18286424913E+02 -0.28451194525E+01  0.95904596986E+02  0.91384622593E+02 0.  0.
         11    1    3    3    0    0 -0.29127449521E+02 -0.22037605868E+02  0.26893489526E+02  0.45357735472E+02  0.51100000000E-03 0.  1.
         22    1    1    0    0    0  0.22451156669E+02 -0.18286424913E+02  0.28451194525E+01  0.29095403014E+02  0.00000000000E+00 0.  1.
</event>
<event>
 5    1  0.1691145E-003  0.9118800E+02  0.7818608E-02  0.1130116E+00
         25   -1    0    0    0    0  0.00000000000E+00  0.00000000000E+00  0.99999998245E-14  0.12500000000E+03  0.12500000000E+03 0.  0.
        -11    1    3    3    0    0  0.32278614740E+02  0.80497331139E+01  0.29054668317E+02  0.44168777706E+02  0.51100000000E-03 0.  1.
         23    2    1    0    0    0  0.20575987332E+02  0.25503992593E+01 -0.20775183579E+02  0.95648951573E+02  0.91034267686E+02 0.  0.
         11    1    3    3    0    0 -0.11702627409E+02 -0.54993338546E+01 -0.49829851896E+02  0.51480173867E+02  0.51100000000E-03 0. -1.
         22    1    1    0    0    0 -0.20575987332E+02 -0.25503992593E+01  0.20775183579E+02  0.29351048427E+02  0.00000000000E+00 0. -1.
</event>
<event>
 5    1  0.1691145E-003  0.9118800E+02  0.7818608E-02  0.1130116E+00
         25   -1    0    0    0    0  0.00000000000E+00  0.00000000000E+00  0.99999998245E-14  0.12500000000E+03  0.12500000000E+03 0.  0.
        -11    1    3    3    0    0  0.78177724975E+00 -0.32166402544E+02  0.30714965520E+02  0.44482555406E+02  0.51100000000E-03 0.  1.
         23    2    1    0    0    0  0.22730464770E+02  0.11560145483E+02  0.10273361192E+02  0.97507220177E+02  0.93551082539E+02 0.  0.
         11    1    3    3    0    0  0.21948687520E+02  0.43726548027E+02 -0.20441604329E+02  0.53024664770E+02  0.51100000000E-03 0. -1.
         22    1    1    0    0    0 -0.22730464770E+02 -0.11560145483E+02 -0.10273361192E+02  0.27492779823E+02  0.00000000000E+00 0. -1.
</event>
<event>
 5    1  0.1691145E-003  0.9118800E+02  0.7818608E-02  0.1130116E+00
         25   -1    0    0    0    0  0.00000000000E+00  0.00000000000E+00  0.99999998245E-14  0.12500000000E+03  0.12500000000E+03 0.  0.
        -11    1    3    3    0    0  0.61198582907E+02 -0.37645642196E+01 -0.10734294139E+02  0.62246795616E+02  0.51100000000E-03 0.  1.
         23    2    1    0    0    0  0.30752729243E+02  0.76393250907E+00 -0.83762884007E+01  0.93117776800E+02  0.87489680535E+02 0.  0.
         11    1    3    3    0    0 -0.30445853664E+02  0.45284967287E+01  0.23580057383E+01  0.30870981184E+02  0.51100000000E-03 0. -1.
         22    1    1    0    0    0 -0.30752729243E+02 -0.76393250907E+00  0.83762884007E+01  0.31882223200E+02  0.00000000000E+00 0.  1.
</event>
<event>
 5    1  0.1691145E-003  0.9118800E+02  0.7818608E-02  0.1130116E+00
         25   -1    0    0    0    0  0.00000000000E+00  0.00000000000E+00  0.99999998245E-14  0.12500000000E+03  0.12500000000E+03 0.  0.
        -11    1    3    3    0    0 -0.20872665190E+02 -0.53951572279E+02  0.15976563211E+02  0.60014088977E+02  0.51100000000E-03 0.  1.
         23    2    1    0    0    0 -0.12315888676E+02 -0.24298239458E+02  0.20092313275E+02  0.91150530176E+02  0.84632337460E+02 0.  0.
         11    1    3    3    0    0  0.85567765140E+01  0.29653332821E+02  0.41157500632E+01  0.31136441199E+02  0.51100000000E-03 0. -1.
         22    1    1    0    0    0  0.12315888676E+02  0.24298239458E+02 -0.20092313275E+02  0.33849469824E+02  0.00000000000E+00 0.  1.
</event>
<event>
 5    1  0.1691145E-003  0.9118800E+02  0.7818608E-02  0.1130116E+00
         25   -1    0    0    0    0  0.00000000000E+00  0.00000000000E+00  0.99999998245E-14  0.12500000000E+03  0.12500000000E+03 0.  0.
        -11    1    3    3    0    0  0.26435261508E+01 -0.18242287140E+02 -0.37318057847E+02  0.41622190143E+02  0.51100000000E-03 0.  1.
         23    2    1    0    0    0 -0.28787065692E+02 -0.35688891795E+01  0.41633805278E+01  0.95695292895E+02  0.91097877163E+02 0.  0.
         11    1    3    3    0    0 -0.31430591842E+02  0.14673397960E+02  0.41481438375E+02  0.54073102751E+02  0.51100000000E-03 0. -1.
         22    1    1    0    0    0  0.28787065692E+02  0.35688891795E+01 -0.41633805278E+01  0.29304707105E+02  0.00000000000E+00 0.  1.
</event>
<event>
 5    1  0.1691145E-003  0.9118800E+02  0.7818608E-02  0.1130116E+00
         25   -1    0    0    0    0  0.00000000000E+00  0.00000000000E+00  0.99999998245E-14  0.12500000000E+03  0.12500000000E+03 0.  0.
        -11    1    3    3    0    0 -0.23301810992E+02  0.18768656001E+02  0.11341883100E+02  0.31998049254E+02  0.51100000000E-03 0. -1.
         23    2    1    0    0    0  0.32627550490E+02 -0.18332465728E+01  0.50655750375E+01  0.91930710705E+02  0.85776906428E+02 0.  0.
         11    1    3    3    0    0  0.55929361482E+02 -0.20601902573E+02 -0.62763080625E+01  0.59932661451E+02  0.51100000000E-03 0.  1.
         22    1    1    0    0    0 -0.32627550490E+02  0.18332465728E+01 -0.50655750375E+01  0.33069289295E+02  0.00000000000E+00 0.  1.
</event>
<event>
 5    1  0.1691145E-003  0.9118800E+02  0.7818608E-02  0.1130116E+00
         25   -1    0    0    0    0  0.00000000000E+00  0.00000000000E+00  0.99999998245E-14  0.12500000000E+03  0.12500000000E+03 0.  0.
        -11    1    3    3    0    0 -0.49597676431E+02  0.12413857833E+02  0.44480328435E+01  0.51320740155E+02  0.51100000000E-03 0. -1.
         23    2    1    0    0    0 -0.15096194981E+02  0.12017651545E+02 -0.22687613397E+02  0.95216668198E+02  0.90438747501E+02 0.  0.
         11    1    3    3    0    0  0.34501481450E+02 -0.39620628819E+00 -0.27135646240E+02  0.43895928043E+02  0.51100000000E-03 0.  1.
         22    1    1    0    0    0  0.15096194981E+02 -0.12017651545E+02  0.22687613397E+02  0.29783331802E+02  0.00000000000E+00 0. -1.
</event>
<event>
 5    1  0.1691145E-003  0.9118800E+02  0.7818608E-02  0.1130116E+00
         25   -1    0    0    0    0  0.00000000000E+00  0.00000000000E+00  0.99999998245E-14  0.12500000000E+03  0.12500000000E+03 0.  0.
        -11    1    3    3    0    0  0.38434034288E+02 -0.23800921735E+02 -0.76671022441E+01  0.45852408052E+02  0.51100000000E-03 0. -1.
         23    2    1    0    0    0  0.15234900756E+02  0.20495409485E+02 -0.13359755044E+02  0.96179051615E+02  0.91759266037E+02 0.  0.
         11    1    3    3    0    0 -0.23199133532E+02  0.44296331220E+02 -0.56926528000E+01  0.50326643563E+02  0.51100000000E-03 0.  1.
         22    1    1    0    0    0 -0.15234900756E+02 -0.20495409485E+02  0.13359755044E+02  0.28820948385E+02  0.00000000000E+00 0.  1.
</event>
<event>
 5    1  0.1691145E-003  0.9118800E+02  0.7818608E-02  0.1130116E+00
         25   -1    0    0    0    0  0.00000000000E+00  0.00000000000E+00  0.99999998245E-14  0.12500000000E+03  0.12500000000E+03 0.  0.
        -11    1    3    3    0    0 -0.13087410960E+02 -0.20250216462E+02  0.22775852050E+02  0.33167620192E+02  0.51100000000E-03 0. -1.
         23    2    1    0    0    0  0.16424442206E+02  0.33466458711E+01 -0.25507069693E+02  0.94478320087E+02  0.89412415367E+02 0.  0.
         11    1    3    3    0    0  0.29511853166E+02  0.23596862333E+02 -0.48282921743E+02  0.61310699895E+02  0.51100000000E-03 0.  1.
         22    1    1    0    0    0 -0.16424442206E+02 -0.33466458711E+01  0.25507069693E+02  0.30521679913E+02  0.00000000000E+00 0.  1.
</event>
<event>
 5    1  0.1691145E-003  0.9118800E+02  0.7818608E-02  0.1130116E+00
         25   -1    0    0    0    0  0.00000000000E+00  0.00000000000E+00  0.99999998245E-14  0.12500000000E+03  0.12500000000E+03 0.  0.
        -11    1    3    3    0    0 -0.20504708521E+02 -0.40711671257E+02 -0.18961262846E+02  0.49370160391E+02  0.51100000000E-03 0.  1.
         23    2    1    0    0    0  0.86398324785E+01 -0.28370423920E+02  0.11399511420E+02  0.93227739783E+02  0.87646648229E+02 0.  0.
         11    1    3    3    0    0  0.29144540999E+02  0.12341247337E+02  0.30360774266E+02  0.43857579392E+02  0.51100000000E-03 0. -1.
         22    1    1    0    0    0 -0.86398324785E+01  0.28370423920E+02 -0.11399511420E+02  0.31772260217E+02  0.00000000000E+00 0.  1.
</event>
<event>
 5    1  0.1691145E-003  0.9118800E+02  0.7818608E-02  0.1130116E+00
         25   -1    0    0    0    0  0.00000000000E+00  0.00000000000E+00  0.99999998245E-14  0.12500000000E+03  0.12500000000E+03 0.  0.
        -11    1    3    3    0    0 -0.11735658327E+02 -0.16526492810E+02 -0.39013877099E+02  0.43965136728E+02  0.51100000000E-03 0.  1.
         23    2    1    0    0    0 -0.17849766459E+02 -0.17915560878E+02  0.13143859458E+02  0.96498376789E+02  0.92193243773E+02 0.  0.
         11    1    3    3    0    0 -0.61141081322E+01 -0.13890680671E+01  0.52157736557E+02  0.52533240061E+02  0.51100000000E-03 0. -1.
         22    1    1    0    0    0  0.17849766459E+02  0.17915560878E+02 -0.13143859458E+02  0.28501623211E+02  0.00000000000E+00 0. -1.
</event>
<event>
 5    1  0.1691145E-003  0.9118800E+02  0.7818608E-02  0.1130116E+00
         25   -1    0    0    0    0  0.00000000000E+00  0.00000000000E+00  0.99999998245E-14  0.12500000000E+03  0.12500000000E+03 0.  0.
        -11    1    3    3    0    0  0.16295365944E+01 -0.23039548047E+02 -0.29840693352E+02  0.37735171176E+02  0.51100000000E-03 0. -1.
         23    2    1    0    0    0 -0.78169128654E+01  0.28349827270E+02 -0.69362600803E+01  0.94785292706E+02  0.89840543055E+02 0.  0.
         11    1    3    3    0    0 -0.94464494598E+01  0.51389375317E+02  0.22904433271E+02  0.57050121530E+02  0.51100000000E-03 0.  1.
         22    1    1    0    0    0  0.78169128654E+01 -0.28349827270E+02  0.69362600803E+01  0.30214707294E+02  0.00000000000E+00 0.  1.
</event>
<event>
 5    1  0.1691145E-003  0.9118800E+02  0.7818608E-02  0.1130116E+00
         25   -1    0    0    0    0  0.00000000000E+00  0.00000000000E+00  0.99999998245E-14  0.12500000000E+03  0.12500000000E+03 0.  0.
        -11    1    3    3    0    0  0.16584832023E+02 -0.12836198819E+02  0.55769947994E+02  0.59582814241E+02  0.51100000000E-03 0.  1.
         23    2    1    0    0    0  0.19599982746E+02 -0.85433111224E+01  0.20040789508E+02  0.95695039111E+02  0.91097528934E+02 0.  0.
         11    1    3    3    0    0  0.30151507230E+01  0.42928876964E+01 -0.35729158486E+02  0.36112224870E+02  0.51100000000E-03 0. -1.
         22    1    1    0    0    0 -0.19599982746E+02  0.85433111224E+01 -0.20040789508E+02  0.29304960889E+02  0.00000000000E+00 0.  1.
</event>
<event>
 5    1  0.1691145E-003  0.9118800E+02  0.7818608E-02  0.1130116E+00
         25   -1    0    0    0    0  0.00000000000E+00  0.00000000000E+00  0.99999998245E-14  0.12500000000E+03  0.12500000000E+03 0.  0.
        -11    1    3    3    0    0  0.23951140529E+02 -0.26640519400E+02 -0.18386736235E+02  0.40267188581E+02  0.51100000000E-03 0.  1.
         23    2    1    0    0    0 -0.94808120515E+01 -0.12854781184E+02  0.24116995003E+02  0.96073184683E+02  0.91614934212E+02 0.  0.
         11    1    3    3    0    0 -0.33431952580E+02  0.13785738216E+02  0.42503731238E+02  0.55805996102E+02  0.51100000000E-03 0. -1.
         22    1    1    0    0    0  0.94808120515E+01  0.12854781184E+02 -0.24116995003E+02  0.28926815317E+02  0.00000000000E+00 0. -1.
</event>
<event>
 5    1  0.1691145E-003  0.9118800E+02  0.7818608E-02  0.1130116E+00
         25   -1    0    0    0    0  0.00000000000E+00  0.00000000000E+00  0.99999998245E-14  0.12500000000E+03  0.12500000000E+03 0.  0.
        -11    1    3    3    0    0  0.74875400432E+01  0.34967885705E+02 -0.25233653131E+02  0.43767037108E+02  0.51100000000E-03 0.  1.
         23    2    1    0    0    0 -0.15238083475E+02  0.18308389132E+02  0.17840852734E+02  0.95239416557E+02  0.90470183703E+02 0.  0.
         11    1    3    3    0    0 -0.22725623518E+02 -0.16659496573E+02  0.43074505865E+02  0.51472379449E+02  0.51100000000E-03 0. -1.
         22    1    1    0    0    0  0.15238083475E+02 -0.18308389132E+02 -0.17840852734E+02  0.29760583443E+02  0.00000000000E+00 0. -1.
</event>
<event>
 5    1  0.1691145E-003  0.9118800E+02  0.7818608E-02  0.1130116E+00
         25   -1    0    0    0    0  0.00000000000E+00  0.00000000000E+00  0.99999998245E-14  0.12500000000E+03  0.12500000000E+03 0.  0.
        -11    1    3    3    0    0  0.13361486940E+02  0.30971858239E+02 -0.20578402642E+02  0.39512732019E+02  0.51100000000E-03 0. -1.
         23    2    1    0    0    0  0.16556524680E+02 -0.23141695912E+02 -0.35915033361E+01  0.96319771699E+02  0.91950763590E+02 0.  0.
         11    1    3    3    0    0  0.31950377398E+01 -0.54113554151E+02  0.16986899306E+02  0.56807039681E+02  0.51100000000E-03 0.  1.
         22    1    1    0    0    0 -0.16556524680E+02  0.23141695912E+02  0.35915033361E+01  0.28680228301E+02  0.00000000000E+00 0.  1.
</event>
<event>
 5    1  0.1691145E-003  0.9118800E+02  0.7818608E-02  0.1130116E+00
         25   -1    0    0    0    0  0.00000000000E+00  0.00000000000E+00  0.99999998245E-14  0.12500000000E+03  0.12500000000E+03 0.  0.
        -11    1    3    3    0    0 -0.11045755438E+02 -0.25132892702E+02  0.53759186279E+02  0.60363243107E+02  0.51100000000E-03 0. -1.
         23    2    1    0    0    0 -0.55187779555E+01 -0.21416127410E+02  0.18734161508E+02  0.96015931431E+02  0.91536784179E+02 0.  0.
         11    1    3    3    0    0  0.55269774828E+01  0.37167652922E+01 -0.35025024770E+02  0.35652688324E+02  0.51100000000E-03 0.  1.
         22    1    1    0    0    0  0.55187779555E+01  0.21416127410E+02 -0.18734161508E+02  0.28984068569E+02  0.00000000000E+00 0. -1.
</event>
<event>
 5    1  0.1691145E-003  0.9118800E+02  0.7818608E-02  0.1130116E+00
         25   -1    0    0    0    0  0.00000000000E+00  0.00000000000E+00  0.99999998245E-14  0.12500000000E+03  0.12500000000E+03 0.  0.
        -11    1    3    3    0    0 -0.33847451241E+02 -0.27497274516E+02  0.92149782179E+01  0.44572030301E+02  0.51100000000E-03 0.  1.
         23    2    1    0    0    0 -0.97914587105E+01  0.17482649239E+02  0.19978692343E+02  0.96703996116E+02  0.92471612017E+02 0.  0.
         11    1    3    3    0    0  0.24055992531E+02  0.44979923755E+02  0.10763714125E+02  0.52131965815E+02  0.51100000000E-03 0. -1.
         22    1    1    0    0    0  0.97914587105E+01 -0.17482649239E+02 -0.19978692343E+02  0.28296003884E+02  0.00000000000E+00 0. -1.
</event>
<event>
 5    1  0.1691145E-003  0.9118800E+02  0.7818608E-02  0.1130116E+00
         25   -1    0    0    0    0  0.00000000000E+00  0.00000000000E+00  0.99999998245E-14  0.12500000000E+03  0.12500000000E+03 0.  0.
        -11    1    3    3    0    0  0.17305451399E+02 -0.48975680394E+02  0.14408296588E+02  0.53904498227E+02  0.51100000000E-03 0.  1.
         23    2    1    0    0    0 -0.15466401350E+02 -0.23342837572E+02  0.64630288489E+01  0.96262074213E+02  0.91872294808E+02 0.  0.
         11    1    3    3    0    0 -0.32771852749E+02  0.25632842823E+02 -0.79452677394E+01  0.42357575987E+02  0.51100000000E-03 0. -1.
         22    1    1    0    0    0  0.15466401350E+02  0.23342837572E+02 -0.64630288489E+01  0.28737925787E+02  0.00000000000E+00 0.  1.
</event>
<event>
 5    1  0.1691145E-003  0.9118800E+02  0.7818608E-02  0.1130116E+00
         25   -1    0    0    0    0  0.00000000000E+00  0.00000000000E+00  0.99999998245E-14  0.12500000000E+03  0.12500000000E+03 0.  0.
        -11    1    3    3    0    0  0.38869932720E+02 -0.14261994827E+02 -0.20416364573E+02  0.46163883163E+02  0.51100000000E-03 0. -1.
         23    2    1    0    0    0  0.43110369213E+02 -0.37610554839E+01  0.11661521609E+02  0.80182140186E+02  0.66487104363E+02 0.  0.
         11    1    3    3    0    0  0.42404364930E+01  0.10500939343E+02  0.32077886182E+02  0.34018257023E+02  0.51100000000E-03 0.  1.
         22    1    1    0    0    0 -0.43110369213E+02  0.37610554839E+01 -0.11661521609E+02  0.44817859814E+02  0.00000000000E+00 0. -1.
</event>
<event>
 5    1  0.1691145E-003  0.9118800E+02  0.7818608E-02  0.1130116E+00
         25   -1    0    0    0    0  0.00000000000E+00  0.00000000000E+00  0.99999998245E-14  0.12500000000E+03  0.12500000000E+03 0.  0.
        -11    1    3    3    0    0  0.36462521413E+02  0.12489371572E+02  0.40510969773E+02  0.55916353084E+02  0.51100000000E-03 0.  1.
         23    2    1    0    0    0  0.39647928566E+01 -0.73141230496E+01  0.27710193324E+02  0.96067824271E+02  0.91607620140E+02 0.  0.
         11    1    3    3    0    0 -0.32497728556E+02 -0.19803494621E+02 -0.12800776449E+02  0.40151471187E+02  0.51100000000E-03 0. -1.
         22    1    1    0    0    0 -0.39647928566E+01  0.73141230496E+01 -0.27710193324E+02  0.28932175729E+02  0.00000000000E+00 0. -1.
</event>
<event>
 5    1  0.1691145E-003  0.9118800E+02  0.7818608E-02  0.1130116E+00
         25   -1    0    0    0    0  0.00000000000E+00  0.00000000000E+00  0.99999998245E-14  0.12500000000E+03  0.12500000000E+03 0.  0.
        -11    1    3    3    0    0 -0.31714277214E+02 -0.16382069429E+02 -0.80489413429E+00  0.35704557591E+02  0.51100000000E-03 0.  1.
         23    2    1    0    0    0  0.23979711620E+02 -0.65384663569E+01  0.16871384642E+02  0.94959664925E+02  0.90082829837E+02 0.  0.
         11    1    3    3    0    0  0.55693988833E+02  0.98436030717E+01  0.17676278776E+02  0.59255107334E+02  0.51100000000E-03 0. -1.
         22    1    1    0    0    0 -0.23979711620E+02  0.65384663569E+01 -0.16871384642E+02  0.30040335075E+02  0.00000000000E+00 0. -1.
</event>
<event>
 5    1  0.1691145E-003  0.9118800E+02  0.7818608E-02  0.1130116E+00
         25   -1    0    0    0    0  0.00000000000E+00  0.00000000000E+00  0.99999998245E-14  0.12500000000E+03  0.12500000000E+03 0.  0.
        -11    1    3    3    0    0 -0.15624722836E+02 -0.22298671199E+02  0.51766275688E+02  0.58490255596E+02  0.51100000000E-03 0. -1.
         23    2    1    0    0    0 -0.21355316227E+02 -0.86340472762E+01  0.16730434986E+02  0.96530652302E+02  0.92236994072E+02 0.  0.
         11    1    3    3    0    0 -0.57305933919E+01  0.13664623922E+02 -0.35035840702E+02  0.38040396706E+02  0.51100000000E-03 0.  1.
         22    1    1    0    0    0  0.21355316227E+02  0.86340472762E+01 -0.16730434986E+02  0.28469347698E+02  0.00000000000E+00 0. -1.
</event>
<event>
 5    1  0.1691145E-003  0.9118800E+02  0.7818608E-02  0.1130116E+00
         25   -1    0    0    0    0  0.00000000000E+00  0.00000000000E+00  0.99999998245E-14  0.12500000000E+03  0.12500000000E+03 0.  0.
        -11    1    3    3    0    0  0.11485906424E+02 -0.21601948287E+02  0.25340049270E+02  0.35223405762E+02  0.51100000000E-03 0.  1.
         23    2    1    0    0    0 -0.95293413612E+01  0.27664862901E+02 -0.25819736404E+01  0.95626209404E+02  0.91003034845E+02 0.  0.
         11    1    3    3    0    0 -0.21015247786E+02  0.49266811188E+02 -0.27922022910E+02  0.60402803642E+02  0.51100000000E-03 0. -1.
         22    1    1    0    0    0  0.95293413612E+01 -0.27664862901E+02  0.25819736404E+01  0.29373790596E+02  0.00000000000E+00 0. -1.
</event>
<event>
 5    1  0.1691145E-003  0.9118800E+02  0.7818608E-02  0.1130116E+00
         25   -1    0    0    0    0  0.00000000000E+00  0.00000000000E+00  0.99999998245E-14  0.12500000000E+03  0.12500000000E+03 0.  0.
        -11    1    3    3    0    0  0.22017394186E+02 -0.25520406015E+02 -0.63363605472E+01  0.34295863237E+02  0.51100000000E-03 0. -1.
         23    2    1    0    0    0  0.56858146861E+01  0.30828288738E+02  0.21687784965E+01  0.93576832188E+02  0.88143111171E+02 0.  0.
         11    1    3    3    0    0 -0.16331579500E+02  0.56348694754E+02  0.85051390437E+01  0.59280968951E+02  0.51100000000E-03 0.  1.
         22    1    1    0    0    0 -0.56858146861E+01 -0.30828288738E+02 -0.21687784965E+01  0.31423167812E+02  0.00000000000E+00 0.  1.
</event>
<event>
 5    1  0.1691145E-003  0.9118800E+02  0.7818608E-02  0.1130116E+00
         25   -1    0    0    0    0  0.00000000000E+00  0.00000000000E+00  0.99999998245E-14  0.12500000000E+03  0.12500000000E+03 0.  0.
        -11    1    3    3    0    0 -0.10467443410E+02 -0.39573664217E+02 -0.54075949453E+01  0.41290245270E+02  0.51100000000E-03 0.  1.
         23    2    1    0    0    0  0.18978071490E+02 -0.36265672250E+01  0.22380720476E+02  0.95432858840E+02  0.90737063596E+02 0.  0.
         11    1    3    3    0    0  0.29445514900E+02  0.35947096992E+02  0.27788315422E+02  0.54142613570E+02  0.51100000000E-03 0. -1.
         22    1    1    0    0    0 -0.18978071490E+02  0.36265672250E+01 -0.22380720476E+02  0.29567141160E+02  0.00000000000E+00 0.  1.
</event>
<event>
 5    1  0.1691145E-003  0.9118800E+02  0.7818608E-02  0.1130116E+00
         25   -1    0    0    0    0  0.00000000000E+00  0.00000000000E+00  0.99999998245E-14  0.12500000000E+03  0.12500000000E+03 0.  0.
        -11    1    3    3    0    0 -0.13475438366E+02  0.28646859357E+00 -0.44116911713E+02  0.46129940415E+02  0.51100000000E-03 0.  1.
         23    2    1    0    0    0 -0.27427875200E+02 -0.17584560151E+02 -0.40478611712E+01  0.92168760704E+02  0.86123110580E+02 0.  0.
         11    1    3    3    0    0 -0.13952436833E+02 -0.17871028745E+02  0.40069050541E+02  0.46038820288E+02  0.51100000000E-03 0. -1.
         22    1    1    0    0    0  0.27427875200E+02  0.17584560151E+02  0.40478611712E+01  0.32831239296E+02  0.00000000000E+00 0. -1.
</event>
<event>
 5    1  0.1691145E-003  0.9118800E+02  0.7818608E-02  0.1130116E+00
         25   -1    0    0    0    0  0.00000000000E+00  0.00000000000E+00  0.99999998245E-14  0.12500000000E+03  0.12500000000E+03 0.  0.
        -11    1    3    3    0    0 -0.22996537143E+02 -0.12947531481E+02  0.32683546047E+02  0.42008254837E+02  0.51100000000E-03 0. -1.
         23    2    1    0    0    0  0.48314003423E+00 -0.25396222376E+02 -0.14199520089E+02  0.95899692338E+02  0.91377913549E+02 0.  0.
         11    1    3    3    0    0  0.23479677177E+02 -0.12448690895E+02 -0.46883066136E+02  0.53891437501E+02  0.51100000000E-03 0.  1.
         22    1    1    0    0    0 -0.48314003423E+00  0.25396222376E+02  0.14199520089E+02  0.29100307662E+02  0.00000000000E+00 0. -1.
</event>
<event>
 5    1  0.1691145E-003  0.9118800E+02  0.7818608E-02  0.1130116E+00
         25   -1    0    0    0    0  0.00000000000E+00  0.00000000000E+00  0.99999998245E-14  0.12500000000E+03  0.12500000000E+03 0.  0.
        -11    1    3    3    0    0 -0.32325104353E+02 -0.11025386624E+02 -0.37362240440E+02  0.50620238369E+02  0.51100000000E-03 0.  1.
         23    2    1    0    0    0  0.10231206177E+02 -0.90612584734E+01 -0.27414227386E+02  0.94367927786E+02  0.89257951727E+02 0.  0.
         11    1    3    3    0    0  0.42556310530E+02  0.19641281504E+01  0.99480130540E+01  0.43747689416E+02  0.51100000000E-03 0. -1.
         22    1    1    0    0    0 -0.10231206177E+02  0.90612584734E+01  0.27414227386E+02  0.30632072214E+02  0.00000000000E+00 0.  1.
</event>
<event>
 5    1  0.1691145E-003  0.9118800E+02  0.7818608E-02  0.1130116E+00
         25   -1    0    0    0    0  0.00000000000E+00  0.00000000000E+00  0.99999998245E-14  0.12500000000E+03  0.12500000000E+03 0.  0.
        -11    1    3    3    0    0 -0.16660291127E+02  0.44512095392E+02  0.17509220824E+02  0.50650417084E+02  0.51100000000E-03 0.  1.
         23    2    1    0    0    0 -0.19322922039E+02 -0.63379594231E+00  0.21542497199E+02  0.96054254216E+02  0.91589101721E+02 0.  0.
         11    1    3    3    0    0 -0.26626309119E+01 -0.45145891335E+02  0.40332763743E+01  0.45403837132E+02  0.51100000000E-03 0. -1.
         22    1    1    0    0    0  0.19322922039E+02  0.63379594231E+00 -0.21542497199E+02  0.28945745784E+02  0.00000000000E+00 0. -1.
</event>
<event>
 5    1  0.1691145E-003  0.9118800E+02  0.7818608E-02  0.1130116E+00
         25   -1    0    0    0    0  0.00000000000E+00  0.00000000000E+00  0.99999998245E-14  0.12500000000E+03  0.12500000000E+03 0.  0.
        -11    1    3    3    0    0 -0.40121987882E+02  0.38174317518E+01 -0.17997247261E+02  0.44138957917E+02  0.51100000000E-03 0.  1.
         23    2    1    0    0    0 -0.18935813986E+01 -0.28451227805E+02 -0.98958645473E+01  0.94817452903E+02  0.89885278136E+02 0.  0.
         11    1    3    3    0    0  0.38228406483E+02 -0.32268659557E+02  0.81013827137E+01  0.50678494986E+02  0.51100000000E-03 0. -1.
         22    1    1    0    0    0  0.18935813986E+01  0.28451227805E+02  0.98958645473E+01  0.30182547097E+02  0.00000000000E+00 0.  1.
</event>
<event>
 5    1  0.1691145E-003  0.9118800E+02  0.7818608E-02  0.1130116E+00
         25   -1    0    0    0    0  0.00000000000E+00  0.00000000000E+00  0.99999998245E-14  0.12500000000E+03  0.12500000000E+03 0.  0.
        -11    1    3    3    0    0  0.35886702518E+02  0.20038526713E+01 -0.25142979895E+02  0.43863883566E+02  0.51100000000E-03 0.  1.
         23    2    1    0    0    0 -0.16125340245E+02  0.83385546286E+01 -0.22171659645E+02  0.96344449356E+02  0.91984304851E+02 0.  0.
         11    1    3    3    0    0 -0.52012042764E+02  0.63347019573E+01  0.29713202503E+01  0.52480565790E+02  0.51100000000E-03 0. -1.
         22    1    1    0    0    0  0.16125340245E+02 -0.83385546286E+01  0.22171659645E+02  0.28655550644E+02  0.00000000000E+00 0.  1.
</event>
<event>
 5    1  0.1691145E-003  0.9118800E+02  0.7818608E-02  0.1130116E+00
         25   -1    0    0    0    0  0.00000000000E+00  0.00000000000E+00  0.99999998245E-14  0.12500000000E+03  0.12500000000E+03 0.  0.
        -11    1    3    3    0    0 -0.44402260318E+01  0.43463534801E+02 -0.16547399817E+02  0.46718421480E+02  0.51100000000E-03 0. -1.
         23    2    1    0    0    0  0.27817456139E+02  0.16589803280E+02 -0.16382073568E+02  0.88703928955E+02  0.80938138345E+02 0.  0.
         11    1    3    3    0    0  0.32257682171E+02 -0.26873731521E+02  0.16532624957E+00  0.41985507475E+02  0.51100000000E-03 0.  1.
         22    1    1    0    0    0 -0.27817456139E+02 -0.16589803280E+02  0.16382073568E+02  0.36296071045E+02  0.00000000000E+00 0.  1.
</event>
<event>
 5    1  0.1691145E-003  0.9118800E+02  0.7818608E-02  0.1130116E+00
         25   -1    0    0    0    0  0.00000000000E+00  0.00000000000E+00  0.99999998245E-14  0.12500000000E+03  0.12500000000E+03 0.  0.
        -11    1    3    3    0    0 -0.57500533879E+02 -0.83612586492E+00 -0.24295130017E+02  0.62428069373E+02  0.51100000000E-03 0. -1.
         23    2    1    0    0    0 -0.28670814682E+02  0.16834746125E+01 -0.12417575053E+02  0.93710291285E+02  0.88332173194E+02 0.  0.
         11    1    3    3    0    0  0.28829719197E+02  0.25196004775E+01  0.11877554965E+02  0.31282221912E+02  0.51100000000E-03 0.  1.
         22    1    1    0    0    0  0.28670814682E+02 -0.16834746125E+01  0.12417575053E+02  0.31289708715E+02  0.00000000000E+00 0. -1.
</event>
<event>
 5    1  0.1691145E-003  0.9118800E+02  0.7818608E-02  0.1130116E+00
         25   -1    0    0    0    0  0.00000000000E+00  0.00000000000E+00  0.99999998245E-14  0.12500000000E+03  0.12500000000E+03 0.  0.
        -11    1    3    3    0    0 -0.26621952473E+01  0.50706617763E+02  0.40111437807E+00  0.50778039166E+02  0.51100000000E-03 0.  1.
         23    2    1    0    0    0  0.25081961790E+02  0.15849588578E+02  0.25380538552E+00  0.95328824046E+02  0.90593631187E+02 0.  0.
         11    1    3    3    0    0  0.27744157037E+02 -0.34857029185E+02 -0.14730899256E+00  0.44550784881E+02  0.51100000000E-03 0. -1.
         22    1    1    0    0    0 -0.25081961790E+02 -0.15849588578E+02 -0.25380538552E+00  0.29671175954E+02  0.00000000000E+00 0. -1.
</event>
<event>
 5    1  0.1691145E-003  0.9118800E+02  0.7818608E-02  0.1130116E+00
         25   -1    0    0    0    0  0.00000000000E+00  0.00000000000E+00  0.99999998245E-14  0.12500000000E+03  0.12500000000E+03 0.  0.
        -11    1    3    3    0    0 -0.24049209940E+02  0.24449535420E+02 -0.39960149669E+02  0.52658881899E+02  0.51100000000E-03 0.  1.
         23    2    1    0    0    0 -0.13555631971E+02  0.24987416928E+02  0.25593858809E+01  0.96457459486E+02  0.92137749439E+02 0.  0.
         11    1    3    3    0    0  0.10493577969E+02  0.53788150825E+00  0.42519535550E+02  0.43798577588E+02  0.51100000000E-03 0. -1.
         22    1    1    0    0    0  0.13555631971E+02 -0.24987416928E+02 -0.25593858809E+01  0.28542540514E+02  0.00000000000E+00 0.  1.
</event>
<event>
 5    1  0.1691145E-003  0.9118800E+02  0.7818608E-02  0.1130116E+00
         25   -1    0    0    0    0  0.00000000000E+00  0.00000000000E+00  0.99999998245E-14  0.12500000000E+03  0.12500000000E+03 0.  0.
        -11    1    3    3    0    0  0.34127299546E+02 -0.16515827149E+02 -0.23652037042E+01  0.37987357233E+02  0.51100000000E-03 0.  1.
         23    2    1    0    0    0 -0.20019320013E+00  0.24852207978E+02  0.16737411688E+02  0.95036467687E+02  0.90189339290E+02 0.  0.
         11    1    3    3    0    0 -0.34327492746E+02  0.41368035127E+02  0.19102615392E+02  0.57049110454E+02  0.51100000000E-03 0. -1.
         22    1    1    0    0    0  0.20019320013E+00 -0.24852207978E+02 -0.16737411688E+02  0.29963532313E+02  0.00000000000E+00 0. -1.
</event>
<event>
 5    1  0.1691145E-003  0.9118800E+02  0.7818608E-02  0.1130116E+00
         25   -1    0    0    0    0  0.00000000000E+00  0.00000000000E+00  0.99999998245E-14  0.12500000000E+03  0.12500000000E+03 0.  0.
        -11    1    3    3    0    0 -0.18968747702E+02  0.65334736264E+01  0.16615307825E+02  0.26049340134E+02  0.51100000000E-03 0. -1.
         23    2    1    0    0    0  0.20094656975E+02 -0.22336168835E+02  0.35789999168E+02  0.78270740241E+02  0.62790803946E+02 0.  0.
         11    1    3    3    0    0  0.39063404677E+02 -0.28869642462E+02  0.19174691343E+02  0.52221400107E+02  0.51100000000E-03 0.  1.
         22    1    1    0    0    0 -0.20094656975E+02  0.22336168835E+02 -0.35789999168E+02  0.46729259759E+02  0.00000000000E+00 0. -1.
</event>
<event>
 5    1  0.1691145E-003  0.9118800E+02  0.7818608E-02  0.1130116E+00
         25   -1    0    0    0    0  0.00000000000E+00  0.00000000000E+00  0.99999998245E-14  0.12500000000E+03  0.12500000000E+03 0.  0.
        -11    1    3    3    0    0 -0.50952384032E+02  0.19718178542E+02  0.17955295358E+02  0.57509517779E+02  0.51100000000E-03 0.  1.
         23    2    1    0    0    0 -0.23313144438E+02 -0.81861794308E+01  0.12951643731E+02  0.97102664776E+02  0.93008957600E+02 0.  0.
         11    1    3    3    0    0  0.27639239594E+02 -0.27904357973E+02 -0.50036516264E+01  0.39593146996E+02  0.51100000000E-03 0. -1.
         22    1    1    0    0    0  0.23313144438E+02  0.81861794308E+01 -0.12951643731E+02  0.27897335224E+02  0.00000000000E+00 0.  1.
</event>
<event>
 5    1  0.1691145E-003  0.9118800E+02  0.7818608E-02  0.1130116E+00
         25   -1    0    0    0    0  0.00000000000E+00  0.00000000000E+00  0.99999998245E-14  0.12500000000E+03  0.12500000000E+03 0.  0.
        -11    1    3    3    0    0 -0.11256677924E+02 -0.25161919152E+02 -0.34646373685E+02  0.44274215782E+02  0.51100000000E-03 0.  1.
         23    2    1    0    0    0  0.12369335739E+02 -0.26380456728E+02  0.94950257840E+01  0.94355514714E+02  0.89240566328E+02 0.  0.
         11    1    3    3    0    0  0.23626013663E+02 -0.12185375763E+01  0.44141399469E+02  0.50081298932E+02  0.51100000000E-03 0. -1.
         22    1    1    0    0    0 -0.12369335739E+02  0.26380456728E+02 -0.94950257840E+01  0.30644485286E+02  0.00000000000E+00 0. -1.
</event>
<event>
 5    1  0.1691145E-003  0.9118800E+02  0.7818608E-02  0.1130116E+00
         25   -1    0    0    0    0  0.00000000000E+00  0.00000000000E+00  0.99999998245E-14  0.12500000000E+03  0.12500000000E+03 0.  0.
        -11    1    3    3    0    0 -0.46414343826E+02  0.34898757060E+02  0.78132737610E+01  0.58594042395E+02  0.51100000000E-03 0. -1.
         23    2    1    0    0    0 -0.28429792810E+02  0.32997835816E+01  0.90769140802E+01  0.94974476522E+02  0.90103380239E+02 0.  0.
         11    1    3    3    0    0  0.17984551016E+02 -0.31598973478E+02  0.12636403193E+01  0.36380434127E+02  0.51100000000E-03 0.  1.
         22    1    1    0    0    0  0.28429792810E+02 -0.32997835816E+01 -0.90769140802E+01  0.30025523478E+02  0.00000000000E+00 0. -1.
</event>
<event>
 5    1  0.1691145E-003  0.9118800E+02  0.7818608E-02  0.1130116E+00
         25   -1    0    0    0    0  0.00000000000E+00  0.00000000000E+00  0.99999998245E-14  0.12500000000E+03  0.12500000000E+03 0.  0.
        -11    1    3    3    0    0 -0.31284892215E+02  0.59085207702E+01  0.22726952551E+02  0.39117380678E+02  0.51100000000E-03 0.  1.
         23    2    1    0    0    0  0.87188493709E+01 -0.28074436268E+02  0.20538409469E+01  0.95531193292E+02  0.90872428839E+02 0.  0.
         11    1    3    3    0    0  0.40003741586E+02 -0.33982957039E+02 -0.20673111605E+02  0.56413812614E+02  0.51100000000E-03 0. -1.
         22    1    1    0    0    0 -0.87188493709E+01  0.28074436268E+02 -0.20538409469E+01  0.29468806708E+02  0.00000000000E+00 0. -1.
</event>
<event>
 5    1  0.1691145E-003  0.9118800E+02  0.7818608E-02  0.1130116E+00
         25   -1    0    0    0    0  0.00000000000E+00  0.00000000000E+00  0.99999998245E-14  0.12500000000E+03  0.12500000000E+03 0.  0.
        -11    1    3    3    0    0 -0.80686243702E+01  0.17660716564E+02  0.30396797345E+02  0.36068946448E+02  0.51100000000E-03 0.  1.
         23    2    1    0    0    0  0.23930151622E+02 -0.12636185014E+02 -0.10292143810E+02  0.96047391266E+02  0.91579734747E+02 0.  0.
         11    1    3    3    0    0  0.31998775992E+02 -0.30296901578E+02 -0.40688941155E+02  0.59978444818E+02  0.51100000000E-03 0. -1.
         22    1    1    0    0    0 -0.23930151622E+02  0.12636185014E+02  0.10292143810E+02  0.28952608734E+02  0.00000000000E+00 0. -1.
</event>
<event>
 5    1  0.1691145E-003  0.9118800E+02  0.7818608E-02  0.1130116E+00
         25   -1    0    0    0    0  0.00000000000E+00  0.00000000000E+00  0.99999998245E-14  0.12500000000E+03  0.12500000000E+03 0.  0.
        -11    1    3    3    0    0  0.24653488822E+02 -0.38455225250E+02  0.13478572636E+02  0.47626366445E+02  0.51100000000E-03 0.  1.
         23    2    1    0    0    0  0.10662668958E+02  0.47354610730E+01  0.27487683407E+02  0.95138823868E+02  0.90331090811E+02 0.  0.
         11    1    3    3    0    0 -0.13990819864E+02  0.43190686323E+02  0.14009110771E+02  0.47512457423E+02  0.51100000000E-03 0. -1.
         22    1    1    0    0    0 -0.10662668958E+02 -0.47354610730E+01 -0.27487683407E+02  0.29861176132E+02  0.00000000000E+00 0.  1.
</event>
<event>
 5    1  0.1691145E-003  0.9118800E+02  0.7818608E-02  0.1130116E+00
         25   -1    0    0    0    0  0.00000000000E+00  0.00000000000E+00  0.99999998245E-14  0.12500000000E+03  0.12500000000E+03 0.  0.
        -11    1    3    3    0    0 -0.52657434690E+01  0.37963033650E+02  0.96558030802E+01  0.39524100389E+02  0.51100000000E-03 0. -1.
         23    2    1    0    0    0  0.32325407421E+02  0.12149053855E+01  0.30000968531E+01  0.92512948100E+02  0.86621227335E+02 0.  0.
         11    1    3    3    0    0  0.37591150889E+02 -0.36748128264E+02 -0.66557062271E+01  0.52988847711E+02  0.51100000000E-03 0.  1.
         22    1    1    0    0    0 -0.32325407421E+02 -0.12149053855E+01 -0.30000968531E+01  0.32487051900E+02  0.00000000000E+00 0.  1.
</event>
<event>
 5    1  0.1691145E-003  0.9118800E+02  0.7818608E-02  0.1130116E+00
         25   -1    0    0    0    0  0.00000000000E+00  0.00000000000E+00  0.99999998245E-14  0.12500000000E+03  0.12500000000E+03 0.  0.
        -11    1    3    3    0    0 -0.16708736343E+02  0.29241793746E+02 -0.86693939189E+01  0.34776756071E+02  0.51100000000E-03 0.  1.
         23    2    1    0    0    0 -0.39316913646E+00 -0.99126162285E+01  0.30753788355E+02  0.92685761024E+02  0.86870249544E+02 0.  0.
         11    1    3    3    0    0  0.16315567206E+02 -0.39154409975E+02  0.39423182274E+02  0.57909004952E+02  0.51100000000E-03 0. -1.
         22    1    1    0    0    0  0.39316913646E+00  0.99126162285E+01 -0.30753788355E+02  0.32314238976E+02  0.00000000000E+00 0. -1.
</event>
<event>
 5    1  0.1691145E-003  0.9118800E+02  0.7818608E-02  0.1130116E+00
         25   -1    0    0    0    0  0.00000000000E+00  0.00000000000E+00  0.99999998245E-14  0.12500000000E+03  0.12500000000E+03 0.  0.
        -11    1    3    3    0    0 -0.23979983489E+02 -0.39136417684E+02 -0.19535060213E+02  0.49883036947E+02  0.51100000000E-03 0.  1.
         23    2    1    0    0    0  0.99309904671E+01 -0.83409833245E+01 -0.25806758171E+02  0.96117733091E+02  0.91675696195E+02 0.  0.
         11    1    3    3    0    0  0.33910973956E+02  0.30795434359E+02 -0.62716979579E+01  0.46234696144E+02  0.51100000000E-03 0. -1.
         22    1    1    0    0    0 -0.99309904671E+01  0.83409833245E+01  0.25806758171E+02  0.28882266909E+02  0.00000000000E+00 0.  1.
</event>
<event>
 5    1  0.1691145E-003  0.9118800E+02  0.7818608E-02  0.1130116E+00
         25   -1    0    0    0    0  0.00000000000E+00  0.00000000000E+00  0.99999998245E-14  0.12500000000E+03  0.12500000000E+03 0.  0.
        -11    1    3    3    0    0  0.21681072069E+01  0.17414898581E+02  0.29807622351E+02  0.34590081409E+02  0.51100000000E-03 0. -1.
         23    2    1    0    0    0  0.11305617972E+02 -0.23268076839E+02 -0.14427571429E+02  0.95379479835E+02  0.90663498492E+02 0.  0.
         11    1    3    3    0    0  0.91375107648E+01 -0.40682975420E+02 -0.44235193780E+02  0.60789398426E+02  0.51100000000E-03 0.  1.
         22    1    1    0    0    0 -0.11305617972E+02  0.23268076839E+02  0.14427571429E+02  0.29620520165E+02  0.00000000000E+00 0.  1.
</event>
<event>
 5    1  0.1691145E-003  0.9118800E+02  0.7818608E-02  0.1130116E+00
         25   -1    0    0    0    0  0.00000000000E+00  0.00000000000E+00  0.99999998245E-14  0.12500000000E+03  0.12500000000E+03 0.  0.
        -11    1    3    3    0    0 -0.96306087117E+01 -0.56426716164E+02 -0.16170198005E+01  0.57265501609E+02  0.51100000000E-03 0. -1.
         23    2    1    0    0    0  0.13643040120E+02 -0.26252189470E+02  0.15492381044E+00  0.95413956042E+02  0.90711019234E+02 0.  0.
         11    1    3    3    0    0  0.23273648832E+02  0.30174526694E+02  0.17719436109E+01  0.38148454432E+02  0.51100000000E-03 0.  1.
         22    1    1    0    0    0 -0.13643040120E+02  0.26252189470E+02 -0.15492381044E+00  0.29586043958E+02  0.00000000000E+00 0. -1.
</event>
<event>
 5    1  0.1691145E-003  0.9118800E+02  0.7818608E-02  0.1130116E+00
         25   -1    0    0    0    0  0.00000000000E+00  0.00000000000E+00  0.99999998245E-14  0.12500000000E+03  0.12500000000E+03 0.  0.
        -11    1    3    3    0    0  0.34090265152E+02 -0.13348805927E+02  0.55352137934E+01  0.37026684834E+02  0.51100000000E-03 0.  1.
         23    2    1    0    0    0 -0.25607085553E+02 -0.78914389581E+01  0.80370754310E+01  0.97025150209E+02  0.92904722982E+02 0.  0.
         11    1    3    3    0    0 -0.59697350705E+02  0.54573669689E+01  0.25018616376E+01  0.59998465375E+02  0.51100000000E-03 0. -1.
         22    1    1    0    0    0  0.25607085553E+02  0.78914389581E+01 -0.80370754310E+01  0.27974849791E+02  0.00000000000E+00 0. -1.
</event>
<event>
 5    1  0.1691145E-003  0.9118800E+02  0.7818608E-02  0.1130116E+00
         25   -1    0    0    0    0  0.00000000000E+00  0.00000000000E+00  0.99999998245E-14  0.12500000000E+03  0.12500000000E+03 0.  0.
        -11    1    3    3    0    0  0.37094017276E+02  0.18377283164E+01  0.60382572540E+01  0.37627169890E+02  0.51100000000E-03 0. -1.
         23    2    1    0    0    0 -0.15634255027E+02  0.14077596346E+02 -0.18430126616E+02  0.97030763038E+02  0.92912274536E+02 0.  0.
         11    1    3    3    0    0 -0.52728272303E+02  0.12239868030E+02 -0.24468383870E+02  0.59403593148E+02  0.51100000000E-03 0.  1.
         22    1    1    0    0    0  0.15634255027E+02 -0.14077596346E+02  0.18430126616E+02  0.27969236962E+02  0.00000000000E+00 0.  1.
</event>
<event>
 5    1  0.1691145E-003  0.9118800E+02  0.7818608E-02  0.1130116E+00
         25   -1    0    0    0    0  0.00000000000E+00  0.00000000000E+00  0.99999998245E-14  0.12500000000E+03  0.12500000000E+03 0.  0.
        -11    1    3    3    0    0  0.25125301219E+02 -0.24609495092E+02 -0.87976240132E+01  0.36253361204E+02  0.51100000000E-03 0. -1.
         23    2    1    0    0    0  0.29165530665E+01  0.26510297119E+02  0.12015220389E+02  0.95748202515E+02  0.91170448220E+02 0.  0.
         11    1    3    3    0    0 -0.22208748153E+02  0.51119792211E+02  0.20812844402E+02  0.59494841311E+02  0.51100000000E-03 0.  1.
         22    1    1    0    0    0 -0.29165530665E+01 -0.26510297119E+02 -0.12015220389E+02  0.29251797485E+02  0.00000000000E+00 0.  1.
</event>
<event>
 5    1  0.1691145E-003  0.9118800E+02  0.7818608E-02  0.1130116E+00
         25   -1    0    0    0    0  0.00000000000E+00  0.00000000000E+00  0.99999998245E-14  0.12500000000E+03  0.12500000000E+03 0.  0.
        -11    1    3    3    0    0 -0.13298647978E+02  0.48905654725E+02 -0.31264701402E+02  0.59549128089E+02  0.51100000000E-03 0.  1.
         23    2    1    0    0    0 -0.15571056874E+02  0.13088465283E+02 -0.18084762319E+02  0.97781911092E+02  0.93917398671E+02 0.  0.
         11    1    3    3    0    0 -0.22724088963E+01 -0.35817189442E+02  0.13179939083E+02  0.38232783003E+02  0.51100000000E-03 0. -1.
         22    1    1    0    0    0  0.15571056874E+02 -0.13088465283E+02  0.18084762319E+02  0.27218088908E+02  0.00000000000E+00 0.  1.
</event>
<event>
 5    1  0.1691145E-003  0.9118800E+02  0.7818608E-02  0.1130116E+00
         25   -1    0    0    0    0  0.00000000000E+00  0.00000000000E+00  0.99999998245E-14  0.12500000000E+03  0.12500000000E+03 0.  0.
        -11    1    3    3    0    0 -0.19080582914E+00  0.27071233252E+02  0.56114213893E+02  0.62303234890E+02  0.51100000000E-03 0. -1.
         23    2    1    0    0    0  0.12829415768E+01  0.91536590891E+01  0.26352498850E+02  0.97073496290E+02  0.92969748158E+02 0.  0.
         11    1    3    3    0    0  0.14737474059E+01 -0.17917574163E+02 -0.29761715043E+02  0.34770261400E+02  0.51100000000E-03 0.  1.
         22    1    1    0    0    0 -0.12829415768E+01 -0.91536590891E+01 -0.26352498850E+02  0.27926503710E+02  0.00000000000E+00 0. -1.
</event>
<event>
 5    1  0.1691145E-003  0.9118800E+02  0.7818608E-02  0.1130116E+00
         25   -1    0    0    0    0  0.00000000000E+00  0.00000000000E+00  0.99999998245E-14  0.12500000000E+03  0.12500000000E+03 0.  0.
        -11    1    3    3    0    0 -0.52633269218E+01 -0.38888709129E+02 -0.15871308491E+02  0.42331226553E+02  0.51100000000E-03 0.  1.
         23    2    1    0    0    0 -0.52486415561E+01  0.60729814838E+01 -0.33444960609E+02  0.90605309532E+02  0.83823191200E+02 0.  0.
         11    1    3    3    0    0  0.14685365738E-01  0.44961690613E+02 -0.17573652118E+02  0.48274082979E+02  0.51100000000E-03 0. -1.
         22    1    1    0    0    0  0.52486415561E+01 -0.60729814838E+01  0.33444960609E+02  0.34394690468E+02  0.00000000000E+00 0.  1.
</event>
<event>
 5    1  0.1691145E-003  0.9118800E+02  0.7818608E-02  0.1130116E+00
         25   -1    0    0    0    0  0.00000000000E+00  0.00000000000E+00  0.99999998245E-14  0.12500000000E+03  0.12500000000E+03 0.  0.
        -11    1    3    3    0    0  0.34312801085E+02 -0.23900704833E+02 -0.46105724835E+02  0.62244275823E+02  0.51100000000E-03 0.  1.
         23    2    1    0    0    0  0.16605080938E+02 -0.14270568476E+02 -0.19086340152E+02  0.95954067101E+02  0.91452265009E+02 0.  0.
         11    1    3    3    0    0 -0.17707720147E+02  0.96301363566E+01  0.27019384684E+02  0.33709791278E+02  0.51100000000E-03 0. -1.
         22    1    1    0    0    0 -0.16605080938E+02  0.14270568476E+02  0.19086340152E+02  0.29045932899E+02  0.00000000000E+00 0.  1.
</event>
<event>
 5    1  0.1691145E-003  0.9118800E+02  0.7818608E-02  0.1130116E+00
         25   -1    0    0    0    0  0.00000000000E+00  0.00000000000E+00  0.99999998245E-14  0.12500000000E+03  0.12500000000E+03 0.  0.
        -11    1    3    3    0    0  0.67952077980E+01 -0.62298508370E+01 -0.27093169029E+02  0.28618625033E+02  0.51100000000E-03 0. -1.
         23    2    1    0    0    0  0.46909743005E+01  0.36321051467E+02  0.12021908149E+02  0.86454568428E+02  0.77386317311E+02 0.  0.
         11    1    3    3    0    0 -0.21042334974E+01  0.42550902304E+02  0.39115077178E+02  0.57835943395E+02  0.51100000000E-03 0.  1.
         22    1    1    0    0    0 -0.46909743005E+01 -0.36321051467E+02 -0.12021908149E+02  0.38545431572E+02  0.00000000000E+00 0.  1.
</event>
<event>
 5    1  0.1691145E-003  0.9118800E+02  0.7818608E-02  0.1130116E+00
         25   -1    0    0    0    0  0.00000000000E+00  0.00000000000E+00  0.99999998245E-14  0.12500000000E+03  0.12500000000E+03 0.  0.
        -11    1    3    3    0    0 -0.75266616920E+01  0.20864299774E+02  0.29155386180E+02  0.36633402584E+02  0.51100000000E-03 0. -1.
         23    2    1    0    0    0 -0.13996414676E+02 -0.24691555660E+02 -0.77051504740E+01  0.95590105601E+02  0.90953429844E+02 0.  0.
         11    1    3    3    0    0 -0.64697529840E+01 -0.45555855434E+02 -0.36860536654E+02  0.58956703018E+02  0.51100000000E-03 0.  1.
         22    1    1    0    0    0  0.13996414676E+02  0.24691555660E+02  0.77051504740E+01  0.29409894399E+02  0.00000000000E+00 0.  1.
</event>
<event>
 5    1  0.1691145E-003  0.9118800E+02  0.7818608E-02  0.1130116E+00
         25   -1    0    0    0    0  0.00000000000E+00  0.00000000000E+00  0.99999998245E-14  0.12500000000E+03  0.12500000000E+03 0.  0.
        -11    1    3    3    0    0  0.48800729847E+02  0.11760245635E+02 -0.50464132532E+01  0.50450776981E+02  0.51100000000E-03 0.  1.
         23    2    1    0    0    0  0.17923814715E+02  0.30894599497E+02 -0.11770758051E+02  0.87392950699E+02  0.78887500118E+02 0.  0.
         11    1    3    3    0    0 -0.30876915132E+02  0.19134353861E+02 -0.67243447983E+01  0.36942173718E+02  0.51100000000E-03 0. -1.
         22    1    1    0    0    0 -0.17923814715E+02 -0.30894599497E+02  0.11770758051E+02  0.37607049301E+02  0.00000000000E+00 0. -1.
</event>
<event>
 5    1  0.1691145E-003  0.9118800E+02  0.7818608E-02  0.1130116E+00
         25   -1    0    0    0    0  0.00000000000E+00  0.00000000000E+00  0.99999998245E-14  0.12500000000E+03  0.12500000000E+03 0.  0.
        -11    1    3    3    0    0  0.11099158696E+02  0.13704446810E+02 -0.55578827254E+02  0.58309598055E+02  0.51100000000E-03 0.  1.
         23    2    1    0    0    0 -0.67320405879E+01 -0.44861019559E+01 -0.28011725046E+02  0.95843487498E+02  0.91300996021E+02 0.  0.
         11    1    3    3    0    0 -0.17831199284E+02 -0.18190548765E+02  0.27567102208E+02  0.37533889443E+02  0.51100000000E-03 0. -1.
         22    1    1    0    0    0  0.67320405879E+01  0.44861019559E+01  0.28011725046E+02  0.29156512502E+02  0.00000000000E+00 0.  1.
</event>
<event>
 5    1  0.1691145E-003  0.9118800E+02  0.7818608E-02  0.1130116E+00
         25   -1    0    0    0    0  0.00000000000E+00  0.00000000000E+00  0.99999998245E-14  0.12500000000E+03  0.12500000000E+03 0.  0.
        -11    1    3    3    0    0 -0.62990649898E+01  0.39913769614E+02  0.63471742920E+01  0.40903225378E+02  0.51100000000E-03 0.  1.
         23    2    1    0    0    0  0.26793063623E+02 -0.42530439427E+01  0.96893181327E+01  0.96193064603E+02  0.91778353389E+02 0.  0.
         11    1    3    3    0    0  0.33092128612E+02 -0.44166813557E+02  0.33421438407E+01  0.55289839226E+02  0.51100000000E-03 0. -1.
         22    1    1    0    0    0 -0.26793063623E+02  0.42530439427E+01 -0.96893181327E+01  0.28806935397E+02  0.00000000000E+00 0. -1.
</event>
<event>
 5    1  0.1691145E-003  0.9118800E+02  0.7818608E-02  0.1130116E+00
         25   -1    0    0    0    0  0.00000000000E+00  0.00000000000E+00  0.99999998245E-14  0.12500000000E+03  0.12500000000E+03 0.  0.
        -11    1    3    3    0    0  0.91656558814E+01  0.47885929001E+01  0.31102243542E+02  0.32776354637E+02  0.51100000000E-03 0.  1.
         23    2    1    0    0    0 -0.21124653437E+02  0.95986324788E+00 -0.22285960030E+02  0.94278080549E+02  0.89132037659E+02 0.  0.
         11    1    3    3    0    0 -0.30290309319E+02 -0.38287296522E+01 -0.53388203571E+02  0.61501725912E+02  0.51100000000E-03 0. -1.
         22    1    1    0    0    0  0.21124653437E+02 -0.95986324788E+00  0.22285960030E+02  0.30721919451E+02  0.00000000000E+00 0. -1.
</event>
<event>
 5    1  0.1691145E-003  0.9118800E+02  0.7818608E-02  0.1130116E+00
         25   -1    0    0    0    0  0.00000000000E+00  0.00000000000E+00  0.99999998245E-14  0.12500000000E+03  0.12500000000E+03 0.  0.
        -11    1    3    3    0    0 -0.35611829847E+02  0.28273797271E+02  0.14272610183E+02  0.47658340706E+02  0.51100000000E-03 0. -1.
         23    2    1    0    0    0 -0.81440564254E+01  0.30987692612E+02 -0.16470886966E+02  0.88974274943E+02  0.81354586445E+02 0.  0.
         11    1    3    3    0    0  0.27467773421E+02  0.27138953404E+01 -0.30743497149E+02  0.41315934237E+02  0.51100000000E-03 0.  1.
         22    1    1    0    0    0  0.81440564254E+01 -0.30987692612E+02  0.16470886966E+02  0.36025725057E+02  0.00000000000E+00 0.  1.
</event>
<event>
 5    1  0.1691145E-003  0.9118800E+02  0.7818608E-02  0.1130116E+00
         25   -1    0    0    0    0  0.00000000000E+00  0.00000000000E+00  0.99999998245E-14  0.12500000000E+03  0.12500000000E+03 0.  0.
        -11    1    3    3    0    0 -0.13271724275E+02 -0.89436462653E+01  0.56176462991E+02  0.58411663802E+02  0.51100000000E-03 0.  1.
         23    2    1    0    0    0  0.62910924210E+01 -0.14168792485E+02  0.24136401483E+02  0.96313794241E+02  0.91942637335E+02 0.  0.
         11    1    3    3    0    0  0.19562816696E+02 -0.52251462195E+01 -0.32040061508E+02  0.37902130438E+02  0.51100000000E-03 0. -1.
         22    1    1    0    0    0 -0.62910924210E+01  0.14168792485E+02 -0.24136401483E+02  0.28686205759E+02  0.00000000000E+00 0.  1.
</event>
<event>
 5    1  0.1691145E-003  0.9118800E+02  0.7818608E-02  0.1130116E+00
         25   -1    0    0    0    0  0.00000000000E+00  0.00000000000E+00  0.99999998245E-14  0.12500000000E+03  0.12500000000E+03 0.  0.
        -11    1    3    3    0    0  0.15124403464E+02 -0.15594807726E+02  0.44946222145E+02  0.49921022561E+02  0.51100000000E-03 0. -1.
         23    2    1    0    0    0  0.26766980504E+02 -0.82659771280E+01 -0.62905115810E-01  0.96985689724E+02  0.92851615123E+02 0.  0.
         11    1    3    3    0    0  0.11642577040E+02  0.73288305984E+01 -0.45009127261E+02  0.47064667163E+02  0.51100000000E-03 0.  1.
         22    1    1    0    0    0 -0.26766980504E+02  0.82659771280E+01  0.62905115810E-01  0.28014310276E+02  0.00000000000E+00 0. -1.
</event>
<event>
 5    1  0.1691145E-003  0.9118800E+02  0.7818608E-02  0.1130116E+00
         25   -1    0    0    0    0  0.00000000000E+00  0.00000000000E+00  0.99999998245E-14  0.12500000000E+03  0.12500000000E+03 0.  0.
        -11    1    3    3    0    0 -0.26434146358E+02  0.53524986501E+02 -0.16840883470E+02  0.62026636455E+02  0.51100000000E-03 0.  1.
         23    2    1    0    0    0 -0.87795506496E+01  0.28065572218E+02 -0.51226136761E+01  0.95150409979E+02  0.90347122227E+02 0.  0.
         11    1    3    3    0    0  0.17654595708E+02 -0.25459414283E+02  0.11718269794E+02  0.33123773524E+02  0.51100000000E-03 0. -1.
         22    1    1    0    0    0  0.87795506496E+01 -0.28065572218E+02  0.51226136761E+01  0.29849590021E+02  0.00000000000E+00 0.  1.
</event>
<event>
 5    1  0.1691145E-003  0.9118800E+02  0.7818608E-02  0.1130116E+00
         25   -1    0    0    0    0  0.00000000000E+00  0.00000000000E+00  0.99999998245E-14  0.12500000000E+03  0.12500000000E+03 0.  0.
        -11    1    3    3    0    0 -0.38968189914E+02  0.24367650339E+02 -0.23322571687E+02  0.51538767531E+02  0.51100000000E-03 0. -1.
         23    2    1    0    0    0 -0.33882883088E+02 -0.49234721351E+01  0.21578276420E+01  0.90693345189E+02  0.83954370328E+02 0.  0.
         11    1    3    3    0    0  0.50853068264E+01 -0.29291122474E+02  0.25480399329E+02  0.39154577658E+02  0.51100000000E-03 0.  1.
         22    1    1    0    0    0  0.33882883088E+02  0.49234721351E+01 -0.21578276420E+01  0.34306654811E+02  0.00000000000E+00 0. -1.
</event>
<event>
 5    1  0.1691145E-003  0.9118800E+02  0.7818608E-02  0.1130116E+00
         25   -1    0    0    0    0  0.00000000000E+00  0.00000000000E+00  0.99999998245E-14  0.12500000000E+03  0.12500000000E+03 0.  0.
        -11    1    3    3    0    0 -0.57892790793E+01  0.22378491346E+02  0.33684510849E+02  0.40852893393E+02  0.51100000000E-03 0. -1.
         23    2    1    0    0    0 -0.11894923899E+02  0.18472139321E+02 -0.20159131088E+02  0.95182224901E+02  0.90391129129E+02 0.  0.
         11    1    3    3    0    0 -0.61056448197E+01 -0.39063520249E+01 -0.53843641937E+02  0.54329331508E+02  0.51100000000E-03 0.  1.
         22    1    1    0    0    0  0.11894923899E+02 -0.18472139321E+02  0.20159131088E+02  0.29817775099E+02  0.00000000000E+00 0.  1.
</event>
<event>
 5    1  0.1691145E-003  0.9118800E+02  0.7818608E-02  0.1130116E+00
         25   -1    0    0    0    0  0.00000000000E+00  0.00000000000E+00  0.99999998245E-14  0.12500000000E+03  0.12500000000E+03 0.  0.
        -11    1    3    3    0    0 -0.81645338135E+01  0.15776813454E+02 -0.51272625147E+02  0.54262782318E+02  0.51100000000E-03 0. -1.
         23    2    1    0    0    0 -0.78193933099E+00 -0.15723178759E+02 -0.22368564213E+02  0.97647076128E+02  0.93737767373E+02 0.  0.
         11    1    3    3    0    0  0.73825944825E+01 -0.31499992213E+02  0.28904060934E+02  0.43384293810E+02  0.51100000000E-03 0.  1.
         22    1    1    0    0    0  0.78193933099E+00  0.15723178759E+02  0.22368564213E+02  0.27352923872E+02  0.00000000000E+00 0. -1.
</event>
<event>
 5    1  0.1691145E-003  0.9118800E+02  0.7818608E-02  0.1130116E+00
         25   -1    0    0    0    0  0.00000000000E+00  0.00000000000E+00  0.99999998245E-14  0.12500000000E+03  0.12500000000E+03 0.  0.
        -11    1    3    3    0    0 -0.16052448441E+02  0.27742398053E+02  0.21592089418E+02  0.38646346223E+02  0.51100000000E-03 0. -1.
         23    2    1    0    0    0 -0.11474880299E+02 -0.25628276414E+02 -0.12783546156E+01  0.96891004636E+02  0.92724059224E+02 0.  0.
         11    1    3    3    0    0  0.45775681411E+01 -0.53370674467E+02 -0.22870444034E+02  0.58244658413E+02  0.51100000000E-03 0.  1.
         22    1    1    0    0    0  0.11474880299E+02  0.25628276414E+02  0.12783546156E+01  0.28108995364E+02  0.00000000000E+00 0.  1.
</event>
<event>
 5    1  0.1691145E-003  0.9118800E+02  0.7818608E-02  0.1130116E+00
         25   -1    0    0    0    0  0.00000000000E+00  0.00000000000E+00  0.99999998245E-14  0.12500000000E+03  0.12500000000E+03 0.  0.
        -11    1    3    3    0    0  0.20479129254E+02  0.73825551554E+01  0.32448136789E+02  0.39074012297E+02  0.51100000000E-03 0. -1.
         23    2    1    0    0    0 -0.84148691614E+01  0.27589144403E+02 -0.10196425058E+02  0.94406896270E+02  0.89312507901E+02 0.  0.
         11    1    3    3    0    0 -0.28893998416E+02  0.20206589247E+02 -0.42644561847E+02  0.55332883973E+02  0.51100000000E-03 0.  1.
         22    1    1    0    0    0  0.84148691614E+01 -0.27589144403E+02  0.10196425058E+02  0.30593103730E+02  0.00000000000E+00 0.  1.
</event>
<event>
 5    1  0.1691145E-003  0.9118800E+02  0.7818608E-02  0.1130116E+00
         25   -1    0    0    0    0  0.00000000000E+00  0.00000000000E+00  0.99999998245E-14  0.12500000000E+03  0.12500000000E+03 0.  0.
        -11    1    3    3    0    0  0.55163518085E+02 -0.40894035699E+01 -0.98539742933E+01  0.56185743376E+02  0.51100000000E-03 0. -1.
         23    2    1    0    0    0  0.16920402087E+02 -0.15560881392E+02  0.89659614593E+01  0.10032552936E+03  0.97243932150E+02 0.  0.
         11    1    3    3    0    0 -0.38243115999E+02 -0.11471477822E+02  0.18819935753E+02  0.44139785984E+02  0.51100000000E-03 0.  1.
         22    1    1    0    0    0 -0.16920402087E+02  0.15560881392E+02 -0.89659614593E+01  0.24674470640E+02  0.00000000000E+00 0. -1.
</event>
<event>
 5    1  0.1691145E-003  0.9118800E+02  0.7818608E-02  0.1130116E+00
         25   -1    0    0    0    0  0.00000000000E+00  0.00000000000E+00  0.99999998245E-14  0.12500000000E+03  0.12500000000E+03 0.  0.
        -11    1    3    3    0    0 -0.47804880498E+02  0.19020803543E+02 -0.30573087645E+02  0.59848235189E+02  0.51100000000E-03 0.  1.
         23    2    1    0    0    0 -0.17975644232E+02  0.20396461799E+02 -0.10366274167E+02  0.95903624288E+02  0.91383292084E+02 0.  0.
         11    1    3    3    0    0  0.29829236266E+02  0.13756582554E+01  0.20206813478E+02  0.36055389099E+02  0.51100000000E-03 0. -1.
         22    1    1    0    0    0  0.17975644232E+02 -0.20396461799E+02  0.10366274167E+02  0.29096375712E+02  0.00000000000E+00 0.  1.
</event>
<event>
 5    1  0.1691145E-003  0.9118800E+02  0.7818608E-02  0.1130116E+00
         25   -1    0    0    0    0  0.00000000000E+00  0.00000000000E+00  0.99999998245E-14  0.12500000000E+03  0.12500000000E+03 0.  0.
        -11    1    3    3    0    0 -0.84361872687E+01 -0.35022206751E+01  0.31096224208E+02  0.32410028780E+02  0.51100000000E-03 0. -1.
         23    2    1    0    0    0  0.62032710768E+01 -0.52916907849E+01 -0.29302954944E+02  0.94583791626E+02  0.89559744900E+02 0.  0.
         11    1    3    3    0    0  0.14639458345E+02 -0.17894701098E+01 -0.60399179152E+02  0.62173762846E+02  0.51100000000E-03 0.  1.
         22    1    1    0    0    0 -0.62032710768E+01  0.52916907849E+01  0.29302954944E+02  0.30416208374E+02  0.00000000000E+00 0.  1.
</event>
<event>
 5    1  0.1691145E-003  0.9118800E+02  0.7818608E-02  0.1130116E+00
         25   -1    0    0    0    0  0.00000000000E+00  0.00000000000E+00  0.99999998245E-14  0.12500000000E+03  0.12500000000E+03 0.  0.
        -11    1    3    3    0    0 -0.52754370632E+02 -0.17809170813E+02  0.19767693299E+02  0.59084277811E+02  0.51100000000E-03 0.  1.
         23    2    1    0    0    0 -0.22616137968E+02  0.32376055794E+01  0.18048760890E+02  0.95884204353E+02  0.91356724374E+02 0.  0.
         11    1    3    3    0    0  0.30138232664E+02  0.21046776393E+02 -0.17189324089E+01  0.36799926542E+02  0.51100000000E-03 0. -1.
         22    1    1    0    0    0  0.22616137968E+02 -0.32376055794E+01 -0.18048760890E+02  0.29115795647E+02  0.00000000000E+00 0.  1.
</event>
<event>
 5    1  0.1691145E-003  0.9118800E+02  0.7818608E-02  0.1130116E+00
         25   -1    0    0    0    0  0.00000000000E+00  0.00000000000E+00  0.99999998245E-14  0.12500000000E+03  0.12500000000E+03 0.  0.
        -11    1    3    3    0    0 -0.44787126986E+02 -0.21112793225E+02 -0.34163940217E+02  0.60156559017E+02  0.51100000000E-03 0.  1.
         23    2    1    0    0    0 -0.32385809071E+02 -0.14047148354E+02 -0.98495560589E+01  0.88350624008E+02  0.80390646234E+02 0.  0.
         11    1    3    3    0    0  0.12401317915E+02  0.70656448712E+01  0.24314384158E+02  0.28194064991E+02  0.51100000000E-03 0. -1.
         22    1    1    0    0    0  0.32385809071E+02  0.14047148354E+02  0.98495560589E+01  0.36649375992E+02  0.00000000000E+00 0.  1.
</event>
<event>
 5    1  0.1691145E-003  0.9118800E+02  0.7818608E-02  0.1130116E+00
         25   -1    0    0    0    0  0.00000000000E+00  0.00000000000E+00  0.99999998245E-14  0.12500000000E+03  0.12500000000E+03 0.  0.
        -11    1    3    3    0    0  0.40554305254E+02 -0.18786353361E+02 -0.34053162603E+02  0.56188936907E+02  0.51100000000E-03 0. -1.
         23    2    1    0    0    0  0.12638346817E+02 -0.26390131363E+02 -0.92094588545E+01  0.94324586784E+02  0.89197234800E+02 0.  0.
         11    1    3    3    0    0 -0.27915958437E+02 -0.76037780013E+01  0.24843703748E+02  0.38135649877E+02  0.51100000000E-03 0.  1.
         22    1    1    0    0    0 -0.12638346817E+02  0.26390131363E+02  0.92094588545E+01  0.30675413216E+02  0.00000000000E+00 0. -1.
</event>
<event>
 5    1  0.1691145E-003  0.9118800E+02  0.7818608E-02  0.1130116E+00
         25   -1    0    0    0    0  0.00000000000E+00  0.00000000000E+00  0.99999998245E-14  0.12500000000E+03  0.12500000000E+03 0.  0.
        -11    1    3    3    0    0  0.19462486628E+02 -0.94846811171E+01  0.22725100558E+02  0.31387541434E+02  0.51100000000E-03 0.  1.
         23    2    1    0    0    0 -0.24932204140E+02 -0.65009656925E+01 -0.19467661280E+02  0.92706545649E+02  0.86900151969E+02 0.  0.
         11    1    3    3    0    0 -0.44394690768E+02  0.29837154246E+01 -0.42192761838E+02  0.61319004215E+02  0.51100000000E-03 0. -1.
         22    1    1    0    0    0  0.24932204140E+02  0.65009656925E+01  0.19467661280E+02  0.32293454351E+02  0.00000000000E+00 0. -1.
</event>
<event>
 5    1  0.1691145E-003  0.9118800E+02  0.7818608E-02  0.1130116E+00
         25   -1    0    0    0    0  0.00000000000E+00  0.00000000000E+00  0.99999998245E-14  0.12500000000E+03  0.12500000000E+03 0.  0.
        -11    1    3    3    0    0 -0.49134475122E+02 -0.22551029537E+02  0.31346064191E+02  0.62492570112E+02  0.51100000000E-03 0. -1.
         23    2    1    0    0    0 -0.25556077101E+02 -0.12208645315E+02  0.17023869597E+02  0.91954936325E+02  0.85812202403E+02 0.  0.
         11    1    3    3    0    0  0.23578398021E+02  0.10342384222E+02 -0.14322194594E+02  0.29462366213E+02  0.51100000000E-03 0.  1.
         22    1    1    0    0    0  0.25556077101E+02  0.12208645315E+02 -0.17023869597E+02  0.33045063675E+02  0.00000000000E+00 0. -1.
</event>
<event>
 5    1  0.1691145E-003  0.9118800E+02  0.7818608E-02  0.1130116E+00
         25   -1    0    0    0    0  0.00000000000E+00  0.00000000000E+00  0.99999998245E-14  0.12500000000E+03  0.12500000000E+03 0.  0.
        -11    1    3    3    0    0 -0.57961089875E+01  0.22395858560E+02  0.41655215355E+02  0.47647941472E+02  0.51100000000E-03 0. -1.
         23    2    1    0    0    0  0.10872661561E+02  0.26337817815E+02 -0.38287032980E+01  0.96250141120E+02  0.91856057395E+02 0.  0.
         11    1    3    3    0    0  0.16668770548E+02  0.39419592548E+01 -0.45483918653E+02  0.48602199648E+02  0.51100000000E-03 0.  1.
         22    1    1    0    0    0 -0.10872661561E+02 -0.26337817815E+02  0.38287032980E+01  0.28749858880E+02  0.00000000000E+00 0.  1.
</event>
<event>
 5    1  0.1691145E-003  0.9118800E+02  0.7818608E-02  0.1130116E+00
         25   -1    0    0    0    0  0.00000000000E+00  0.00000000000E+00  0.99999998245E-14  0.12500000000E+03  0.12500000000E+03 0.  0.
        -11    1    3    3    0    0 -0.40503114381E+02 -0.32614873288E+01 -0.14305666178E+02  0.43078900394E+02  0.51100000000E-03 0. -1.
         23    2    1    0    0    0 -0.77985443469E+01 -0.15958982805E+02  0.24077415104E+02  0.95079633288E+02  0.90249145824E+02 0.  0.
         11    1    3    3    0    0  0.32704570034E+02 -0.12697495477E+02  0.38383081282E+02  0.52000732893E+02  0.51100000000E-03 0.  1.
         22    1    1    0    0    0  0.77985443469E+01  0.15958982805E+02 -0.24077415104E+02  0.29920366712E+02  0.00000000000E+00 0.  1.
</event>
<event>
 5    1  0.1691145E-003  0.9118800E+02  0.7818608E-02  0.1130116E+00
         25   -1    0    0    0    0  0.00000000000E+00  0.00000000000E+00  0.99999998245E-14  0.12500000000E+03  0.12500000000E+03 0.  0.
        -11    1    3    3    0    0  0.38300047350E+02 -0.35570189110E+02  0.13969661574E+02  0.54104375286E+02  0.51100000000E-03 0.  1.
         23    2    1    0    0    0  0.16639991478E+02  0.73892327678E+01  0.13697193794E+02  0.10221616373E+03  0.99644573022E+02 0.  0.
         11    1    3    3    0    0 -0.21660055871E+02  0.42959421878E+02 -0.27246777977E+00  0.48111788445E+02  0.51100000000E-03 0. -1.
         22    1    1    0    0    0 -0.16639991478E+02 -0.73892327678E+01 -0.13697193794E+02  0.22783836269E+02  0.00000000000E+00 0.  1.
</event>
<event>
 5    1  0.1691145E-003  0.9118800E+02  0.7818608E-02  0.1130116E+00
         25   -1    0    0    0    0  0.00000000000E+00  0.00000000000E+00  0.99999998245E-14  0.12500000000E+03  0.12500000000E+03 0.  0.
        -11    1    3    3    0    0  0.42956771232E+02  0.95269074682E+01  0.23727110669E+02  0.49990218459E+02  0.51100000000E-03 0.  1.
         23    2    1    0    0    0  0.10410522800E+02 -0.20502256293E+02  0.20164989054E+02  0.94416535814E+02  0.89325998195E+02 0.  0.
         11    1    3    3    0    0 -0.32546248431E+02 -0.30029163761E+02 -0.35621216154E+01  0.44426317356E+02  0.51100000000E-03 0. -1.
         22    1    1    0    0    0 -0.10410522800E+02  0.20502256293E+02 -0.20164989054E+02  0.30583464186E+02  0.00000000000E+00 0.  1.
</event>
<event>
 5    1  0.1691145E-003  0.9118800E+02  0.7818608E-02  0.1130116E+00
         25   -1    0    0    0    0  0.00000000000E+00  0.00000000000E+00  0.99999998245E-14  0.12500000000E+03  0.12500000000E+03 0.  0.
        -11    1    3    3    0    0 -0.34770854162E+02  0.46742673913E+02 -0.79136655777E+01  0.58792142050E+02  0.51100000000E-03 0. -1.
         23    2    1    0    0    0 -0.20517156613E+02  0.12555255616E+02 -0.15205795038E+02  0.96542938279E+02  0.92253642583E+02 0.  0.
         11    1    3    3    0    0  0.14253697549E+02 -0.34187418297E+02 -0.72921294600E+01  0.37750796229E+02  0.51100000000E-03 0.  1.
         22    1    1    0    0    0  0.20517156613E+02 -0.12555255616E+02  0.15205795038E+02  0.28457061721E+02  0.00000000000E+00 0. -1.
</event>
<event>
 5    1  0.1691145E-003  0.9118800E+02  0.7818608E-02  0.1130116E+00
         25   -1    0    0    0    0  0.00000000000E+00  0.00000000000E+00  0.99999998245E-14  0.12500000000E+03  0.12500000000E+03 0.  0.
        -11    1    3    3    0    0 -0.14434279025E+02  0.39131926589E+02 -0.12180559610E+02  0.43451376528E+02  0.51100000000E-03 0.  1.
         23    2    1    0    0    0  0.93899673173E+00  0.91867109109E+01  0.27794889785E+02  0.95711209135E+02  0.91119714023E+02 0.  0.
         11    1    3    3    0    0  0.15373275757E+02 -0.29945215678E+02  0.39975449394E+02  0.52259832606E+02  0.51100000000E-03 0. -1.
         22    1    1    0    0    0 -0.93899673173E+00 -0.91867109109E+01 -0.27794889785E+02  0.29288790865E+02  0.00000000000E+00 0. -1.
</event>
<event>
 5    1  0.1691145E-003  0.9118800E+02  0.7818608E-02  0.1130116E+00
         25   -1    0    0    0    0  0.00000000000E+00  0.00000000000E+00  0.99999998245E-14  0.12500000000E+03  0.12500000000E+03 0.  0.
        -11    1    3    3    0    0 -0.31846755654E+01  0.24107797901E+02 -0.55072130511E+02  0.60201890646E+02  0.51100000000E-03 0.  1.
         23    2    1    0    0    0 -0.13287426569E+02  0.13283083152E+02 -0.24944607375E+02  0.93771336245E+02  0.88418516507E+02 0.  0.
         11    1    3    3    0    0 -0.10102751003E+02 -0.10824714749E+02  0.30127523137E+02  0.33569445599E+02  0.51100000000E-03 0. -1.
         22    1    1    0    0    0  0.13287426569E+02 -0.13283083152E+02  0.24944607375E+02  0.31228663755E+02  0.00000000000E+00 0.  1.
</event>
<event>
 5    1  0.1691145E-003  0.9118800E+02  0.7818608E-02  0.1130116E+00
         25   -1    0    0    0    0  0.00000000000E+00  0.00000000000E+00  0.99999998245E-14  0.12500000000E+03  0.12500000000E+03 0.  0.
        -11    1    3    3    0    0  0.45968218158E+02  0.55042785524E+01  0.63597887534E+01  0.46731371436E+02  0.51100000000E-03 0. -1.
         23    2    1    0    0    0  0.10610973398E+02  0.19450592578E+02 -0.21709037979E+02  0.93980640915E+02  0.88713923534E+02 0.  0.
         11    1    3    3    0    0 -0.35357244760E+02  0.13946314025E+02 -0.28068826732E+02  0.47249269479E+02  0.51100000000E-03 0.  1.
         22    1    1    0    0    0 -0.10610973398E+02 -0.19450592578E+02  0.21709037979E+02  0.31019359085E+02  0.00000000000E+00 0.  1.
</event>
<event>
 5    1  0.1691145E-003  0.9118800E+02  0.7818608E-02  0.1130116E+00
         25   -1    0    0    0    0  0.00000000000E+00  0.00000000000E+00  0.99999998245E-14  0.12500000000E+03  0.12500000000E+03 0.  0.
        -11    1    3    3    0    0  0.28868373540E+02  0.43481724150E-01  0.21436967766E+02  0.35957314538E+02  0.51100000000E-03 0.  1.
         23    2    1    0    0    0 -0.11499721909E+02 -0.22037451075E+02 -0.16138388907E+02  0.95363190955E+02  0.90641037829E+02 0.  0.
         11    1    3    3    0    0 -0.40368095449E+02 -0.22080932799E+02 -0.37575356674E+02  0.59405876417E+02  0.51100000000E-03 0. -1.
         22    1    1    0    0    0  0.11499721909E+02  0.22037451075E+02  0.16138388907E+02  0.29636809045E+02  0.00000000000E+00 0. -1.
</event>
<event>
 5    1  0.1691145E-003  0.9118800E+02  0.7818608E-02  0.1130116E+00
         25   -1    0    0    0    0  0.00000000000E+00  0.00000000000E+00  0.99999998245E-14  0.12500000000E+03  0.12500000000E+03 0.  0.
        -11    1    3    3    0    0 -0.82807671458E+00  0.24681218386E+02 -0.35372300828E+02  0.43139864606E+02  0.51100000000E-03 0. -1.
         23    2    1    0    0    0 -0.27731360295E+02 -0.58463198051E+01 -0.61790267104E+00  0.96652343963E+02  0.92401764002E+02 0.  0.
         11    1    3    3    0    0 -0.26903283581E+02 -0.30527538191E+02  0.34754398157E+02  0.53512479357E+02  0.51100000000E-03 0.  1.
         22    1    1    0    0    0  0.27731360295E+02  0.58463198051E+01  0.61790267104E+00  0.28347656037E+02  0.00000000000E+00 0.  1.
</event>
<event>
 5    1  0.1691145E-003  0.9118800E+02  0.7818608E-02  0.1130116E+00
         25   -1    0    0    0    0  0.00000000000E+00  0.00000000000E+00  0.99999998245E-14  0.12500000000E+03  0.12500000000E+03 0.  0.
        -11    1    3    3    0    0  0.18936008293E+02  0.34120228441E+02  0.11186021253E+02  0.40594204890E+02  0.51100000000E-03 0.  1.
         23    2    1    0    0    0  0.20939263997E+02 -0.20251555207E+02  0.17315126877E+01  0.95818217991E+02  0.91266393035E+02 0.  0.
         11    1    3    3    0    0  0.20032557043E+01 -0.54371783648E+02 -0.94545085651E+01  0.55224013101E+02  0.51100000000E-03 0. -1.
         22    1    1    0    0    0 -0.20939263997E+02  0.20251555207E+02 -0.17315126877E+01  0.29181782009E+02  0.00000000000E+00 0.  1.
</event>
<event>
 5    1  0.1691145E-003  0.9118800E+02  0.7818608E-02  0.1130116E+00
         25   -1    0    0    0    0  0.00000000000E+00  0.00000000000E+00  0.99999998245E-14  0.12500000000E+03  0.12500000000E+03 0.  0.
        -11    1    3    3    0    0  0.49225710780E+02  0.18716303361E+02 -0.49891376819E+01  0.52899547336E+02  0.51100000000E-03 0. -1.
         23    2    1    0    0    0  0.81322736940E+01  0.28456776429E+02 -0.39237918798E+01  0.95145048268E+02  0.90339703714E+02 0.  0.
         11    1    3    3    0    0 -0.41093437086E+02  0.97404730681E+01  0.10653458021E+01  0.42245500933E+02  0.51100000000E-03 0.  1.
         22    1    1    0    0    0 -0.81322736940E+01 -0.28456776429E+02  0.39237918798E+01  0.29854951732E+02  0.00000000000E+00 0. -1.
</event>
<event>
 5    1  0.1691145E-003  0.9118800E+02  0.7818608E-02  0.1130116E+00
         25   -1    0    0    0    0  0.00000000000E+00  0.00000000000E+00  0.99999998245E-14  0.12500000000E+03  0.12500000000E+03 0.  0.
        -11    1    3    3    0    0  0.32185034588E+02 -0.25367818982E+02  0.38217359204E+02  0.56035428401E+02  0.51100000000E-03 0. -1.
         23    2    1    0    0    0  0.25784914686E+02 -0.16681974834E+02  0.15577000132E+01  0.94249771723E+02  0.89092328125E+02 0.  0.
         11    1    3    3    0    0 -0.64001199019E+01  0.86858441474E+01 -0.36659659190E+02  0.38214343322E+02  0.51100000000E-03 0.  1.
         22    1    1    0    0    0 -0.25784914686E+02  0.16681974834E+02 -0.15577000132E+01  0.30750228277E+02  0.00000000000E+00 0. -1.
</event>
<event>
 5    1  0.1691145E-003  0.9118800E+02  0.7818608E-02  0.1130116E+00
         25   -1    0    0    0    0  0.00000000000E+00  0.00000000000E+00  0.99999998245E-14  0.12500000000E+03  0.12500000000E+03 0.  0.
        -11    1    3    3    0    0 -0.22580372813E+02  0.18616764770E+02 -0.28163040064E+02  0.40615440325E+02  0.51100000000E-03 0.  1.
         23    2    1    0    0    0 -0.14214631009E+02 -0.24255009710E+02  0.62224646989E+01  0.96206245509E+02  0.91796303724E+02 0.  0.
         11    1    3    3    0    0  0.83657418040E+01 -0.42871774480E+02  0.34385504763E+02  0.55590805185E+02  0.51100000000E-03 0. -1.
         22    1    1    0    0    0  0.14214631009E+02  0.24255009710E+02 -0.62224646989E+01  0.28793754491E+02  0.00000000000E+00 0. -1.
</event>
<event>
 5    1  0.1691145E-003  0.9118800E+02  0.7818608E-02  0.1130116E+00
         25   -1    0    0    0    0  0.00000000000E+00  0.00000000000E+00  0.99999998245E-14  0.12500000000E+03  0.12500000000E+03 0.  0.
        -11    1    3    3    0    0  0.32714034379E+02  0.20273144954E+02  0.65864893550E+01  0.39046002279E+02  0.51100000000E-03 0. -1.
         23    2    1    0    0    0 -0.15746872012E+02 -0.18005410208E+02  0.27934267517E+01  0.10091759962E+03  0.98002040313E+02 0.  0.
         11    1    3    3    0    0 -0.48460906391E+02 -0.38278555163E+02 -0.37930626032E+01  0.61871597343E+02  0.51100000000E-03 0.  1.
         22    1    1    0    0    0  0.15746872012E+02  0.18005410208E+02 -0.27934267517E+01  0.24082400378E+02  0.00000000000E+00 0.  1.
</event>
<event>
 5    1  0.1691145E-003  0.9118800E+02  0.7818608E-02  0.1130116E+00
         25   -1    0    0    0    0  0.00000000000E+00  0.00000000000E+00  0.99999998245E-14  0.12500000000E+03  0.12500000000E+03 0.  0.
        -11    1    3    3    0    0  0.71256007394E+01 -0.25990868061E+02 -0.23463795568E+02  0.35733025497E+02  0.51100000000E-03 0.  1.
         23    2    1    0    0    0 -0.18309951718E+02  0.32043456723E+01  0.22488236278E+02  0.95823932170E+02  0.91274218937E+02 0.  0.
         11    1    3    3    0    0 -0.25435552457E+02  0.29195213733E+02  0.45952031846E+02  0.60090906673E+02  0.51100000000E-03 0. -1.
         22    1    1    0    0    0  0.18309951718E+02 -0.32043456723E+01 -0.22488236278E+02  0.29176067830E+02  0.00000000000E+00 0. -1.
</event>
<event>
 5    1  0.1691145E-003  0.9118800E+02  0.7818608E-02  0.1130116E+00
         25   -1    0    0    0    0  0.00000000000E+00  0.00000000000E+00  0.99999998245E-14  0.12500000000E+03  0.12500000000E+03 0.  0.
        -11    1    3    3    0    0  0.96136678155E+01 -0.26651696984E+02  0.26186860492E+02  0.38580917870E+02  0.51100000000E-03 0.  1.
         23    2    1    0    0    0 -0.21498822742E+02  0.17919531216E+02  0.81957682794E+01  0.95837016683E+02  0.91292136412E+02 0.  0.
         11    1    3    3    0    0 -0.31112490557E+02  0.44571228200E+02 -0.17991092213E+02  0.57256098812E+02  0.51100000000E-03 0. -1.
         22    1    1    0    0    0  0.21498822742E+02 -0.17919531216E+02 -0.81957682794E+01  0.29162983317E+02  0.00000000000E+00 0. -1.
</event>
<event>
 5    1  0.1691145E-003  0.9118800E+02  0.7818608E-02  0.1130116E+00
         25   -1    0    0    0    0  0.00000000000E+00  0.00000000000E+00  0.99999998245E-14  0.12500000000E+03  0.12500000000E+03 0.  0.
        -11    1    3    3    0    0 -0.65269485240E+01  0.30136050514E+01  0.45574524983E+02  0.46138055877E+02  0.51100000000E-03 0. -1.
         23    2    1    0    0    0 -0.79856043124E+01  0.29482512900E+02  0.58429556496E+01  0.93901309130E+02  0.88602072676E+02 0.  0.
         11    1    3    3    0    0 -0.14586557883E+01  0.26468907848E+02 -0.39731569333E+02  0.47763253253E+02  0.51100000000E-03 0.  1.
         22    1    1    0    0    0  0.79856043124E+01 -0.29482512900E+02 -0.58429556496E+01  0.31098690870E+02  0.00000000000E+00 0. -1.
</event>
<event>
 5    1  0.1691145E-003  0.9118800E+02  0.7818608E-02  0.1130116E+00
         25   -1    0    0    0    0  0.00000000000E+00  0.00000000000E+00  0.99999998245E-14  0.12500000000E+03  0.12500000000E+03 0.  0.
        -11    1    3    3    0    0  0.45343451138E+02 -0.26333312991E+02  0.21872070812E+02  0.56814253634E+02  0.51100000000E-03 0.  1.
         23    2    1    0    0    0  0.27328285730E+02 -0.93820198995E+01 -0.74346219540E+01  0.95164935027E+02  0.90367216162E+02 0.  0.
         11    1    3    3    0    0 -0.18015165408E+02  0.16951293091E+02 -0.29306692766E+02  0.38350681393E+02  0.51100000000E-03 0. -1.
         22    1    1    0    0    0 -0.27328285730E+02  0.93820198995E+01  0.74346219540E+01  0.29835064973E+02  0.00000000000E+00 0.  1.
</event>
<event>
 5    1  0.1691145E-003  0.9118800E+02  0.7818608E-02  0.1130116E+00
         25   -1    0    0    0    0  0.00000000000E+00  0.00000000000E+00  0.99999998245E-14  0.12500000000E+03  0.12500000000E+03 0.  0.
        -11    1    3    3    0    0 -0.75186732432E+01 -0.46864216733E+02 -0.16971985923E+02  0.50406681737E+02  0.51100000000E-03 0.  1.
         23    2    1    0    0    0  0.18881619825E+02 -0.17104352913E+02  0.90723278108E+01  0.97955932486E+02  0.94148728730E+02 0.  0.
         11    1    3    3    0    0  0.26400293068E+02  0.29759863820E+02  0.26044313733E+02  0.47549250749E+02  0.51100000000E-03 0. -1.
         22    1    1    0    0    0 -0.18881619825E+02  0.17104352913E+02 -0.90723278108E+01  0.27044067514E+02  0.00000000000E+00 0.  1.
</event>
<event>
 5    1  0.1691145E-003  0.9118800E+02  0.7818608E-02  0.1130116E+00
         25   -1    0    0    0    0  0.00000000000E+00  0.00000000000E+00  0.99999998245E-14  0.12500000000E+03  0.12500000000E+03 0.  0.
        -11    1    3    3    0    0  0.25054143602E+02  0.22028592957E+02  0.28935901928E+02  0.44161696524E+02  0.51100000000E-03 0.  1.
         23    2    1    0    0    0  0.88432599843E+01  0.26368530202E+02 -0.16544293496E+02  0.92639278755E+02  0.86803339157E+02 0.  0.
         11    1    3    3    0    0 -0.16210883618E+02  0.43399372457E+01 -0.45480195423E+02  0.48477582231E+02  0.51100000000E-03 0. -1.
         22    1    1    0    0    0 -0.88432599843E+01 -0.26368530202E+02  0.16544293496E+02  0.32360721245E+02  0.00000000000E+00 0. -1.
</event>
<event>
 5    1  0.1691145E-003  0.9118800E+02  0.7818608E-02  0.1130116E+00
         25   -1    0    0    0    0  0.00000000000E+00  0.00000000000E+00  0.99999998245E-14  0.12500000000E+03  0.12500000000E+03 0.  0.
        -11    1    3    3    0    0  0.83894329180E+01 -0.16484993639E+02  0.49736750605E+02  0.53064884443E+02  0.51100000000E-03 0. -1.
         23    2    1    0    0    0  0.27848892978E+02 -0.32249098527E+01  0.22631777251E+02  0.88970037119E+02  0.81348074837E+02 0.  0.
         11    1    3    3    0    0  0.19459460060E+02  0.13260083786E+02 -0.27104973354E+02  0.35905152676E+02  0.51100000000E-03 0.  1.
         22    1    1    0    0    0 -0.27848892978E+02  0.32249098527E+01 -0.22631777251E+02  0.36029962881E+02  0.00000000000E+00 0.  1.
</event>
<event>
 5    1  0.1691145E-003  0.9118800E+02  0.7818608E-02  0.1130116E+00
         25   -1    0    0    0    0  0.00000000000E+00  0.00000000000E+00  0.99999998245E-14  0.12500000000E+03  0.12500000000E+03 0.  0.
        -11    1    3    3    0    0  0.20302306417E+02  0.27666689347E+02 -0.15021462986E+02  0.37460294924E+02  0.51100000000E-03 0. -1.
         23    2    1    0    0    0 -0.31131846462E+01 -0.27022944121E+01  0.28923290250E+02  0.95784404291E+02  0.91220069463E+02 0.  0.
         11    1    3    3    0    0 -0.23415491063E+02 -0.30368983759E+02  0.43944753236E+02  0.58324109368E+02  0.51100000000E-03 0.  1.
         22    1    1    0    0    0  0.31131846462E+01  0.27022944121E+01 -0.28923290250E+02  0.29215595709E+02  0.00000000000E+00 0.  1.
</event>
<event>
 5    1  0.1691145E-003  0.9118800E+02  0.7818608E-02  0.1130116E+00
         25   -1    0    0    0    0  0.00000000000E+00  0.00000000000E+00  0.99999998245E-14  0.12500000000E+03  0.12500000000E+03 0.  0.
        -11    1    3    3    0    0  0.27939322946E+02  0.14286493930E+02 -0.26031136002E+02  0.40771677882E+02  0.51100000000E-03 0.  1.
         23    2    1    0    0    0 -0.99826952516E+01 -0.23563620502E+02 -0.14532119651E+02  0.95570747254E+02  0.90926821199E+02 0.  0.
         11    1    3    3    0    0 -0.37922018198E+02 -0.37850114432E+02  0.11499016351E+02  0.54799069372E+02  0.51100000000E-03 0. -1.
         22    1    1    0    0    0  0.99826952516E+01  0.23563620502E+02  0.14532119651E+02  0.29429252746E+02  0.00000000000E+00 0. -1.
</event>
<event>
 5    1  0.1691145E-003  0.9118800E+02  0.7818608E-02  0.1130116E+00
         25   -1    0    0    0    0  0.00000000000E+00  0.00000000000E+00  0.99999998245E-14  0.12500000000E+03  0.12500000000E+03 0.  0.
        -11    1    3    3    0    0 -0.25518850322E+02  0.28092040914E+02 -0.19074036856E+02  0.42475797422E+02  0.51100000000E-03 0.  1.
         23    2    1    0    0    0  0.23556422228E+01 -0.15817573390E+02  0.13692637487E+02  0.10394690048E+03  0.10179255925E+03 0.  0.
         11    1    3    3    0    0  0.27874492544E+02 -0.43909614304E+02  0.32766674342E+02  0.61471103054E+02  0.51100000000E-03 0. -1.
         22    1    1    0    0    0 -0.23556422228E+01  0.15817573390E+02 -0.13692637487E+02  0.21053099524E+02  0.00000000000E+00 0. -1.
</event>
<event>
 5    1  0.1691145E-003  0.9118800E+02  0.7818608E-02  0.1130116E+00
         25   -1    0    0    0    0  0.00000000000E+00  0.00000000000E+00  0.99999998245E-14  0.12500000000E+03  0.12500000000E+03 0.  0.
        -11    1    3    3    0    0 -0.15056242422E+01  0.52872494343E+02 -0.15669345658E+02  0.55166076134E+02  0.51100000000E-03 0. -1.
         23    2    1    0    0    0 -0.11160807866E+02  0.13307235586E+02 -0.22620152455E+02  0.96481278987E+02  0.92170058840E+02 0.  0.
         11    1    3    3    0    0 -0.96551836239E+01 -0.39565258757E+02 -0.69508067966E+01  0.41315202852E+02  0.51100000000E-03 0.  1.
         22    1    1    0    0    0  0.11160807866E+02 -0.13307235586E+02  0.22620152455E+02  0.28518721013E+02  0.00000000000E+00 0. -1.
</event>
<event>
 5    1  0.1691145E-003  0.9118800E+02  0.7818608E-02  0.1130116E+00
         25   -1    0    0    0    0  0.00000000000E+00  0.00000000000E+00  0.99999998245E-14  0.12500000000E+03  0.12500000000E+03 0.  0.
        -11    1    3    3    0    0  0.19300748194E+02  0.22539500421E+02  0.46788981603E+02  0.55405385656E+02  0.51100000000E-03 0. -1.
         23    2    1    0    0    0 -0.41618488135E+01 -0.46837675766E+01  0.28669977163E+02  0.95653343380E+02  0.91040297918E+02 0.  0.
         11    1    3    3    0    0 -0.23462597007E+02 -0.27223267997E+02 -0.18119004440E+02  0.40247957724E+02  0.51100000000E-03 0.  1.
         22    1    1    0    0    0  0.41618488135E+01  0.46837675766E+01 -0.28669977163E+02  0.29346656620E+02  0.00000000000E+00 0.  1.
</event>
<event>
 5    1  0.1691145E-003  0.9118800E+02  0.7818608E-02  0.1130116E+00
         25   -1    0    0    0    0  0.00000000000E+00  0.00000000000E+00  0.99999998245E-14  0.12500000000E+03  0.12500000000E+03 0.  0.
        -11    1    3    3    0    0  0.54278300096E+02  0.27138649133E+02 -0.68240947433E+01  0.61067244963E+02  0.51100000000E-03 0. -1.
         23    2    1    0    0    0  0.13916370339E+02  0.16940383796E+02 -0.29823984917E+01  0.10287452447E+03  0.10046706484E+03 0.  0.
         11    1    3    3    0    0 -0.40361929757E+02 -0.10198265336E+02  0.38416962516E+01  0.41807279508E+02  0.51100000000E-03 0.  1.
         22    1    1    0    0    0 -0.13916370339E+02 -0.16940383796E+02  0.29823984917E+01  0.22125475528E+02  0.00000000000E+00 0. -1.
</event>
<event>
 5    1  0.1691145E-003  0.9118800E+02  0.7818608E-02  0.1130116E+00
         25   -1    0    0    0    0  0.00000000000E+00  0.00000000000E+00  0.99999998245E-14  0.12500000000E+03  0.12500000000E+03 0.  0.
        -11    1    3    3    0    0 -0.97738086582E+01  0.24709243328E+02 -0.44323267961E+02  0.51678101015E+02  0.51100000000E-03 0. -1.
         23    2    1    0    0    0  0.14012104016E+02 -0.68651327687E+01 -0.24631134155E+02  0.95842464497E+02  0.91299595421E+02 0.  0.
         11    1    3    3    0    0  0.23785912674E+02 -0.31574376097E+02  0.19692133806E+02  0.44164363481E+02  0.51100000000E-03 0.  1.
         22    1    1    0    0    0 -0.14012104016E+02  0.68651327687E+01  0.24631134155E+02  0.29157535503E+02  0.00000000000E+00 0. -1.
</event>
<event>
 5    1  0.1691145E-003  0.9118800E+02  0.7818608E-02  0.1130116E+00
         25   -1    0    0    0    0  0.00000000000E+00  0.00000000000E+00  0.99999998245E-14  0.12500000000E+03  0.12500000000E+03 0.  0.
        -11    1    3    3    0    0 -0.45133347281E+02 -0.38267991807E+02 -0.88429001843E+01  0.59830219101E+02  0.51100000000E-03 0.  1.
         23    2    1    0    0    0 -0.25206063428E+02 -0.10598110583E+02 -0.13940695109E+02  0.94307842018E+02  0.89173765786E+02 0.  0.
         11    1    3    3    0    0  0.19927283852E+02  0.27669881224E+02 -0.50977949246E+01  0.34477622917E+02  0.51100000000E-03 0. -1.
         22    1    1    0    0    0  0.25206063428E+02  0.10598110583E+02  0.13940695109E+02  0.30692157982E+02  0.00000000000E+00 0.  1.
</event>
<event>
 5    1  0.1691145E-003  0.9118800E+02  0.7818608E-02  0.1130116E+00
         25   -1    0    0    0    0  0.00000000000E+00  0.00000000000E+00  0.99999998245E-14  0.12500000000E+03  0.12500000000E+03 0.  0.
        -11    1    3    3    0    0  0.31042847223E+02 -0.69482594649E+01  0.32117396587E+02  0.45204688220E+02  0.51100000000E-03 0. -1.
         23    2    1    0    0    0 -0.17033355351E+02 -0.43507832784E-01  0.25659313770E+02  0.94201664484E+02  0.89024806211E+02 0.  0.
         11    1    3    3    0    0 -0.48076202574E+02  0.69047516321E+01 -0.64580828171E+01  0.48996976264E+02  0.51100000000E-03 0.  1.
         22    1    1    0    0    0  0.17033355351E+02  0.43507832784E-01 -0.25659313770E+02  0.30798335516E+02  0.00000000000E+00 0.  1.
</event>
<event>
 5    1  0.1691145E-003  0.9118800E+02  0.7818608E-02  0.1130116E+00
         25   -1    0    0    0    0  0.00000000000E+00  0.00000000000E+00  0.99999998245E-14  0.12500000000E+03  0.12500000000E+03 0.  0.
        -11    1    3    3    0    0 -0.37685905807E+01  0.24500634664E+02 -0.22460014395E+02  0.33450495075E+02  0.51100000000E-03 0.  1.
         23    2    1    0    0    0  0.83529776453E+01 -0.15379776293E+02  0.23631049231E+02  0.95593602021E+02  0.90958234950E+02 0.  0.
         11    1    3    3    0    0  0.12121568226E+02 -0.39880410957E+02  0.46091063626E+02  0.62143106945E+02  0.51100000000E-03 0. -1.
         22    1    1    0    0    0 -0.83529776453E+01  0.15379776293E+02 -0.23631049231E+02  0.29406397979E+02  0.00000000000E+00 0. -1.
</event>
<event>
 5    1  0.1691145E-003  0.9118800E+02  0.7818608E-02  0.1130116E+00
         25   -1    0    0    0    0  0.00000000000E+00  0.00000000000E+00  0.99999998245E-14  0.12500000000E+03  0.12500000000E+03 0.  0.
        -11    1    3    3    0    0 -0.43911557367E+02 -0.93914658687E+01  0.33052752251E+02  0.55757590812E+02  0.51100000000E-03 0. -1.
         23    2    1    0    0    0 -0.26325043563E+02  0.11798743089E+02  0.38503438531E+01  0.95895989883E+02  0.91372848652E+02 0.  0.
         11    1    3    3    0    0  0.17586513804E+02  0.21190208958E+02 -0.29202408398E+02  0.40138399071E+02  0.51100000000E-03 0.  1.
         22    1    1    0    0    0  0.26325043563E+02 -0.11798743089E+02 -0.38503438531E+01  0.29104010117E+02  0.00000000000E+00 0. -1.
</event>
<event>
 5    1  0.1691145E-003  0.9118800E+02  0.7818608E-02  0.1130116E+00
         25   -1    0    0    0    0  0.00000000000E+00  0.00000000000E+00  0.99999998245E-14  0.12500000000E+03  0.12500000000E+03 0.  0.
        -11    1    3    3    0    0  0.36995706038E+02 -0.66339791227E+01  0.36805715821E+02  0.52605633364E+02  0.51100000000E-03 0. -1.
         23    2    1    0    0    0  0.58714355064E+01  0.12620084298E+02  0.32733743974E+02  0.89429811961E+02  0.82051526434E+02 0.  0.
         11    1    3    3    0    0 -0.31124270532E+02  0.19254063421E+02 -0.40719718477E+01  0.36824178597E+02  0.51100000000E-03 0.  1.
         22    1    1    0    0    0 -0.58714355064E+01 -0.12620084298E+02 -0.32733743974E+02  0.35570188039E+02  0.00000000000E+00 0. -1.
</event>
<event>
 5    1  0.1691145E-003  0.9118800E+02  0.7818608E-02  0.1130116E+00
         25   -1    0    0    0    0  0.00000000000E+00  0.00000000000E+00  0.99999998245E-14  0.12500000000E+03  0.12500000000E+03 0.  0.
        -11    1    3    3    0    0  0.17248006294E+02 -0.32846520573E+02 -0.11793073469E+02  0.38928963728E+02  0.51100000000E-03 0.  1.
         23    2    1    0    0    0  0.10634866112E+02  0.24916088247E+02 -0.47869396476E+01  0.97489517962E+02  0.93527426408E+02 0.  0.
         11    1    3    3    0    0 -0.66131401816E+01  0.57762608820E+02  0.70061338211E+01  0.58560554234E+02  0.51100000000E-03 0. -1.
         22    1    1    0    0    0 -0.10634866112E+02 -0.24916088247E+02  0.47869396476E+01  0.27510482038E+02  0.00000000000E+00 0. -1.
</event>
<event>
 5    1  0.1691145E-003  0.9118800E+02  0.7818608E-02  0.1130116E+00
         25   -1    0    0    0    0  0.00000000000E+00  0.00000000000E+00  0.99999998245E-14  0.12500000000E+03  0.12500000000E+03 0.  0.
        -11    1    3    3    0    0  0.21849644903E+02 -0.24475943905E+02  0.30615096586E+02  0.44874970213E+02  0.51100000000E-03 0. -1.
         23    2    1    0    0    0  0.50106806599E+01  0.21952657906E+02  0.18824007603E+02  0.95650905090E+02  0.91036950039E+02 0.  0.
         11    1    3    3    0    0 -0.16838964243E+02  0.46428601811E+02 -0.11791088983E+02  0.50775934876E+02  0.51100000000E-03 0.  1.
         22    1    1    0    0    0 -0.50106806599E+01 -0.21952657906E+02 -0.18824007603E+02  0.29349094910E+02  0.00000000000E+00 0. -1.
</event>
<event>
 5    1  0.1691145E-003  0.9118800E+02  0.7818608E-02  0.1130116E+00
         25   -1    0    0    0    0  0.00000000000E+00  0.00000000000E+00  0.99999998245E-14  0.12500000000E+03  0.12500000000E+03 0.  0.
        -11    1    3    3    0    0 -0.74028039517E+01  0.20061439360E+02 -0.30316443263E+02  0.37099185812E+02  0.51100000000E-03 0.  1.
         23    2    1    0    0    0  0.16553903398E+02  0.15729351342E+02  0.21049997692E+02  0.93942849226E+02  0.88660658166E+02 0.  0.
         11    1    3    3    0    0  0.23956707350E+02 -0.43320880174E+01  0.51366440955E+02  0.56843663414E+02  0.51100000000E-03 0. -1.
         22    1    1    0    0    0 -0.16553903398E+02 -0.15729351342E+02 -0.21049997692E+02  0.31057150774E+02  0.00000000000E+00 0. -1.
</event>
<event>
 5    1  0.1691145E-003  0.9118800E+02  0.7818608E-02  0.1130116E+00
         25   -1    0    0    0    0  0.00000000000E+00  0.00000000000E+00  0.99999998245E-14  0.12500000000E+03  0.12500000000E+03 0.  0.
        -11    1    3    3    0    0  0.19640584389E+02  0.46855382385E+02 -0.33153664047E+02  0.60665845857E+02  0.51100000000E-03 0.  1.
         23    2    1    0    0    0 -0.23281960264E+00  0.25995779830E+02 -0.12248490363E+02  0.96262214941E+02  0.91872486280E+02 0.  0.
         11    1    3    3    0    0 -0.19873403991E+02 -0.20859602555E+02  0.20905173684E+02  0.35596369084E+02  0.51100000000E-03 0. -1.
         22    1    1    0    0    0  0.23281960264E+00 -0.25995779830E+02  0.12248490363E+02  0.28737785059E+02  0.00000000000E+00 0.  1.
</event>
<event>
 5    1  0.1691145E-003  0.9118800E+02  0.7818608E-02  0.1130116E+00
         25   -1    0    0    0    0  0.00000000000E+00  0.00000000000E+00  0.99999998245E-14  0.12500000000E+03  0.12500000000E+03 0.  0.
        -11    1    3    3    0    0  0.22767476066E+02 -0.27898625146E+02 -0.66584849119E-01  0.36009660999E+02  0.51100000000E-03 0.  1.
         23    2    1    0    0    0 -0.62610538378E+01  0.10828683995E+02 -0.29709318317E+02  0.92764851682E+02  0.86983980827E+02 0.  0.
         11    1    3    3    0    0 -0.29028529904E+02  0.38727309141E+02 -0.29642733468E+02  0.56755190683E+02  0.51100000000E-03 0. -1.
         22    1    1    0    0    0  0.62610538378E+01 -0.10828683995E+02  0.29709318317E+02  0.32235148318E+02  0.00000000000E+00 0. -1.
</event>
<event>
 5    1  0.1691145E-003  0.9118800E+02  0.7818608E-02  0.1130116E+00
         25   -1    0    0    0    0  0.00000000000E+00  0.00000000000E+00  0.99999998245E-14  0.12500000000E+03  0.12500000000E+03 0.  0.
        -11    1    3    3    0    0 -0.20437273157E+02  0.11617616864E+00  0.30138103713E+02  0.36414295636E+02  0.51100000000E-03 0.  1.
         23    2    1    0    0    0  0.67578630676E+00 -0.20619610458E+02 -0.21040448097E+02  0.95532637059E+02  0.90874414797E+02 0.  0.
         11    1    3    3    0    0  0.21113059463E+02 -0.20735786627E+02 -0.51178551810E+02  0.59118341423E+02  0.51100000000E-03 0. -1.
         22    1    1    0    0    0 -0.67578630676E+00  0.20619610458E+02  0.21040448097E+02  0.29467362941E+02  0.00000000000E+00 0. -1.
</event>
<event>
 5    1  0.1691145E-003  0.9118800E+02  0.7818608E-02  0.1130116E+00
         25   -1    0    0    0    0  0.00000000000E+00  0.00000000000E+00  0.99999998245E-14  0.12500000000E+03  0.12500000000E+03 0.  0.
        -11    1    3    3    0    0 -0.46075908718E+00 -0.19149832958E+02  0.28607818862E+02  0.34428704616E+02  0.51100000000E-03 0.  1.
         23    2    1    0    0    0 -0.10888678519E+02  0.27015533012E+02 -0.85976150643E+01  0.94630256363E+02  0.89624573029E+02 0.  0.
         11    1    3    3    0    0 -0.10427919432E+02  0.46165365970E+02 -0.37205433926E+02  0.60201551747E+02  0.51100000000E-03 0. -1.
         22    1    1    0    0    0  0.10888678519E+02 -0.27015533012E+02  0.85976150643E+01  0.30369743637E+02  0.00000000000E+00 0.  1.
</event>
<event>
 5    1  0.1691145E-003  0.9118800E+02  0.7818608E-02  0.1130116E+00
         25   -1    0    0    0    0  0.00000000000E+00  0.00000000000E+00  0.99999998245E-14  0.12500000000E+03  0.12500000000E+03 0.  0.
        -11    1    3    3    0    0  0.18475449898E+02 -0.36017404716E+02 -0.30241899959E+02  0.50528884856E+02  0.51100000000E-03 0.  1.
         23    2    1    0    0    0 -0.19496494555E+02 -0.13930921509E+02 -0.13164665255E+02  0.97659694857E+02  0.93754593030E+02 0.  0.
         11    1    3    3    0    0 -0.37971944453E+02  0.22086483207E+02  0.17077234704E+02  0.47130810001E+02  0.51100000000E-03 0. -1.
         22    1    1    0    0    0  0.19496494555E+02  0.13930921509E+02  0.13164665255E+02  0.27340305143E+02  0.00000000000E+00 0.  1.
</event>
<event>
 5    1  0.1691145E-003  0.9118800E+02  0.7818608E-02  0.1130116E+00
         25   -1    0    0    0    0  0.00000000000E+00  0.00000000000E+00  0.99999998245E-14  0.12500000000E+03  0.12500000000E+03 0.  0.
        -11    1    3    3    0    0 -0.14553645682E+02  0.47361944070E+02 -0.67045642936E+01  0.49999135307E+02  0.51100000000E-03 0. -1.
         23    2    1    0    0    0 -0.11894817248E+02  0.97109360634E+01 -0.27801532372E+02  0.93239739314E+02  0.87663760064E+02 0.  0.
         11    1    3    3    0    0  0.26588284343E+01 -0.37651008007E+02 -0.21096968078E+02  0.43240604008E+02  0.51100000000E-03 0.  1.
         22    1    1    0    0    0  0.11894817248E+02 -0.97109360634E+01  0.27801532372E+02  0.31760260686E+02  0.00000000000E+00 0. -1.
</event>
<event>
 5    1  0.1691145E-003  0.9118800E+02  0.7818608E-02  0.1130116E+00
         25   -1    0    0    0    0  0.00000000000E+00  0.00000000000E+00  0.99999998245E-14  0.12500000000E+03  0.12500000000E+03 0.  0.
        -11    1    3    3    0    0  0.48164652606E+02  0.30736710821E+02 -0.16540680286E+02  0.59482545821E+02  0.51100000000E-03 0.  1.
         23    2    1    0    0    0  0.22038474673E+02  0.19732430676E+02  0.48855540497E+01  0.95017808208E+02  0.90163474045E+02 0.  0.
         11    1    3    3    0    0 -0.26126177932E+02 -0.11004280145E+02  0.21426234336E+02  0.35535262387E+02  0.51100000000E-03 0. -1.
         22    1    1    0    0    0 -0.22038474673E+02 -0.19732430676E+02 -0.48855540497E+01  0.29982191792E+02  0.00000000000E+00 0.  1.
</event>
<event>
 5    1  0.1691145E-003  0.9118800E+02  0.7818608E-02  0.1130116E+00
         25   -1    0    0    0    0  0.00000000000E+00  0.00000000000E+00  0.99999998245E-14  0.12500000000E+03  0.12500000000E+03 0.  0.
        -11    1    3    3    0    0  0.50247493291E+01  0.88394244818E+01 -0.33380318699E+02  0.34894544097E+02  0.51100000000E-03 0. -1.
         23    2    1    0    0    0  0.12969282898E+02 -0.16704992142E+02  0.20811077359E+02  0.95329138836E+02  0.90594065529E+02 0.  0.
         11    1    3    3    0    0  0.79445335689E+01 -0.25544416624E+02  0.54191396058E+02  0.60434594739E+02  0.51100000000E-03 0.  1.
         22    1    1    0    0    0 -0.12969282898E+02  0.16704992142E+02 -0.20811077359E+02  0.29670861164E+02  0.00000000000E+00 0.  1.
</event>
<event>
 5    1  0.1691145E-003  0.9118800E+02  0.7818608E-02  0.1130116E+00
         25   -1    0    0    0    0  0.00000000000E+00  0.00000000000E+00  0.99999998245E-14  0.12500000000E+03  0.12500000000E+03 0.  0.
        -11    1    3    3    0    0  0.11264651106E+02  0.61454707800E+01 -0.30750320388E+02  0.33320284811E+02  0.51100000000E-03 0.  1.
         23    2    1    0    0    0 -0.10160762677E+02 -0.63215945841E+01  0.26618351870E+02  0.95815409673E+02  0.91262546635E+02 0.  0.
         11    1    3    3    0    0 -0.21425413782E+02 -0.12467065364E+02  0.57368672259E+02  0.62495124862E+02  0.51100000000E-03 0. -1.
         22    1    1    0    0    0  0.10160762677E+02  0.63215945841E+01 -0.26618351870E+02  0.29184590327E+02  0.00000000000E+00 0. -1.
</event>
<event>
 5    1  0.1691145E-003  0.9118800E+02  0.7818608E-02  0.1130116E+00
         25   -1    0    0    0    0  0.00000000000E+00  0.00000000000E+00  0.99999998245E-14  0.12500000000E+03  0.12500000000E+03 0.  0.
        -11    1    3    3    0    0  0.70149530349E+01 -0.49998533338E+02  0.28577799174E+02  0.58015114478E+02  0.51100000000E-03 0.  1.
         23    2    1    0    0    0 -0.11939245593E+02 -0.26073931685E+02  0.67525917740E+01  0.95538279166E+02  0.90882175324E+02 0.  0.
         11    1    3    3    0    0 -0.18954198627E+02  0.23924601654E+02 -0.21825207400E+02  0.37523164688E+02  0.51100000000E-03 0. -1.
         22    1    1    0    0    0  0.11939245593E+02  0.26073931685E+02 -0.67525917740E+01  0.29461720834E+02  0.00000000000E+00 0.  1.
</event>
<event>
 5    1  0.1691145E-003  0.9118800E+02  0.7818608E-02  0.1130116E+00
         25   -1    0    0    0    0  0.00000000000E+00  0.00000000000E+00  0.99999998245E-14  0.12500000000E+03  0.12500000000E+03 0.  0.
        -11    1    3    3    0    0 -0.85849621232E+01 -0.13261142394E+02 -0.32357176281E+02  0.36007587109E+02  0.51100000000E-03 0. -1.
         23    2    1    0    0    0  0.18743282426E+02  0.11204297650E+02  0.16875913197E+02  0.97402112976E+02  0.93410536044E+02 0.  0.
         11    1    3    3    0    0  0.27328244550E+02  0.24465440044E+02  0.49233089478E+02  0.61394525868E+02  0.51100000000E-03 0.  1.
         22    1    1    0    0    0 -0.18743282426E+02 -0.11204297650E+02 -0.16875913197E+02  0.27597887024E+02  0.00000000000E+00 0.  1.
</event>
<event>
 5    1  0.1691145E-003  0.9118800E+02  0.7818608E-02  0.1130116E+00
         25   -1    0    0    0    0  0.00000000000E+00  0.00000000000E+00  0.99999998245E-14  0.12500000000E+03  0.12500000000E+03 0.  0.
        -11    1    3    3    0    0  0.10481338269E+02 -0.15312114059E+02 -0.32957964801E+02  0.37822569095E+02  0.51100000000E-03 0.  1.
         23    2    1    0    0    0 -0.31575334093E+02  0.17645904084E+01 -0.95585888537E+00  0.93360954999E+02  0.87836431791E+02 0.  0.
         11    1    3    3    0    0 -0.42056672362E+02  0.17076704467E+02  0.32002105915E+02  0.55538385904E+02  0.51100000000E-03 0. -1.
         22    1    1    0    0    0  0.31575334093E+02 -0.17645904084E+01  0.95585888537E+00  0.31639045001E+02  0.00000000000E+00 0. -1.
</event>
<event>
 5    1  0.1691145E-003  0.9118800E+02  0.7818608E-02  0.1130116E+00
         25   -1    0    0    0    0  0.00000000000E+00  0.00000000000E+00  0.99999998245E-14  0.12500000000E+03  0.12500000000E+03 0.  0.
        -11    1    3    3    0    0 -0.19487140787E+02  0.24858557948E+02 -0.14809271998E+02  0.34885686129E+02  0.51100000000E-03 0. -1.
         23    2    1    0    0    0 -0.11201210850E+02 -0.28843475900E+02  0.67263836651E+01  0.93335233086E+02  0.87799819313E+02 0.  0.
         11    1    3    3    0    0  0.82859299364E+01 -0.53702033848E+02  0.21535655663E+02  0.58449546957E+02  0.51100000000E-03 0.  1.
         22    1    1    0    0    0  0.11201210850E+02  0.28843475900E+02 -0.67263836651E+01  0.31664766914E+02  0.00000000000E+00 0. -1.
</event>
<event>
 5    1  0.1691145E-003  0.9118800E+02  0.7818608E-02  0.1130116E+00
         25   -1    0    0    0    0  0.00000000000E+00  0.00000000000E+00  0.99999998245E-14  0.12500000000E+03  0.12500000000E+03 0.  0.
        -11    1    3    3    0    0 -0.26718591091E+02 -0.29138136763E+02  0.56591493219E+01  0.39936701105E+02  0.51100000000E-03 0. -1.
         23    2    1    0    0    0 -0.22284351854E+02  0.20943460370E+02 -0.10371104253E+02  0.92707885277E+02  0.86902078913E+02 0.  0.
         11    1    3    3    0    0  0.44342392370E+01  0.50081597133E+02 -0.16030253575E+02  0.52771184172E+02  0.51100000000E-03 0.  1.
         22    1    1    0    0    0  0.22284351854E+02 -0.20943460370E+02  0.10371104253E+02  0.32292114723E+02  0.00000000000E+00 0.  1.
</event>
<event>
 5    1  0.1691145E-003  0.9118800E+02  0.7818608E-02  0.1130116E+00
         25   -1    0    0    0    0  0.00000000000E+00  0.00000000000E+00  0.99999998245E-14  0.12500000000E+03  0.12500000000E+03 0.  0.
        -11    1    3    3    0    0 -0.25517594471E+02 -0.41448331852E+02 -0.12383801683E+02  0.50224201191E+02  0.51100000000E-03 0.  1.
         23    2    1    0    0    0  0.15694714236E+02 -0.24680120884E+02 -0.46146311034E+01  0.95390419760E+02  0.90678580381E+02 0.  0.
         11    1    3    3    0    0  0.41212308707E+02  0.16768210968E+02  0.77691705794E+01  0.45166218569E+02  0.51100000000E-03 0. -1.
         22    1    1    0    0    0 -0.15694714236E+02  0.24680120884E+02  0.46146311034E+01  0.29609580240E+02  0.00000000000E+00 0.  1.
</event>
<event>
 5    1  0.1691145E-003  0.9118800E+02  0.7818608E-02  0.1130116E+00
         25   -1    0    0    0    0  0.00000000000E+00  0.00000000000E+00  0.99999998245E-14  0.12500000000E+03  0.12500000000E+03 0.  0.
        -11    1    3    3    0    0  0.35307511125E+01  0.35730369060E+02  0.47468830985E+02  0.59518193789E+02  0.51100000000E-03 0.  1.
         23    2    1    0    0    0 -0.11986418633E+02  0.15145049890E+02  0.21118887856E+02  0.96380877161E+02  0.92033794283E+02 0.  0.
         11    1    3    3    0    0 -0.15517169745E+02 -0.20585319170E+02 -0.26349943128E+02  0.36862683372E+02  0.51100000000E-03 0. -1.
         22    1    1    0    0    0  0.11986418633E+02 -0.15145049890E+02 -0.21118887856E+02  0.28619122839E+02  0.00000000000E+00 0.  1.
</event>
<event>
 5    1  0.1691145E-003  0.9118800E+02  0.7818608E-02  0.1130116E+00
         25   -1    0    0    0    0  0.00000000000E+00  0.00000000000E+00  0.99999998245E-14  0.12500000000E+03  0.12500000000E+03 0.  0.
        -11    1    3    3    0    0 -0.21527860383E+02 -0.42062745509E+02 -0.29658927400E+02  0.55788666477E+02  0.51100000000E-03 0.  1.
         23    2    1    0    0    0 -0.19472894192E+02 -0.29185867866E+01 -0.21535641454E+02  0.95819602301E+02  0.91268288990E+02 0.  0.
         11    1    3    3    0    0  0.20549661913E+01  0.39144158723E+02  0.81232859457E+01  0.40030935824E+02  0.51100000000E-03 0. -1.
         22    1    1    0    0    0  0.19472894192E+02  0.29185867866E+01  0.21535641454E+02  0.29180397699E+02  0.00000000000E+00 0.  1.
</event>
<event>
 5    1  0.1691145E-003  0.9118800E+02  0.7818608E-02  0.1130116E+00
         25   -1    0    0    0    0  0.00000000000E+00  0.00000000000E+00  0.99999998245E-14  0.12500000000E+03  0.12500000000E+03 0.  0.
        -11    1    3    3    0    0  0.24565331488E+02  0.32286275687E+01 -0.49010241696E+02  0.54917058720E+02  0.51100000000E-03 0. -1.
         23    2    1    0    0    0  0.42401088392E+00 -0.17541686366E+02 -0.23213119878E+02  0.95901211704E+02  0.91379991935E+02 0.  0.
         11    1    3    3    0    0 -0.24141320604E+02 -0.20770313935E+02  0.25797121818E+02  0.40984152984E+02  0.51100000000E-03 0.  1.
         22    1    1    0    0    0 -0.42401088392E+00  0.17541686366E+02  0.23213119878E+02  0.29098788296E+02  0.00000000000E+00 0. -1.
</event>
<event>
 5    1  0.1691145E-003  0.9118800E+02  0.7818608E-02  0.1130116E+00
         25   -1    0    0    0    0  0.00000000000E+00  0.00000000000E+00  0.99999998245E-14  0.12500000000E+03  0.12500000000E+03 0.  0.
        -11    1    3    3    0    0  0.23001306602E+02 -0.36569939730E+02 -0.44388599975E+02  0.61941653234E+02  0.51100000000E-03 0.  1.
         23    2    1    0    0    0  0.11838323273E+02 -0.11108343484E+02 -0.22121875533E+02  0.97560638310E+02  0.93622430953E+02 0.  0.
         11    1    3    3    0    0 -0.11162983329E+02  0.25461596246E+02  0.22266724443E+02  0.35618985076E+02  0.51100000000E-03 0. -1.
         22    1    1    0    0    0 -0.11838323273E+02  0.11108343484E+02  0.22121875533E+02  0.27439361690E+02  0.00000000000E+00 0.  1.
</event>
<event>
 5    1  0.1691145E-003  0.9118800E+02  0.7818608E-02  0.1130116E+00
         25   -1    0    0    0    0  0.00000000000E+00  0.00000000000E+00  0.99999998245E-14  0.12500000000E+03  0.12500000000E+03 0.  0.
        -11    1    3    3    0    0 -0.15201640543E+02  0.46906869406E+02 -0.12678523045E+02  0.50912564457E+02  0.51100000000E-03 0.  1.
         23    2    1    0    0    0 -0.27777835265E+02  0.84486325166E+01  0.57958976232E+01  0.95392907055E+02  0.90682009041E+02 0.  0.
         11    1    3    3    0    0 -0.12576194722E+02 -0.38458236889E+02  0.18474420669E+02  0.44480342598E+02  0.51100000000E-03 0. -1.
         22    1    1    0    0    0  0.27777835265E+02 -0.84486325166E+01 -0.57958976232E+01  0.29607092945E+02  0.00000000000E+00 0. -1.
</event>
<event>
 5    1  0.1691145E-003  0.9118800E+02  0.7818608E-02  0.1130116E+00
         25   -1    0    0    0    0  0.00000000000E+00  0.00000000000E+00  0.99999998245E-14  0.12500000000E+03  0.12500000000E+03 0.  0.
        -11    1    3    3    0    0 -0.98001236672E+01  0.33553164308E+02 -0.40385439811E+02  0.53411993110E+02  0.51100000000E-03 0. -1.
         23    2    1    0    0    0  0.15956983755E+02  0.21493481204E+02 -0.32439166843E+02  0.82941771194E+02  0.71487361110E+02 0.  0.
         11    1    3    3    0    0  0.25757107422E+02 -0.12059683104E+02  0.79462729683E+01  0.29529778084E+02  0.51100000000E-03 0.  1.
         22    1    1    0    0    0 -0.15956983755E+02 -0.21493481204E+02  0.32439166843E+02  0.42058228806E+02  0.00000000000E+00 0. -1.
</event>
<event>
 5    1  0.1691145E-003  0.9118800E+02  0.7818608E-02  0.1130116E+00
         25   -1    0    0    0    0  0.00000000000E+00  0.00000000000E+00  0.99999998245E-14  0.12500000000E+03  0.12500000000E+03 0.  0.
        -11    1    3    3    0    0  0.22555638711E+02  0.88427358524E+01 -0.52137309589E+02  0.57491302529E+02  0.51100000000E-03 0.  1.
         23    2    1    0    0    0  0.43614280444E+01  0.20387337916E+02 -0.20568423279E+02  0.95713046623E+02  0.91122234695E+02 0.  0.
         11    1    3    3    0    0 -0.18194210666E+02  0.11544602063E+02  0.31568886310E+02  0.38221744095E+02  0.51100000000E-03 0. -1.
         22    1    1    0    0    0 -0.43614280444E+01 -0.20387337916E+02  0.20568423279E+02  0.29286953377E+02  0.00000000000E+00 0.  1.
</event>
<event>
 5    1  0.1691145E-003  0.9118800E+02  0.7818608E-02  0.1130116E+00
         25   -1    0    0    0    0  0.00000000000E+00  0.00000000000E+00  0.99999998245E-14  0.12500000000E+03  0.12500000000E+03 0.  0.
        -11    1    3    3    0    0 -0.55492176330E+01  0.33765834412E+02  0.31460176505E+01  0.34363102555E+02  0.51100000000E-03 0. -1.
         23    2    1    0    0    0 -0.84778711333E+01 -0.25685961386E+02 -0.11413390431E+02  0.95641723613E+02  0.91024342367E+02 0.  0.
         11    1    3    3    0    0 -0.29286535003E+01 -0.59451795798E+02 -0.14559408082E+02  0.61278621059E+02  0.51100000000E-03 0.  1.
         22    1    1    0    0    0  0.84778711333E+01  0.25685961386E+02  0.11413390431E+02  0.29358276387E+02  0.00000000000E+00 0.  1.
</event>
<event>
 5    1  0.1691145E-003  0.9118800E+02  0.7818608E-02  0.1130116E+00
         25   -1    0    0    0    0  0.00000000000E+00  0.00000000000E+00  0.99999998245E-14  0.12500000000E+03  0.12500000000E+03 0.  0.
        -11    1    3    3    0    0 -0.38081393005E+02  0.14112895209E+02  0.12970607938E+02  0.42633355192E+02  0.51100000000E-03 0. -1.
         23    2    1    0    0    0 -0.30033627597E+01 -0.26452729104E+02  0.10692240042E+02  0.96310436357E+02  0.91938072034E+02 0.  0.
         11    1    3    3    0    0  0.35078030246E+02 -0.40565624313E+02 -0.22783678959E+01  0.53677081165E+02  0.51100000000E-03 0.  1.
         22    1    1    0    0    0  0.30033627597E+01  0.26452729104E+02 -0.10692240042E+02  0.28689563643E+02  0.00000000000E+00 0.  1.
</event>
<event>
 5    1  0.1691145E-003  0.9118800E+02  0.7818608E-02  0.1130116E+00
         25   -1    0    0    0    0  0.00000000000E+00  0.00000000000E+00  0.99999998245E-14  0.12500000000E+03  0.12500000000E+03 0.  0.
        -11    1    3    3    0    0 -0.13052173596E+01 -0.52527858722E+02 -0.19876013524E+02  0.56177713091E+02  0.51100000000E-03 0. -1.
         23    2    1    0    0    0 -0.15953820751E+02 -0.15923273305E+02 -0.18847485756E+02  0.95617985968E+02  0.90991738591E+02 0.  0.
         11    1    3    3    0    0 -0.14648603392E+02  0.36604585418E+02  0.10285277682E+01  0.39440272876E+02  0.51100000000E-03 0.  1.
         22    1    1    0    0    0  0.15953820751E+02  0.15923273305E+02  0.18847485756E+02  0.29382014032E+02  0.00000000000E+00 0. -1.
</event>
<event>
 5    1  0.1691145E-003  0.9118800E+02  0.7818608E-02  0.1130116E+00
         25   -1    0    0    0    0  0.00000000000E+00  0.00000000000E+00  0.99999998245E-14  0.12500000000E+03  0.12500000000E+03 0.  0.
        -11    1    3    3    0    0  0.10695977742E+02  0.10256790788E+02 -0.51003047577E+02  0.53112301396E+02  0.51100000000E-03 0. -1.
         23    2    1    0    0    0 -0.81279443694E+01 -0.16138969559E+02 -0.21128018534E+02  0.97198507499E+02  0.93137676988E+02 0.  0.
         11    1    3    3    0    0 -0.18823922111E+02 -0.26395760348E+02  0.29875029044E+02  0.44086206103E+02  0.51100000000E-03 0.  1.
         22    1    1    0    0    0  0.81279443694E+01  0.16138969559E+02  0.21128018534E+02  0.27801492501E+02  0.00000000000E+00 0.  1.
</event>
<event>
 5    1  0.1691145E-003  0.9118800E+02  0.7818608E-02  0.1130116E+00
         25   -1    0    0    0    0  0.00000000000E+00  0.00000000000E+00  0.99999998245E-14  0.12500000000E+03  0.12500000000E+03 0.  0.
        -11    1    3    3    0    0  0.24621377557E+02  0.97386286922E+00 -0.23514293544E+02  0.34059985949E+02  0.51100000000E-03 0. -1.
         23    2    1    0    0    0 -0.27135062385E+02  0.58375315011E+01  0.95249812112E+01  0.95655261941E+02  0.91042932100E+02 0.  0.
         11    1    3    3    0    0 -0.51756439942E+02  0.48636686318E+01  0.33039274755E+02  0.61595275993E+02  0.51100000000E-03 0.  1.
         22    1    1    0    0    0  0.27135062385E+02 -0.58375315011E+01 -0.95249812112E+01  0.29344738059E+02  0.00000000000E+00 0.  1.
</event>
<event>
 5    1  0.1691145E-003  0.9118800E+02  0.7818608E-02  0.1130116E+00
         25   -1    0    0    0    0  0.00000000000E+00  0.00000000000E+00  0.99999998245E-14  0.12500000000E+03  0.12500000000E+03 0.  0.
        -11    1    3    3    0    0 -0.75233048112E+01 -0.49470402099E+02 -0.35140565840E+02  0.61145565391E+02  0.51100000000E-03 0.  1.
         23    2    1    0    0    0 -0.55945089959E+01 -0.17058677539E+02 -0.23029306823E+02  0.95799897551E+02  0.91241297600E+02 0.  0.
         11    1    3    3    0    0  0.19287958153E+01  0.32411724560E+02  0.12111259017E+02  0.34654332161E+02  0.51100000000E-03 0. -1.
         22    1    1    0    0    0  0.55945089959E+01  0.17058677539E+02  0.23029306823E+02  0.29200102449E+02  0.00000000000E+00 0.  1.
</event>
<event>
 5    1  0.1691145E-003  0.9118800E+02  0.7818608E-02  0.1130116E+00
         25   -1    0    0    0    0  0.00000000000E+00  0.00000000000E+00  0.99999998245E-14  0.12500000000E+03  0.12500000000E+03 0.  0.
        -11    1    3    3    0    0  0.16013075546E+02 -0.28438383285E+02 -0.23285924664E+02  0.40092324952E+02  0.51100000000E-03 0. -1.
         23    2    1    0    0    0 -0.60725766632E+01 -0.72013392981E+01  0.25563796212E+02  0.97755860230E+02  0.93882719696E+02 0.  0.
         11    1    3    3    0    0 -0.22085652210E+02  0.21237043987E+02  0.48849720876E+02  0.57663535278E+02  0.51100000000E-03 0.  1.
         22    1    1    0    0    0  0.60725766632E+01  0.72013392981E+01 -0.25563796212E+02  0.27244139770E+02  0.00000000000E+00 0.  1.
</event>
<event>
 5    1  0.1691145E-003  0.9118800E+02  0.7818608E-02  0.1130116E+00
         25   -1    0    0    0    0  0.00000000000E+00  0.00000000000E+00  0.99999998245E-14  0.12500000000E+03  0.12500000000E+03 0.  0.
        -11    1    3    3    0    0 -0.31450604500E+01  0.39950092082E+02 -0.21519620192E+01  0.40131436597E+02  0.51100000000E-03 0. -1.
         23    2    1    0    0    0  0.12520284742E+02 -0.72357121695E+01  0.24505995808E+02  0.96545529505E+02  0.92257153523E+02 0.  0.
         11    1    3    3    0    0  0.15665345192E+02 -0.47185804251E+02  0.26657957827E+02  0.56414092908E+02  0.51100000000E-03 0.  1.
         22    1    1    0    0    0 -0.12520284742E+02  0.72357121695E+01 -0.24505995808E+02  0.28454470495E+02  0.00000000000E+00 0.  1.
</event>
<event>
 5    1  0.1691145E-003  0.9118800E+02  0.7818608E-02  0.1130116E+00
         25   -1    0    0    0    0  0.00000000000E+00  0.00000000000E+00  0.99999998245E-14  0.12500000000E+03  0.12500000000E+03 0.  0.
        -11    1    3    3    0    0  0.40087068345E+02  0.43484534941E+02 -0.18255978182E+02  0.61896353424E+02  0.51100000000E-03 0.  1.
         23    2    1    0    0    0  0.14037370820E+02  0.24178017959E+02 -0.93303701260E+01  0.95526619830E+02  0.90866137573E+02 0.  0.
         11    1    3    3    0    0 -0.26049697525E+02 -0.19306516982E+02  0.89256080562E+01  0.33630266406E+02  0.51100000000E-03 0. -1.
         22    1    1    0    0    0 -0.14037370820E+02 -0.24178017959E+02  0.93303701260E+01  0.29473380170E+02  0.00000000000E+00 0.  1.
</event>
<event>
 5    1  0.1691145E-003  0.9118800E+02  0.7818608E-02  0.1130116E+00
         25   -1    0    0    0    0  0.00000000000E+00  0.00000000000E+00  0.99999998245E-14  0.12500000000E+03  0.12500000000E+03 0.  0.
        -11    1    3    3    0    0  0.32666011109E+02 -0.19579988412E+01 -0.37020640666E+02  0.49410827526E+02  0.51100000000E-03 0.  1.
         23    2    1    0    0    0 -0.11664974507E+02  0.45256731387E+01 -0.26885625813E+02  0.95345485622E+02  0.90616617712E+02 0.  0.
         11    1    3    3    0    0 -0.44330985616E+02  0.64836719799E+01  0.10135014852E+02  0.45934658096E+02  0.51100000000E-03 0. -1.
         22    1    1    0    0    0  0.11664974507E+02 -0.45256731387E+01  0.26885625813E+02  0.29654514378E+02  0.00000000000E+00 0. -1.
</event>
<event>
 5    1  0.1691145E-003  0.9118800E+02  0.7818608E-02  0.1130116E+00
         25   -1    0    0    0    0  0.00000000000E+00  0.00000000000E+00  0.99999998245E-14  0.12500000000E+03  0.12500000000E+03 0.  0.
        -11    1    3    3    0    0 -0.30400594395E+02  0.16295379295E+02 -0.32625447234E+02  0.47477945758E+02  0.51100000000E-03 0.  1.
         23    2    1    0    0    0  0.14740112310E+02 -0.50755523835E+00 -0.24612809180E+02  0.96306465903E+02  0.91932673603E+02 0.  0.
         11    1    3    3    0    0  0.45140706704E+02 -0.16802934533E+02  0.80126380535E+01  0.48828520145E+02  0.51100000000E-03 0. -1.
         22    1    1    0    0    0 -0.14740112310E+02  0.50755523835E+00  0.24612809180E+02  0.28693534097E+02  0.00000000000E+00 0. -1.
</event>
<event>
 5    1  0.1691145E-003  0.9118800E+02  0.7818608E-02  0.1130116E+00
         25   -1    0    0    0    0  0.00000000000E+00  0.00000000000E+00  0.99999998245E-14  0.12500000000E+03  0.12500000000E+03 0.  0.
        -11    1    3    3    0    0  0.54033246915E+02  0.25657058081E+02 -0.49068728657E+01  0.60016279484E+02  0.51100000000E-03 0.  1.
         23    2    1    0    0    0  0.20761631816E+02  0.16427180750E+02  0.87057352046E+01  0.97130887196E+02  0.93046879576E+02 0.  0.
         11    1    3    3    0    0 -0.33271615099E+02 -0.92298773310E+01  0.13612608070E+02  0.37114607711E+02  0.51100000000E-03 0. -1.
         22    1    1    0    0    0 -0.20761631816E+02 -0.16427180750E+02 -0.87057352046E+01  0.27869112804E+02  0.00000000000E+00 0.  1.
</event>
<event>
 5    1  0.1691145E-003  0.9118800E+02  0.7818608E-02  0.1130116E+00
         25   -1    0    0    0    0  0.00000000000E+00  0.00000000000E+00  0.99999998245E-14  0.12500000000E+03  0.12500000000E+03 0.  0.
        -11    1    3    3    0    0  0.39618654854E+02  0.41602246832E+02 -0.74187325685E+01  0.57926007519E+02  0.51100000000E-03 0. -1.
         23    2    1    0    0    0  0.17002326264E+02  0.13356591673E+02 -0.19306780163E+02  0.96013289255E+02  0.91533176029E+02 0.  0.
         11    1    3    3    0    0 -0.22616328589E+02 -0.28245655159E+02 -0.11888047595E+02  0.38087281737E+02  0.51100000000E-03 0.  1.
         22    1    1    0    0    0 -0.17002326264E+02 -0.13356591673E+02  0.19306780163E+02  0.28986710745E+02  0.00000000000E+00 0. -1.
</event>
<event>
 5    1  0.1691145E-003  0.9118800E+02  0.7818608E-02  0.1130116E+00
         25   -1    0    0    0    0  0.00000000000E+00  0.00000000000E+00  0.99999998245E-14  0.12500000000E+03  0.12500000000E+03 0.  0.
        -11    1    3    3    0    0 -0.22474305206E+02  0.93568967792E+01 -0.38292252042E+02  0.45375571385E+02  0.51100000000E-03 0. -1.
         23    2    1    0    0    0  0.21985135101E+02 -0.39527874422E+01 -0.19150065295E+02  0.95577292872E+02  0.90935819224E+02 0.  0.
         11    1    3    3    0    0  0.44459440306E+02 -0.13309684221E+02  0.19142186747E+02  0.50201721486E+02  0.51100000000E-03 0.  1.
         22    1    1    0    0    0 -0.21985135101E+02  0.39527874422E+01  0.19150065295E+02  0.29422707128E+02  0.00000000000E+00 0.  1.
</event>
<event>
 5    1  0.1691145E-003  0.9118800E+02  0.7818608E-02  0.1130116E+00
         25   -1    0    0    0    0  0.00000000000E+00  0.00000000000E+00  0.99999998245E-14  0.12500000000E+03  0.12500000000E+03 0.  0.
        -11    1    3    3    0    0  0.37561473275E+02  0.48726860886E+01  0.30146234938E+02  0.48408706093E+02  0.51100000000E-03 0.  1.
         23    2    1    0    0    0  0.82964780752E+01  0.29775143567E+02  0.68649580919E+01  0.93337429471E+02  0.87802946236E+02 0.  0.
         11    1    3    3    0    0 -0.29264995200E+02  0.24902457479E+02 -0.23281276847E+02  0.44928723378E+02  0.51100000000E-03 0. -1.
         22    1    1    0    0    0 -0.82964780752E+01 -0.29775143567E+02 -0.68649580919E+01  0.31662570529E+02  0.00000000000E+00 0.  1.
</event>
<event>
 5    1  0.1691145E-003  0.9118800E+02  0.7818608E-02  0.1130116E+00
         25   -1    0    0    0    0  0.00000000000E+00  0.00000000000E+00  0.99999998245E-14  0.12500000000E+03  0.12500000000E+03 0.  0.
        -11    1    3    3    0    0 -0.36827739872E+02 -0.93177980082E+01  0.38280017441E+02  0.53930172625E+02  0.51100000000E-03 0. -1.
         23    2    1    0    0    0 -0.20208729565E+02 -0.28040070077E+02  0.25570775179E+02  0.82005781507E+02  0.69831550010E+02 0.  0.
         11    1    3    3    0    0  0.16619010307E+02 -0.18722272069E+02 -0.12709242262E+02  0.28075608883E+02  0.51100000000E-03 0.  1.
         22    1    1    0    0    0  0.20208729565E+02  0.28040070077E+02 -0.25570775179E+02  0.42994218493E+02  0.00000000000E+00 0. -1.
</event>
<event>
 5    1  0.1691145E-003  0.9118800E+02  0.7818608E-02  0.1130116E+00
         25   -1    0    0    0    0  0.00000000000E+00  0.00000000000E+00  0.99999998245E-14  0.12500000000E+03  0.12500000000E+03 0.  0.
        -11    1    3    3    0    0  0.17142603806E+02  0.23048081980E+02 -0.28751357797E+02  0.40641401595E+02  0.51100000000E-03 0. -1.
         23    2    1    0    0    0 -0.15705336288E+02  0.17819912424E+02  0.15971262117E+02  0.96376791229E+02  0.92028244617E+02 0.  0.
         11    1    3    3    0    0 -0.32847940095E+02 -0.52281695553E+01  0.44722619914E+02  0.55735389634E+02  0.51100000000E-03 0.  1.
         22    1    1    0    0    0  0.15705336288E+02 -0.17819912424E+02 -0.15971262117E+02  0.28623208771E+02  0.00000000000E+00 0.  1.
</event>
<event>
 5    1  0.1691145E-003  0.9118800E+02  0.7818608E-02  0.1130116E+00
         25   -1    0    0    0    0  0.00000000000E+00  0.00000000000E+00  0.99999998245E-14  0.12500000000E+03  0.12500000000E+03 0.  0.
        -11    1    3    3    0    0 -0.95039596026E+00 -0.25954237846E+02  0.20130136098E+02  0.32859520602E+02  0.51100000000E-03 0. -1.
         23    2    1    0    0    0 -0.16021367994E+02  0.10275803666E+02 -0.25588678796E+02  0.93108671148E+02  0.87476669959E+02 0.  0.
         11    1    3    3    0    0 -0.15070972034E+02  0.36230041512E+02 -0.45718814894E+02  0.60249150546E+02  0.51100000000E-03 0.  1.
         22    1    1    0    0    0  0.16021367994E+02 -0.10275803666E+02  0.25588678796E+02  0.31891328852E+02  0.00000000000E+00 0.  1.
</event>
<event>
 5    1  0.1691145E-003  0.9118800E+02  0.7818608E-02  0.1130116E+00
         25   -1    0    0    0    0  0.00000000000E+00  0.00000000000E+00  0.99999998245E-14  0.12500000000E+03  0.12500000000E+03 0.  0.
        -11    1    3    3    0    0  0.68079214413E+01 -0.51528714819E+02  0.22918957274E+02  0.56805236097E+02  0.51100000000E-03 0. -1.
         23    2    1    0    0    0 -0.15606148174E+02 -0.22290482581E+02  0.72491277629E+01  0.96840324436E+02  0.92655712771E+02 0.  0.
         11    1    3    3    0    0 -0.22414069616E+02  0.29238232238E+02 -0.15669829511E+02  0.40035088339E+02  0.51100000000E-03 0.  1.
         22    1    1    0    0    0  0.15606148174E+02  0.22290482581E+02 -0.72491277629E+01  0.28159675564E+02  0.00000000000E+00 0. -1.
</event>
<event>
 5    1  0.1691145E-003  0.9118800E+02  0.7818608E-02  0.1130116E+00
         25   -1    0    0    0    0  0.00000000000E+00  0.00000000000E+00  0.99999998245E-14  0.12500000000E+03  0.12500000000E+03 0.  0.
        -11    1    3    3    0    0  0.62383904480E+00 -0.46734717112E+02  0.43289518116E+01  0.46938926093E+02  0.51100000000E-03 0.  1.
         23    2    1    0    0    0  0.29452129716E+02 -0.19159092821E+02  0.12586812421E+02  0.87678067716E+02  0.79337991712E+02 0.  0.
         11    1    3    3    0    0  0.28828290671E+02  0.27575624291E+02  0.82578606092E+01  0.40739141623E+02  0.51100000000E-03 0. -1.
         22    1    1    0    0    0 -0.29452129716E+02  0.19159092821E+02 -0.12586812421E+02  0.37321932284E+02  0.00000000000E+00 0.  1.
</event>
<event>
 5    1  0.1691145E-003  0.9118800E+02  0.7818608E-02  0.1130116E+00
         25   -1    0    0    0    0  0.00000000000E+00  0.00000000000E+00  0.99999998245E-14  0.12500000000E+03  0.12500000000E+03 0.  0.
        -11    1    3    3    0    0 -0.88489901893E+01  0.31939682687E+02 -0.10141400763E+02  0.34659716779E+02  0.51100000000E-03 0.  1.
         23    2    1    0    0    0  0.15183755601E+02 -0.14961190037E+02  0.20337236736E+02  0.95538383623E+02  0.90882318994E+02 0.  0.
         11    1    3    3    0    0  0.24032745790E+02 -0.46900872725E+02  0.30478637499E+02  0.60878666843E+02  0.51100000000E-03 0. -1.
         22    1    1    0    0    0 -0.15183755601E+02  0.14961190037E+02 -0.20337236736E+02  0.29461616377E+02  0.00000000000E+00 0. -1.
</event>
<event>
 5    1  0.1691145E-003  0.9118800E+02  0.7818608E-02  0.1130116E+00
         25   -1    0    0    0    0  0.00000000000E+00  0.00000000000E+00  0.99999998245E-14  0.12500000000E+03  0.12500000000E+03 0.  0.
        -11    1    3    3    0    0  0.24196652808E+02  0.27633800069E+02 -0.51002660442E+01  0.37082578488E+02  0.51100000000E-03 0.  1.
         23    2    1    0    0    0 -0.18290476894E+00 -0.24829675267E+02 -0.15311634771E+02  0.95828226187E+02  0.91280099402E+02 0.  0.
         11    1    3    3    0    0 -0.24379557577E+02 -0.52463475336E+02 -0.10211368727E+02  0.58745647699E+02  0.51100000000E-03 0. -1.
         22    1    1    0    0    0  0.18290476894E+00  0.24829675267E+02  0.15311634771E+02  0.29171773813E+02  0.00000000000E+00 0. -1.
</event>
<event>
 5    1  0.1691145E-003  0.9118800E+02  0.7818608E-02  0.1130116E+00
         25   -1    0    0    0    0  0.00000000000E+00  0.00000000000E+00  0.99999998245E-14  0.12500000000E+03  0.12500000000E+03 0.  0.
        -11    1    3    3    0    0 -0.47659906424E+01  0.43865503488E+02 -0.10231185141E+01  0.44135516705E+02  0.51100000000E-03 0.  1.
         23    2    1    0    0    0  0.67493994542E+01  0.16200376349E+01 -0.28391819125E+02  0.95772028668E+02  0.91203109415E+02 0.  0.
         11    1    3    3    0    0  0.11515390097E+02 -0.42245465854E+02 -0.27368700611E+02  0.51636511963E+02  0.51100000000E-03 0. -1.
         22    1    1    0    0    0 -0.67493994542E+01 -0.16200376349E+01  0.28391819125E+02  0.29227971332E+02  0.00000000000E+00 0. -1.
</event>
<event>
 5    1  0.1691145E-003  0.9118800E+02  0.7818608E-02  0.1130116E+00
         25   -1    0    0    0    0  0.00000000000E+00  0.00000000000E+00  0.99999998245E-14  0.12500000000E+03  0.12500000000E+03 0.  0.
        -11    1    3    3    0    0  0.12061986276E+02 -0.32294528806E+02 -0.13540097461E+02  0.37037310151E+02  0.51100000000E-03 0.  1.
         23    2    1    0    0    0 -0.29402127825E+02  0.64000274804E+01 -0.26012832079E+01  0.94797150023E+02  0.89857039266E+02 0.  0.
         11    1    3    3    0    0 -0.41464114101E+02  0.38694556287E+02  0.10938814253E+02  0.57759839871E+02  0.51100000000E-03 0. -1.
         22    1    1    0    0    0  0.29402127825E+02 -0.64000274804E+01  0.26012832079E+01  0.30202849977E+02  0.00000000000E+00 0. -1.
</event>
<event>
 5    1  0.1691145E-003  0.9118800E+02  0.7818608E-02  0.1130116E+00
         25   -1    0    0    0    0  0.00000000000E+00  0.00000000000E+00  0.99999998245E-14  0.12500000000E+03  0.12500000000E+03 0.  0.
        -11    1    3    3    0    0  0.25323102862E+02 -0.21263376907E+02 -0.28259358896E+01  0.33186995193E+02  0.51100000000E-03 0.  1.
         23    2    1    0    0    0 -0.25011114269E+02  0.13993956288E+02  0.71900430918E+01  0.95452015818E+02  0.90763450543E+02 0.  0.
         11    1    3    3    0    0 -0.50334217131E+02  0.35257333195E+02  0.10015978981E+02  0.62265020625E+02  0.51100000000E-03 0. -1.
         22    1    1    0    0    0  0.25011114269E+02 -0.13993956288E+02 -0.71900430918E+01  0.29547984182E+02  0.00000000000E+00 0. -1.
</event>
<event>
 5    1  0.1691145E-003  0.9118800E+02  0.7818608E-02  0.1130116E+00
         25   -1    0    0    0    0  0.00000000000E+00  0.00000000000E+00  0.99999998245E-14  0.12500000000E+03  0.12500000000E+03 0.  0.
        -11    1    3    3    0    0  0.46456122173E+02  0.22626023226E+02  0.31809641118E+02  0.60679168441E+02  0.51100000000E-03 0.  1.
         23    2    1    0    0    0  0.20097051737E+02  0.19454579358E+02  0.91887314820E+01  0.95558448873E+02  0.90909912651E+02 0.  0.
         11    1    3    3    0    0 -0.26359070435E+02 -0.31714438673E+01 -0.22620909636E+02  0.34879280432E+02  0.51100000000E-03 0. -1.
         22    1    1    0    0    0 -0.20097051737E+02 -0.19454579358E+02 -0.91887314820E+01  0.29441551127E+02  0.00000000000E+00 0.  1.
</event>
<event>
 5    1  0.1691145E-003  0.9118800E+02  0.7818608E-02  0.1130116E+00
         25   -1    0    0    0    0  0.00000000000E+00  0.00000000000E+00  0.99999998245E-14  0.12500000000E+03  0.12500000000E+03 0.  0.
        -11    1    3    3    0    0  0.22621800374E+02  0.33588304004E+02  0.40783577218E+02  0.57473647778E+02  0.51100000000E-03 0.  1.
         23    2    1    0    0    0 -0.25427439105E+01  0.26014463749E+02  0.12685670149E+02  0.95945841987E+02  0.91441021958E+02 0.  0.
         11    1    3    3    0    0 -0.25164544284E+02 -0.75738402546E+01 -0.28097907069E+02  0.38472194208E+02  0.51100000000E-03 0. -1.
         22    1    1    0    0    0  0.25427439105E+01 -0.26014463749E+02 -0.12685670149E+02  0.29054158013E+02  0.00000000000E+00 0.  1.
</event>
<event>
 5    1  0.1691145E-003  0.9118800E+02  0.7818608E-02  0.1130116E+00
         25   -1    0    0    0    0  0.00000000000E+00  0.00000000000E+00  0.99999998245E-14  0.12500000000E+03  0.12500000000E+03 0.  0.
        -11    1    3    3    0    0  0.56835687271E+02 -0.16980972610E+02 -0.27706906737E+01  0.59382872155E+02  0.51100000000E-03 0. -1.
         23    2    1    0    0    0  0.26303383449E+02  0.13734938021E+01 -0.11806840075E+02  0.96135559270E+02  0.91699999005E+02 0.  0.
         11    1    3    3    0    0 -0.30532303822E+02  0.18354466412E+02 -0.90361494011E+01  0.36752687115E+02  0.51100000000E-03 0.  1.
         22    1    1    0    0    0 -0.26303383449E+02 -0.13734938021E+01  0.11806840075E+02  0.28864440730E+02  0.00000000000E+00 0. -1.
</event>
<event>
 5    1  0.1691145E-003  0.9118800E+02  0.7818608E-02  0.1130116E+00
         25   -1    0    0    0    0  0.00000000000E+00  0.00000000000E+00  0.99999998245E-14  0.12500000000E+03  0.12500000000E+03 0.  0.
        -11    1    3    3    0    0 -0.30505425412E+02  0.11522401421E+02  0.16953936036E+02  0.36752995272E+02  0.51100000000E-03 0. -1.
         23    2    1    0    0    0  0.10624105408E+02  0.80742991983E+01 -0.25659690557E+02  0.96077938476E+02  0.91621420089E+02 0.  0.
         11    1    3    3    0    0  0.41129530820E+02 -0.34481022231E+01 -0.42613626594E+02  0.59324943204E+02  0.51100000000E-03 0.  1.
         22    1    1    0    0    0 -0.10624105408E+02 -0.80742991983E+01  0.25659690557E+02  0.28922061524E+02  0.00000000000E+00 0.  1.
</event>
<event>
 5    1  0.1691145E-003  0.9118800E+02  0.7818608E-02  0.1130116E+00
         25   -1    0    0    0    0  0.00000000000E+00  0.00000000000E+00  0.99999998245E-14  0.12500000000E+03  0.12500000000E+03 0.  0.
        -11    1    3    3    0    0  0.49560664944E+02  0.64410943149E+01 -0.14211556961E+02  0.51958787103E+02  0.51100000000E-03 0.  1.
         23    2    1    0    0    0  0.74852241968E+01  0.22894284142E+02  0.38386629380E+01  0.10060917876E+03  0.97607861823E+02 0.  0.
         11    1    3    3    0    0 -0.42075440747E+02  0.16453189828E+02  0.18050219899E+02  0.48650391656E+02  0.51100000000E-03 0. -1.
         22    1    1    0    0    0 -0.74852241968E+01 -0.22894284142E+02 -0.38386629380E+01  0.24390821241E+02  0.00000000000E+00 0.  1.
</event>
<event>
 5    1  0.1691145E-003  0.9118800E+02  0.7818608E-02  0.1130116E+00
         25   -1    0    0    0    0  0.00000000000E+00  0.00000000000E+00  0.99999998245E-14  0.12500000000E+03  0.12500000000E+03 0.  0.
        -11    1    3    3    0    0  0.21258593927E+01 -0.31115775005E+02 -0.20918946341E+02  0.37554134907E+02  0.51100000000E-03 0. -1.
         23    2    1    0    0    0  0.40082617866E+00  0.26207091812E+02 -0.13903606873E+02  0.95330443095E+02  0.90595865103E+02 0.  0.
         11    1    3    3    0    0 -0.17250332140E+01  0.57322866817E+02  0.70153394678E+01  0.57776308188E+02  0.51100000000E-03 0.  1.
         22    1    1    0    0    0 -0.40082617866E+00 -0.26207091812E+02  0.13903606873E+02  0.29669556905E+02  0.00000000000E+00 0.  1.
</event>
<event>
 5    1  0.1691145E-003  0.9118800E+02  0.7818608E-02  0.1130116E+00
         25   -1    0    0    0    0  0.00000000000E+00  0.00000000000E+00  0.99999998245E-14  0.12500000000E+03  0.12500000000E+03 0.  0.
        -11    1    3    3    0    0  0.31628937746E+02  0.32690270892E+02  0.84505090104E+01  0.46265047463E+02  0.51100000000E-03 0.  1.
         23    2    1    0    0    0 -0.15536673041E+02  0.26078783675E+02 -0.46895142329E-01  0.94643890791E+02  0.89643587042E+02 0.  0.
         11    1    3    3    0    0 -0.47165610787E+02 -0.66114872171E+01 -0.84974041528E+01  0.48378843328E+02  0.51100000000E-03 0. -1.
         22    1    1    0    0    0  0.15536673041E+02 -0.26078783675E+02  0.46895142329E-01  0.30356109209E+02  0.00000000000E+00 0. -1.
</event>
<event>
 5    1  0.1691145E-003  0.9118800E+02  0.7818608E-02  0.1130116E+00
         25   -1    0    0    0    0  0.00000000000E+00  0.00000000000E+00  0.99999998245E-14  0.12500000000E+03  0.12500000000E+03 0.  0.
        -11    1    3    3    0    0 -0.40150343004E+02  0.40744571075E+02  0.88173747695E+01  0.57878460705E+02  0.51100000000E-03 0. -1.
         23    2    1    0    0    0 -0.12066284280E+02  0.29152557201E+02 -0.77872396309E+01  0.92502186093E+02  0.86605695675E+02 0.  0.
         11    1    3    3    0    0  0.28084058725E+02 -0.11592013875E+02 -0.16604614400E+02  0.34623725388E+02  0.51100000000E-03 0.  1.
         22    1    1    0    0    0  0.12066284280E+02 -0.29152557201E+02  0.77872396309E+01  0.32497813907E+02  0.00000000000E+00 0. -1.
</event>
<event>
 5    1  0.1691145E-003  0.9118800E+02  0.7818608E-02  0.1130116E+00
         25   -1    0    0    0    0  0.00000000000E+00  0.00000000000E+00  0.99999998245E-14  0.12500000000E+03  0.12500000000E+03 0.  0.
        -11    1    3    3    0    0 -0.26913807960E+02  0.14856799964E+02 -0.73338518362E+00  0.30750860446E+02  0.51100000000E-03 0. -1.
         23    2    1    0    0    0  0.20331574137E+02  0.22136245878E+02 -0.26388674655E+02  0.85003144642E+02  0.75005240887E+02 0.  0.
         11    1    3    3    0    0  0.47245382097E+02  0.72794459138E+01 -0.25655289472E+02  0.54252284196E+02  0.51100000000E-03 0.  1.
         22    1    1    0    0    0 -0.20331574137E+02 -0.22136245878E+02  0.26388674655E+02  0.39996855358E+02  0.00000000000E+00 0.  1.
</event>
<event>
 5    1  0.1691145E-003  0.9118800E+02  0.7818608E-02  0.1130116E+00
         25   -1    0    0    0    0  0.00000000000E+00  0.00000000000E+00  0.99999998245E-14  0.12500000000E+03  0.12500000000E+03 0.  0.
        -11    1    3    3    0    0 -0.22238610238E+02 -0.31002036483E+02  0.27339771429E+01  0.38251231127E+02  0.51100000000E-03 0.  1.
         23    2    1    0    0    0  0.24843108214E+02 -0.15779690563E+01  0.16095739574E+02  0.95356402976E+02  0.90631676272E+02 0.  0.
         11    1    3    3    0    0  0.47081718452E+02  0.29424067427E+02  0.13361762431E+02  0.57105171849E+02  0.51100000000E-03 0. -1.
         22    1    1    0    0    0 -0.24843108214E+02  0.15779690563E+01 -0.16095739574E+02  0.29643597024E+02  0.00000000000E+00 0. -1.
</event>
<event>
 5    1  0.1691145E-003  0.9118800E+02  0.7818608E-02  0.1130116E+00
         25   -1    0    0    0    0  0.00000000000E+00  0.00000000000E+00  0.99999998245E-14  0.12500000000E+03  0.12500000000E+03 0.  0.
        -11    1    3    3    0    0 -0.40748917343E+02 -0.46456909386E+02  0.74107790389E+01  0.62238559917E+02  0.51100000000E-03 0. -1.
         23    2    1    0    0    0 -0.16652799128E+02 -0.22789903270E+02  0.65483295236E+01  0.96024561618E+02  0.91548568556E+02 0.  0.
         11    1    3    3    0    0  0.24096118215E+02  0.23667006116E+02 -0.86244951533E+00  0.33786001701E+02  0.51100000000E-03 0.  1.
         22    1    1    0    0    0  0.16652799128E+02  0.22789903270E+02 -0.65483295236E+01  0.28975438382E+02  0.00000000000E+00 0. -1.
</event>
<event>
 5    1  0.1691145E-003  0.9118800E+02  0.7818608E-02  0.1130116E+00
         25   -1    0    0    0    0  0.00000000000E+00  0.00000000000E+00  0.99999998245E-14  0.12500000000E+03  0.12500000000E+03 0.  0.
        -11    1    3    3    0    0 -0.29807751786E+02  0.18702999914E+02 -0.13762234705E+02  0.37784962308E+02  0.51100000000E-03 0.  1.
         23    2    1    0    0    0  0.14985655418E+02 -0.18638530430E+02 -0.16135685745E+02  0.96149955990E+02  0.91719621661E+02 0.  0.
         11    1    3    3    0    0  0.44793407204E+02 -0.37341530344E+02 -0.23734510394E+01  0.58364993682E+02  0.51100000000E-03 0. -1.
         22    1    1    0    0    0 -0.14985655418E+02  0.18638530430E+02  0.16135685745E+02  0.28850044010E+02  0.00000000000E+00 0. -1.
</event>
<event>
 5    1  0.1691145E-003  0.9118800E+02  0.7818608E-02  0.1130116E+00
         25   -1    0    0    0    0  0.00000000000E+00  0.00000000000E+00  0.99999998245E-14  0.12500000000E+03  0.12500000000E+03 0.  0.
        -11    1    3    3    0    0 -0.51311918860E+01  0.23630113397E+02  0.28552917601E+02  0.37416313195E+02  0.51100000000E-03 0. -1.
         23    2    1    0    0    0 -0.11525382308E+02  0.12639326451E+01 -0.25896337019E+02  0.96626557592E+02  0.92366873921E+02 0.  0.
         11    1    3    3    0    0 -0.63941904224E+01 -0.22366180752E+02 -0.54449254620E+02  0.59210244397E+02  0.51100000000E-03 0.  1.
         22    1    1    0    0    0  0.11525382308E+02 -0.12639326451E+01  0.25896337019E+02  0.28373442408E+02  0.00000000000E+00 0.  1.
</event>
<event>
 5    1  0.1691145E-003  0.9118800E+02  0.7818608E-02  0.1130116E+00
         25   -1    0    0    0    0  0.00000000000E+00  0.00000000000E+00  0.99999998245E-14  0.12500000000E+03  0.12500000000E+03 0.  0.
        -11    1    3    3    0    0  0.15275699932E+02  0.85038126706E+01  0.38272030702E+02  0.42076242379E+02  0.51100000000E-03 0. -1.
         23    2    1    0    0    0  0.11488098416E+02 -0.26106302488E+02 -0.32835170244E+01  0.96289428447E+02  0.91909505014E+02 0.  0.
         11    1    3    3    0    0 -0.37876015163E+01 -0.34610115159E+02 -0.41555547727E+02  0.54213186069E+02  0.51100000000E-03 0.  1.
         22    1    1    0    0    0 -0.11488098416E+02  0.26106302488E+02  0.32835170244E+01  0.28710571553E+02  0.00000000000E+00 0.  1.
</event>
<event>
 5    1  0.1691145E-003  0.9118800E+02  0.7818608E-02  0.1130116E+00
         25   -1    0    0    0    0  0.00000000000E+00  0.00000000000E+00  0.99999998245E-14  0.12500000000E+03  0.12500000000E+03 0.  0.
        -11    1    3    3    0    0  0.31529687391E+02 -0.24858968953E+02 -0.23492640284E+02  0.46518745385E+02  0.51100000000E-03 0.  1.
         23    2    1    0    0    0  0.76960515288E+01  0.20199299180E+02 -0.16147917156E+02  0.98018596683E+02  0.94231890412E+02 0.  0.
         11    1    3    3    0    0 -0.23833635862E+02  0.45058268133E+02  0.73447231286E+01  0.51499851298E+02  0.51100000000E-03 0. -1.
         22    1    1    0    0    0 -0.76960515288E+01 -0.20199299180E+02  0.16147917156E+02  0.26981403317E+02  0.00000000000E+00 0. -1.
</event>
<event>
 5    1  0.1691145E-003  0.9118800E+02  0.7818608E-02  0.1130116E+00
         25   -1    0    0    0    0  0.00000000000E+00  0.00000000000E+00  0.99999998245E-14  0.12500000000E+03  0.12500000000E+03 0.  0.
        -11    1    3    3    0    0 -0.27738096637E+02  0.59163445095E+01  0.13780389582E+02  0.31532590675E+02  0.51100000000E-03 0. -1.
         23    2    1    0    0    0  0.23899830423E+02 -0.90878947955E+01 -0.17754698234E+02  0.93870897292E+02  0.88559157194E+02 0.  0.
         11    1    3    3    0    0  0.51637927059E+02 -0.15004239305E+02 -0.31535087815E+02  0.62338306617E+02  0.51100000000E-03 0.  1.
         22    1    1    0    0    0 -0.23899830423E+02  0.90878947955E+01  0.17754698234E+02  0.31129102708E+02  0.00000000000E+00 0.  1.
</event>
<event>
 5    1  0.1691145E-003  0.9118800E+02  0.7818608E-02  0.1130116E+00
         25   -1    0    0    0    0  0.00000000000E+00  0.00000000000E+00  0.99999998245E-14  0.12500000000E+03  0.12500000000E+03 0.  0.
        -11    1    3    3    0    0 -0.30621289372E+02 -0.17040304497E+02 -0.25036732659E+02  0.43068240301E+02  0.51100000000E-03 0.  1.
         23    2    1    0    0    0  0.18007962221E+02 -0.69187358607E+01 -0.25848516177E+02  0.92746296371E+02  0.86957311900E+02 0.  0.
         11    1    3    3    0    0  0.48629251593E+02  0.10121568636E+02 -0.81178351768E+00  0.49678056070E+02  0.51100000000E-03 0. -1.
         22    1    1    0    0    0 -0.18007962221E+02  0.69187358607E+01  0.25848516177E+02  0.32253703629E+02  0.00000000000E+00 0. -1.
</event>
<event>
 5    1  0.1691145E-003  0.9118800E+02  0.7818608E-02  0.1130116E+00
         25   -1    0    0    0    0  0.00000000000E+00  0.00000000000E+00  0.99999998245E-14  0.12500000000E+03  0.12500000000E+03 0.  0.
        -11    1    3    3    0    0 -0.49873783658E+02  0.15985643016E+02 -0.93813017238E+01  0.53206615202E+02  0.51100000000E-03 0.  1.
         23    2    1    0    0    0 -0.10965721774E+02  0.26514405246E+02  0.47449697822E+01  0.95917780728E+02  0.91402654129E+02 0.  0.
         11    1    3    3    0    0  0.38908061883E+02  0.10528762230E+02  0.14126271506E+02  0.42711165525E+02  0.51100000000E-03 0. -1.
         22    1    1    0    0    0  0.10965721774E+02 -0.26514405246E+02 -0.47449697822E+01  0.29082219272E+02  0.00000000000E+00 0.  1.
</event>
<event>
 5    1  0.1691145E-003  0.9118800E+02  0.7818608E-02  0.1130116E+00
         25   -1    0    0    0    0  0.00000000000E+00  0.00000000000E+00  0.99999998245E-14  0.12500000000E+03  0.12500000000E+03 0.  0.
        -11    1    3    3    0    0 -0.18323328725E+02  0.33050088354E+02  0.17056787664E+02  0.41460664749E+02  0.51100000000E-03 0.  1.
         23    2    1    0    0    0  0.20922428418E+02 -0.42402977145E+01  0.20094189626E+02  0.95682691250E+02  0.91080584169E+02 0.  0.
         11    1    3    3    0    0  0.39245757143E+02 -0.37290386069E+02  0.30374019616E+01  0.54222026501E+02  0.51100000000E-03 0. -1.
         22    1    1    0    0    0 -0.20922428418E+02  0.42402977145E+01 -0.20094189626E+02  0.29317308750E+02  0.00000000000E+00 0.  1.
</event>
<event>
 5    1  0.1691145E-003  0.9118800E+02  0.7818608E-02  0.1130116E+00
         25   -1    0    0    0    0  0.00000000000E+00  0.00000000000E+00  0.99999998245E-14  0.12500000000E+03  0.12500000000E+03 0.  0.
        -11    1    3    3    0    0  0.86584710426E+01 -0.21894972522E+01  0.35347044657E+02  0.36457874119E+02  0.51100000000E-03 0.  1.
         23    2    1    0    0    0  0.10715557699E+02 -0.22711221845E+02 -0.18296322768E+02  0.93929464097E+02  0.88641784866E+02 0.  0.
         11    1    3    3    0    0  0.20570866560E+01 -0.20521724592E+02 -0.53643367425E+02  0.57471589979E+02  0.51100000000E-03 0. -1.
         22    1    1    0    0    0 -0.10715557699E+02  0.22711221845E+02  0.18296322768E+02  0.31070535903E+02  0.00000000000E+00 0. -1.
</event>
<event>
 5    1  0.1691145E-003  0.9118800E+02  0.7818608E-02  0.1130116E+00
         25   -1    0    0    0    0  0.00000000000E+00  0.00000000000E+00  0.99999998245E-14  0.12500000000E+03  0.12500000000E+03 0.  0.
        -11    1    3    3    0    0  0.46491277713E+02  0.17799021277E+00  0.11236985665E+02  0.47830329615E+02  0.51100000000E-03 0.  1.
         23    2    1    0    0    0  0.16023847434E+02  0.53720151791E+01 -0.24600002566E+02  0.95154022718E+02  0.90352120503E+02 0.  0.
         11    1    3    3    0    0 -0.30467430279E+02  0.51940249663E+01 -0.35836988231E+02  0.47323693103E+02  0.51100000000E-03 0. -1.
         22    1    1    0    0    0 -0.16023847434E+02 -0.53720151791E+01  0.24600002566E+02  0.29845977282E+02  0.00000000000E+00 0.  1.
</event>
<event>
 5    1  0.1691145E-003  0.9118800E+02  0.7818608E-02  0.1130116E+00
         25   -1    0    0    0    0  0.00000000000E+00  0.00000000000E+00  0.99999998245E-14  0.12500000000E+03  0.12500000000E+03 0.  0.
        -11    1    3    3    0    0  0.27848441989E+02 -0.30835182797E+02 -0.26079142490E+02  0.49055742708E+02  0.51100000000E-03 0. -1.
         23    2    1    0    0    0  0.25342446958E+02  0.11741138120E+02 -0.50173923493E+01  0.96622752633E+02  0.92361724530E+02 0.  0.
         11    1    3    3    0    0 -0.25059950311E+01  0.42576320917E+02  0.21061750141E+02  0.47567009925E+02  0.51100000000E-03 0.  1.
         22    1    1    0    0    0 -0.25342446958E+02 -0.11741138120E+02  0.50173923493E+01  0.28377247367E+02  0.00000000000E+00 0. -1.
</event>
<event>
 5    1  0.1691145E-003  0.9118800E+02  0.7818608E-02  0.1130116E+00
         25   -1    0    0    0    0  0.00000000000E+00  0.00000000000E+00  0.99999998245E-14  0.12500000000E+03  0.12500000000E+03 0.  0.
        -11    1    3    3    0    0 -0.42549198355E+00  0.36359205366E+02 -0.64860920961E+01  0.36935650112E+02  0.51100000000E-03 0.  1.
         23    2    1    0    0    0 -0.26945228685E+02 -0.12926185411E+02  0.65594209646E+01  0.94403307016E+02  0.89307484311E+02 0.  0.
         11    1    3    3    0    0 -0.26519736701E+02 -0.49285390777E+02  0.13045513061E+02  0.57467656904E+02  0.51100000000E-03 0. -1.
         22    1    1    0    0    0  0.26945228685E+02  0.12926185411E+02 -0.65594209646E+01  0.30596692984E+02  0.00000000000E+00 0. -1.
</event>
<event>
 5    1  0.1691145E-003  0.9118800E+02  0.7818608E-02  0.1130116E+00
         25   -1    0    0    0    0  0.00000000000E+00  0.00000000000E+00  0.99999998245E-14  0.12500000000E+03  0.12500000000E+03 0.  0.
        -11    1    3    3    0    0 -0.11371039519E+02  0.52688688103E+02  0.14171295975E+02  0.55733508984E+02  0.51100000000E-03 0.  1.
         23    2    1    0    0    0 -0.17208811868E+02  0.17335998173E+02  0.21675789946E+02  0.92342383609E+02  0.86374741113E+02 0.  0.
         11    1    3    3    0    0 -0.58377723488E+01 -0.35352689930E+02  0.75044939707E+01  0.36608874625E+02  0.51100000000E-03 0. -1.
         22    1    1    0    0    0  0.17208811868E+02 -0.17335998173E+02 -0.21675789946E+02  0.32657616391E+02  0.00000000000E+00 0.  1.
</event>
<event>
 5    1  0.1691145E-003  0.9118800E+02  0.7818608E-02  0.1130116E+00
         25   -1    0    0    0    0  0.00000000000E+00  0.00000000000E+00  0.99999998245E-14  0.12500000000E+03  0.12500000000E+03 0.  0.
        -11    1    3    3    0    0  0.11069421924E+02 -0.23068261352E+02 -0.23252338012E+02  0.34573805212E+02  0.51100000000E-03 0.  1.
         23    2    1    0    0    0 -0.41943782762E+01  0.28190641936E+02  0.64881673763E+01  0.95769854298E+02  0.91200129246E+02 0.  0.
         11    1    3    3    0    0 -0.15263800200E+02  0.51258903287E+02  0.29740505388E+02  0.61196049086E+02  0.51100000000E-03 0. -1.
         22    1    1    0    0    0  0.41943782762E+01 -0.28190641936E+02 -0.64881673763E+01  0.29230145702E+02  0.00000000000E+00 0. -1.
</event>
<event>
 5    1  0.1691145E-003  0.9118800E+02  0.7818608E-02  0.1130116E+00
         25   -1    0    0    0    0  0.00000000000E+00  0.00000000000E+00  0.99999998245E-14  0.12500000000E+03  0.12500000000E+03 0.  0.
        -11    1    3    3    0    0 -0.21156272650E+02  0.18361790376E+02  0.30398640250E+02  0.41337882717E+02  0.51100000000E-03 0.  1.
         23    2    1    0    0    0 -0.20779386055E+02 -0.18069980748E+02 -0.99670116023E+01  0.95714365137E+02  0.91124043393E+02 0.  0.
         11    1    3    3    0    0  0.37688659468E+00 -0.36431771123E+02 -0.40365651852E+02  0.54376482420E+02  0.51100000000E-03 0. -1.
         22    1    1    0    0    0  0.20779386055E+02  0.18069980748E+02  0.99670116023E+01  0.29285634863E+02  0.00000000000E+00 0. -1.
</event>
<event>
 5    1  0.1691145E-003  0.9118800E+02  0.7818608E-02  0.1130116E+00
         25   -1    0    0    0    0  0.00000000000E+00  0.00000000000E+00  0.99999998245E-14  0.12500000000E+03  0.12500000000E+03 0.  0.
        -11    1    3    3    0    0 -0.42066343332E+02 -0.72645378648E+01  0.26764199048E+02  0.50385246875E+02  0.51100000000E-03 0.  1.
         23    2    1    0    0    0 -0.12422329432E+02  0.23707084378E+02  0.95903151754E+01  0.96569131857E+02  0.92289127010E+02 0.  0.
         11    1    3    3    0    0  0.29644013900E+02  0.30971622243E+02 -0.17173883873E+02  0.46183884982E+02  0.51100000000E-03 0. -1.
         22    1    1    0    0    0  0.12422329432E+02 -0.23707084378E+02 -0.95903151754E+01  0.28430868143E+02  0.00000000000E+00 0. -1.
</event>
<event>
 5    1  0.1691145E-003  0.9118800E+02  0.7818608E-02  0.1130116E+00
         25   -1    0    0    0    0  0.00000000000E+00  0.00000000000E+00  0.99999998245E-14  0.12500000000E+03  0.12500000000E+03 0.  0.
        -11    1    3    3    0    0  0.31355846265E+02 -0.39261756420E+02 -0.29112526106E+02  0.58070765353E+02  0.51100000000E-03 0.  1.
         23    2    1    0    0    0  0.60936056821E+01 -0.25781523768E+02 -0.27598073007E+02  0.86744639177E+02  0.77853450754E+02 0.  0.
         11    1    3    3    0    0 -0.25262240583E+02  0.13480232653E+02  0.15144530987E+01  0.28673873824E+02  0.51100000000E-03 0. -1.
         22    1    1    0    0    0 -0.60936056821E+01  0.25781523768E+02  0.27598073007E+02  0.38255360823E+02  0.00000000000E+00 0.  1.
</event>
<event>
 5    1  0.1691145E-003  0.9118800E+02  0.7818608E-02  0.1130116E+00
         25   -1    0    0    0    0  0.00000000000E+00  0.00000000000E+00  0.99999998245E-14  0.12500000000E+03  0.12500000000E+03 0.  0.
        -11    1    3    3    0    0 -0.58516943669E+01  0.39481102381E+02  0.69731369923E+01  0.40516964496E+02  0.51100000000E-03 0.  1.
         23    2    1    0    0    0  0.21562568404E+02  0.28590864828E+00 -0.20135896857E+02  0.95496094459E+02  0.90824135640E+02 0.  0.
         11    1    3    3    0    0  0.27414262771E+02 -0.39195193733E+02 -0.27109033849E+02  0.54979129963E+02  0.51100000000E-03 0. -1.
         22    1    1    0    0    0 -0.21562568404E+02 -0.28590864828E+00  0.20135896857E+02  0.29503905541E+02  0.00000000000E+00 0. -1.
</event>
<event>
 5    1  0.1691145E-003  0.9118800E+02  0.7818608E-02  0.1130116E+00
         25   -1    0    0    0    0  0.00000000000E+00  0.00000000000E+00  0.99999998245E-14  0.12500000000E+03  0.12500000000E+03 0.  0.
        -11    1    3    3    0    0  0.11167468681E+01  0.24606417597E+02  0.17648280067E+02  0.30301562668E+02  0.51100000000E-03 0. -1.
         23    2    1    0    0    0 -0.31416423470E+02 -0.18943603770E+02 -0.23878709605E+01  0.88236516552E+02  0.80213023494E+02 0.  0.
         11    1    3    3    0    0 -0.32533170339E+02 -0.43550021367E+02 -0.20036151027E+02  0.57934953885E+02  0.51100000000E-03 0.  1.
         22    1    1    0    0    0  0.31416423470E+02  0.18943603770E+02  0.23878709605E+01  0.36763483448E+02  0.00000000000E+00 0.  1.
</event>
<event>
 5    1  0.1691145E-003  0.9118800E+02  0.7818608E-02  0.1130116E+00
         25   -1    0    0    0    0  0.00000000000E+00  0.00000000000E+00  0.99999998245E-14  0.12500000000E+03  0.12500000000E+03 0.  0.
        -11    1    3    3    0    0 -0.18162944244E+02  0.18174912857E+02 -0.46079540190E+02  0.52759302737E+02  0.51100000000E-03 0. -1.
         23    2    1    0    0    0 -0.67948797995E+01  0.28421861315E+02 -0.66850123858E+01  0.95022308583E+02  0.90169713017E+02 0.  0.
         11    1    3    3    0    0  0.11368064445E+02  0.10246948459E+02  0.39394527804E+02  0.42263005845E+02  0.51100000000E-03 0.  1.
         22    1    1    0    0    0  0.67948797995E+01 -0.28421861315E+02  0.66850123858E+01  0.29977691417E+02  0.00000000000E+00 0. -1.
</event>
<event>
 5    1  0.1691145E-003  0.9118800E+02  0.7818608E-02  0.1130116E+00
         25   -1    0    0    0    0  0.00000000000E+00  0.00000000000E+00  0.99999998245E-14  0.12500000000E+03  0.12500000000E+03 0.  0.
        -11    1    3    3    0    0  0.41706525254E+02 -0.43955555782E+02 -0.14393029369E+02  0.62279084992E+02  0.51100000000E-03 0.  1.
         23    2    1    0    0    0  0.16884571766E+02 -0.22048191404E+02 -0.42419848718E+01  0.96907190536E+02  0.92745876642E+02 0.  0.
         11    1    3    3    0    0 -0.24821953488E+02  0.21907364377E+02  0.10151044497E+02  0.34628105544E+02  0.51100000000E-03 0. -1.
         22    1    1    0    0    0 -0.16884571766E+02  0.22048191404E+02  0.42419848718E+01  0.28092809464E+02  0.00000000000E+00 0.  1.
</event>
<event>
 5    1  0.1691145E-003  0.9118800E+02  0.7818608E-02  0.1130116E+00
         25   -1    0    0    0    0  0.00000000000E+00  0.00000000000E+00  0.99999998245E-14  0.12500000000E+03  0.12500000000E+03 0.  0.
        -11    1    3    3    0    0 -0.91351206083E+01 -0.60838645523E+02  0.25011041553E+01  0.61571476675E+02  0.51100000000E-03 0.  1.
         23    2    1    0    0    0  0.32050759278E+01 -0.29809056017E+02  0.78641378130E+00  0.95008821648E+02  0.90151014481E+02 0.  0.
         11    1    3    3    0    0  0.12340196536E+02  0.31029589506E+02 -0.17146903740E+01  0.33437344973E+02  0.51100000000E-03 0. -1.
         22    1    1    0    0    0 -0.32050759278E+01  0.29809056017E+02 -0.78641378130E+00  0.29991178352E+02  0.00000000000E+00 0.  1.
</event>
<event>
 5    1  0.1691145E-003  0.9118800E+02  0.7818608E-02  0.1130116E+00
         25   -1    0    0    0    0  0.00000000000E+00  0.00000000000E+00  0.99999998245E-14  0.12500000000E+03  0.12500000000E+03 0.  0.
        -11    1    3    3    0    0 -0.14763727136E+02  0.34957603941E+02  0.27932061954E+01  0.38050015945E+02  0.51100000000E-03 0.  1.
         23    2    1    0    0    0 -0.10409223901E+02 -0.20537862764E+02  0.18020774916E+02  0.95761257248E+02  0.91188345264E+02 0.  0.
         11    1    3    3    0    0  0.43545032353E+01 -0.55495466706E+02  0.15227568721E+02  0.57711241303E+02  0.51100000000E-03 0. -1.
         22    1    1    0    0    0  0.10409223901E+02  0.20537862764E+02 -0.18020774916E+02  0.29238742752E+02  0.00000000000E+00 0. -1.
</event>
<event>
 5    1  0.1691145E-003  0.9118800E+02  0.7818608E-02  0.1130116E+00
         25   -1    0    0    0    0  0.00000000000E+00  0.00000000000E+00  0.99999998245E-14  0.12500000000E+03  0.12500000000E+03 0.  0.
        -11    1    3    3    0    0  0.10474398366E+01  0.57929230802E+02  0.24034351650E+01  0.57988528282E+02  0.51100000000E-03 0.  1.
         23    2    1    0    0    0  0.16872087699E+02  0.24005984611E+02 -0.14705431094E+01  0.95621144721E+02  0.90996077828E+02 0.  0.
         11    1    3    3    0    0  0.15824647863E+02 -0.33923246190E+02 -0.38739782744E+01  0.37632616438E+02  0.51100000000E-03 0. -1.
         22    1    1    0    0    0 -0.16872087699E+02 -0.24005984611E+02  0.14705431094E+01  0.29378855279E+02  0.00000000000E+00 0.  1.
</event>
<event>
 5    1  0.1691145E-003  0.9118800E+02  0.7818608E-02  0.1130116E+00
         25   -1    0    0    0    0  0.00000000000E+00  0.00000000000E+00  0.99999998245E-14  0.12500000000E+03  0.12500000000E+03 0.  0.
        -11    1    3    3    0    0  0.43350002979E+02  0.93226647302E+01  0.42220864773E+02  0.61226924293E+02  0.51100000000E-03 0. -1.
         23    2    1    0    0    0  0.25698316342E+02 -0.99887891460E+00  0.15153081225E+02  0.95150090577E+02  0.90346680317E+02 0.  0.
         11    1    3    3    0    0 -0.17651686637E+02 -0.10321543645E+02 -0.27067783547E+02  0.33923166284E+02  0.51100000000E-03 0.  1.
         22    1    1    0    0    0 -0.25698316342E+02  0.99887891460E+00 -0.15153081225E+02  0.29849909423E+02  0.00000000000E+00 0. -1.
</event>
<event>
 5    1  0.1691145E-003  0.9118800E+02  0.7818608E-02  0.1130116E+00
         25   -1    0    0    0    0  0.00000000000E+00  0.00000000000E+00  0.99999998245E-14  0.12500000000E+03  0.12500000000E+03 0.  0.
        -11    1    3    3    0    0  0.19739715200E+02 -0.22897710965E+02 -0.20276266909E+02  0.36401765392E+02  0.51100000000E-03 0.  1.
         23    2    1    0    0    0 -0.20614871467E+02  0.11354011103E+02  0.12189296547E+02  0.98495935330E+02  0.94862973981E+02 0.  0.
         11    1    3    3    0    0 -0.40354586666E+02  0.34251722068E+02  0.32465563456E+02  0.62094169939E+02  0.51100000000E-03 0. -1.
         22    1    1    0    0    0  0.20614871467E+02 -0.11354011103E+02 -0.12189296547E+02  0.26504064670E+02  0.00000000000E+00 0. -1.
</event>
<event>
 5    1  0.1691145E-003  0.9118800E+02  0.7818608E-02  0.1130116E+00
         25   -1    0    0    0    0  0.00000000000E+00  0.00000000000E+00  0.99999998245E-14  0.12500000000E+03  0.12500000000E+03 0.  0.
        -11    1    3    3    0    0 -0.19420083618E+02 -0.16860173425E+02 -0.23658210883E+02  0.34944470780E+02  0.51100000000E-03 0. -1.
         23    2    1    0    0    0 -0.30401055872E+01  0.17993703453E+02  0.23126483528E+02  0.95540708659E+02  0.90885516804E+02 0.  0.
         11    1    3    3    0    0  0.16379978031E+02  0.34853876878E+02  0.46784694411E+02  0.60596237879E+02  0.51100000000E-03 0.  1.
         22    1    1    0    0    0  0.30401055872E+01 -0.17993703453E+02 -0.23126483528E+02  0.29459291341E+02  0.00000000000E+00 0.  1.
</event>
<event>
 5    1  0.1691145E-003  0.9118800E+02  0.7818608E-02  0.1130116E+00
         25   -1    0    0    0    0  0.00000000000E+00  0.00000000000E+00  0.99999998245E-14  0.12500000000E+03  0.12500000000E+03 0.  0.
        -11    1    3    3    0    0  0.23976251956E+02 -0.10662607323E+02 -0.27858885147E+02  0.38270998611E+02  0.51100000000E-03 0.  1.
         23    2    1    0    0    0 -0.11735345907E+02  0.25633505743E+02  0.98270904962E+00  0.96790769644E+02  0.92588835239E+02 0.  0.
         11    1    3    3    0    0 -0.35711597863E+02  0.36296113066E+02  0.28841594197E+02  0.58519771033E+02  0.51100000000E-03 0. -1.
         22    1    1    0    0    0  0.11735345907E+02 -0.25633505743E+02 -0.98270904962E+00  0.28209230356E+02  0.00000000000E+00 0. -1.
</event>
<event>
 5    1  0.1691145E-003  0.9118800E+02  0.7818608E-02  0.1130116E+00
         25   -1    0    0    0    0  0.00000000000E+00  0.00000000000E+00  0.99999998245E-14  0.12500000000E+03  0.12500000000E+03 0.  0.
        -11    1    3    3    0    0  0.34429123526E+02  0.17692063860E+02 -0.48308733081E+01  0.39009114416E+02  0.51100000000E-03 0.  1.
         23    2    1    0    0    0  0.10637551149E+02 -0.29388213204E+02 -0.10419804188E+02  0.92054637821E+02  0.85957311819E+02 0.  0.
         11    1    3    3    0    0 -0.23791572377E+02 -0.47080277064E+02 -0.55889308802E+01  0.53045523404E+02  0.51100000000E-03 0. -1.
         22    1    1    0    0    0 -0.10637551149E+02  0.29388213204E+02  0.10419804188E+02  0.32945362179E+02  0.00000000000E+00 0. -1.
</event>
<event>
 5    1  0.1691145E-003  0.9118800E+02  0.7818608E-02  0.1130116E+00
         25   -1    0    0    0    0  0.00000000000E+00  0.00000000000E+00  0.99999998245E-14  0.12500000000E+03  0.12500000000E+03 0.  0.
        -11    1    3    3    0    0  0.78403777875E+01 -0.31904910439E+02  0.11964088441E+02  0.34964757206E+02  0.51100000000E-03 0.  1.
         23    2    1    0    0    0 -0.28675356296E+02  0.81902035531E+01 -0.10102177054E+02  0.93513344506E+02  0.88053030195E+02 0.  0.
         11    1    3    3    0    0 -0.36515734083E+02  0.40095113992E+02 -0.22066265495E+02  0.58548587300E+02  0.51100000000E-03 0. -1.
         22    1    1    0    0    0  0.28675356296E+02 -0.81902035531E+01  0.10102177054E+02  0.31486655494E+02  0.00000000000E+00 0. -1.
</event>
<event>
 5    1  0.1691145E-003  0.9118800E+02  0.7818608E-02  0.1130116E+00
         25   -1    0    0    0    0  0.00000000000E+00  0.00000000000E+00  0.99999998245E-14  0.12500000000E+03  0.12500000000E+03 0.  0.
        -11    1    3    3    0    0  0.46827843456E+01  0.45428360743E+02 -0.22831265082E+01  0.45726109565E+02  0.51100000000E-03 0. -1.
         23    2    1    0    0    0  0.21676096299E+02  0.47592384478E+01  0.20008874005E+02  0.95119261383E+02  0.90304016222E+02 0.  0.
         11    1    3    3    0    0  0.16993311953E+02 -0.40669122295E+02  0.22292000513E+02  0.49393151818E+02  0.51100000000E-03 0.  1.
         22    1    1    0    0    0 -0.21676096299E+02 -0.47592384478E+01 -0.20008874005E+02  0.29880738617E+02  0.00000000000E+00 0.  1.
</event>
<event>
 5    1  0.1691145E-003  0.9118800E+02  0.7818608E-02  0.1130116E+00
         25   -1    0    0    0    0  0.00000000000E+00  0.00000000000E+00  0.99999998245E-14  0.12500000000E+03  0.12500000000E+03 0.  0.
        -11    1    3    3    0    0  0.42278723880E+02 -0.13080338348E+02 -0.14550171987E+02  0.46586406272E+02  0.51100000000E-03 0. -1.
         23    2    1    0    0    0 -0.50534868689E+01 -0.26155934614E+02 -0.12068489214E+02  0.95754161373E+02  0.91178617796E+02 0.  0.
         11    1    3    3    0    0 -0.47332210749E+02 -0.13075596267E+02  0.24816827730E+01  0.49167755101E+02  0.51100000000E-03 0.  1.
         22    1    1    0    0    0  0.50534868689E+01  0.26155934614E+02  0.12068489214E+02  0.29245838627E+02  0.00000000000E+00 0. -1.
</event>
<event>
 5    1  0.1691145E-003  0.9118800E+02  0.7818608E-02  0.1130116E+00
         25   -1    0    0    0    0  0.00000000000E+00  0.00000000000E+00  0.99999998245E-14  0.12500000000E+03  0.12500000000E+03 0.  0.
        -11    1    3    3    0    0 -0.35033352370E+02  0.13516697100E+02 -0.27504335909E+01  0.37651052628E+02  0.51100000000E-03 0. -1.
         23    2    1    0    0    0  0.26503909817E+01 -0.29182952939E+02  0.54678397577E+01  0.95191165971E+02  0.90403492702E+02 0.  0.
         11    1    3    3    0    0  0.37683743352E+02 -0.42699650038E+02  0.82182733487E+01  0.57540113343E+02  0.51100000000E-03 0.  1.
         22    1    1    0    0    0 -0.26503909817E+01  0.29182952939E+02 -0.54678397577E+01  0.29808834029E+02  0.00000000000E+00 0.  1.
</event>
<event>
 5    1  0.1691145E-003  0.9118800E+02  0.7818608E-02  0.1130116E+00
         25   -1    0    0    0    0  0.00000000000E+00  0.00000000000E+00  0.99999998245E-14  0.12500000000E+03  0.12500000000E+03 0.  0.
        -11    1    3    3    0    0 -0.23070504100E+02  0.51220364201E+00 -0.33816957459E+02  0.40940165168E+02  0.51100000000E-03 0. -1.
         23    2    1    0    0    0  0.26845891047E+02 -0.21731876171E+01 -0.10631034993E+02  0.96044110866E+02  0.91575257120E+02 0.  0.
         11    1    3    3    0    0  0.49916395146E+02 -0.26853912591E+01  0.23185922466E+02  0.55103945698E+02  0.51100000000E-03 0.  1.
         22    1    1    0    0    0 -0.26845891047E+02  0.21731876171E+01  0.10631034993E+02  0.28955889134E+02  0.00000000000E+00 0.  1.
</event>
<event>
 5    1  0.1691145E-003  0.9118800E+02  0.7818608E-02  0.1130116E+00
         25   -1    0    0    0    0  0.00000000000E+00  0.00000000000E+00  0.99999998245E-14  0.12500000000E+03  0.12500000000E+03 0.  0.
        -11    1    3    3    0    0  0.46341417310E+01 -0.29368281465E+02  0.36131994860E+01  0.29950399606E+02  0.51100000000E-03 0.  1.
         23    2    1    0    0    0  0.36219355258E+02  0.74629030987E+01  0.22153585638E+02  0.81891787620E+02  0.69627199463E+02 0.  0.
         11    1    3    3    0    0  0.31585213527E+02  0.36831184563E+02  0.18540386152E+02  0.51941388014E+02  0.51100000000E-03 0. -1.
         22    1    1    0    0    0 -0.36219355258E+02 -0.74629030987E+01 -0.22153585638E+02  0.43108212380E+02  0.00000000000E+00 0. -1.
</event>
<event>
 5    1  0.1691145E-003  0.9118800E+02  0.7818608E-02  0.1130116E+00
         25   -1    0    0    0    0  0.00000000000E+00  0.00000000000E+00  0.99999998245E-14  0.12500000000E+03  0.12500000000E+03 0.  0.
        -11    1    3    3    0    0  0.96693743274E+01 -0.20775005496E+02 -0.58126578881E+02  0.62480371525E+02  0.51100000000E-03 0.  1.
         23    2    1    0    0    0  0.37728652856E+01 -0.10522269260E+02 -0.27071984857E+02  0.95711008434E+02  0.91119438698E+02 0.  0.
         11    1    3    3    0    0 -0.58965090418E+01  0.10252736236E+02  0.31054594024E+02  0.33230636910E+02  0.51100000000E-03 0. -1.
         22    1    1    0    0    0 -0.37728652856E+01  0.10522269260E+02  0.27071984857E+02  0.29288991566E+02  0.00000000000E+00 0.  1.
</event>
<event>
 5    1  0.1691145E-003  0.9118800E+02  0.7818608E-02  0.1130116E+00
         25   -1    0    0    0    0  0.00000000000E+00  0.00000000000E+00  0.99999998245E-14  0.12500000000E+03  0.12500000000E+03 0.  0.
        -11    1    3    3    0    0 -0.22885344232E+02  0.16313221426E+02  0.16594227325E+02  0.32637839308E+02  0.51100000000E-03 0. -1.
         23    2    1    0    0    0 -0.77975564076E+01 -0.31093471766E+02 -0.12868418826E+02  0.90457242793E+02  0.83602097451E+02 0.  0.
         11    1    3    3    0    0  0.15087787824E+02 -0.47406693192E+02 -0.29462646151E+02  0.57819403485E+02  0.51100000000E-03 0.  1.
         22    1    1    0    0    0  0.77975564076E+01  0.31093471766E+02  0.12868418826E+02  0.34542757207E+02  0.00000000000E+00 0.  1.
</event>
<event>
 5    1  0.1691145E-003  0.9118800E+02  0.7818608E-02  0.1130116E+00
         25   -1    0    0    0    0  0.00000000000E+00  0.00000000000E+00  0.99999998245E-14  0.12500000000E+03  0.12500000000E+03 0.  0.
        -11    1    3    3    0    0 -0.18174938413E+02  0.25905937192E+02  0.47596512172E+02  0.57156573894E+02  0.51100000000E-03 0. -1.
         23    2    1    0    0    0  0.21473952529E+01  0.25346652119E+02  0.15309953618E+02  0.95310628841E+02  0.90568522182E+02 0.  0.
         11    1    3    3    0    0  0.20322333666E+02 -0.55928507269E+00 -0.32286558554E+02  0.38154054947E+02  0.51100000000E-03 0.  1.
         22    1    1    0    0    0 -0.21473952529E+01 -0.25346652119E+02 -0.15309953618E+02  0.29689371159E+02  0.00000000000E+00 0. -1.
</event>
<event>
 5    1  0.1691145E-003  0.9118800E+02  0.7818608E-02  0.1130116E+00
         25   -1    0    0    0    0  0.00000000000E+00  0.00000000000E+00  0.99999998245E-14  0.12500000000E+03  0.12500000000E+03 0.  0.
        -11    1    3    3    0    0  0.38434545521E+02 -0.21516057343E+02 -0.23777646719E+02  0.50055284403E+02  0.51100000000E-03 0.  1.
         23    2    1    0    0    0 -0.40117176260E+01 -0.27535218972E+02 -0.13147089441E+02  0.94224553246E+02  0.89056938593E+02 0.  0.
         11    1    3    3    0    0 -0.42446263147E+02 -0.60191616291E+01  0.10630557277E+02  0.44169268843E+02  0.51100000000E-03 0. -1.
         22    1    1    0    0    0  0.40117176260E+01  0.27535218972E+02  0.13147089441E+02  0.30775446754E+02  0.00000000000E+00 0. -1.
</event>
<event>
 5    1  0.1691145E-003  0.9118800E+02  0.7818608E-02  0.1130116E+00
         25   -1    0    0    0    0  0.00000000000E+00  0.00000000000E+00  0.99999998245E-14  0.12500000000E+03  0.12500000000E+03 0.  0.
        -11    1    3    3    0    0  0.92954751179E+01  0.37068759096E+02 -0.14089336324E+02  0.40730923840E+02  0.51100000000E-03 0.  1.
         23    2    1    0    0    0 -0.30842787194E+02  0.43824934387E+01 -0.27162452289E+01  0.93729218769E+02  0.88358953662E+02 0.  0.
         11    1    3    3    0    0 -0.40138262312E+02 -0.32686265657E+02  0.11373091095E+02  0.52998294929E+02  0.51100000000E-03 0. -1.
         22    1    1    0    0    0  0.30842787194E+02 -0.43824934387E+01  0.27162452289E+01  0.31270781231E+02  0.00000000000E+00 0. -1.
</event>
<event>
 5    1  0.1691145E-003  0.9118800E+02  0.7818608E-02  0.1130116E+00
         25   -1    0    0    0    0  0.00000000000E+00  0.00000000000E+00  0.99999998245E-14  0.12500000000E+03  0.12500000000E+03 0.  0.
        -11    1    3    3    0    0  0.48754804053E+02  0.31659783692E+02 -0.16189247651E+02  0.60344548730E+02  0.51100000000E-03 0. -1.
         23    2    1    0    0    0  0.27837246128E+02  0.13503256601E+02  0.28105015970E+01  0.93933150626E+02  0.88646983347E+02 0.  0.
         11    1    3    3    0    0 -0.20917557926E+02 -0.18156527090E+02  0.18999749248E+02  0.33588601895E+02  0.51100000000E-03 0.  1.
         22    1    1    0    0    0 -0.27837246128E+02 -0.13503256601E+02 -0.28105015970E+01  0.31066849374E+02  0.00000000000E+00 0. -1.
</event>
<event>
 4    1  0.1691145E-003  0.9118800E+02  0.7818608E-02  0.1130116E+00
         25   -1    0    0    0    0  0.00000000000E+00  0.00000000000E+00  0.99999998245E-14  0.12500000000E+03  0.12500000000E+03 0.  0.
        -11    1    1    0    0    0 -0.49706858360E+01  0.11724475665E+01  0.14032676705E+01  0.52963677547E+01  0.51100000000E-03 0. -1.
         11    1    1    0    0    0 -0.29118476677E+02 -0.43474818184E+02 -0.27855335118E+02  0.59277864291E+02  0.51100000000E-03 0.  1.
         22    1    1    0    0    0  0.34089162513E+02  0.42302370617E+02  0.26452067448E+02  0.60425767955E+02  0.00000000000E+00 0.  1.
</event>
<event>
 5    1  0.1691145E-003  0.9118800E+02  0.7818608E-02  0.1130116E+00
         25   -1    0    0    0    0  0.00000000000E+00  0.00000000000E+00  0.99999998245E-14  0.12500000000E+03  0.12500000000E+03 0.  0.
        -11    1    3    3    0    0 -0.25583428041E+02  0.12220364446E+02  0.18774134046E+02  0.34004664488E+02  0.51100000000E-03 0.  1.
         23    2    1    0    0    0  0.22109985401E+02 -0.18689663713E+02 -0.50176493974E+01  0.95617491775E+02  0.90991059691E+02 0.  0.
         11    1    3    3    0    0  0.47693413442E+02 -0.30910028159E+02 -0.23791783443E+02  0.61612827286E+02  0.51100000000E-03 0. -1.
         22    1    1    0    0    0 -0.22109985401E+02  0.18689663713E+02  0.50176493974E+01  0.29382508225E+02  0.00000000000E+00 0. -1.
</event>
<event>
 5    1  0.1691145E-003  0.9118800E+02  0.7818608E-02  0.1130116E+00
         25   -1    0    0    0    0  0.00000000000E+00  0.00000000000E+00  0.99999998245E-14  0.12500000000E+03  0.12500000000E+03 0.  0.
        -11    1    3    3    0    0 -0.28692095487E+02 -0.44393841905E+02  0.29064809177E+02  0.60322571856E+02  0.51100000000E-03 0.  1.
         23    2    1    0    0    0 -0.22822594958E+02 -0.16126438701E+02  0.84234562374E+01  0.95812888448E+02  0.91259093311E+02 0.  0.
         11    1    3    3    0    0  0.58695005287E+01  0.28267403205E+02 -0.20641352939E+02  0.35490316592E+02  0.51100000000E-03 0. -1.
         22    1    1    0    0    0  0.22822594958E+02  0.16126438701E+02 -0.84234562374E+01  0.29187111552E+02  0.00000000000E+00 0.  1.
</event>
<event>
 5    1  0.1691145E-003  0.9118800E+02  0.7818608E-02  0.1130116E+00
         25   -1    0    0    0    0  0.00000000000E+00  0.00000000000E+00  0.99999998245E-14  0.12500000000E+03  0.12500000000E+03 0.  0.
        -11    1    3    3    0    0  0.17570264738E+02  0.27122692814E+02  0.24507792952E+02  0.40558434192E+02  0.51100000000E-03 0.  1.
         23    2    1    0    0    0  0.15039742830E+02  0.72158130327E+01 -0.25548859328E+02  0.94487608500E+02  0.89425399775E+02 0.  0.
         11    1    3    3    0    0 -0.25305219081E+01 -0.19906879782E+02 -0.50056652280E+02  0.53929174308E+02  0.51100000000E-03 0. -1.
         22    1    1    0    0    0 -0.15039742830E+02 -0.72158130327E+01  0.25548859328E+02  0.30512391500E+02  0.00000000000E+00 0. -1.
</event>
<event>
 5    1  0.1691145E-003  0.9118800E+02  0.7818608E-02  0.1130116E+00
         25   -1    0    0    0    0  0.00000000000E+00  0.00000000000E+00  0.99999998245E-14  0.12500000000E+03  0.12500000000E+03 0.  0.
        -11    1    3    3    0    0  0.79197065499E+01 -0.46105207553E+02 -0.18040934786E+02  0.50138680114E+02  0.51100000000E-03 0.  1.
         23    2    1    0    0    0  0.27597897855E+01  0.12633906140E+02 -0.75364766990E+01  0.11003235139E+03  0.10900957686E+03 0.  0.
         11    1    3    3    0    0 -0.51599167644E+01  0.58739113693E+02  0.10504458087E+02  0.59893671272E+02  0.51100000000E-03 0. -1.
         22    1    1    0    0    0 -0.27597897855E+01 -0.12633906140E+02  0.75364766990E+01  0.14967648615E+02  0.00000000000E+00 0. -1.
</event>
<event>
 5    1  0.1691145E-003  0.9118800E+02  0.7818608E-02  0.1130116E+00
         25   -1    0    0    0    0  0.00000000000E+00  0.00000000000E+00  0.99999998245E-14  0.12500000000E+03  0.12500000000E+03 0.  0.
        -11    1    3    3    0    0 -0.22849776213E+02  0.86826033873E+00  0.39431629632E+02  0.45582009222E+02  0.51100000000E-03 0. -1.
         23    2    1    0    0    0 -0.10776951334E+02 -0.27724946094E+02  0.65958916466E+00  0.95246842624E+02  0.90480443500E+02 0.  0.
         11    1    3    3    0    0  0.12072824879E+02 -0.28593206432E+02 -0.38772040467E+02  0.49664833402E+02  0.51100000000E-03 0.  1.
         22    1    1    0    0    0  0.10776951334E+02  0.27724946094E+02 -0.65958916466E+00  0.29753157376E+02  0.00000000000E+00 0.  1.
</event>
<event>
 5    1  0.1691145E-003  0.9118800E+02  0.7818608E-02  0.1130116E+00
         25   -1    0    0    0    0  0.00000000000E+00  0.00000000000E+00  0.99999998245E-14  0.12500000000E+03  0.12500000000E+03 0.  0.
        -11    1    3    3    0    0  0.15519069890E+02 -0.28583943080E+02 -0.25444831992E+02  0.41295554333E+02  0.51100000000E-03 0. -1.
         23    2    1    0    0    0 -0.26573418066E+02 -0.93393732027E+01  0.45780922547E+01  0.96463543173E+02  0.92146002590E+02 0.  0.
         11    1    3    3    0    0 -0.42092487956E+02  0.19244569878E+02  0.30022924247E+02  0.55167988840E+02  0.51100000000E-03 0.  1.
         22    1    1    0    0    0  0.26573418066E+02  0.93393732027E+01 -0.45780922547E+01  0.28536456827E+02  0.00000000000E+00 0.  1.
</event>
<event>
 5    1  0.1691145E-003  0.9118800E+02  0.7818608E-02  0.1130116E+00
         25   -1    0    0    0    0  0.00000000000E+00  0.00000000000E+00  0.99999998245E-14  0.12500000000E+03  0.12500000000E+03 0.  0.
        -11    1    3    3    0    0 -0.34745876721E+02  0.12425932489E+02  0.44199430830E+02  0.57578376439E+02  0.51100000000E-03 0.  1.
         23    2    1    0    0    0 -0.45748305392E+01  0.18942260756E+02  0.22069688078E+02  0.95558372177E+02  0.90909807196E+02 0.  0.
         11    1    3    3    0    0  0.30171046181E+02  0.65163282666E+01 -0.22129742753E+02  0.37979995739E+02  0.51100000000E-03 0. -1.
         22    1    1    0    0    0  0.45748305392E+01 -0.18942260756E+02 -0.22069688078E+02  0.29441627823E+02  0.00000000000E+00 0.  1.
</event>
<event>
 5    1  0.1691145E-003  0.9118800E+02  0.7818608E-02  0.1130116E+00
         25   -1    0    0    0    0  0.00000000000E+00  0.00000000000E+00  0.99999998245E-14  0.12500000000E+03  0.12500000000E+03 0.  0.
        -11    1    3    3    0    0  0.39924440389E+02 -0.45526371795E+01  0.21611882917E+02  0.45626318383E+02  0.51100000000E-03 0. -1.
         23    2    1    0    0    0  0.12982422869E+02 -0.19088128668E+02 -0.18027248466E+02  0.95710383293E+02  0.91118581109E+02 0.  0.
         11    1    3    3    0    0 -0.26942017520E+02 -0.14535491488E+02 -0.39639131383E+02  0.50084064910E+02  0.51100000000E-03 0.  1.
         22    1    1    0    0    0 -0.12982422869E+02  0.19088128668E+02  0.18027248466E+02  0.29289616707E+02  0.00000000000E+00 0.  1.
</event>
<event>
 5    1  0.1691145E-003  0.9118800E+02  0.7818608E-02  0.1130116E+00
         25   -1    0    0    0    0  0.00000000000E+00  0.00000000000E+00  0.99999998245E-14  0.12500000000E+03  0.12500000000E+03 0.  0.
        -11    1    3    3    0    0 -0.15224734564E+02  0.20733402983E+02  0.30884971283E+02  0.40193880046E+02  0.51100000000E-03 0.  1.
         23    2    1    0    0    0  0.19778898958E+02 -0.18012191234E+02  0.11248810832E+02  0.95979668814E+02  0.91487251590E+02 0.  0.
         11    1    3    3    0    0  0.35003633522E+02 -0.38745594217E+02 -0.19636160450E+02  0.55785788767E+02  0.51100000000E-03 0. -1.
         22    1    1    0    0    0 -0.19778898958E+02  0.18012191234E+02 -0.11248810832E+02  0.29020331186E+02  0.00000000000E+00 0. -1.
</event>
<event>
 5    1  0.1691145E-003  0.9118800E+02  0.7818608E-02  0.1130116E+00
         25   -1    0    0    0    0  0.00000000000E+00  0.00000000000E+00  0.99999998245E-14  0.12500000000E+03  0.12500000000E+03 0.  0.
        -11    1    3    3    0    0  0.14098395481E+02  0.48422075027E+02  0.67879283622E+00  0.50437316195E+02  0.51100000000E-03 0.  1.
         23    2    1    0    0    0  0.21106925479E+02  0.74787328985E+01  0.18804778486E+02  0.95758703127E+02  0.91184844035E+02 0.  0.
         11    1    3    3    0    0  0.70085299977E+01 -0.40943342128E+02  0.18125985650E+02  0.45321386931E+02  0.51100000000E-03 0. -1.
         22    1    1    0    0    0 -0.21106925479E+02 -0.74787328985E+01 -0.18804778486E+02  0.29241296873E+02  0.00000000000E+00 0.  1.
</event>
<event>
 5    1  0.1691145E-003  0.9118800E+02  0.7818608E-02  0.1130116E+00
         25   -1    0    0    0    0  0.00000000000E+00  0.00000000000E+00  0.99999998245E-14  0.12500000000E+03  0.12500000000E+03 0.  0.
        -11    1    3    3    0    0 -0.39278995833E+02 -0.26929333271E+02 -0.63821338620E+01  0.48049559176E+02  0.51100000000E-03 0. -1.
         23    2    1    0    0    0 -0.74503410974E+01 -0.12194428585E+02  0.25707115377E+02  0.95587970965E+02  0.90950496102E+02 0.  0.
         11    1    3    3    0    0  0.31828654736E+02  0.14734904686E+02  0.32089249239E+02  0.47538411789E+02  0.51100000000E-03 0.  1.
         22    1    1    0    0    0  0.74503410974E+01  0.12194428585E+02 -0.25707115377E+02  0.29412029035E+02  0.00000000000E+00 0.  1.
</event>
<event>
 5    1  0.1691145E-003  0.9118800E+02  0.7818608E-02  0.1130116E+00
         25   -1    0    0    0    0  0.00000000000E+00  0.00000000000E+00  0.99999998245E-14  0.12500000000E+03  0.12500000000E+03 0.  0.
        -11    1    3    3    0    0  0.15363623720E+02 -0.31489853067E+02 -0.26691012326E+02  0.44046133988E+02  0.51100000000E-03 0. -1.
         23    2    1    0    0    0 -0.14820804026E+02 -0.21327987492E+02  0.13821871874E+02  0.95579200818E+02  0.90938441841E+02 0.  0.
         11    1    3    3    0    0 -0.30184427747E+02  0.10161865576E+02  0.40512884200E+02  0.51533066829E+02  0.51100000000E-03 0.  1.
         22    1    1    0    0    0  0.14820804026E+02  0.21327987492E+02 -0.13821871874E+02  0.29420799182E+02  0.00000000000E+00 0.  1.
</event>
<event>
 5    1  0.1691145E-003  0.9118800E+02  0.7818608E-02  0.1130116E+00
         25   -1    0    0    0    0  0.00000000000E+00  0.00000000000E+00  0.99999998245E-14  0.12500000000E+03  0.12500000000E+03 0.  0.
        -11    1    3    3    0    0  0.24658408323E+02  0.14405875211E+02 -0.24411225654E+02  0.37569592490E+02  0.51100000000E-03 0. -1.
         23    2    1    0    0    0 -0.21716385235E+00  0.61751569921E+01  0.28085970665E+02  0.96242366714E+02  0.91845477180E+02 0.  0.
         11    1    3    3    0    0 -0.24875572175E+02 -0.82307182191E+01  0.52497196320E+02  0.58672774224E+02  0.51100000000E-03 0.  1.
         22    1    1    0    0    0  0.21716385235E+00 -0.61751569921E+01 -0.28085970665E+02  0.28757633286E+02  0.00000000000E+00 0.  1.
</event>
<event>
 5    1  0.1691145E-003  0.9118800E+02  0.7818608E-02  0.1130116E+00
         25   -1    0    0    0    0  0.00000000000E+00  0.00000000000E+00  0.99999998245E-14  0.12500000000E+03  0.12500000000E+03 0.  0.
        -11    1    3    3    0    0  0.55748212931E+02 -0.14252250138E+01 -0.23096835538E+02  0.60360237934E+02  0.51100000000E-03 0. -1.
         23    2    1    0    0    0  0.23048597165E+02 -0.11937210580E+02 -0.84226991593E+01  0.97711235117E+02  0.93823284846E+02 0.  0.
         11    1    3    3    0    0 -0.32699615767E+02 -0.10511985567E+02  0.14674136378E+02  0.37350997183E+02  0.51100000000E-03 0.  1.
         22    1    1    0    0    0 -0.23048597165E+02  0.11937210580E+02  0.84226991593E+01  0.27288764883E+02  0.00000000000E+00 0. -1.
</event>
<event>
 5    1  0.1691145E-003  0.9118800E+02  0.7818608E-02  0.1130116E+00
         25   -1    0    0    0    0  0.00000000000E+00  0.00000000000E+00  0.99999998245E-14  0.12500000000E+03  0.12500000000E+03 0.  0.
        -11    1    3    3    0    0 -0.25985742004E+01  0.32678343990E+02  0.21356390080E+02  0.39124444422E+02  0.51100000000E-03 0.  1.
         23    2    1    0    0    0 -0.23315179376E+02 -0.75519977798E+01 -0.14201733394E+02  0.96674755231E+02  0.92432076725E+02 0.  0.
         11    1    3    3    0    0 -0.20716605176E+02 -0.40230341770E+02 -0.35558123474E+02  0.57550310809E+02  0.51100000000E-03 0. -1.
         22    1    1    0    0    0  0.23315179376E+02  0.75519977798E+01  0.14201733394E+02  0.28325244769E+02  0.00000000000E+00 0. -1.
</event>
<event>
 5    1  0.1691145E-003  0.9118800E+02  0.7818608E-02  0.1130116E+00
         25   -1    0    0    0    0  0.00000000000E+00  0.00000000000E+00  0.99999998245E-14  0.12500000000E+03  0.12500000000E+03 0.  0.
        -11    1    3    3    0    0 -0.53139615099E+02  0.30676025650E+02 -0.11704643789E+02  0.62464677450E+02  0.51100000000E-03 0. -1.
         23    2    1    0    0    0 -0.26917147199E+02  0.14070547894E+02 -0.50063279924E+01  0.94217270242E+02  0.89046715607E+02 0.  0.
         11    1    3    3    0    0  0.26222467899E+02 -0.16605477755E+02  0.66983157967E+01  0.31752592792E+02  0.51100000000E-03 0.  1.
         22    1    1    0    0    0  0.26917147199E+02 -0.14070547894E+02  0.50063279924E+01  0.30782729758E+02  0.00000000000E+00 0. -1.
</event>
<event>
 5    1  0.1691145E-003  0.9118800E+02  0.7818608E-02  0.1130116E+00
         25   -1    0    0    0    0  0.00000000000E+00  0.00000000000E+00  0.99999998245E-14  0.12500000000E+03  0.12500000000E+03 0.  0.
        -11    1    3    3    0    0  0.35547035149E+02  0.51956271770E+01  0.98944623205E+01  0.37262402426E+02  0.51100000000E-03 0. -1.
         23    2    1    0    0    0 -0.22575001629E+02  0.40927703325E+01 -0.11662285616E+02  0.99263054312E+02  0.95868470198E+02 0.  0.
         11    1    3    3    0    0 -0.58122036779E+02 -0.11028568445E+01 -0.21556747936E+02  0.62000651886E+02  0.51100000000E-03 0.  1.
         22    1    1    0    0    0  0.22575001629E+02 -0.40927703325E+01  0.11662285616E+02  0.25736945688E+02  0.00000000000E+00 0.  1.
</event>
<event>
 5    1  0.1691145E-003  0.9118800E+02  0.7818608E-02  0.1130116E+00
         25   -1    0    0    0    0  0.00000000000E+00  0.00000000000E+00  0.99999998245E-14  0.12500000000E+03  0.12500000000E+03 0.  0.
        -11    1    3    3    0    0  0.25034456770E+02 -0.35989790801E+02 -0.10981153174E+01  0.43854246376E+02  0.51100000000E-03 0.  1.
         23    2    1    0    0    0 -0.19149831565E+02 -0.14379013215E+02 -0.17095750322E+02  0.95576595216E+02  0.90934860224E+02 0.  0.
         11    1    3    3    0    0 -0.44184288335E+02  0.21610777586E+02 -0.15997635005E+02  0.51722348840E+02  0.51100000000E-03 0. -1.
         22    1    1    0    0    0  0.19149831565E+02  0.14379013215E+02  0.17095750322E+02  0.29423404784E+02  0.00000000000E+00 0. -1.
</event>
<event>
 5    1  0.1691145E-003  0.9118800E+02  0.7818608E-02  0.1130116E+00
         25   -1    0    0    0    0  0.00000000000E+00  0.00000000000E+00  0.99999998245E-14  0.12500000000E+03  0.12500000000E+03 0.  0.
        -11    1    3    3    0    0  0.13758079450E+01  0.32857311187E+02  0.85053642815E+01  0.33968175808E+02  0.51100000000E-03 0.  1.
         23    2    1    0    0    0  0.42850139388E+02  0.15365184538E+02  0.21414989268E+01  0.79427976136E+02  0.65053778015E+02 0.  0.
         11    1    3    3    0    0  0.41474331443E+02 -0.17492126649E+02 -0.63638653547E+01  0.45459800328E+02  0.51100000000E-03 0. -1.
         22    1    1    0    0    0 -0.42850139388E+02 -0.15365184538E+02 -0.21414989268E+01  0.45572023864E+02  0.00000000000E+00 0. -1.
</event>
<event>
 5    1  0.1691145E-003  0.9118800E+02  0.7818608E-02  0.1130116E+00
         25   -1    0    0    0    0  0.00000000000E+00  0.00000000000E+00  0.99999998245E-14  0.12500000000E+03  0.12500000000E+03 0.  0.
        -11    1    3    3    0    0  0.32717638972E-01 -0.11512360460E+02 -0.56631417357E+02  0.57789730454E+02  0.51100000000E-03 0.  1.
         23    2    1    0    0    0  0.55254603544E+01  0.11138584322E+02 -0.24977601984E+02  0.97098756771E+02  0.93003705264E+02 0.  0.
         11    1    3    3    0    0  0.54927427154E+01  0.22650944782E+02  0.31653815373E+02  0.39309026317E+02  0.51100000000E-03 0. -1.
         22    1    1    0    0    0 -0.55254603544E+01 -0.11138584322E+02  0.24977601984E+02  0.27901243229E+02  0.00000000000E+00 0.  1.
</event>
<event>
 5    1  0.1691145E-003  0.9118800E+02  0.7818608E-02  0.1130116E+00
         25   -1    0    0    0    0  0.00000000000E+00  0.00000000000E+00  0.99999998245E-14  0.12500000000E+03  0.12500000000E+03 0.  0.
        -11    1    3    3    0    0  0.25496760192E+02  0.31920213661E+02 -0.26277689342E+02  0.48574703065E+02  0.51100000000E-03 0. -1.
         23    2    1    0    0    0 -0.95593845692E+01  0.27381236700E+02  0.47528359556E+01  0.95611168683E+02  0.90982372857E+02 0.  0.
         11    1    3    3    0    0 -0.35056144761E+02 -0.45389769609E+01  0.31030525297E+02  0.47036465618E+02  0.51100000000E-03 0.  1.
         22    1    1    0    0    0  0.95593845692E+01 -0.27381236700E+02 -0.47528359556E+01  0.29388831317E+02  0.00000000000E+00 0.  1.
</event>
<event>
 5    1  0.1691145E-003  0.9118800E+02  0.7818608E-02  0.1130116E+00
         25   -1    0    0    0    0  0.00000000000E+00  0.00000000000E+00  0.99999998245E-14  0.12500000000E+03  0.12500000000E+03 0.  0.
        -11    1    3    3    0    0  0.35165122457E+02  0.33665077617E+02 -0.19916529750E+02  0.52598397751E+02  0.51100000000E-03 0. -1.
         23    2    1    0    0    0  0.25923956774E+02 -0.69498108188E+01 -0.14181573205E+02  0.94644301625E+02  0.89644159912E+02 0.  0.
         11    1    3    3    0    0 -0.92411656830E+01 -0.40614888436E+02  0.57349565457E+01  0.42045903875E+02  0.51100000000E-03 0.  1.
         22    1    1    0    0    0 -0.25923956774E+02  0.69498108188E+01  0.14181573205E+02  0.30355698375E+02  0.00000000000E+00 0. -1.
</event>
<event>
 5    1  0.1691145E-003  0.9118800E+02  0.7818608E-02  0.1130116E+00
         25   -1    0    0    0    0  0.00000000000E+00  0.00000000000E+00  0.99999998245E-14  0.12500000000E+03  0.12500000000E+03 0.  0.
        -11    1    3    3    0    0  0.16810465118E+02 -0.39241516167E+02 -0.26356759315E+02  0.50171377203E+02  0.51100000000E-03 0. -1.
         23    2    1    0    0    0 -0.14270786048E+02 -0.25050367581E+02  0.40213515060E+01  0.95890765755E+02  0.91365701655E+02 0.  0.
         11    1    3    3    0    0 -0.31081251167E+02  0.14191148586E+02  0.30378110821E+02  0.45719388553E+02  0.51100000000E-03 0.  1.
         22    1    1    0    0    0  0.14270786048E+02  0.25050367581E+02 -0.40213515060E+01  0.29109234245E+02  0.00000000000E+00 0. -1.
</event>
<event>
 5    1  0.1691145E-003  0.9118800E+02  0.7818608E-02  0.1130116E+00
         25   -1    0    0    0    0  0.00000000000E+00  0.00000000000E+00  0.99999998245E-14  0.12500000000E+03  0.12500000000E+03 0.  0.
        -11    1    3    3    0    0 -0.49635769601E+02  0.59996610324E+01 -0.21244742396E+02  0.54323518260E+02  0.51100000000E-03 0. -1.
         23    2    1    0    0    0 -0.23957139964E+02  0.18864569743E+02  0.60128697365E+01  0.93919923596E+02  0.88628330115E+02 0.  0.
         11    1    3    3    0    0  0.25678629637E+02  0.12864908710E+02  0.27257612132E+02  0.39596405337E+02  0.51100000000E-03 0.  1.
         22    1    1    0    0    0  0.23957139964E+02 -0.18864569743E+02 -0.60128697365E+01  0.31080076404E+02  0.00000000000E+00 0. -1.
</event>
<event>
 5    1  0.1691145E-003  0.9118800E+02  0.7818608E-02  0.1130116E+00
         25   -1    0    0    0    0  0.00000000000E+00  0.00000000000E+00  0.99999998245E-14  0.12500000000E+03  0.12500000000E+03 0.  0.
        -11    1    3    3    0    0 -0.18175884518E+02 -0.71696402698E+01  0.50783837559E+02  0.54412909103E+02  0.51100000000E-03 0. -1.
         23    2    1    0    0    0  0.12565405232E+02  0.50437145950E+01  0.25788037713E+02  0.95873528284E+02  0.91342115538E+02 0.  0.
         11    1    3    3    0    0  0.30741289751E+02  0.12213354865E+02 -0.24995799846E+02  0.41460619180E+02  0.51100000000E-03 0.  1.
         22    1    1    0    0    0 -0.12565405232E+02 -0.50437145950E+01 -0.25788037713E+02  0.29126471716E+02  0.00000000000E+00 0. -1.
</event>
<event>
 5    1  0.1691145E-003  0.9118800E+02  0.7818608E-02  0.1130116E+00
         25   -1    0    0    0    0  0.00000000000E+00  0.00000000000E+00  0.99999998245E-14  0.12500000000E+03  0.12500000000E+03 0.  0.
        -11    1    3    3    0    0  0.22546314067E+02 -0.22453225096E+02 -0.16692604782E+02  0.35932250833E+02  0.51100000000E-03 0.  1.
         23    2    1    0    0    0 -0.22160435711E+02 -0.76767905753E+01  0.18837542164E+02  0.94918925897E+02  0.90026282130E+02 0.  0.
         11    1    3    3    0    0 -0.44706749778E+02  0.14776434520E+02  0.35530146946E+02  0.58986675064E+02  0.51100000000E-03 0. -1.
         22    1    1    0    0    0  0.22160435711E+02  0.76767905753E+01 -0.18837542164E+02  0.30081074103E+02  0.00000000000E+00 0. -1.
</event>
<event>
 5    1  0.1691145E-003  0.9118800E+02  0.7818608E-02  0.1130116E+00
         25   -1    0    0    0    0  0.00000000000E+00  0.00000000000E+00  0.99999998245E-14  0.12500000000E+03  0.12500000000E+03 0.  0.
        -11    1    3    3    0    0  0.24415788161E+02  0.14009573720E+02 -0.21864656949E+02  0.35643542067E+02  0.51100000000E-03 0.  1.
         23    2    1    0    0    0 -0.64112678585E+01 -0.10689305649E+02  0.25078316900E+02  0.96994864946E+02  0.92863966298E+02 0.  0.
         11    1    3    3    0    0 -0.30827056019E+02 -0.24698879369E+02  0.46942973850E+02  0.61351322879E+02  0.51100000000E-03 0. -1.
         22    1    1    0    0    0  0.64112678585E+01  0.10689305649E+02 -0.25078316900E+02  0.28005135054E+02  0.00000000000E+00 0. -1.
</event>
<event>
 5    1  0.1691145E-003  0.9118800E+02  0.7818608E-02  0.1130116E+00
         25   -1    0    0    0    0  0.00000000000E+00  0.00000000000E+00  0.99999998245E-14  0.12500000000E+03  0.12500000000E+03 0.  0.
        -11    1    3    3    0    0  0.34292979935E+02  0.48322804109E+02  0.12631596925E+02  0.60585964637E+02  0.51100000000E-03 0. -1.
         23    2    1    0    0    0  0.76585088894E+01  0.24954234881E+02  0.12591371777E+02  0.96018812306E+02  0.91540718134E+02 0.  0.
         11    1    3    3    0    0 -0.26634471046E+02 -0.23368569228E+02 -0.40225147986E-01  0.35432847669E+02  0.51100000000E-03 0.  1.
         22    1    1    0    0    0 -0.76585088894E+01 -0.24954234881E+02 -0.12591371777E+02  0.28981187694E+02  0.00000000000E+00 0. -1.
</event>
<event>
 5    1  0.1691145E-003  0.9118800E+02  0.7818608E-02  0.1130116E+00
         25   -1    0    0    0    0  0.00000000000E+00  0.00000000000E+00  0.99999998245E-14  0.12500000000E+03  0.12500000000E+03 0.  0.
        -11    1    3    3    0    0  0.54992895064E+02  0.16296902736E+02  0.79771318592E+01  0.57908912779E+02  0.51100000000E-03 0. -1.
         23    2    1    0    0    0  0.17122323933E+02  0.17529480773E+02  0.14748366179E+02  0.96399808078E+02  0.92059502602E+02 0.  0.
         11    1    3    3    0    0 -0.37870571131E+02  0.12325780366E+01  0.67712343200E+01  0.38490895298E+02  0.51100000000E-03 0.  1.
         22    1    1    0    0    0 -0.17122323933E+02 -0.17529480773E+02 -0.14748366179E+02  0.28600191922E+02  0.00000000000E+00 0. -1.
</event>
<event>
 5    1  0.1691145E-003  0.9118800E+02  0.7818608E-02  0.1130116E+00
         25   -1    0    0    0    0  0.00000000000E+00  0.00000000000E+00  0.99999998245E-14  0.12500000000E+03  0.12500000000E+03 0.  0.
        -11    1    3    3    0    0 -0.66067348040E+00 -0.18969091308E+02  0.29479349981E+02  0.35061303314E+02  0.51100000000E-03 0. -1.
         23    2    1    0    0    0 -0.22196669840E+01 -0.58327897809E+01 -0.29162759104E+02  0.95176940520E+02  0.90383821174E+02 0.  0.
         11    1    3    3    0    0 -0.15589935036E+01  0.13136301527E+02 -0.58642109085E+02  0.60115637207E+02  0.51100000000E-03 0.  1.
         22    1    1    0    0    0  0.22196669840E+01  0.58327897809E+01  0.29162759104E+02  0.29823059480E+02  0.00000000000E+00 0.  1.
</event>
<event>
 5    1  0.1691145E-003  0.9118800E+02  0.7818608E-02  0.1130116E+00
         25   -1    0    0    0    0  0.00000000000E+00  0.00000000000E+00  0.99999998245E-14  0.12500000000E+03  0.12500000000E+03 0.  0.
        -11    1    3    3    0    0 -0.54438854900E+01 -0.67127858026E+01 -0.42095847098E+02  0.42973919132E+02  0.51100000000E-03 0.  1.
         23    2    1    0    0    0  0.26777161388E+02 -0.58851187293E+01  0.19056511545E+01  0.97517596524E+02  0.93564946059E+02 0.  0.
         11    1    3    3    0    0  0.32221046878E+02  0.82766707327E+00  0.44001498252E+02  0.54543677392E+02  0.51100000000E-03 0. -1.
         22    1    1    0    0    0 -0.26777161388E+02  0.58851187293E+01 -0.19056511545E+01  0.27482403476E+02  0.00000000000E+00 0.  1.
</event>
<event>
 5    1  0.1691145E-003  0.9118800E+02  0.7818608E-02  0.1130116E+00
         25   -1    0    0    0    0  0.00000000000E+00  0.00000000000E+00  0.99999998245E-14  0.12500000000E+03  0.12500000000E+03 0.  0.
        -11    1    3    3    0    0 -0.21228766905E+02 -0.31613961328E+02  0.21775938062E+02  0.43866782123E+02  0.51100000000E-03 0.  1.
         23    2    1    0    0    0  0.22011118376E+02 -0.20603445209E+02 -0.26492516986E+01  0.94734345849E+02  0.89769629955E+02 0.  0.
         11    1    3    3    0    0  0.43239885280E+02  0.11010516118E+02 -0.24425189760E+02  0.50867563725E+02  0.51100000000E-03 0. -1.
         22    1    1    0    0    0 -0.22011118376E+02  0.20603445209E+02  0.26492516986E+01  0.30265654151E+02  0.00000000000E+00 0.  1.
</event>
<event>
 5    1  0.1691145E-003  0.9118800E+02  0.7818608E-02  0.1130116E+00
         25   -1    0    0    0    0  0.00000000000E+00  0.00000000000E+00  0.99999998245E-14  0.12500000000E+03  0.12500000000E+03 0.  0.
        -11    1    3    3    0    0  0.26304929694E+02 -0.38646183552E+01 -0.31470993484E+02  0.41198398420E+02  0.51100000000E-03 0.  1.
         23    2    1    0    0    0 -0.17935727854E+02 -0.22250529246E+02 -0.48332299213E+01  0.96014891809E+02  0.91535364490E+02 0.  0.
         11    1    3    3    0    0 -0.44240657548E+02 -0.18385910891E+02  0.26637763563E+02  0.54816493389E+02  0.51100000000E-03 0. -1.
         22    1    1    0    0    0  0.17935727854E+02  0.22250529246E+02  0.48332299213E+01  0.28985108191E+02  0.00000000000E+00 0. -1.
</event>
<event>
 5    1  0.1691145E-003  0.9118800E+02  0.7818608E-02  0.1130116E+00
         25   -1    0    0    0    0  0.00000000000E+00  0.00000000000E+00  0.99999998245E-14  0.12500000000E+03  0.12500000000E+03 0.  0.
        -11    1    3    3    0    0  0.13230653600E+02 -0.26892371164E+02 -0.47477683493E+02  0.56146061764E+02  0.51100000000E-03 0.  1.
         23    2    1    0    0    0  0.14521004863E+02  0.48374290359E+01 -0.27095715986E+02  0.93880261462E+02  0.88572373602E+02 0.  0.
         11    1    3    3    0    0  0.12903512632E+01  0.31729800200E+02  0.20381967507E+02  0.37734199698E+02  0.51100000000E-03 0. -1.
         22    1    1    0    0    0 -0.14521004863E+02 -0.48374290359E+01  0.27095715986E+02  0.31119738538E+02  0.00000000000E+00 0.  1.
</event>
<event>
 5    1  0.1691145E-003  0.9118800E+02  0.7818608E-02  0.1130116E+00
         25   -1    0    0    0    0  0.00000000000E+00  0.00000000000E+00  0.99999998245E-14  0.12500000000E+03  0.12500000000E+03 0.  0.
        -11    1    3    3    0    0  0.38560919316E+01  0.31217649999E+02  0.15325627158E+02  0.34989798006E+02  0.51100000000E-03 0.  1.
         23    2    1    0    0    0  0.22662595491E+02 -0.19344686771E+02 -0.85760057844E+01  0.93994226088E+02  0.88733063297E+02 0.  0.
         11    1    3    3    0    0  0.18806503559E+02 -0.50562336770E+02 -0.23901632943E+02  0.59004428082E+02  0.51100000000E-03 0. -1.
         22    1    1    0    0    0 -0.22662595491E+02  0.19344686771E+02  0.85760057844E+01  0.31005773912E+02  0.00000000000E+00 0. -1.
</event>
<event>
 5    1  0.1691145E-003  0.9118800E+02  0.7818608E-02  0.1130116E+00
         25   -1    0    0    0    0  0.00000000000E+00  0.00000000000E+00  0.99999998245E-14  0.12500000000E+03  0.12500000000E+03 0.  0.
        -11    1    3    3    0    0 -0.32094470375E+02 -0.11878655291E+02  0.34980692920E+02  0.48936758757E+02  0.51100000000E-03 0.  1.
         23    2    1    0    0    0 -0.15068351037E+01 -0.28223819201E+02  0.22127519153E+01  0.96649501003E+02  0.92397918000E+02 0.  0.
         11    1    3    3    0    0  0.30587635271E+02 -0.16345163910E+02 -0.32767941005E+02  0.47712742247E+02  0.51100000000E-03 0. -1.
         22    1    1    0    0    0  0.15068351037E+01  0.28223819201E+02 -0.22127519153E+01  0.28350498997E+02  0.00000000000E+00 0.  1.
</event>
<event>
 5    1  0.1691145E-003  0.9118800E+02  0.7818608E-02  0.1130116E+00
         25   -1    0    0    0    0  0.00000000000E+00  0.00000000000E+00  0.99999998245E-14  0.12500000000E+03  0.12500000000E+03 0.  0.
        -11    1    3    3    0    0 -0.40982082798E+02 -0.16755595605E+02 -0.26612935308E+02  0.51657810838E+02  0.51100000000E-03 0. -1.
         23    2    1    0    0    0 -0.96578261355E+01  0.12577086817E+02 -0.25963752037E+02  0.94576766472E+02  0.89549939241E+02 0.  0.
         11    1    3    3    0    0  0.31324256663E+02  0.29332682422E+02  0.64918327182E+00  0.42918955634E+02  0.51100000000E-03 0.  1.
         22    1    1    0    0    0  0.96578261355E+01 -0.12577086817E+02  0.25963752037E+02  0.30423233528E+02  0.00000000000E+00 0.  1.
</event>
<event>
 5    1  0.1691145E-003  0.9118800E+02  0.7818608E-02  0.1130116E+00
         25   -1    0    0    0    0  0.00000000000E+00  0.00000000000E+00  0.99999998245E-14  0.12500000000E+03  0.12500000000E+03 0.  0.
        -11    1    3    3    0    0 -0.32970012025E+02  0.33933427831E+02  0.32971716472E+02  0.57668304160E+02  0.51100000000E-03 0.  1.
         23    2    1    0    0    0 -0.20577794332E+01  0.26272392123E+02  0.10565015903E+02  0.96608229976E+02  0.92342067845E+02 0.  0.
         11    1    3    3    0    0  0.30912232592E+02 -0.76610357073E+01 -0.22406700569E+02  0.38939925816E+02  0.51100000000E-03 0. -1.
         22    1    1    0    0    0  0.20577794332E+01 -0.26272392123E+02 -0.10565015903E+02  0.28391770024E+02  0.00000000000E+00 0.  1.
</event>
<event>
 5    1  0.1691145E-003  0.9118800E+02  0.7818608E-02  0.1130116E+00
         25   -1    0    0    0    0  0.00000000000E+00  0.00000000000E+00  0.99999998245E-14  0.12500000000E+03  0.12500000000E+03 0.  0.
        -11    1    3    3    0    0  0.40519211931E+02  0.14214439921E+02  0.35165854612E+02  0.55502199674E+02  0.51100000000E-03 0. -1.
         23    2    1    0    0    0  0.27788368462E+02 -0.96068816093E+01  0.65005872141E+01  0.94887822560E+02  0.89983085300E+02 0.  0.
         11    1    3    3    0    0 -0.12730843469E+02 -0.23821321530E+02 -0.28665267398E+02  0.39385622886E+02  0.51100000000E-03 0.  1.
         22    1    1    0    0    0 -0.27788368462E+02  0.96068816093E+01 -0.65005872141E+01  0.30112177440E+02  0.00000000000E+00 0. -1.
</event>
<event>
 4    1  0.1691145E-003  0.9118800E+02  0.7818608E-02  0.1130116E+00
         25   -1    0    0    0    0  0.00000000000E+00  0.00000000000E+00  0.99999998245E-14  0.12500000000E+03  0.12500000000E+03 0.  0.
        -11    1    1    0    0    0  0.15578184532E+02  0.66023217023E+00  0.17065355352E+02  0.23115840746E+02  0.51100000000E-03 0.  1.
         11    1    1    0    0    0  0.10440125362E+02  0.29992400552E+02  0.27394719098E+02  0.41940564412E+02  0.51100000000E-03 0. -1.
         22    1    1    0    0    0 -0.26018309894E+02 -0.30652632722E+02 -0.44460074450E+02  0.59943594843E+02  0.00000000000E+00 0.  1.
</event>
<event>
 5    1  0.1691145E-003  0.9118800E+02  0.7818608E-02  0.1130116E+00
         25   -1    0    0    0    0  0.00000000000E+00  0.00000000000E+00  0.99999998245E-14  0.12500000000E+03  0.12500000000E+03 0.  0.
        -11    1    3    3    0    0  0.25575912580E+02 -0.31852595900E+01  0.36905772755E+02  0.45014544826E+02  0.51100000000E-03 0. -1.
         23    2    1    0    0    0 -0.19378235971E+02 -0.13927506673E+02  0.18665082659E+02  0.94703518651E+02  0.89726694259E+02 0.  0.
         11    1    3    3    0    0 -0.44954148551E+02 -0.10742247083E+02 -0.18240690096E+02  0.49688973825E+02  0.51100000000E-03 0.  1.
         22    1    1    0    0    0  0.19378235971E+02  0.13927506673E+02 -0.18665082659E+02  0.30296481349E+02  0.00000000000E+00 0. -1.
</event>
<event>
 5    1  0.1691145E-003  0.9118800E+02  0.7818608E-02  0.1130116E+00
         25   -1    0    0    0    0  0.00000000000E+00  0.00000000000E+00  0.99999998245E-14  0.12500000000E+03  0.12500000000E+03 0.  0.
        -11    1    3    3    0    0 -0.65583726764E+00 -0.86987809006E+01 -0.58327129528E+02  0.58975867530E+02  0.51100000000E-03 0.  1.
         23    2    1    0    0    0 -0.51459513321E+01 -0.17492441201E+02 -0.23042494584E+02  0.95615941891E+02  0.90988930496E+02 0.  0.
         11    1    3    3    0    0 -0.44901140645E+01 -0.87936603003E+01  0.35284634944E+02  0.36640074361E+02  0.51100000000E-03 0. -1.
         22    1    1    0    0    0  0.51459513321E+01  0.17492441201E+02  0.23042494584E+02  0.29384058109E+02  0.00000000000E+00 0.  1.
</event>
<event>
 5    1  0.1691145E-003  0.9118800E+02  0.7818608E-02  0.1130116E+00
         25   -1    0    0    0    0  0.00000000000E+00  0.00000000000E+00  0.99999998245E-14  0.12500000000E+03  0.12500000000E+03 0.  0.
        -11    1    3    3    0    0 -0.37810780696E+02  0.99508672889E+01  0.28872240497E+02  0.48603304088E+02  0.51100000000E-03 0.  1.
         23    2    1    0    0    0 -0.17685558154E+02  0.22148898307E+02 -0.10749213768E+02  0.94686665309E+02  0.89703212469E+02 0.  0.
         11    1    3    3    0    0  0.20125222542E+02  0.12198031018E+02 -0.39621454265E+02  0.46083361221E+02  0.51100000000E-03 0. -1.
         22    1    1    0    0    0  0.17685558154E+02 -0.22148898307E+02  0.10749213768E+02  0.30313334691E+02  0.00000000000E+00 0. -1.
</event>
<event>
 5    1  0.1691145E-003  0.9118800E+02  0.7818608E-02  0.1130116E+00
         25   -1    0    0    0    0  0.00000000000E+00  0.00000000000E+00  0.99999998245E-14  0.12500000000E+03  0.12500000000E+03 0.  0.
        -11    1    3    3    0    0  0.59588981363E+02  0.12662446662E+02 -0.61775435849E+01  0.61231905902E+02  0.51100000000E-03 0. -1.
         23    2    1    0    0    0  0.33322029702E+02  0.21579894730E+01  0.41578835076E+01  0.91350296030E+02  0.84926874471E+02 0.  0.
         11    1    3    3    0    0 -0.26266951662E+02 -0.10504457189E+02  0.10335427093E+02  0.30118390128E+02  0.51100000000E-03 0.  1.
         22    1    1    0    0    0 -0.33322029702E+02 -0.21579894730E+01 -0.41578835076E+01  0.33649703970E+02  0.00000000000E+00 0. -1.
</event>
<event>
 5    1  0.1691145E-003  0.9118800E+02  0.7818608E-02  0.1130116E+00
         25   -1    0    0    0    0  0.00000000000E+00  0.00000000000E+00  0.99999998245E-14  0.12500000000E+03  0.12500000000E+03 0.  0.
        -11    1    3    3    0    0 -0.54380140343E+01 -0.68314613830E+01 -0.58544704493E+02  0.59192256974E+02  0.51100000000E-03 0. -1.
         23    2    1    0    0    0 -0.13647041704E+02 -0.11430819128E+02 -0.23263424361E+02  0.95706787711E+02  0.91113648416E+02 0.  0.
         11    1    3    3    0    0 -0.82090276702E+01 -0.45993577447E+01  0.35281280131E+02  0.36514530737E+02  0.51100000000E-03 0.  1.
         22    1    1    0    0    0  0.13647041704E+02  0.11430819128E+02  0.23263424361E+02  0.29293212289E+02  0.00000000000E+00 0. -1.
</event>
<event>
 5    1  0.1691145E-003  0.9118800E+02  0.7818608E-02  0.1130116E+00
         25   -1    0    0    0    0  0.00000000000E+00  0.00000000000E+00  0.99999998245E-14  0.12500000000E+03  0.12500000000E+03 0.  0.
        -11    1    3    3    0    0  0.42545040294E+02 -0.39697091903E+01  0.27952461227E+02  0.51060543805E+02  0.51100000000E-03 0. -1.
         23    2    1    0    0    0  0.14528309304E+02  0.24381596284E+02  0.87783915950E+01  0.95291513543E+02  0.90542135969E+02 0.  0.
         11    1    3    3    0    0 -0.28016730991E+02  0.28351305474E+02 -0.19174069632E+02  0.44230969739E+02  0.51100000000E-03 0.  1.
         22    1    1    0    0    0 -0.14528309304E+02 -0.24381596284E+02 -0.87783915950E+01  0.29708486457E+02  0.00000000000E+00 0. -1.
</event>
<event>
 5    1  0.1691145E-003  0.9118800E+02  0.7818608E-02  0.1130116E+00
         25   -1    0    0    0    0  0.00000000000E+00  0.00000000000E+00  0.99999998245E-14  0.12500000000E+03  0.12500000000E+03 0.  0.
        -11    1    3    3    0    0 -0.54399012726E+02 -0.11139660160E+02  0.17754424777E+02  0.58297205880E+02  0.51100000000E-03 0.  1.
         23    2    1    0    0    0 -0.17811166370E+02 -0.67078265549E+01  0.22582001489E+02  0.95467316820E+02  0.90784520734E+02 0.  0.
         11    1    3    3    0    0  0.36587846356E+02  0.44318336052E+01  0.48275767124E+01  0.37170110939E+02  0.51100000000E-03 0. -1.
         22    1    1    0    0    0  0.17811166370E+02  0.67078265549E+01 -0.22582001489E+02  0.29532683180E+02  0.00000000000E+00 0.  1.
</event>
<event>
 5    1  0.1691145E-003  0.9118800E+02  0.7818608E-02  0.1130116E+00
         25   -1    0    0    0    0  0.00000000000E+00  0.00000000000E+00  0.99999998245E-14  0.12500000000E+03  0.12500000000E+03 0.  0.
        -11    1    3    3    0    0 -0.10376533886E+02  0.33900183425E+02  0.31224104447E+02  0.47242349545E+02  0.51100000000E-03 0.  1.
         23    2    1    0    0    0 -0.24914180529E+02 -0.85357132164E+01  0.12449715460E+02  0.95869771601E+02  0.91336974442E+02 0.  0.
         11    1    3    3    0    0 -0.14537646644E+02 -0.42435896641E+02 -0.18774388988E+02  0.48627422056E+02  0.51100000000E-03 0. -1.
         22    1    1    0    0    0  0.24914180529E+02  0.85357132164E+01 -0.12449715460E+02  0.29130228399E+02  0.00000000000E+00 0. -1.
</event>
<event>
 5    1  0.1691145E-003  0.9118800E+02  0.7818608E-02  0.1130116E+00
         25   -1    0    0    0    0  0.00000000000E+00  0.00000000000E+00  0.99999998245E-14  0.12500000000E+03  0.12500000000E+03 0.  0.
        -11    1    3    3    0    0  0.46525957796E+02  0.33033140365E+02  0.21675667070E+02  0.61038411303E+02  0.51100000000E-03 0. -1.
         23    2    1    0    0    0  0.20350551983E+02  0.20756650763E+02  0.23027566963E+01  0.95840332558E+02  0.91296676498E+02 0.  0.
         11    1    3    3    0    0 -0.26175405813E+02 -0.12276489603E+02 -0.19372910374E+02  0.34801921255E+02  0.51100000000E-03 0.  1.
         22    1    1    0    0    0 -0.20350551983E+02 -0.20756650763E+02 -0.23027566963E+01  0.29159667442E+02  0.00000000000E+00 0. -1.
</event>
<event>
 5    1  0.1691145E-003  0.9118800E+02  0.7818608E-02  0.1130116E+00
         25   -1    0    0    0    0  0.00000000000E+00  0.00000000000E+00  0.99999998245E-14  0.12500000000E+03  0.12500000000E+03 0.  0.
        -11    1    3    3    0    0 -0.26608693666E+02 -0.29539026200E+02 -0.13353455413E+00  0.39756690999E+02  0.51100000000E-03 0.  1.
         23    2    1    0    0    0  0.11733585691E+02 -0.18944390822E+01 -0.27967449082E+02  0.94611776282E+02  0.89598795028E+02 0.  0.
         11    1    3    3    0    0  0.38342279357E+02  0.27644587118E+02 -0.27833914528E+02  0.54855085283E+02  0.51100000000E-03 0. -1.
         22    1    1    0    0    0 -0.11733585691E+02  0.18944390822E+01  0.27967449082E+02  0.30388223718E+02  0.00000000000E+00 0. -1.
</event>
<event>
 5    1  0.1691145E-003  0.9118800E+02  0.7818608E-02  0.1130116E+00
         25   -1    0    0    0    0  0.00000000000E+00  0.00000000000E+00  0.99999998245E-14  0.12500000000E+03  0.12500000000E+03 0.  0.
        -11    1    3    3    0    0  0.34223355199E+02 -0.13187911974E+02  0.49302372190E+02  0.61448213702E+02  0.51100000000E-03 0.  1.
         23    2    1    0    0    0  0.22037563227E+02 -0.14720079973E+01  0.20385760861E+02  0.94943382652E+02  0.90060233528E+02 0.  0.
         11    1    3    3    0    0 -0.12185791972E+02  0.11715903977E+02 -0.28916611330E+02  0.33495168951E+02  0.51100000000E-03 0. -1.
         22    1    1    0    0    0 -0.22037563227E+02  0.14720079973E+01 -0.20385760861E+02  0.30056617348E+02  0.00000000000E+00 0.  1.
</event>
<event>
 5    1  0.1691145E-003  0.9118800E+02  0.7818608E-02  0.1130116E+00
         25   -1    0    0    0    0  0.00000000000E+00  0.00000000000E+00  0.99999998245E-14  0.12500000000E+03  0.12500000000E+03 0.  0.
        -11    1    3    3    0    0 -0.46327917613E+02  0.75563360296E+01 -0.30119890953E+02  0.55772591798E+02  0.51100000000E-03 0. -1.
         23    2    1    0    0    0 -0.27252012671E+02 -0.46547880575E+01  0.43452481454E+01  0.97013924392E+02  0.92889617817E+02 0.  0.
         11    1    3    3    0    0  0.19075904943E+02 -0.12211124087E+02  0.34465139098E+02  0.41241332594E+02  0.51100000000E-03 0.  1.
         22    1    1    0    0    0  0.27252012671E+02  0.46547880575E+01 -0.43452481454E+01  0.27986075608E+02  0.00000000000E+00 0. -1.
</event>
<event>
 5    1  0.1691145E-003  0.9118800E+02  0.7818608E-02  0.1130116E+00
         25   -1    0    0    0    0  0.00000000000E+00  0.00000000000E+00  0.99999998245E-14  0.12500000000E+03  0.12500000000E+03 0.  0.
        -11    1    3    3    0    0  0.33141700048E+02 -0.35156299414E+01 -0.20508279653E+02  0.39132102812E+02  0.51100000000E-03 0. -1.
         23    2    1    0    0    0 -0.39140709547E+01 -0.25306673095E+02  0.15377491053E+02  0.95130033718E+02  0.90318926198E+02 0.  0.
         11    1    3    3    0    0 -0.37055771003E+02 -0.21791043154E+02  0.35885770706E+02  0.55997930906E+02  0.51100000000E-03 0.  1.
         22    1    1    0    0    0  0.39140709547E+01  0.25306673095E+02 -0.15377491053E+02  0.29869966282E+02  0.00000000000E+00 0.  1.
</event>
<event>
 5    1  0.1691145E-003  0.9118800E+02  0.7818608E-02  0.1130116E+00
         25   -1    0    0    0    0  0.00000000000E+00  0.00000000000E+00  0.99999998245E-14  0.12500000000E+03  0.12500000000E+03 0.  0.
        -11    1    3    3    0    0 -0.17889602872E+02 -0.35365282448E+02 -0.14936488757E+02  0.42353745882E+02  0.51100000000E-03 0.  1.
         23    2    1    0    0    0  0.26670340224E+02 -0.65466016438E+01 -0.10475137504E+02  0.95607933954E+02  0.90977928579E+02 0.  0.
         11    1    3    3    0    0  0.44559943095E+02  0.28818680804E+02  0.44613512524E+01  0.53254188072E+02  0.51100000000E-03 0. -1.
         22    1    1    0    0    0 -0.26670340224E+02  0.65466016438E+01  0.10475137504E+02  0.29392066046E+02  0.00000000000E+00 0. -1.
</event>
<event>
 5    1  0.1691145E-003  0.9118800E+02  0.7818608E-02  0.1130116E+00
         25   -1    0    0    0    0  0.00000000000E+00  0.00000000000E+00  0.99999998245E-14  0.12500000000E+03  0.12500000000E+03 0.  0.
        -11    1    3    3    0    0  0.91774032050E+01  0.13078061712E+02  0.32298474968E+02  0.36034038259E+02  0.51100000000E-03 0.  1.
         23    2    1    0    0    0 -0.15550359014E+02  0.10755708286E+02 -0.22148724627E+02  0.95878445632E+02  0.91348844590E+02 0.  0.
         11    1    3    3    0    0 -0.24727762219E+02 -0.23223534256E+01 -0.54447199595E+02  0.59844407373E+02  0.51100000000E-03 0. -1.
         22    1    1    0    0    0  0.15550359014E+02 -0.10755708286E+02  0.22148724627E+02  0.29121554368E+02  0.00000000000E+00 0. -1.
</event>
<event>
 5    1  0.1691145E-003  0.9118800E+02  0.7818608E-02  0.1130116E+00
         25   -1    0    0    0    0  0.00000000000E+00  0.00000000000E+00  0.99999998245E-14  0.12500000000E+03  0.12500000000E+03 0.  0.
        -11    1    3    3    0    0 -0.10306705064E+02 -0.27017953366E+02 -0.33840272015E+02  0.44512492445E+02  0.51100000000E-03 0. -1.
         23    2    1    0    0    0 -0.22529861434E+02 -0.11017715114E+02  0.13900681284E+02  0.96325732046E+02  0.91958865866E+02 0.  0.
         11    1    3    3    0    0 -0.12223156370E+02  0.16000238251E+02  0.47740953299E+02  0.51813239601E+02  0.51100000000E-03 0.  1.
         22    1    1    0    0    0  0.22529861434E+02  0.11017715114E+02 -0.13900681284E+02  0.28674267954E+02  0.00000000000E+00 0.  1.
</event>
<event>
 5    1  0.1691145E-003  0.9118800E+02  0.7818608E-02  0.1130116E+00
         25   -1    0    0    0    0  0.00000000000E+00  0.00000000000E+00  0.99999998245E-14  0.12500000000E+03  0.12500000000E+03 0.  0.
        -11    1    3    3    0    0 -0.59497085712E+01  0.11842668420E+02 -0.56814321109E+02  0.58339651273E+02  0.51100000000E-03 0. -1.
         23    2    1    0    0    0  0.11595357993E+02  0.12793491610E+02 -0.26771018001E+02  0.93143867790E+02  0.87526949835E+02 0.  0.
         11    1    3    3    0    0  0.17545066564E+02  0.95082319026E+00  0.30043303107E+02  0.34804216517E+02  0.51100000000E-03 0.  1.
         22    1    1    0    0    0 -0.11595357993E+02 -0.12793491610E+02  0.26771018001E+02  0.31856132210E+02  0.00000000000E+00 0. -1.
</event>
<event>
 5    1  0.1691145E-003  0.9118800E+02  0.7818608E-02  0.1130116E+00
         25   -1    0    0    0    0  0.00000000000E+00  0.00000000000E+00  0.99999998245E-14  0.12500000000E+03  0.12500000000E+03 0.  0.
        -11    1    3    3    0    0  0.34851124803E+01 -0.36012315981E+02  0.13054603883E+02  0.38463691894E+02  0.51100000000E-03 0. -1.
         23    2    1    0    0    0 -0.26373126809E+02  0.75214998071E+01 -0.96479560420E+01  0.95927713664E+02  0.91416237157E+02 0.  0.
         11    1    3    3    0    0 -0.29858239289E+02  0.43533815789E+02 -0.22702559925E+02  0.57464021770E+02  0.51100000000E-03 0.  1.
         22    1    1    0    0    0  0.26373126809E+02 -0.75214998071E+01  0.96479560420E+01  0.29072286336E+02  0.00000000000E+00 0.  1.
</event>
<event>
 5    1  0.1691145E-003  0.9118800E+02  0.7818608E-02  0.1130116E+00
         25   -1    0    0    0    0  0.00000000000E+00  0.00000000000E+00  0.99999998245E-14  0.12500000000E+03  0.12500000000E+03 0.  0.
        -11    1    3    3    0    0  0.27565365553E+02  0.18919102501E+02  0.42880183258E+02  0.54373632709E+02  0.51100000000E-03 0. -1.
         23    2    1    0    0    0  0.17857925329E+02 -0.13231389690E+02  0.20752577058E+02  0.94592030243E+02  0.89571242934E+02 0.  0.
         11    1    3    3    0    0 -0.97074402235E+01 -0.32150492191E+02 -0.22127606200E+02  0.40218397534E+02  0.51100000000E-03 0.  1.
         22    1    1    0    0    0 -0.17857925329E+02  0.13231389690E+02 -0.20752577058E+02  0.30407969757E+02  0.00000000000E+00 0. -1.
</event>
<event>
 5    1  0.1691145E-003  0.9118800E+02  0.7818608E-02  0.1130116E+00
         25   -1    0    0    0    0  0.00000000000E+00  0.00000000000E+00  0.99999998245E-14  0.12500000000E+03  0.12500000000E+03 0.  0.
        -11    1    3    3    0    0 -0.29337743272E+02  0.29030894637E+02  0.15061503326E+02  0.43935690576E+02  0.51100000000E-03 0.  1.
         23    2    1    0    0    0 -0.21614881290E+02 -0.10553147311E+02 -0.17073371223E+02  0.95503016828E+02  0.90833662301E+02 0.  0.
         11    1    3    3    0    0  0.77228619821E+01 -0.39584041949E+02 -0.32134874549E+02  0.51567326251E+02  0.51100000000E-03 0. -1.
         22    1    1    0    0    0  0.21614881290E+02  0.10553147311E+02  0.17073371223E+02  0.29496983172E+02  0.00000000000E+00 0. -1.
</event>
<event>
 5    1  0.1691145E-003  0.9118800E+02  0.7818608E-02  0.1130116E+00
         25   -1    0    0    0    0  0.00000000000E+00  0.00000000000E+00  0.99999998245E-14  0.12500000000E+03  0.12500000000E+03 0.  0.
        -11    1    3    3    0    0 -0.78472077407E+01  0.21687032289E+02  0.31529537080E+02  0.39064277128E+02  0.51100000000E-03 0.  1.
         23    2    1    0    0    0 -0.52623646096E+01  0.16916729703E+02 -0.24172751873E+02  0.95030179209E+02  0.90180623208E+02 0.  0.
         11    1    3    3    0    0  0.25848431310E+01 -0.47703025857E+01 -0.55702288953E+02  0.55965902080E+02  0.51100000000E-03 0. -1.
         22    1    1    0    0    0  0.52623646096E+01 -0.16916729703E+02  0.24172751873E+02  0.29969820791E+02  0.00000000000E+00 0. -1.
</event>
<event>
 5    1  0.1691145E-003  0.9118800E+02  0.7818608E-02  0.1130116E+00
         25   -1    0    0    0    0  0.00000000000E+00  0.00000000000E+00  0.99999998245E-14  0.12500000000E+03  0.12500000000E+03 0.  0.
        -11    1    3    3    0    0  0.90264787011E+01 -0.50050158625E+02  0.31151810783E+02  0.59640011833E+02  0.51100000000E-03 0. -1.
         23    2    1    0    0    0  0.16898103898E+02 -0.26022199041E+02  0.10637825557E+02  0.92199632764E+02  0.86167906966E+02 0.  0.
         11    1    3    3    0    0  0.78716251964E+01  0.24027959583E+02 -0.20513985227E+02  0.32559620930E+02  0.51100000000E-03 0.  1.
         22    1    1    0    0    0 -0.16898103898E+02  0.26022199041E+02 -0.10637825557E+02  0.32800367236E+02  0.00000000000E+00 0. -1.
</event>
<event>
 5    1  0.1691145E-003  0.9118800E+02  0.7818608E-02  0.1130116E+00
         25   -1    0    0    0    0  0.00000000000E+00  0.00000000000E+00  0.99999998245E-14  0.12500000000E+03  0.12500000000E+03 0.  0.
        -11    1    3    3    0    0  0.16632422340E+02 -0.13401306199E+02 -0.55443108208E+02  0.59415239870E+02  0.51100000000E-03 0.  1.
         23    2    1    0    0    0  0.98953411085E+01 -0.19136652024E+02 -0.21230877399E+02  0.94753026904E+02  0.89795638681E+02 0.  0.
         11    1    3    3    0    0 -0.67370812320E+01 -0.57353458250E+01  0.34212230810E+02  0.35337787034E+02  0.51100000000E-03 0. -1.
         22    1    1    0    0    0 -0.98953411085E+01  0.19136652024E+02  0.21230877399E+02  0.30246973096E+02  0.00000000000E+00 0.  1.
</event>
<event>
 5    1  0.1691145E-003  0.9118800E+02  0.7818608E-02  0.1130116E+00
         25   -1    0    0    0    0  0.00000000000E+00  0.00000000000E+00  0.99999998245E-14  0.12500000000E+03  0.12500000000E+03 0.  0.
        -11    1    3    3    0    0  0.16308663174E+02 -0.18793140431E+02 -0.39319346525E+02  0.46531340333E+02  0.51100000000E-03 0. -1.
         23    2    1    0    0    0  0.24349338895E+02  0.15690426863E+02 -0.54607660479E+01  0.95522894213E+02  0.90861012284E+02 0.  0.
         11    1    3    3    0    0  0.80406757205E+01  0.34483567294E+02  0.33858580477E+02  0.48991553880E+02  0.51100000000E-03 0.  1.
         22    1    1    0    0    0 -0.24349338895E+02 -0.15690426863E+02  0.54607660479E+01  0.29477105787E+02  0.00000000000E+00 0.  1.
</event>
<event>
 5    1  0.1691145E-003  0.9118800E+02  0.7818608E-02  0.1130116E+00
         25   -1    0    0    0    0  0.00000000000E+00  0.00000000000E+00  0.99999998245E-14  0.12500000000E+03  0.12500000000E+03 0.  0.
        -11    1    3    3    0    0  0.48977173368E+02 -0.86813245052E+01 -0.17317074314E+02  0.52668870971E+02  0.51100000000E-03 0. -1.
         23    2    1    0    0    0  0.13802796292E+02  0.16659469577E+02 -0.19217825563E+02  0.96062482286E+02  0.91600330630E+02 0.  0.
         11    1    3    3    0    0 -0.35174377076E+02  0.25340794082E+02 -0.19007512491E+01  0.43393611315E+02  0.51100000000E-03 0.  1.
         22    1    1    0    0    0 -0.13802796292E+02 -0.16659469577E+02  0.19217825563E+02  0.28937517714E+02  0.00000000000E+00 0. -1.
</event>
<event>
 5    1  0.1691145E-003  0.9118800E+02  0.7818608E-02  0.1130116E+00
         25   -1    0    0    0    0  0.00000000000E+00  0.00000000000E+00  0.99999998245E-14  0.12500000000E+03  0.12500000000E+03 0.  0.
        -11    1    3    3    0    0  0.16063805117E+02  0.28073821519E+01  0.48772356901E+02  0.51426355377E+02  0.51100000000E-03 0. -1.
         23    2    1    0    0    0  0.15114106381E+02 -0.22503099129E+02  0.13871582728E+02  0.94549277685E+02  0.89511560267E+02 0.  0.
         11    1    3    3    0    0 -0.94969873645E+00 -0.25310481281E+02 -0.34900774173E+02  0.43122922309E+02  0.51100000000E-03 0.  1.
         22    1    1    0    0    0 -0.15114106381E+02  0.22503099129E+02 -0.13871582728E+02  0.30450722315E+02  0.00000000000E+00 0. -1.
</event>
<event>
 5    1  0.1691145E-003  0.9118800E+02  0.7818608E-02  0.1130116E+00
         25   -1    0    0    0    0  0.00000000000E+00  0.00000000000E+00  0.99999998245E-14  0.12500000000E+03  0.12500000000E+03 0.  0.
        -11    1    3    3    0    0  0.31595765745E+02  0.41792258900E+02  0.18352004965E+02  0.55512894029E+02  0.51100000000E-03 0. -1.
         23    2    1    0    0    0  0.25039747329E+02  0.29726795751E+01  0.16379391962E+02  0.94931573849E+02  0.90043841890E+02 0.  0.
         11    1    3    3    0    0 -0.65560184164E+01 -0.38819579325E+02 -0.19726130031E+01  0.39418679820E+02  0.51100000000E-03 0.  1.
         22    1    1    0    0    0 -0.25039747329E+02 -0.29726795751E+01 -0.16379391962E+02  0.30068426151E+02  0.00000000000E+00 0. -1.
</event>
<event>
 5    1  0.1691145E-003  0.9118800E+02  0.7818608E-02  0.1130116E+00
         25   -1    0    0    0    0  0.00000000000E+00  0.00000000000E+00  0.99999998245E-14  0.12500000000E+03  0.12500000000E+03 0.  0.
        -11    1    3    3    0    0 -0.28663832955E+02  0.23000353506E+02  0.18967617937E+01  0.36799854437E+02  0.51100000000E-03 0.  1.
         23    2    1    0    0    0 -0.16344272419E+02 -0.23885152876E+02 -0.19823084659E+02  0.89920227278E+02  0.82795270514E+02 0.  0.
         11    1    3    3    0    0  0.12319560535E+02 -0.46885506382E+02 -0.21719846453E+02  0.53120372840E+02  0.51100000000E-03 0. -1.
         22    1    1    0    0    0  0.16344272419E+02  0.23885152876E+02  0.19823084659E+02  0.35079772722E+02  0.00000000000E+00 0. -1.
</event>
<event>
 5    1  0.1691145E-003  0.9118800E+02  0.7818608E-02  0.1130116E+00
         25   -1    0    0    0    0  0.00000000000E+00  0.00000000000E+00  0.99999998245E-14  0.12500000000E+03  0.12500000000E+03 0.  0.
        -11    1    3    3    0    0  0.37484011251E+02 -0.30087553924E+02  0.75383253454E+01  0.48653246037E+02  0.51100000000E-03 0.  1.
         23    2    1    0    0    0 -0.71442439698E+01 -0.28324772418E+02  0.11748129950E+02  0.93514264948E+02  0.88054336844E+02 0.  0.
         11    1    3    3    0    0 -0.44628255221E+02  0.17627815059E+01  0.42098046046E+01  0.44861018912E+02  0.51100000000E-03 0. -1.
         22    1    1    0    0    0  0.71442439698E+01  0.28324772418E+02 -0.11748129950E+02  0.31485735052E+02  0.00000000000E+00 0.  1.
</event>
<event>
 5    1  0.1691145E-003  0.9118800E+02  0.7818608E-02  0.1130116E+00
         25   -1    0    0    0    0  0.00000000000E+00  0.00000000000E+00  0.99999998245E-14  0.12500000000E+03  0.12500000000E+03 0.  0.
        -11    1    3    3    0    0  0.34628167962E+02  0.18110034645E+02  0.45158657908E+02  0.59719241083E+02  0.51100000000E-03 0. -1.
         23    2    1    0    0    0  0.25120053702E+02  0.91603116306E+01  0.11367065756E+02  0.95945936755E+02  0.91441151506E+02 0.  0.
         11    1    3    3    0    0 -0.95081142602E+01 -0.89497230146E+01 -0.33791592152E+02  0.36226695672E+02  0.51100000000E-03 0.  1.
         22    1    1    0    0    0 -0.25120053702E+02 -0.91603116306E+01 -0.11367065756E+02  0.29054063245E+02  0.00000000000E+00 0. -1.
</event>
<event>
 5    1  0.1691145E-003  0.9118800E+02  0.7818608E-02  0.1130116E+00
         25   -1    0    0    0    0  0.00000000000E+00  0.00000000000E+00  0.99999998245E-14  0.12500000000E+03  0.12500000000E+03 0.  0.
        -11    1    3    3    0    0 -0.68492681986E+01 -0.76644098010E+01 -0.29644920001E+02  0.31376375421E+02  0.51100000000E-03 0. -1.
         23    2    1    0    0    0  0.14855660126E+02  0.35417098741E+02 -0.30235251338E+01  0.86474641789E+02  0.77418734472E+02 0.  0.
         11    1    3    3    0    0  0.21704928325E+02  0.43081508542E+02  0.26621394867E+02  0.55098266368E+02  0.51100000000E-03 0.  1.
         22    1    1    0    0    0 -0.14855660126E+02 -0.35417098741E+02  0.30235251338E+01  0.38525358211E+02  0.00000000000E+00 0.  1.
</event>
<event>
 5    1  0.1691145E-003  0.9118800E+02  0.7818608E-02  0.1130116E+00
         25   -1    0    0    0    0  0.00000000000E+00  0.00000000000E+00  0.99999998245E-14  0.12500000000E+03  0.12500000000E+03 0.  0.
        -11    1    3    3    0    0  0.25796678132E+02  0.16195601492E+02  0.46054073692E+02  0.55215430943E+02  0.51100000000E-03 0.  1.
         23    2    1    0    0    0 -0.33480948079E+01  0.22375391045E+02  0.20643034368E+02  0.94373169750E+02  0.89265292457E+02 0.  0.
         11    1    3    3    0    0 -0.29144772940E+02  0.61797895526E+01 -0.25411039324E+02  0.39157738807E+02  0.51100000000E-03 0. -1.
         22    1    1    0    0    0  0.33480948079E+01 -0.22375391045E+02 -0.20643034368E+02  0.30626830250E+02  0.00000000000E+00 0. -1.
</event>
<event>
 5    1  0.1691145E-003  0.9118800E+02  0.7818608E-02  0.1130116E+00
         25   -1    0    0    0    0  0.00000000000E+00  0.00000000000E+00  0.99999998245E-14  0.12500000000E+03  0.12500000000E+03 0.  0.
        -11    1    3    3    0    0 -0.17314975307E+02  0.53543040543E+02  0.20249783571E+02  0.59805679458E+02  0.51100000000E-03 0. -1.
         23    2    1    0    0    0 -0.48285608430E+01  0.32159156698E+02 -0.10425352444E+01  0.92463662789E+02  0.86550076241E+02 0.  0.
         11    1    3    3    0    0  0.12486414464E+02 -0.21383883845E+02 -0.21292318815E+02  0.32657983331E+02  0.51100000000E-03 0.  1.
         22    1    1    0    0    0  0.48285608430E+01 -0.32159156698E+02  0.10425352444E+01  0.32536337211E+02  0.00000000000E+00 0. -1.
</event>
<event>
 5    1  0.1691145E-003  0.9118800E+02  0.7818608E-02  0.1130116E+00
         25   -1    0    0    0    0  0.00000000000E+00  0.00000000000E+00  0.99999998245E-14  0.12500000000E+03  0.12500000000E+03 0.  0.
        -11    1    3    3    0    0  0.34755545301E+02  0.46887500019E+02 -0.38746563447E+01  0.58492722191E+02  0.51100000000E-03 0.  1.
         23    2    1    0    0    0  0.12050407175E+02  0.19989935449E+02 -0.17068688936E+02  0.96083742041E+02  0.91629337607E+02 0.  0.
         11    1    3    3    0    0 -0.22705138125E+02 -0.26897564570E+02 -0.13194032591E+02  0.37591019850E+02  0.51100000000E-03 0. -1.
         22    1    1    0    0    0 -0.12050407175E+02 -0.19989935449E+02  0.17068688936E+02  0.28916257959E+02  0.00000000000E+00 0.  1.
</event>
<event>
 5    1  0.1691145E-003  0.9118800E+02  0.7818608E-02  0.1130116E+00
         25   -1    0    0    0    0  0.00000000000E+00  0.00000000000E+00  0.99999998245E-14  0.12500000000E+03  0.12500000000E+03 0.  0.
        -11    1    3    3    0    0  0.54317759612E+01 -0.63968021361E+01 -0.35314184278E+02  0.36297587787E+02  0.51100000000E-03 0.  1.
         23    2    1    0    0    0  0.41437310311E+01  0.33497011271E+02  0.23351801225E+01  0.91166978598E+02  0.84656627913E+02 0.  0.
         11    1    3    3    0    0 -0.12880449301E+01  0.39893813407E+02  0.37649364401E+02  0.54869390811E+02  0.51100000000E-03 0. -1.
         22    1    1    0    0    0 -0.41437310311E+01 -0.33497011271E+02 -0.23351801225E+01  0.33833021402E+02  0.00000000000E+00 0. -1.
</event>
<event>
 5    1  0.1691145E-003  0.9118800E+02  0.7818608E-02  0.1130116E+00
         25   -1    0    0    0    0  0.00000000000E+00  0.00000000000E+00  0.99999998245E-14  0.12500000000E+03  0.12500000000E+03 0.  0.
        -11    1    3    3    0    0 -0.44469943288E+02  0.75969511651E+01  0.27089062096E+02  0.52622303338E+02  0.51100000000E-03 0. -1.
         23    2    1    0    0    0 -0.23121306083E+02 -0.17846319849E+02 -0.48240810549E+00  0.95788381683E+02  0.91225519570E+02 0.  0.
         11    1    3    3    0    0  0.21348637205E+02 -0.25443271014E+02 -0.27571470202E+02  0.43166078346E+02  0.51100000000E-03 0.  1.
         22    1    1    0    0    0  0.23121306083E+02  0.17846319849E+02  0.48240810549E+00  0.29211618317E+02  0.00000000000E+00 0. -1.
</event>
<event>
 5    1  0.1691145E-003  0.9118800E+02  0.7818608E-02  0.1130116E+00
         25   -1    0    0    0    0  0.00000000000E+00  0.00000000000E+00  0.99999998245E-14  0.12500000000E+03  0.12500000000E+03 0.  0.
        -11    1    3    3    0    0 -0.18975783581E+02  0.26724493633E+02 -0.51522390849E+02  0.61064193121E+02  0.51100000000E-03 0.  1.
         23    2    1    0    0    0 -0.57903191893E+01  0.20254899732E+02 -0.19500719715E+02  0.96293435788E+02  0.91914954969E+02 0.  0.
         11    1    3    3    0    0  0.13185464392E+02 -0.64695939013E+01  0.32021671134E+02  0.35229242668E+02  0.51100000000E-03 0. -1.
         22    1    1    0    0    0  0.57903191893E+01 -0.20254899732E+02  0.19500719715E+02  0.28706564212E+02  0.00000000000E+00 0.  1.
</event>
<event>
 5    1  0.1691145E-003  0.9118800E+02  0.7818608E-02  0.1130116E+00
         25   -1    0    0    0    0  0.00000000000E+00  0.00000000000E+00  0.99999998245E-14  0.12500000000E+03  0.12500000000E+03 0.  0.
        -11    1    3    3    0    0  0.30064540753E+02 -0.13136909542E+02 -0.29939414210E+02  0.44416478097E+02  0.51100000000E-03 0. -1.
         23    2    1    0    0    0  0.44799231748E+00  0.25841721553E+02 -0.11138203804E+02  0.96856530884E+02  0.92677573991E+02 0.  0.
         11    1    3    3    0    0 -0.29616548436E+02  0.38978631095E+02  0.18801210406E+02  0.52440052787E+02  0.51100000000E-03 0.  1.
         22    1    1    0    0    0 -0.44799231748E+00 -0.25841721553E+02  0.11138203804E+02  0.28143469116E+02  0.00000000000E+00 0.  1.
</event>
<event>
 5    1  0.1691145E-003  0.9118800E+02  0.7818608E-02  0.1130116E+00
         25   -1    0    0    0    0  0.00000000000E+00  0.00000000000E+00  0.99999998245E-14  0.12500000000E+03  0.12500000000E+03 0.  0.
        -11    1    3    3    0    0  0.77687525647E+01  0.30743704885E+02  0.73274300979E+01  0.32545662361E+02  0.51100000000E-03 0.  1.
         23    2    1    0    0    0  0.26280176979E+00 -0.28075203403E+02 -0.11353881843E+02  0.94714743789E+02  0.89742330855E+02 0.  0.
         11    1    3    3    0    0 -0.75059507949E+01 -0.58818908287E+02 -0.18681311941E+02  0.62169081427E+02  0.51100000000E-03 0. -1.
         22    1    1    0    0    0 -0.26280176979E+00  0.28075203403E+02  0.11353881843E+02  0.30285256211E+02  0.00000000000E+00 0. -1.
</event>
<event>
 5    1  0.1691145E-003  0.9118800E+02  0.7818608E-02  0.1130116E+00
         25   -1    0    0    0    0  0.00000000000E+00  0.00000000000E+00  0.99999998245E-14  0.12500000000E+03  0.12500000000E+03 0.  0.
        -11    1    3    3    0    0 -0.26156601026E+02 -0.15761807623E+02 -0.23567931309E+02  0.38575247805E+02  0.51100000000E-03 0.  1.
         23    2    1    0    0    0  0.27228914123E+02  0.50097750378E+00 -0.98078532111E+01  0.96054210542E+02  0.91589042114E+02 0.  0.
         11    1    3    3    0    0  0.53385515149E+02  0.16262785127E+02  0.13760078097E+02  0.57478962737E+02  0.51100000000E-03 0. -1.
         22    1    1    0    0    0 -0.27228914123E+02 -0.50097750378E+00  0.98078532111E+01  0.28945789458E+02  0.00000000000E+00 0. -1.
</event>
<event>
 5    1  0.1691145E-003  0.9118800E+02  0.7818608E-02  0.1130116E+00
         25   -1    0    0    0    0  0.00000000000E+00  0.00000000000E+00  0.99999998245E-14  0.12500000000E+03  0.12500000000E+03 0.  0.
        -11    1    3    3    0    0  0.52689910971E+02 -0.22076813106E+02  0.23354104181E+02  0.61717311813E+02  0.51100000000E-03 0. -1.
         23    2    1    0    0    0  0.21913715349E+02 -0.74135794421E+01  0.16742442116E+02  0.96443364194E+02  0.92118624873E+02 0.  0.
         11    1    3    3    0    0 -0.30776195622E+02  0.14663233664E+02 -0.66116620656E+01  0.34726052381E+02  0.51100000000E-03 0.  1.
         22    1    1    0    0    0 -0.21913715349E+02  0.74135794421E+01 -0.16742442116E+02  0.28556635806E+02  0.00000000000E+00 0. -1.
</event>
<event>
 5    1  0.1691145E-003  0.9118800E+02  0.7818608E-02  0.1130116E+00
         25   -1    0    0    0    0  0.00000000000E+00  0.00000000000E+00  0.99999998245E-14  0.12500000000E+03  0.12500000000E+03 0.  0.
        -11    1    3    3    0    0 -0.31400433166E+01 -0.30930766618E+02 -0.25310507797E+02  0.40089824156E+02  0.51100000000E-03 0.  1.
         23    2    1    0    0    0  0.13654401947E+01  0.24029235424E+02 -0.16215361983E+02  0.95979204935E+02  0.91486617785E+02 0.  0.
         11    1    3    3    0    0  0.45054835112E+01  0.54960002043E+02  0.90951458143E+01  0.55889380779E+02  0.51100000000E-03 0. -1.
         22    1    1    0    0    0 -0.13654401947E+01 -0.24029235424E+02  0.16215361983E+02  0.29020795065E+02  0.00000000000E+00 0. -1.
</event>
<event>
 5    1  0.1691145E-003  0.9118800E+02  0.7818608E-02  0.1130116E+00
         25   -1    0    0    0    0  0.00000000000E+00  0.00000000000E+00  0.99999998245E-14  0.12500000000E+03  0.12500000000E+03 0.  0.
        -11    1    3    3    0    0 -0.44748809832E+02 -0.21103078439E+02  0.33153263262E+02  0.59556148013E+02  0.51100000000E-03 0.  1.
         23    2    1    0    0    0 -0.27731866908E+02 -0.71587250577E+01  0.39971634621E+01  0.96081474754E+02  0.91626244540E+02 0.  0.
         11    1    3    3    0    0  0.17016942924E+02  0.13944353381E+02 -0.29156099800E+02  0.36525326741E+02  0.51100000000E-03 0. -1.
         22    1    1    0    0    0  0.27731866908E+02  0.71587250577E+01 -0.39971634621E+01  0.28918525246E+02  0.00000000000E+00 0.  1.
</event>
<event>
 5    1  0.1691145E-003  0.9118800E+02  0.7818608E-02  0.1130116E+00
         25   -1    0    0    0    0  0.00000000000E+00  0.00000000000E+00  0.99999998245E-14  0.12500000000E+03  0.12500000000E+03 0.  0.
        -11    1    3    3    0    0 -0.17740007087E+00 -0.13414826304E+02 -0.45118221499E+02  0.47070616599E+02  0.51100000000E-03 0. -1.
         23    2    1    0    0    0 -0.28281299821E+02 -0.68953585994E+01 -0.66759670781E+01  0.95134527859E+02  0.90325145805E+02 0.  0.
         11    1    3    3    0    0 -0.28103899750E+02  0.65194677043E+01  0.38442254421E+02  0.48063911259E+02  0.51100000000E-03 0.  1.
         22    1    1    0    0    0  0.28281299821E+02  0.68953585994E+01  0.66759670781E+01  0.29865472141E+02  0.00000000000E+00 0.  1.
</event>
<event>
 5    1  0.1691145E-003  0.9118800E+02  0.7818608E-02  0.1130116E+00
         25   -1    0    0    0    0  0.00000000000E+00  0.00000000000E+00  0.99999998245E-14  0.12500000000E+03  0.12500000000E+03 0.  0.
        -11    1    3    3    0    0  0.99018016531E+00 -0.54076984493E+02 -0.91177427911E+01  0.54849192724E+02  0.51100000000E-03 0. -1.
         23    2    1    0    0    0 -0.17560795208E+02 -0.17510382052E+02 -0.14608029010E+02  0.96218243287E+02  0.91812639771E+02 0.  0.
         11    1    3    3    0    0 -0.18550975373E+02  0.36566602441E+02 -0.54902862189E+01  0.41369050562E+02  0.51100000000E-03 0.  1.
         22    1    1    0    0    0  0.17560795208E+02  0.17510382052E+02  0.14608029010E+02  0.28781756713E+02  0.00000000000E+00 0. -1.
</event>
<event>
 5    1  0.1691145E-003  0.9118800E+02  0.7818608E-02  0.1130116E+00
         25   -1    0    0    0    0  0.00000000000E+00  0.00000000000E+00  0.99999998245E-14  0.12500000000E+03  0.12500000000E+03 0.  0.
        -11    1    3    3    0    0  0.54708989779E+02 -0.20937548542E+02 -0.39566991817E+01  0.58712093902E+02  0.51100000000E-03 0.  1.
         23    2    1    0    0    0  0.20151466272E+02 -0.14897915673E+02 -0.15367915973E+02  0.95602681659E+02  0.90970711852E+02 0.  0.
         11    1    3    3    0    0 -0.34557523508E+02  0.60396328694E+01 -0.11411216791E+02  0.36890587757E+02  0.51100000000E-03 0. -1.
         22    1    1    0    0    0 -0.20151466272E+02  0.14897915673E+02  0.15367915973E+02  0.29397318341E+02  0.00000000000E+00 0.  1.
</event>
<event>
 5    1  0.1691145E-003  0.9118800E+02  0.7818608E-02  0.1130116E+00
         25   -1    0    0    0    0  0.00000000000E+00  0.00000000000E+00  0.99999998245E-14  0.12500000000E+03  0.12500000000E+03 0.  0.
        -11    1    3    3    0    0  0.24673080438E+02  0.46357309607E+02  0.80921542405E+00  0.52520623399E+02  0.51100000000E-03 0.  1.
         23    2    1    0    0    0  0.10959922772E+02  0.13518700605E+02 -0.23602052236E+02  0.95675402084E+02  0.91070579887E+02 0.  0.
         11    1    3    3    0    0 -0.13713157667E+02 -0.32838609002E+02 -0.24411267660E+02  0.43154778685E+02  0.51100000000E-03 0. -1.
         22    1    1    0    0    0 -0.10959922772E+02 -0.13518700605E+02  0.23602052236E+02  0.29324597916E+02  0.00000000000E+00 0.  1.
</event>
<event>
 5    1  0.1691145E-003  0.9118800E+02  0.7818608E-02  0.1130116E+00
         25   -1    0    0    0    0  0.00000000000E+00  0.00000000000E+00  0.99999998245E-14  0.12500000000E+03  0.12500000000E+03 0.  0.
        -11    1    3    3    0    0 -0.34280533898E+02 -0.30160339719E+01  0.15118927125E+02  0.37587676477E+02  0.51100000000E-03 0.  1.
         23    2    1    0    0    0 -0.30931497809E+02 -0.11408798138E+02 -0.28063082374E+02  0.81705025419E+02  0.69291098669E+02 0.  0.
         11    1    3    3    0    0  0.33490360896E+01 -0.83927641663E+01 -0.43182009499E+02  0.44117348942E+02  0.51100000000E-03 0. -1.
         22    1    1    0    0    0  0.30931497809E+02  0.11408798138E+02  0.28063082374E+02  0.43294974581E+02  0.00000000000E+00 0.  1.
</event>
<event>
 5    1  0.1691145E-003  0.9118800E+02  0.7818608E-02  0.1130116E+00
         25   -1    0    0    0    0  0.00000000000E+00  0.00000000000E+00  0.99999998245E-14  0.12500000000E+03  0.12500000000E+03 0.  0.
        -11    1    3    3    0    0 -0.48828073185E+02 -0.88237855024E+01  0.31303488382E+02  0.58668120020E+02  0.51100000000E-03 0.  1.
         23    2    1    0    0    0 -0.27598597035E+02 -0.68031682502E+01 -0.36202295863E-01  0.96575240245E+02  0.92297400078E+02 0.  0.
         11    1    3    3    0    0  0.21229476150E+02  0.20206172522E+01 -0.31339690678E+02  0.37907120225E+02  0.51100000000E-03 0. -1.
         22    1    1    0    0    0  0.27598597035E+02  0.68031682502E+01  0.36202295863E-01  0.28424759755E+02  0.00000000000E+00 0.  1.
</event>
<event>
 5    1  0.1691145E-003  0.9118800E+02  0.7818608E-02  0.1130116E+00
         25   -1    0    0    0    0  0.00000000000E+00  0.00000000000E+00  0.99999998245E-14  0.12500000000E+03  0.12500000000E+03 0.  0.
        -11    1    3    3    0    0  0.18179279314E+02  0.16607956435E+02 -0.33304109884E+02  0.41418282783E+02  0.51100000000E-03 0. -1.
         23    2    1    0    0    0  0.76563146818E+01  0.19600943653E+02  0.20080980049E+02  0.95912856683E+02  0.91395919880E+02 0.  0.
         11    1    3    3    0    0 -0.10522964632E+02  0.29929872188E+01  0.53385089933E+02  0.54494573900E+02  0.51100000000E-03 0.  1.
         22    1    1    0    0    0 -0.76563146818E+01 -0.19600943653E+02 -0.20080980049E+02  0.29087143317E+02  0.00000000000E+00 0.  1.
</event>
<event>
 5    1  0.1691145E-003  0.9118800E+02  0.7818608E-02  0.1130116E+00
         25   -1    0    0    0    0  0.00000000000E+00  0.00000000000E+00  0.99999998245E-14  0.12500000000E+03  0.12500000000E+03 0.  0.
        -11    1    3    3    0    0 -0.27485429034E+01  0.24197050254E+02 -0.31625468435E+02  0.39915184868E+02  0.51100000000E-03 0.  1.
         23    2    1    0    0    0 -0.20977446541E+02  0.28156265443E+02  0.12426759962E+02  0.87754155799E+02  0.79457780927E+02 0.  0.
         11    1    3    3    0    0 -0.18228903638E+02  0.39592151886E+01  0.44052228397E+02  0.47838970931E+02  0.51100000000E-03 0. -1.
         22    1    1    0    0    0  0.20977446541E+02 -0.28156265443E+02 -0.12426759962E+02  0.37245844201E+02  0.00000000000E+00 0. -1.
</event>
<event>
 5    1  0.1691145E-003  0.9118800E+02  0.7818608E-02  0.1130116E+00
         25   -1    0    0    0    0  0.00000000000E+00  0.00000000000E+00  0.99999998245E-14  0.12500000000E+03  0.12500000000E+03 0.  0.
        -11    1    3    3    0    0  0.17825642738E+02 -0.49509237010E+02  0.29349408825E+02  0.60252019775E+02  0.51100000000E-03 0.  1.
         23    2    1    0    0    0 -0.34527946324E+01 -0.24157489996E+02  0.15219022170E+02  0.96240223410E+02  0.91842560138E+02 0.  0.
         11    1    3    3    0    0 -0.21278437370E+02  0.25351747014E+02 -0.14130386655E+02  0.35988203635E+02  0.51100000000E-03 0. -1.
         22    1    1    0    0    0  0.34527946324E+01  0.24157489996E+02 -0.15219022170E+02  0.28759776590E+02  0.00000000000E+00 0.  1.
</event>
<event>
 5    1  0.1691145E-003  0.9118800E+02  0.7818608E-02  0.1130116E+00
         25   -1    0    0    0    0  0.00000000000E+00  0.00000000000E+00  0.99999998245E-14  0.12500000000E+03  0.12500000000E+03 0.  0.
        -11    1    3    3    0    0 -0.12502647569E+02  0.30919440001E+02  0.32833759483E+02  0.46801535533E+02  0.51100000000E-03 0.  1.
         23    2    1    0    0    0 -0.27318806472E+02 -0.20779681937E+01 -0.26536708447E+01  0.97474064815E+02  0.93506770897E+02 0.  0.
         11    1    3    3    0    0 -0.14816158904E+02 -0.32997408195E+02 -0.35487430328E+02  0.50672529281E+02  0.51100000000E-03 0. -1.
         22    1    1    0    0    0  0.27318806472E+02  0.20779681937E+01  0.26536708447E+01  0.27525935185E+02  0.00000000000E+00 0. -1.
</event>
<event>
 5    1  0.1691145E-003  0.9118800E+02  0.7818608E-02  0.1130116E+00
         25   -1    0    0    0    0  0.00000000000E+00  0.00000000000E+00  0.99999998245E-14  0.12500000000E+03  0.12500000000E+03 0.  0.
        -11    1    3    3    0    0 -0.17617498334E+02 -0.43858408573E+02 -0.39245598102E+02  0.61434137259E+02  0.51100000000E-03 0.  1.
         23    2    1    0    0    0 -0.44381717005E+01 -0.15299610243E+02 -0.23502861971E+02  0.96607043787E+02  0.92340462133E+02 0.  0.
         11    1    3    3    0    0  0.13179326634E+02  0.28558798329E+02  0.15742736131E+02  0.35172906529E+02  0.51100000000E-03 0. -1.
         22    1    1    0    0    0  0.44381717005E+01  0.15299610243E+02  0.23502861971E+02  0.28392956213E+02  0.00000000000E+00 0.  1.
</event>
<event>
 5    1  0.1691145E-003  0.9118800E+02  0.7818608E-02  0.1130116E+00
         25   -1    0    0    0    0  0.00000000000E+00  0.00000000000E+00  0.99999998245E-14  0.12500000000E+03  0.12500000000E+03 0.  0.
        -11    1    3    3    0    0 -0.40151619167E+02 -0.42716693972E+02 -0.75177698265E+01  0.59104867219E+02  0.51100000000E-03 0. -1.
         23    2    1    0    0    0 -0.83440836274E+01 -0.24286769736E+02 -0.12906616000E+02  0.96258885680E+02  0.91867956438E+02 0.  0.
         11    1    3    3    0    0  0.31807535539E+02  0.18429924236E+02 -0.53888461736E+01  0.37154018461E+02  0.51100000000E-03 0.  1.
         22    1    1    0    0    0  0.83440836274E+01  0.24286769736E+02  0.12906616000E+02  0.28741114320E+02  0.00000000000E+00 0. -1.
</event>
<event>
 5    1  0.1691145E-003  0.9118800E+02  0.7818608E-02  0.1130116E+00
         25   -1    0    0    0    0  0.00000000000E+00  0.00000000000E+00  0.99999998245E-14  0.12500000000E+03  0.12500000000E+03 0.  0.
        -11    1    3    3    0    0  0.42809157169E+02  0.48271377574E+00  0.16322016906E+02  0.45817738772E+02  0.51100000000E-03 0. -1.
         23    2    1    0    0    0 -0.73295670191E+01  0.60957272227E+01  0.26104445296E+02  0.97209308982E+02  0.93152172522E+02 0.  0.
         11    1    3    3    0    0 -0.50138724188E+02  0.56130134470E+01  0.97824283902E+01  0.51391570210E+02  0.51100000000E-03 0.  1.
         22    1    1    0    0    0  0.73295670191E+01 -0.60957272227E+01 -0.26104445296E+02  0.27790691018E+02  0.00000000000E+00 0.  1.
</event>
<event>
 5    1  0.1691145E-003  0.9118800E+02  0.7818608E-02  0.1130116E+00
         25   -1    0    0    0    0  0.00000000000E+00  0.00000000000E+00  0.99999998245E-14  0.12500000000E+03  0.12500000000E+03 0.  0.
        -11    1    3    3    0    0  0.14329140240E+02  0.19636949373E+02  0.57122866631E+02  0.62080237863E+02  0.51100000000E-03 0.  1.
         23    2    1    0    0    0  0.82965827390E+01  0.13171912414E+02  0.23763592688E+02  0.96591534726E+02  0.92319465344E+02 0.  0.
         11    1    3    3    0    0 -0.60325575012E+01 -0.64650369593E+01 -0.33359273943E+02  0.34511296863E+02  0.51100000000E-03 0. -1.
         22    1    1    0    0    0 -0.82965827390E+01 -0.13171912414E+02 -0.23763592688E+02  0.28408465274E+02  0.00000000000E+00 0.  1.
</event>
<event>
 5    1  0.1691145E-003  0.9118800E+02  0.7818608E-02  0.1130116E+00
         25   -1    0    0    0    0  0.00000000000E+00  0.00000000000E+00  0.99999998245E-14  0.12500000000E+03  0.12500000000E+03 0.  0.
        -11    1    3    3    0    0 -0.33590910797E+02  0.32231985594E+02  0.12446145188E+02  0.48188761282E+02  0.51100000000E-03 0. -1.
         23    2    1    0    0    0 -0.60674303564E+01  0.20340220286E+02 -0.22388034109E+02  0.94149354242E+02  0.88951326918E+02 0.  0.
         11    1    3    3    0    0  0.27523480441E+02 -0.11891765308E+02 -0.34834179297E+02  0.45960592961E+02  0.51100000000E-03 0.  1.
         22    1    1    0    0    0  0.60674303564E+01 -0.20340220286E+02  0.22388034109E+02  0.30850645758E+02  0.00000000000E+00 0.  1.
</event>
<event>
 5    1  0.1691145E-003  0.9118800E+02  0.7818608E-02  0.1130116E+00
         25   -1    0    0    0    0  0.00000000000E+00  0.00000000000E+00  0.99999998245E-14  0.12500000000E+03  0.12500000000E+03 0.  0.
        -11    1    3    3    0    0 -0.23492421338E+02 -0.27059770404E+01  0.55353866875E+02  0.60193577318E+02  0.51100000000E-03 0.  1.
         23    2    1    0    0    0 -0.20970536582E+02 -0.47993670732E+01  0.20231699716E+02  0.95468338986E+02  0.90785928131E+02 0.  0.
         11    1    3    3    0    0  0.25218847569E+01 -0.20933900327E+01 -0.35122167159E+02  0.35274761668E+02  0.51100000000E-03 0. -1.
         22    1    1    0    0    0  0.20970536582E+02  0.47993670732E+01 -0.20231699716E+02  0.29531661014E+02  0.00000000000E+00 0.  1.
</event>
<event>
 5    1  0.1691145E-003  0.9118800E+02  0.7818608E-02  0.1130116E+00
         25   -1    0    0    0    0  0.00000000000E+00  0.00000000000E+00  0.99999998245E-14  0.12500000000E+03  0.12500000000E+03 0.  0.
        -11    1    3    3    0    0  0.12742576303E+02  0.16009646896E+02  0.26139157080E+02  0.33195445135E+02  0.51100000000E-03 0.  1.
         23    2    1    0    0    0 -0.51026012780E+01 -0.20660635365E+02 -0.20707634956E+02  0.95306489952E+02  0.90562809630E+02 0.  0.
         11    1    3    3    0    0 -0.17845177581E+02 -0.36670282260E+02 -0.46846792036E+02  0.62111044818E+02  0.51100000000E-03 0. -1.
         22    1    1    0    0    0  0.51026012780E+01  0.20660635365E+02  0.20707634956E+02  0.29693510048E+02  0.00000000000E+00 0. -1.
</event>
<event>
 5    1  0.1691145E-003  0.9118800E+02  0.7818608E-02  0.1130116E+00
         25   -1    0    0    0    0  0.00000000000E+00  0.00000000000E+00  0.99999998245E-14  0.12500000000E+03  0.12500000000E+03 0.  0.
        -11    1    3    3    0    0 -0.26707972945E+02 -0.33035656740E+02  0.22367490460E+02  0.48010155851E+02  0.51100000000E-03 0.  1.
         23    2    1    0    0    0 -0.10280846469E+02  0.12195425376E+02  0.24026921349E+02  0.96160493178E+02  0.91733981133E+02 0.  0.
         11    1    3    3    0    0  0.16427126476E+02  0.45231082116E+02  0.16594308889E+01  0.48150337327E+02  0.51100000000E-03 0. -1.
         22    1    1    0    0    0  0.10280846469E+02 -0.12195425376E+02 -0.24026921349E+02  0.28839506822E+02  0.00000000000E+00 0.  1.
</event>
<event>
 5    1  0.1691145E-003  0.9118800E+02  0.7818608E-02  0.1130116E+00
         25   -1    0    0    0    0  0.00000000000E+00  0.00000000000E+00  0.99999998245E-14  0.12500000000E+03  0.12500000000E+03 0.  0.
        -11    1    3    3    0    0 -0.24401358171E+02  0.12779991345E+01 -0.54258153359E+02  0.59506359060E+02  0.51100000000E-03 0. -1.
         23    2    1    0    0    0 -0.82507747433E+01  0.13911968490E+02 -0.24159910446E+02  0.95925622554E+02  0.91413377787E+02 0.  0.
         11    1    3    3    0    0  0.16150583427E+02  0.12633969356E+02  0.30098242913E+02  0.36419263494E+02  0.51100000000E-03 0.  1.
         22    1    1    0    0    0  0.82507747433E+01 -0.13911968490E+02  0.24159910446E+02  0.29074377446E+02  0.00000000000E+00 0. -1.
</event>
<event>
 5    1  0.1691145E-003  0.9118800E+02  0.7818608E-02  0.1130116E+00
         25   -1    0    0    0    0  0.00000000000E+00  0.00000000000E+00  0.99999998245E-14  0.12500000000E+03  0.12500000000E+03 0.  0.
        -11    1    3    3    0    0 -0.31507093541E+02 -0.40622880993E+02  0.14387061448E+02  0.53384482211E+02  0.51100000000E-03 0. -1.
         23    2    1    0    0    0  0.72226147751E+01 -0.28750428464E+02  0.64145870264E+01  0.94670142965E+02  0.89680185890E+02 0.  0.
         11    1    3    3    0    0  0.38729708316E+02  0.11872452529E+02 -0.79724744219E+01  0.41285660755E+02  0.51100000000E-03 0.  1.
         22    1    1    0    0    0 -0.72226147751E+01  0.28750428464E+02 -0.64145870264E+01  0.30329857035E+02  0.00000000000E+00 0. -1.
</event>
<event>
 5    1  0.1691145E-003  0.9118800E+02  0.7818608E-02  0.1130116E+00
         25   -1    0    0    0    0  0.00000000000E+00  0.00000000000E+00  0.99999998245E-14  0.12500000000E+03  0.12500000000E+03 0.  0.
        -11    1    3    3    0    0 -0.39781743880E+01 -0.16348271533E+02 -0.27756327818E+02  0.32457750812E+02  0.51100000000E-03 0.  1.
         23    2    1    0    0    0  0.41574535707E+01  0.79176106468E+01  0.28965055844E+02  0.94685854151E+02  0.89702082125E+02 0.  0.
         11    1    3    3    0    0  0.81356279587E+01  0.24265882180E+02  0.56721383662E+02  0.62228103338E+02  0.51100000000E-03 0. -1.
         22    1    1    0    0    0 -0.41574535707E+01 -0.79176106468E+01 -0.28965055844E+02  0.30314145849E+02  0.00000000000E+00 0. -1.
</event>
<event>
 5    1  0.1691145E-003  0.9118800E+02  0.7818608E-02  0.1130116E+00
         25   -1    0    0    0    0  0.00000000000E+00  0.00000000000E+00  0.99999998245E-14  0.12500000000E+03  0.12500000000E+03 0.  0.
        -11    1    3    3    0    0  0.30552212041E+02  0.90279459244E+01  0.19942107740E+02  0.37584958821E+02  0.51100000000E-03 0. -1.
         23    2    1    0    0    0 -0.71533374604E+01 -0.27891823372E+02 -0.46974188335E+01  0.95824842905E+02  0.91275466179E+02 0.  0.
         11    1    3    3    0    0 -0.37705549501E+02 -0.36919769296E+02 -0.24639526574E+02  0.58239884084E+02  0.51100000000E-03 0.  1.
         22    1    1    0    0    0  0.71533374604E+01  0.27891823372E+02  0.46974188335E+01  0.29175157095E+02  0.00000000000E+00 0.  1.
</event>
<event>
 5    1  0.1691145E-003  0.9118800E+02  0.7818608E-02  0.1130116E+00
         25   -1    0    0    0    0  0.00000000000E+00  0.00000000000E+00  0.99999998245E-14  0.12500000000E+03  0.12500000000E+03 0.  0.
        -11    1    3    3    0    0  0.26146433125E+02  0.20856990140E+02 -0.12659875797E+02  0.35762025367E+02  0.51100000000E-03 0. -1.
         23    2    1    0    0    0 -0.26325255129E+02 -0.51411112698E+00  0.10072015774E+02  0.96809064052E+02  0.92613530400E+02 0.  0.
         11    1    3    3    0    0 -0.52471688254E+02 -0.21371101267E+02  0.22731891571E+02  0.61047038686E+02  0.51100000000E-03 0.  1.
         22    1    1    0    0    0  0.26325255129E+02  0.51411112698E+00 -0.10072015774E+02  0.28190935948E+02  0.00000000000E+00 0.  1.
</event>
<event>
 5    1  0.1691145E-003  0.9118800E+02  0.7818608E-02  0.1130116E+00
         25   -1    0    0    0    0  0.00000000000E+00  0.00000000000E+00  0.99999998245E-14  0.12500000000E+03  0.12500000000E+03 0.  0.
        -11    1    3    3    0    0 -0.97151389255E+01  0.25076287097E+02  0.49182062799E+02  0.56054254079E+02  0.51100000000E-03 0.  1.
         23    2    1    0    0    0  0.14830598319E+02  0.16344577290E+02  0.19485830002E+02  0.95558712254E+02  0.90910274796E+02 0.  0.
         11    1    3    3    0    0  0.24545737245E+02 -0.87317098071E+01 -0.29696232797E+02  0.39504458174E+02  0.51100000000E-03 0. -1.
         22    1    1    0    0    0 -0.14830598319E+02 -0.16344577290E+02 -0.19485830002E+02  0.29441287746E+02  0.00000000000E+00 0.  1.
</event>
<event>
 5    1  0.1691145E-003  0.9118800E+02  0.7818608E-02  0.1130116E+00
         25   -1    0    0    0    0  0.00000000000E+00  0.00000000000E+00  0.99999998245E-14  0.12500000000E+03  0.12500000000E+03 0.  0.
        -11    1    3    3    0    0 -0.22908826416E+02 -0.46953358760E+02 -0.33562981019E+02  0.62095941266E+02  0.51100000000E-03 0.  1.
         23    2    1    0    0    0 -0.12599529836E+02 -0.18452070184E+02 -0.18755247705E+02  0.95828329451E+02  0.91280240813E+02 0.  0.
         11    1    3    3    0    0  0.10309296581E+02  0.28501288576E+02  0.14807733314E+02  0.33732388185E+02  0.51100000000E-03 0. -1.
         22    1    1    0    0    0  0.12599529836E+02  0.18452070184E+02  0.18755247705E+02  0.29171670549E+02  0.00000000000E+00 0.  1.
</event>
<event>
 5    1  0.1691145E-003  0.9118800E+02  0.7818608E-02  0.1130116E+00
         25   -1    0    0    0    0  0.00000000000E+00  0.00000000000E+00  0.99999998245E-14  0.12500000000E+03  0.12500000000E+03 0.  0.
        -11    1    3    3    0    0 -0.32695922409E+02 -0.43918344459E+02 -0.52606268439E+01  0.55004713591E+02  0.51100000000E-03 0. -1.
         23    2    1    0    0    0 -0.28516552813E+02 -0.35791963121E+01  0.19409752687E+01  0.96194239889E+02  0.91779954087E+02 0.  0.
         11    1    3    3    0    0  0.41793695957E+01  0.40339148146E+02  0.72016021125E+01  0.41189526298E+02  0.51100000000E-03 0.  1.
         22    1    1    0    0    0  0.28516552813E+02  0.35791963121E+01 -0.19409752687E+01  0.28805760111E+02  0.00000000000E+00 0. -1.
</event>
<event>
 5    1  0.1691145E-003  0.9118800E+02  0.7818608E-02  0.1130116E+00
         25   -1    0    0    0    0  0.00000000000E+00  0.00000000000E+00  0.99999998245E-14  0.12500000000E+03  0.12500000000E+03 0.  0.
        -11    1    3    3    0    0  0.38239957190E+01 -0.21643826147E+02 -0.21494148046E+02  0.30742097424E+02  0.51100000000E-03 0.  1.
         23    2    1    0    0    0 -0.27596921283E+02  0.97058505169E+01  0.18415966212E+02  0.90432075415E+02  0.83564459275E+02 0.  0.
         11    1    3    3    0    0 -0.31420917002E+02  0.31349676664E+02  0.39910114258E+02  0.59689977991E+02  0.51100000000E-03 0. -1.
         22    1    1    0    0    0  0.27596921283E+02 -0.97058505169E+01 -0.18415966212E+02  0.34567924585E+02  0.00000000000E+00 0. -1.
</event>
<event>
 5    1  0.1691145E-003  0.9118800E+02  0.7818608E-02  0.1130116E+00
         25   -1    0    0    0    0  0.00000000000E+00  0.00000000000E+00  0.99999998245E-14  0.12500000000E+03  0.12500000000E+03 0.  0.
        -11    1    3    3    0    0 -0.20758549638E+02 -0.58168031022E+02 -0.71232953860E+01  0.62170560183E+02  0.51100000000E-03 0. -1.
         23    2    1    0    0    0 -0.66702890469E+01 -0.28207358012E+02 -0.10244683797E+00  0.96014515748E+02  0.91534850942E+02 0.  0.
         11    1    3    3    0    0  0.14088260591E+02  0.29960673010E+02  0.70208485480E+01  0.33843955565E+02  0.51100000000E-03 0.  1.
         22    1    1    0    0    0  0.66702890469E+01  0.28207358012E+02  0.10244683797E+00  0.28985484252E+02  0.00000000000E+00 0. -1.
</event>
<event>
 5    1  0.1691145E-003  0.9118800E+02  0.7818608E-02  0.1130116E+00
         25   -1    0    0    0    0  0.00000000000E+00  0.00000000000E+00  0.99999998245E-14  0.12500000000E+03  0.12500000000E+03 0.  0.
        -11    1    3    3    0    0 -0.95212309416E+01  0.46640566539E+01 -0.47031509645E+02  0.48211722256E+02  0.51100000000E-03 0.  1.
         23    2    1    0    0    0 -0.23652587318E+02  0.16021891721E+02 -0.24640815262E+01  0.96325663061E+02  0.91958772095E+02 0.  0.
         11    1    3    3    0    0 -0.14131356376E+02  0.11357835067E+02  0.44567428119E+02  0.48113940805E+02  0.51100000000E-03 0. -1.
         22    1    1    0    0    0  0.23652587318E+02 -0.16021891721E+02  0.24640815262E+01  0.28674336939E+02  0.00000000000E+00 0. -1.
</event>
<event>
 5    1  0.1691145E-003  0.9118800E+02  0.7818608E-02  0.1130116E+00
         25   -1    0    0    0    0  0.00000000000E+00  0.00000000000E+00  0.99999998245E-14  0.12500000000E+03  0.12500000000E+03 0.  0.
        -11    1    3    3    0    0 -0.27836470674E+02 -0.40015439543E+02 -0.10024472975E+02  0.49765395207E+02  0.51100000000E-03 0.  1.
         23    2    1    0    0    0 -0.12014830117E+02 -0.16939146319E+02 -0.33026940876E+02  0.85986289021E+02  0.76626185180E+02 0.  0.
         11    1    3    3    0    0  0.15821640557E+02  0.23076293224E+02 -0.23002467901E+02  0.36220893814E+02  0.51100000000E-03 0. -1.
         22    1    1    0    0    0  0.12014830117E+02  0.16939146319E+02  0.33026940876E+02  0.39013710979E+02  0.00000000000E+00 0.  1.
</event>
<event>
 5    1  0.1691145E-003  0.9118800E+02  0.7818608E-02  0.1130116E+00
         25   -1    0    0    0    0  0.00000000000E+00  0.00000000000E+00  0.99999998245E-14  0.12500000000E+03  0.12500000000E+03 0.  0.
        -11    1    3    3    0    0  0.21610262752E+01  0.76035229328E+01  0.53449803256E+02  0.54031149015E+02  0.51100000000E-03 0.  1.
         23    2    1    0    0    0  0.22312760888E+02  0.83195935779E+01  0.16816452128E+02  0.95847504430E+02  0.91306495429E+02 0.  0.
         11    1    3    3    0    0  0.20151734613E+02  0.71607064508E+00 -0.36633351127E+02  0.41816355415E+02  0.51100000000E-03 0. -1.
         22    1    1    0    0    0 -0.22312760888E+02 -0.83195935779E+01 -0.16816452128E+02  0.29152495570E+02  0.00000000000E+00 0.  1.
</event>
<event>
 5    1  0.1691145E-003  0.9118800E+02  0.7818608E-02  0.1130116E+00
         25   -1    0    0    0    0  0.00000000000E+00  0.00000000000E+00  0.99999998245E-14  0.12500000000E+03  0.12500000000E+03 0.  0.
        -11    1    3    3    0    0 -0.13156573512E+02 -0.32885490734E+02  0.18564016523E+02  0.39989669130E+02  0.51100000000E-03 0. -1.
         23    2    1    0    0    0  0.28243390082E+02 -0.79504261823E+01 -0.72438034425E+01  0.94777970814E+02  0.89830355134E+02 0.  0.
         11    1    3    3    0    0  0.41399963595E+02  0.24935064551E+02 -0.25807819965E+02  0.54788301684E+02  0.51100000000E-03 0.  1.
         22    1    1    0    0    0 -0.28243390082E+02  0.79504261823E+01  0.72438034425E+01  0.30222029186E+02  0.00000000000E+00 0.  1.
</event>
<event>
 5    1  0.1691145E-003  0.9118800E+02  0.7818608E-02  0.1130116E+00
         25   -1    0    0    0    0  0.00000000000E+00  0.00000000000E+00  0.99999998245E-14  0.12500000000E+03  0.12500000000E+03 0.  0.
        -11    1    3    3    0    0  0.26374234729E+02  0.39669767008E+02 -0.25791288706E+02  0.54170852359E+02  0.51100000000E-03 0.  1.
         23    2    1    0    0    0 -0.10608526974E+02  0.22189502997E+02 -0.56594556706E+01  0.99762244032E+02  0.96517153958E+02 0.  0.
         11    1    3    3    0    0 -0.36982761703E+02 -0.17480264011E+02  0.20131833036E+02  0.45591391673E+02  0.51100000000E-03 0. -1.
         22    1    1    0    0    0  0.10608526974E+02 -0.22189502997E+02  0.56594556706E+01  0.25237755968E+02  0.00000000000E+00 0.  1.
</event>
<event>
 5    1  0.1691145E-003  0.9118800E+02  0.7818608E-02  0.1130116E+00
         25   -1    0    0    0    0  0.00000000000E+00  0.00000000000E+00  0.99999998245E-14  0.12500000000E+03  0.12500000000E+03 0.  0.
        -11    1    3    3    0    0  0.24370021070E+02  0.23959970955E+02 -0.18268789334E+02  0.38752119931E+02  0.51100000000E-03 0.  1.
         23    2    1    0    0    0  0.41784217251E+01 -0.18293263832E+02  0.18770148142E+02  0.98459066124E+02  0.94814379347E+02 0.  0.
         11    1    3    3    0    0 -0.20191599345E+02 -0.42253234788E+02  0.37038937476E+02  0.59706946193E+02  0.51100000000E-03 0. -1.
         22    1    1    0    0    0 -0.41784217251E+01  0.18293263832E+02 -0.18770148142E+02  0.26540933876E+02  0.00000000000E+00 0. -1.
</event>
<event>
 5    1  0.1691145E-003  0.9118800E+02  0.7818608E-02  0.1130116E+00
         25   -1    0    0    0    0  0.00000000000E+00  0.00000000000E+00  0.99999998245E-14  0.12500000000E+03  0.12500000000E+03 0.  0.
        -11    1    3    3    0    0 -0.30045262953E+02  0.11264578315E+02  0.40979293282E+02  0.52047200008E+02  0.51100000000E-03 0.  1.
         23    2    1    0    0    0  0.21272609852E+01 -0.15060933401E+02  0.23196118586E+02  0.97261635382E+02  0.93222362369E+02 0.  0.
         11    1    3    3    0    0  0.32172523938E+02 -0.26325511716E+02 -0.17783174696E+02  0.45214435374E+02  0.51100000000E-03 0. -1.
         22    1    1    0    0    0 -0.21272609852E+01  0.15060933401E+02 -0.23196118586E+02  0.27738364618E+02  0.00000000000E+00 0.  1.
</event>
<event>
 5    1  0.1691145E-003  0.9118800E+02  0.7818608E-02  0.1130116E+00
         25   -1    0    0    0    0  0.00000000000E+00  0.00000000000E+00  0.99999998245E-14  0.12500000000E+03  0.12500000000E+03 0.  0.
        -11    1    3    3    0    0  0.18924247224E+02  0.56277084236E+02  0.18057257057E+02  0.62058858158E+02  0.51100000000E-03 0.  1.
         23    2    1    0    0    0  0.57166292738E+01  0.28009618413E+02  0.45700196330E+01  0.96049980081E+02  0.91583268232E+02 0.  0.
         11    1    3    3    0    0 -0.13207617951E+02 -0.28267465823E+02 -0.13487237424E+02  0.33991121923E+02  0.51100000000E-03 0. -1.
         22    1    1    0    0    0 -0.57166292738E+01 -0.28009618413E+02 -0.45700196330E+01  0.28950019919E+02  0.00000000000E+00 0.  1.
</event>
<event>
 5    1  0.1691145E-003  0.9118800E+02  0.7818608E-02  0.1130116E+00
         25   -1    0    0    0    0  0.00000000000E+00  0.00000000000E+00  0.99999998245E-14  0.12500000000E+03  0.12500000000E+03 0.  0.
        -11    1    3    3    0    0  0.31179133446E+02  0.99936537040E+01  0.46489864057E+00  0.32744886743E+02  0.51100000000E-03 0.  1.
         23    2    1    0    0    0 -0.28594016452E+02 -0.79338192310E+00 -0.10620726477E+02  0.94486936198E+02  0.89424460017E+02 0.  0.
         11    1    3    3    0    0 -0.59773149898E+02 -0.10787035627E+02 -0.11085625118E+02  0.61742049454E+02  0.51100000000E-03 0. -1.
         22    1    1    0    0    0  0.28594016452E+02  0.79338192310E+00  0.10620726477E+02  0.30513063802E+02  0.00000000000E+00 0. -1.
</event>
<event>
 5    1  0.1691145E-003  0.9118800E+02  0.7818608E-02  0.1130116E+00
         25   -1    0    0    0    0  0.00000000000E+00  0.00000000000E+00  0.99999998245E-14  0.12500000000E+03  0.12500000000E+03 0.  0.
        -11    1    3    3    0    0 -0.17400055629E+02  0.26982937380E+02 -0.17159988959E+02  0.36404753355E+02  0.51100000000E-03 0. -1.
         23    2    1    0    0    0 -0.74587133750E+01 -0.15547886952E+02  0.23347536163E+02  0.95974551877E+02  0.91480259997E+02 0.  0.
         11    1    3    3    0    0  0.99413422542E+01 -0.42530824332E+02  0.40507525121E+02  0.59569798521E+02  0.51100000000E-03 0.  1.
         22    1    1    0    0    0  0.74587133750E+01  0.15547886952E+02 -0.23347536163E+02  0.29025448123E+02  0.00000000000E+00 0.  1.
</event>
<event>
 5    1  0.1691145E-003  0.9118800E+02  0.7818608E-02  0.1130116E+00
         25   -1    0    0    0    0  0.00000000000E+00  0.00000000000E+00  0.99999998245E-14  0.12500000000E+03  0.12500000000E+03 0.  0.
        -11    1    3    3    0    0  0.44168684779E+02 -0.59487227605E+01  0.19816224471E+01  0.44611510234E+02  0.51100000000E-03 0. -1.
         23    2    1    0    0    0 -0.20875749436E+00  0.12587733585E+02 -0.22980503575E+02  0.98796981833E+02  0.95258834016E+02 0.  0.
         11    1    3    3    0    0 -0.44377442273E+02  0.18536456346E+02 -0.24962126023E+02  0.54185471599E+02  0.51100000000E-03 0.  1.
         22    1    1    0    0    0  0.20875749436E+00 -0.12587733585E+02  0.22980503575E+02  0.26203018167E+02  0.00000000000E+00 0.  1.
</event>
<event>
 5    1  0.1691145E-003  0.9118800E+02  0.7818608E-02  0.1130116E+00
         25   -1    0    0    0    0  0.00000000000E+00  0.00000000000E+00  0.99999998245E-14  0.12500000000E+03  0.12500000000E+03 0.  0.
        -11    1    3    3    0    0 -0.54758966598E+01  0.30636165655E+02  0.16059299569E+02  0.35020867967E+02  0.51100000000E-03 0.  1.
         23    2    1    0    0    0 -0.11365261879E+02 -0.27413210900E+02  0.87654995460E+00  0.95311253828E+02  0.90569384767E+02 0.  0.
         11    1    3    3    0    0 -0.58893652188E+01 -0.58049376555E+02 -0.15182749614E+02  0.60290385861E+02  0.51100000000E-03 0. -1.
         22    1    1    0    0    0  0.11365261879E+02  0.27413210900E+02 -0.87654995460E+00  0.29688746172E+02  0.00000000000E+00 0. -1.
</event>
<event>
 5    1  0.1691145E-003  0.9118800E+02  0.7818608E-02  0.1130116E+00
         25   -1    0    0    0    0  0.00000000000E+00  0.00000000000E+00  0.99999998245E-14  0.12500000000E+03  0.12500000000E+03 0.  0.
        -11    1    3    3    0    0  0.47288572179E+01 -0.29238263965E+02  0.16231486716E+02  0.33774240651E+02  0.51100000000E-03 0. -1.
         23    2    1    0    0    0  0.15759997459E+02  0.22177424247E+02 -0.13970371579E+02  0.94415903673E+02  0.89325113592E+02 0.  0.
         11    1    3    3    0    0  0.11031140241E+02  0.51415688212E+02 -0.30201858295E+02  0.60641663022E+02  0.51100000000E-03 0.  1.
         22    1    1    0    0    0 -0.15759997459E+02 -0.22177424247E+02  0.13970371579E+02  0.30584096327E+02  0.00000000000E+00 0.  1.
</event>
<event>
 5    1  0.1691145E-003  0.9118800E+02  0.7818608E-02  0.1130116E+00
         25   -1    0    0    0    0  0.00000000000E+00  0.00000000000E+00  0.99999998245E-14  0.12500000000E+03  0.12500000000E+03 0.  0.
        -11    1    3    3    0    0 -0.45306214894E+02  0.13068690977E+02 -0.38725432469E+02  0.61017234550E+02  0.51100000000E-03 0.  1.
         23    2    1    0    0    0 -0.24378992922E+02  0.20378960584E+01 -0.91709063735E+01  0.98873503106E+02  0.95359193456E+02 0.  0.
         11    1    3    3    0    0  0.20927221973E+02 -0.11030794919E+02  0.29554526096E+02  0.37856268557E+02  0.51100000000E-03 0. -1.
         22    1    1    0    0    0  0.24378992922E+02 -0.20378960584E+01  0.91709063735E+01  0.26126496894E+02  0.00000000000E+00 0.  1.
</event>
<event>
 5    1  0.1691145E-003  0.9118800E+02  0.7818608E-02  0.1130116E+00
         25   -1    0    0    0    0  0.00000000000E+00  0.00000000000E+00  0.99999998245E-14  0.12500000000E+03  0.12500000000E+03 0.  0.
        -11    1    3    3    0    0 -0.41003826281E+02  0.15129123453E+02 -0.10089234491E+01  0.43717525924E+02  0.51100000000E-03 0.  1.
         23    2    1    0    0    0 -0.68587922681E+01 -0.13495488180E+02  0.25340621391E+02  0.95481898349E+02  0.90804595628E+02 0.  0.
         11    1    3    3    0    0  0.34145034013E+02 -0.28624611633E+02  0.26349544841E+02  0.51764372424E+02  0.51100000000E-03 0. -1.
         22    1    1    0    0    0  0.68587922681E+01  0.13495488180E+02 -0.25340621391E+02  0.29518101651E+02  0.00000000000E+00 0.  1.
</event>
<event>
 5    1  0.1691145E-003  0.9118800E+02  0.7818608E-02  0.1130116E+00
         25   -1    0    0    0    0  0.00000000000E+00  0.00000000000E+00  0.99999998245E-14  0.12500000000E+03  0.12500000000E+03 0.  0.
        -11    1    3    3    0    0 -0.15478334570E+02  0.35590446298E+02  0.59915047345E+01  0.39270304786E+02  0.51100000000E-03 0. -1.
         23    2    1    0    0    0  0.22459637195E+02  0.20834572894E+01 -0.18804265425E+02  0.95633752446E+02  0.91013395231E+02 0.  0.
         11    1    3    3    0    0  0.37937971765E+02 -0.33506989009E+02 -0.24795770160E+02  0.56363447660E+02  0.51100000000E-03 0.  1.
         22    1    1    0    0    0 -0.22459637195E+02 -0.20834572894E+01  0.18804265425E+02  0.29366247554E+02  0.00000000000E+00 0.  1.
</event>
<event>
 5    1  0.1691145E-003  0.9118800E+02  0.7818608E-02  0.1130116E+00
         25   -1    0    0    0    0  0.00000000000E+00  0.00000000000E+00  0.99999998245E-14  0.12500000000E+03  0.12500000000E+03 0.  0.
        -11    1    3    3    0    0  0.36185486089E+02 -0.25604591436E+02  0.36695933703E+02  0.57546294900E+02  0.51100000000E-03 0.  1.
         23    2    1    0    0    0  0.98365223176E+01 -0.25459129103E+02  0.29393584499E+02  0.84888814083E+02  0.74814460639E+02 0.  0.
         11    1    3    3    0    0 -0.26348963771E+02  0.14546233288E+00 -0.73023492045E+01  0.27342519183E+02  0.51100000000E-03 0. -1.
         22    1    1    0    0    0 -0.98365223176E+01  0.25459129103E+02 -0.29393584499E+02  0.40111185917E+02  0.00000000000E+00 0.  1.
</event>
<event>
 5    1  0.1691145E-003  0.9118800E+02  0.7818608E-02  0.1130116E+00
         25   -1    0    0    0    0  0.00000000000E+00  0.00000000000E+00  0.99999998245E-14  0.12500000000E+03  0.12500000000E+03 0.  0.
        -11    1    3    3    0    0  0.45259231903E+02 -0.24677536240E+02  0.13968066979E+02  0.53408667487E+02  0.51100000000E-03 0. -1.
         23    2    1    0    0    0  0.16910584593E+01 -0.14321067927E+02  0.21791563118E+02  0.98869081753E+02  0.95353397623E+02 0.  0.
         11    1    3    3    0    0 -0.43568173444E+02  0.10356468313E+02  0.78234961395E+01  0.45460414266E+02  0.51100000000E-03 0.  1.
         22    1    1    0    0    0 -0.16910584593E+01  0.14321067927E+02 -0.21791563118E+02  0.26130918247E+02  0.00000000000E+00 0. -1.
</event>
<event>
 5    1  0.1691145E-003  0.9118800E+02  0.7818608E-02  0.1130116E+00
         25   -1    0    0    0    0  0.00000000000E+00  0.00000000000E+00  0.99999998245E-14  0.12500000000E+03  0.12500000000E+03 0.  0.
        -11    1    3    3    0    0  0.25035966944E+02 -0.74159571752E+01  0.45553648551E+02  0.52506484916E+02  0.51100000000E-03 0.  1.
         23    2    1    0    0    0  0.18097208027E+02 -0.21525759534E+02  0.44335326899E+01  0.96530306043E+02  0.92236524819E+02 0.  0.
         11    1    3    3    0    0 -0.69387589165E+01 -0.14109802359E+02 -0.41120115861E+02  0.44023821127E+02  0.51100000000E-03 0. -1.
         22    1    1    0    0    0 -0.18097208027E+02  0.21525759534E+02 -0.44335326899E+01  0.28469693957E+02  0.00000000000E+00 0.  1.
</event>
<event>
 5    1  0.1691145E-003  0.9118800E+02  0.7818608E-02  0.1130116E+00
         25   -1    0    0    0    0  0.00000000000E+00  0.00000000000E+00  0.99999998245E-14  0.12500000000E+03  0.12500000000E+03 0.  0.
        -11    1    3    3    0    0 -0.29638196010E+02  0.55449765953E+01 -0.45454616820E+02  0.54546233772E+02  0.51100000000E-03 0.  1.
         23    2    1    0    0    0  0.62682626296E+01 -0.51161212341E+01 -0.27972296107E+02  0.95881017148E+02  0.91352363335E+02 0.  0.
         11    1    3    3    0    0  0.35906458639E+02 -0.10661097829E+02  0.17482320714E+02  0.41334783376E+02  0.51100000000E-03 0. -1.
         22    1    1    0    0    0 -0.62682626296E+01  0.51161212341E+01  0.27972296107E+02  0.29118982852E+02  0.00000000000E+00 0.  1.
</event>
<event>
 5    1  0.1691145E-003  0.9118800E+02  0.7818608E-02  0.1130116E+00
         25   -1    0    0    0    0  0.00000000000E+00  0.00000000000E+00  0.99999998245E-14  0.12500000000E+03  0.12500000000E+03 0.  0.
        -11    1    3    3    0    0 -0.16803552020E+02  0.96109549350E+01 -0.56893817554E+02  0.60096890863E+02  0.51100000000E-03 0. -1.
         23    2    1    0    0    0 -0.18458494555E+02 -0.85363989045E+00 -0.23655499169E+02  0.94982882163E+02  0.90115040592E+02 0.  0.
         11    1    3    3    0    0 -0.16549425353E+01 -0.10464594825E+02  0.33238318386E+02  0.34885991300E+02  0.51100000000E-03 0.  1.
         22    1    1    0    0    0  0.18458494555E+02  0.85363989045E+00  0.23655499169E+02  0.30017117837E+02  0.00000000000E+00 0. -1.
</event>
<event>
 5    1  0.1691145E-003  0.9118800E+02  0.7818608E-02  0.1130116E+00
         25   -1    0    0    0    0  0.00000000000E+00  0.00000000000E+00  0.99999998245E-14  0.12500000000E+03  0.12500000000E+03 0.  0.
        -11    1    3    3    0    0  0.32764262667E+02 -0.17397326484E+02 -0.81752739730E+01  0.37986826423E+02  0.51100000000E-03 0.  1.
         23    2    1    0    0    0  0.95674255988E+01  0.17013066016E+02 -0.33229178310E+02  0.86462247873E+02  0.77398720715E+02 0.  0.
         11    1    3    3    0    0 -0.23196837068E+02  0.34410392500E+02 -0.25053904337E+02  0.48475421450E+02  0.51100000000E-03 0. -1.
         22    1    1    0    0    0 -0.95674255988E+01 -0.17013066016E+02  0.33229178310E+02  0.38537752127E+02  0.00000000000E+00 0.  1.
</event>
<event>
 5    1  0.1691145E-003  0.9118800E+02  0.7818608E-02  0.1130116E+00
         25   -1    0    0    0    0  0.00000000000E+00  0.00000000000E+00  0.99999998245E-14  0.12500000000E+03  0.12500000000E+03 0.  0.
        -11    1    3    3    0    0  0.11437178787E+02 -0.10432308048E+02  0.48070706855E+02  0.50501831329E+02  0.51100000000E-03 0.  1.
         23    2    1    0    0    0 -0.17277876163E+02 -0.18162178097E+02  0.12124478612E+02  0.97154125987E+02  0.93078093539E+02 0.  0.
         11    1    3    3    0    0 -0.28715054950E+02 -0.77298700490E+01 -0.35946228243E+02  0.46652294659E+02  0.51100000000E-03 0. -1.
         22    1    1    0    0    0  0.17277876163E+02  0.18162178097E+02 -0.12124478612E+02  0.27845874013E+02  0.00000000000E+00 0.  1.
</event>
<event>
 5    1  0.1691145E-003  0.9118800E+02  0.7818608E-02  0.1130116E+00
         25   -1    0    0    0    0  0.00000000000E+00  0.00000000000E+00  0.99999998245E-14  0.12500000000E+03  0.12500000000E+03 0.  0.
        -11    1    3    3    0    0 -0.12529974157E+02  0.22910726214E+00 -0.32510530621E+02  0.34842321163E+02  0.51100000000E-03 0.  1.
         23    2    1    0    0    0  0.83041844666E+01 -0.18094896228E+02  0.21583000811E+02  0.95636575929E+02  0.91017272989E+02 0.  0.
         11    1    3    3    0    0  0.20834158624E+02 -0.18324003490E+02  0.54093531432E+02  0.60794254766E+02  0.51100000000E-03 0. -1.
         22    1    1    0    0    0 -0.83041844666E+01  0.18094896228E+02 -0.21583000811E+02  0.29363424071E+02  0.00000000000E+00 0. -1.
</event>
<event>
 5    1  0.1691145E-003  0.9118800E+02  0.7818608E-02  0.1130116E+00
         25   -1    0    0    0    0  0.00000000000E+00  0.00000000000E+00  0.99999998245E-14  0.12500000000E+03  0.12500000000E+03 0.  0.
        -11    1    3    3    0    0  0.26216421316E+02 -0.23244015236E+02  0.35804450704E+02  0.50095345906E+02  0.51100000000E-03 0.  1.
         23    2    1    0    0    0  0.30600943385E+02 -0.61380161639E+00 -0.19503740065E+01  0.94330822521E+02  0.89205973064E+02 0.  0.
         11    1    3    3    0    0  0.43845220685E+01  0.22630213619E+02 -0.37754824711E+02  0.44235476616E+02  0.51100000000E-03 0. -1.
         22    1    1    0    0    0 -0.30600943385E+02  0.61380161639E+00  0.19503740065E+01  0.30669177479E+02  0.00000000000E+00 0.  1.
</event>
<event>
 5    1  0.1691145E-003  0.9118800E+02  0.7818608E-02  0.1130116E+00
         25   -1    0    0    0    0  0.00000000000E+00  0.00000000000E+00  0.99999998245E-14  0.12500000000E+03  0.12500000000E+03 0.  0.
        -11    1    3    3    0    0 -0.34327991987E+02 -0.21524796032E+02  0.33300887608E+02  0.52446896894E+02  0.51100000000E-03 0. -1.
         23    2    1    0    0    0 -0.12201281983E+02 -0.28339242139E+02 -0.13448232651E+01  0.94116469168E+02  0.88905102733E+02 0.  0.
         11    1    3    3    0    0  0.22126710003E+02 -0.68144461065E+01 -0.34645710873E+02  0.41669572274E+02  0.51100000000E-03 0.  1.
         22    1    1    0    0    0  0.12201281983E+02  0.28339242139E+02  0.13448232651E+01  0.30883530832E+02  0.00000000000E+00 0. -1.
</event>
<event>
 5    1  0.1691145E-003  0.9118800E+02  0.7818608E-02  0.1130116E+00
         25   -1    0    0    0    0  0.00000000000E+00  0.00000000000E+00  0.99999998245E-14  0.12500000000E+03  0.12500000000E+03 0.  0.
        -11    1    3    3    0    0  0.12294448835E+02  0.43404773640E+01 -0.51390490946E+02  0.53018636118E+02  0.51100000000E-03 0.  1.
         23    2    1    0    0    0  0.19284491344E+02 -0.14916702237E+02 -0.11114027679E+02  0.98205947987E+02  0.94480087833E+02 0.  0.
         11    1    3    3    0    0  0.69900425081E+01 -0.19257179601E+02  0.40276463267E+02  0.45187311870E+02  0.51100000000E-03 0. -1.
         22    1    1    0    0    0 -0.19284491344E+02  0.14916702237E+02  0.11114027679E+02  0.26794052013E+02  0.00000000000E+00 0.  1.
</event>
<event>
 5    1  0.1691145E-003  0.9118800E+02  0.7818608E-02  0.1130116E+00
         25   -1    0    0    0    0  0.00000000000E+00  0.00000000000E+00  0.99999998245E-14  0.12500000000E+03  0.12500000000E+03 0.  0.
        -11    1    3    3    0    0 -0.27211847116E+01 -0.52313008420E+02  0.27352262907E+02  0.59094855805E+02  0.51100000000E-03 0.  1.
         23    2    1    0    0    0 -0.15408400442E+02 -0.21795269143E+02  0.94305612708E+01  0.96691201949E+02  0.92454315677E+02 0.  0.
         11    1    3    3    0    0 -0.12687215730E+02  0.30517739277E+02 -0.17921701637E+02  0.37596346144E+02  0.51100000000E-03 0. -1.
         22    1    1    0    0    0  0.15408400442E+02  0.21795269143E+02 -0.94305612708E+01  0.28308798051E+02  0.00000000000E+00 0.  1.
</event>
<event>
 5    1  0.1691145E-003  0.9118800E+02  0.7818608E-02  0.1130116E+00
         25   -1    0    0    0    0  0.00000000000E+00  0.00000000000E+00  0.99999998245E-14  0.12500000000E+03  0.12500000000E+03 0.  0.
        -11    1    3    3    0    0 -0.23087765360E+02  0.17959746446E+02 -0.42590942793E+02  0.51668034702E+02  0.51100000000E-03 0.  1.
         23    2    1    0    0    0  0.13794161136E+02  0.16808535885E+02 -0.22612223116E+02  0.93629338638E+02  0.88217541677E+02 0.  0.
         11    1    3    3    0    0  0.36881926496E+02 -0.11512105612E+01  0.19978719677E+02  0.41961303936E+02  0.51100000000E-03 0. -1.
         22    1    1    0    0    0 -0.13794161136E+02 -0.16808535885E+02  0.22612223116E+02  0.31370661362E+02  0.00000000000E+00 0.  1.
</event>
<event>
 5    1  0.1691145E-003  0.9118800E+02  0.7818608E-02  0.1130116E+00
         25   -1    0    0    0    0  0.00000000000E+00  0.00000000000E+00  0.99999998245E-14  0.12500000000E+03  0.12500000000E+03 0.  0.
        -11    1    3    3    0    0  0.22068475463E+02  0.37103749745E+02 -0.37530833716E+01  0.43333491545E+02  0.51100000000E-03 0.  1.
         23    2    1    0    0    0  0.12965334176E+01 -0.35320910256E+01 -0.29181682146E+02  0.95576756828E+02  0.90935082377E+02 0.  0.
         11    1    3    3    0    0 -0.20771942046E+02 -0.40635840771E+02 -0.25428598774E+02  0.52243265283E+02  0.51100000000E-03 0. -1.
         22    1    1    0    0    0 -0.12965334176E+01  0.35320910256E+01  0.29181682146E+02  0.29423243172E+02  0.00000000000E+00 0. -1.
</event>
<event>
 5    1  0.1691145E-003  0.9118800E+02  0.7818608E-02  0.1130116E+00
         25   -1    0    0    0    0  0.00000000000E+00  0.00000000000E+00  0.99999998245E-14  0.12500000000E+03  0.12500000000E+03 0.  0.
        -11    1    3    3    0    0  0.41373344611E+02  0.61368211547E+01 -0.17127334556E+02  0.45196900418E+02  0.51100000000E-03 0.  1.
         23    2    1    0    0    0  0.21508078436E+01  0.27793326877E+02  0.72401208560E+01  0.96198709347E+02  0.91786041078E+02 0.  0.
         11    1    3    3    0    0 -0.39222536767E+02  0.21656505722E+02  0.24367455412E+02  0.51001808929E+02  0.51100000000E-03 0. -1.
         22    1    1    0    0    0 -0.21508078436E+01 -0.27793326877E+02 -0.72401208560E+01  0.28801290653E+02  0.00000000000E+00 0. -1.
</event>
<event>
 5    1  0.1691145E-003  0.9118800E+02  0.7818608E-02  0.1130116E+00
         25   -1    0    0    0    0  0.00000000000E+00  0.00000000000E+00  0.99999998245E-14  0.12500000000E+03  0.12500000000E+03 0.  0.
        -11    1    3    3    0    0  0.19253054552E+02 -0.41032740886E+02 -0.20471499830E+02  0.49733773633E+02  0.51100000000E-03 0.  1.
         23    2    1    0    0    0 -0.84998747250E+01 -0.26007841363E+02  0.12096250505E+02  0.95083867914E+02  0.90255010822E+02 0.  0.
         11    1    3    3    0    0 -0.27752929277E+02  0.15024899523E+02  0.32567750335E+02  0.45350094281E+02  0.51100000000E-03 0. -1.
         22    1    1    0    0    0  0.84998747250E+01  0.26007841363E+02 -0.12096250505E+02  0.29916132086E+02  0.00000000000E+00 0.  1.
</event>
<event>
 5    1  0.1691145E-003  0.9118800E+02  0.7818608E-02  0.1130116E+00
         25   -1    0    0    0    0  0.00000000000E+00  0.00000000000E+00  0.99999998245E-14  0.12500000000E+03  0.12500000000E+03 0.  0.
        -11    1    3    3    0    0  0.17812298339E+01  0.22914843779E+02 -0.25847153249E+02  0.34588121899E+02  0.51100000000E-03 0.  1.
         23    2    1    0    0    0 -0.47747226367E+01 -0.59852866013E+01  0.27956981089E+02  0.96013547586E+02  0.91533528811E+02 0.  0.
         11    1    3    3    0    0 -0.65559524706E+01 -0.28900130380E+02  0.53804134338E+02  0.61425425687E+02  0.51100000000E-03 0. -1.
         22    1    1    0    0    0  0.47747226367E+01  0.59852866013E+01 -0.27956981089E+02  0.28986452414E+02  0.00000000000E+00 0. -1.
</event>
<event>
 5    1  0.1691145E-003  0.9118800E+02  0.7818608E-02  0.1130116E+00
         25   -1    0    0    0    0  0.00000000000E+00  0.00000000000E+00  0.99999998245E-14  0.12500000000E+03  0.12500000000E+03 0.  0.
        -11    1    3    3    0    0 -0.52006252132E+02  0.60462834344E+01  0.12814113841E+02  0.53901848929E+02  0.51100000000E-03 0.  1.
         23    2    1    0    0    0 -0.24527921847E+02 -0.18291694680E+02 -0.37511055326E+01  0.94173455641E+02  0.88985189275E+02 0.  0.
         11    1    3    3    0    0  0.27478330285E+02 -0.24337978115E+02 -0.16565219373E+02  0.40271606712E+02  0.51100000000E-03 0. -1.
         22    1    1    0    0    0  0.24527921847E+02  0.18291694680E+02  0.37511055326E+01  0.30826544359E+02  0.00000000000E+00 0.  1.
</event>
<event>
 5    1  0.1691145E-003  0.9118800E+02  0.7818608E-02  0.1130116E+00
         25   -1    0    0    0    0  0.00000000000E+00  0.00000000000E+00  0.99999998245E-14  0.12500000000E+03  0.12500000000E+03 0.  0.
        -11    1    3    3    0    0 -0.36752723661E+02 -0.66321079238E+01 -0.15097844235E+02  0.40282656973E+02  0.51100000000E-03 0.  1.
         23    2    1    0    0    0  0.71289049834E+01  0.22104680699E+02 -0.21779147988E+02  0.93160253108E+02  0.87550347098E+02 0.  0.
         11    1    3    3    0    0  0.43881628645E+02  0.28736788623E+02 -0.66813037534E+01  0.52877596134E+02  0.51100000000E-03 0. -1.
         22    1    1    0    0    0 -0.71289049834E+01 -0.22104680699E+02  0.21779147988E+02  0.31839746892E+02  0.00000000000E+00 0. -1.
</event>
<event>
 5    1  0.1691145E-003  0.9118800E+02  0.7818608E-02  0.1130116E+00
         25   -1    0    0    0    0  0.00000000000E+00  0.00000000000E+00  0.99999998245E-14  0.12500000000E+03  0.12500000000E+03 0.  0.
        -11    1    3    3    0    0 -0.47144176436E+02  0.37341206287E+02  0.61755631524E+01  0.60457229835E+02  0.51100000000E-03 0.  1.
         23    2    1    0    0    0 -0.16573625046E+02  0.26240446910E+02 -0.16878430234E+01  0.93917932577E+02  0.88625521969E+02 0.  0.
         11    1    3    3    0    0  0.30570551390E+02 -0.11100759377E+02 -0.78634061758E+01  0.33460702742E+02  0.51100000000E-03 0. -1.
         22    1    1    0    0    0  0.16573625046E+02 -0.26240446910E+02  0.16878430234E+01  0.31082067423E+02  0.00000000000E+00 0.  1.
</event>
<event>
 5    1  0.1691145E-003  0.9118800E+02  0.7818608E-02  0.1130116E+00
         25   -1    0    0    0    0  0.00000000000E+00  0.00000000000E+00  0.99999998245E-14  0.12500000000E+03  0.12500000000E+03 0.  0.
        -11    1    3    3    0    0  0.13682060483E+02  0.52449380734E+02  0.14041250209E+02  0.55993687377E+02  0.51100000000E-03 0. -1.
         23    2    1    0    0    0  0.22788130305E+02  0.19892466005E+02 -0.42866434538E+01  0.94448659626E+02  0.89370939944E+02 0.  0.
         11    1    3    3    0    0  0.91060698217E+01 -0.32556914729E+02 -0.18327893662E+02  0.38454972248E+02  0.51100000000E-03 0.  1.
         22    1    1    0    0    0 -0.22788130305E+02 -0.19892466005E+02  0.42866434538E+01  0.30551340374E+02  0.00000000000E+00 0. -1.
</event>
<event>
 5    1  0.1691145E-003  0.9118800E+02  0.7818608E-02  0.1130116E+00
         25   -1    0    0    0    0  0.00000000000E+00  0.00000000000E+00  0.99999998245E-14  0.12500000000E+03  0.12500000000E+03 0.  0.
        -11    1    3    3    0    0 -0.15377050357E+02  0.20826550683E+02  0.11715596268E+02  0.28415736612E+02  0.51100000000E-03 0.  1.
         23    2    1    0    0    0  0.26187255274E+02  0.18028153630E+01 -0.26280068320E+02  0.87856165075E+02  0.79618096365E+02 0.  0.
         11    1    3    3    0    0  0.41564305631E+02 -0.19023735320E+02 -0.37995664588E+02  0.59440428463E+02  0.51100000000E-03 0. -1.
         22    1    1    0    0    0 -0.26187255274E+02 -0.18028153630E+01  0.26280068320E+02  0.37143834925E+02  0.00000000000E+00 0. -1.
</event>
<event>
 5    1  0.1691145E-003  0.9118800E+02  0.7818608E-02  0.1130116E+00
         25   -1    0    0    0    0  0.00000000000E+00  0.00000000000E+00  0.99999998245E-14  0.12500000000E+03  0.12500000000E+03 0.  0.
        -11    1    3    3    0    0  0.32904984457E+02  0.14686436775E+02  0.21064426778E+02  0.41738944680E+02  0.51100000000E-03 0.  1.
         23    2    1    0    0    0 -0.21678622053E+02  0.14161857832E+02  0.84271202194E+01  0.97768818855E+02  0.93899971852E+02 0.  0.
         11    1    3    3    0    0 -0.54583606510E+02 -0.52457894286E+00 -0.12637306559E+02  0.56029874175E+02  0.51100000000E-03 0. -1.
         22    1    1    0    0    0  0.21678622053E+02 -0.14161857832E+02 -0.84271202194E+01  0.27231181145E+02  0.00000000000E+00 0. -1.
</event>
<event>
 5    1  0.1691145E-003  0.9118800E+02  0.7818608E-02  0.1130116E+00
         25   -1    0    0    0    0  0.00000000000E+00  0.00000000000E+00  0.99999998245E-14  0.12500000000E+03  0.12500000000E+03 0.  0.
        -11    1    3    3    0    0 -0.15173403250E+02  0.75967691411E+01  0.31487750959E+02  0.35769002339E+02  0.51100000000E-03 0.  1.
         23    2    1    0    0    0  0.16845856522E+02 -0.22001160024E+02 -0.95932165013E+01  0.95676566927E+02  0.91072178693E+02 0.  0.
         11    1    3    3    0    0  0.32019259772E+02 -0.29597929165E+02 -0.41080967461E+02  0.59907564588E+02  0.51100000000E-03 0. -1.
         22    1    1    0    0    0 -0.16845856522E+02  0.22001160024E+02  0.95932165013E+01  0.29323433073E+02  0.00000000000E+00 0. -1.
</event>
<event>
 5    1  0.1691145E-003  0.9118800E+02  0.7818608E-02  0.1130116E+00
         25   -1    0    0    0    0  0.00000000000E+00  0.00000000000E+00  0.99999998245E-14  0.12500000000E+03  0.12500000000E+03 0.  0.
        -11    1    3    3    0    0  0.22188146920E+02  0.22506539629E+02 -0.41722049254E+02  0.52341069763E+02  0.51100000000E-03 0.  1.
         23    2    1    0    0    0  0.94411736556E+01  0.27557031122E+02 -0.41141322382E+00  0.95867629944E+02  0.91334043412E+02 0.  0.
         11    1    3    3    0    0 -0.12746973264E+02  0.50504914928E+01  0.41310636030E+02  0.43526560181E+02  0.51100000000E-03 0. -1.
         22    1    1    0    0    0 -0.94411736556E+01 -0.27557031122E+02  0.41141322382E+00  0.29132370056E+02  0.00000000000E+00 0. -1.
</event>
<event>
 5    1  0.1691145E-003  0.9118800E+02  0.7818608E-02  0.1130116E+00
         25   -1    0    0    0    0  0.00000000000E+00  0.00000000000E+00  0.99999998245E-14  0.12500000000E+03  0.12500000000E+03 0.  0.
        -11    1    3    3    0    0  0.29053714249E+02  0.79019700401E+01  0.16486381956E+02  0.34327252037E+02  0.51100000000E-03 0. -1.
         23    2    1    0    0    0 -0.28609540304E+02 -0.19666070831E+01 -0.34127808694E+01  0.96120588422E+02  0.91679589361E+02 0.  0.
         11    1    3    3    0    0 -0.57663254553E+02 -0.98685771231E+01 -0.19899162826E+02  0.61793336384E+02  0.51100000000E-03 0.  1.
         22    1    1    0    0    0  0.28609540304E+02  0.19666070831E+01  0.34127808694E+01  0.28879411578E+02  0.00000000000E+00 0.  1.
</event>
<event>
 5    1  0.1691145E-003  0.9118800E+02  0.7818608E-02  0.1130116E+00
         25   -1    0    0    0    0  0.00000000000E+00  0.00000000000E+00  0.99999998245E-14  0.12500000000E+03  0.12500000000E+03 0.  0.
        -11    1    3    3    0    0 -0.21448746144E+02  0.30631652435E+02 -0.10871351116E+02  0.38942690166E+02  0.51100000000E-03 0.  1.
         23    2    1    0    0    0 -0.18383628754E+02 -0.24065805685E+02 -0.42520392957E+00  0.94713012566E+02  0.89739919443E+02 0.  0.
         11    1    3    3    0    0  0.30651173897E+01 -0.54697458119E+02  0.10446147186E+02  0.55770322400E+02  0.51100000000E-03 0. -1.
         22    1    1    0    0    0  0.18383628754E+02  0.24065805685E+02  0.42520392957E+00  0.30286987434E+02  0.00000000000E+00 0. -1.
</event>
<event>
 5    1  0.1691145E-003  0.9118800E+02  0.7818608E-02  0.1130116E+00
         25   -1    0    0    0    0  0.00000000000E+00  0.00000000000E+00  0.99999998245E-14  0.12500000000E+03  0.12500000000E+03 0.  0.
        -11    1    3    3    0    0  0.57710661554E+00  0.23662862767E+02 -0.27066737922E+02  0.35956535267E+02  0.51100000000E-03 0.  1.
         23    2    1    0    0    0 -0.16255651211E+02 -0.21588876758E+02  0.93198909906E+01  0.96413531802E+02  0.92078135029E+02 0.  0.
         11    1    3    3    0    0 -0.16832757827E+02 -0.45251739525E+02  0.36386628913E+02  0.60456996535E+02  0.51100000000E-03 0. -1.
         22    1    1    0    0    0  0.16255651211E+02  0.21588876758E+02 -0.93198909906E+01  0.28586468198E+02  0.00000000000E+00 0. -1.
</event>
<event>
 5    1  0.1691145E-003  0.9118800E+02  0.7818608E-02  0.1130116E+00
         25   -1    0    0    0    0  0.00000000000E+00  0.00000000000E+00  0.99999998245E-14  0.12500000000E+03  0.12500000000E+03 0.  0.
        -11    1    3    3    0    0  0.25054776072E+02 -0.32296351598E+02 -0.88395621560E+01  0.41820258128E+02  0.51100000000E-03 0. -1.
         23    2    1    0    0    0  0.12212427107E+02  0.20380106908E+02 -0.15774235724E+02  0.96481257985E+02  0.92170030358E+02 0.  0.
         11    1    3    3    0    0 -0.12842348964E+02  0.52676458506E+02 -0.69346735679E+01  0.54660999857E+02  0.51100000000E-03 0.  1.
         22    1    1    0    0    0 -0.12212427107E+02 -0.20380106908E+02  0.15774235724E+02  0.28518742015E+02  0.00000000000E+00 0. -1.
</event>
<event>
 5    1  0.1691145E-003  0.9118800E+02  0.7818608E-02  0.1130116E+00
         25   -1    0    0    0    0  0.00000000000E+00  0.00000000000E+00  0.99999998245E-14  0.12500000000E+03  0.12500000000E+03 0.  0.
        -11    1    3    3    0    0  0.26501644195E+01 -0.60955829726E+02 -0.12391495228E+02  0.62259021060E+02  0.51100000000E-03 0.  1.
         23    2    1    0    0    0  0.40507695810E+01 -0.26643196630E+02 -0.80527458909E+01  0.96873226682E+02  0.92700089917E+02 0.  0.
         11    1    3    3    0    0  0.14006051616E+01  0.34312633096E+02  0.43387493373E+01  0.34614205623E+02  0.51100000000E-03 0. -1.
         22    1    1    0    0    0 -0.40507695810E+01  0.26643196630E+02  0.80527458909E+01  0.28126773318E+02  0.00000000000E+00 0.  1.
</event>
<event>
 5    1  0.1691145E-003  0.9118800E+02  0.7818608E-02  0.1130116E+00
         25   -1    0    0    0    0  0.00000000000E+00  0.00000000000E+00  0.99999998245E-14  0.12500000000E+03  0.12500000000E+03 0.  0.
        -11    1    3    3    0    0 -0.54270623392E+02  0.16639576847E+02  0.12055771593E+02  0.58030317162E+02  0.51100000000E-03 0.  1.
         23    2    1    0    0    0 -0.29489202956E+02 -0.82684493598E+01  0.36575972419E+01  0.94155902293E+02  0.88960528175E+02 0.  0.
         11    1    3    3    0    0  0.24781420435E+02 -0.24908026207E+02 -0.83981743510E+01  0.36125585130E+02  0.51100000000E-03 0. -1.
         22    1    1    0    0    0  0.29489202956E+02  0.82684493598E+01 -0.36575972419E+01  0.30844097707E+02  0.00000000000E+00 0.  1.
</event>
<event>
 5    1  0.1691145E-003  0.9118800E+02  0.7818608E-02  0.1130116E+00
         25   -1    0    0    0    0  0.00000000000E+00  0.00000000000E+00  0.99999998245E-14  0.12500000000E+03  0.12500000000E+03 0.  0.
        -11    1    3    3    0    0  0.31416279938E+02 -0.21362812785E+02  0.36401382021E+02  0.52615710853E+02  0.51100000000E-03 0.  1.
         23    2    1    0    0    0 -0.88087897407E-01 -0.24255310884E+02  0.13215596323E+00  0.10074416914E+03  0.97780582351E+02 0.  0.
         11    1    3    3    0    0 -0.31504367836E+02 -0.28924980985E+01 -0.36269226058E+02  0.48128458287E+02  0.51100000000E-03 0. -1.
         22    1    1    0    0    0  0.88087897407E-01  0.24255310884E+02 -0.13215596323E+00  0.24255830861E+02  0.00000000000E+00 0.  1.
</event>
<event>
 5    1  0.1691145E-003  0.9118800E+02  0.7818608E-02  0.1130116E+00
         25   -1    0    0    0    0  0.00000000000E+00  0.00000000000E+00  0.99999998245E-14  0.12500000000E+03  0.12500000000E+03 0.  0.
        -11    1    3    3    0    0  0.25566134558E+01 -0.30123282565E+02 -0.25745989473E+02  0.39708996450E+02  0.51100000000E-03 0.  1.
         23    2    1    0    0    0 -0.14618366804E+02 -0.97270904614E+01  0.23472797018E+02  0.95686434255E+02  0.91085720965E+02 0.  0.
         11    1    3    3    0    0 -0.17174980260E+02  0.20396192104E+02  0.49218786491E+02  0.55977437804E+02  0.51100000000E-03 0. -1.
         22    1    1    0    0    0  0.14618366804E+02  0.97270904614E+01 -0.23472797018E+02  0.29313565745E+02  0.00000000000E+00 0. -1.
</event>
<event>
 5    1  0.1691145E-003  0.9118800E+02  0.7818608E-02  0.1130116E+00
         25   -1    0    0    0    0  0.00000000000E+00  0.00000000000E+00  0.99999998245E-14  0.12500000000E+03  0.12500000000E+03 0.  0.
        -11    1    3    3    0    0 -0.48798985436E+02  0.51110043677E+01  0.57059215160E+01  0.49396567552E+02  0.51100000000E-03 0.  1.
         23    2    1    0    0    0 -0.13453040743E+02 -0.10009432959E+02  0.26904337651E+02  0.93298005775E+02  0.87746803041E+02 0.  0.
         11    1    3    3    0    0  0.35345944694E+02 -0.15120437327E+02  0.21198416135E+02  0.43901438224E+02  0.51100000000E-03 0. -1.
         22    1    1    0    0    0  0.13453040743E+02  0.10009432959E+02 -0.26904337651E+02  0.31701994225E+02  0.00000000000E+00 0.  1.
</event>
<event>
 5    1  0.1691145E-003  0.9118800E+02  0.7818608E-02  0.1130116E+00
         25   -1    0    0    0    0  0.00000000000E+00  0.00000000000E+00  0.99999998245E-14  0.12500000000E+03  0.12500000000E+03 0.  0.
        -11    1    3    3    0    0 -0.28267561571E+02  0.15262151651E+02 -0.52567273537E+02  0.61606059422E+02  0.51100000000E-03 0. -1.
         23    2    1    0    0    0 -0.84006023842E+01  0.10639939773E+02 -0.30311285568E+02  0.91795294436E+02  0.85579341018E+02 0.  0.
         11    1    3    3    0    0  0.19866959187E+02 -0.46222118773E+01  0.22255987969E+02  0.30189235014E+02  0.51100000000E-03 0.  1.
         22    1    1    0    0    0  0.84006023842E+01 -0.10639939773E+02  0.30311285568E+02  0.33204705564E+02  0.00000000000E+00 0. -1.
</event>
<event>
 5    1  0.1691145E-003  0.9118800E+02  0.7818608E-02  0.1130116E+00
         25   -1    0    0    0    0  0.00000000000E+00  0.00000000000E+00  0.99999998245E-14  0.12500000000E+03  0.12500000000E+03 0.  0.
        -11    1    3    3    0    0 -0.34545394568E+02 -0.40024424511E+02  0.33714835770E+01  0.52978351664E+02  0.51100000000E-03 0. -1.
         23    2    1    0    0    0 -0.28318496667E+02  0.29826614728E+01  0.19785007490E+01  0.96456209289E+02  0.92136053325E+02 0.  0.
         11    1    3    3    0    0  0.62268979013E+01  0.43007085984E+02 -0.13929828281E+01  0.43477857625E+02  0.51100000000E-03 0.  1.
         22    1    1    0    0    0  0.28318496667E+02 -0.29826614728E+01 -0.19785007490E+01  0.28543790711E+02  0.00000000000E+00 0. -1.
</event>
<event>
 5    1  0.1691145E-003  0.9118800E+02  0.7818608E-02  0.1130116E+00
         25   -1    0    0    0    0  0.00000000000E+00  0.00000000000E+00  0.99999998245E-14  0.12500000000E+03  0.12500000000E+03 0.  0.
        -11    1    3    3    0    0 -0.96484815684E+00  0.44619118342E+02  0.29953922334E+02  0.53749735972E+02  0.51100000000E-03 0.  1.
         23    2    1    0    0    0 -0.17189072369E+02  0.23746466581E+02 -0.24654933402E+01  0.95581680174E+02  0.90941849791E+02 0.  0.
         11    1    3    3    0    0 -0.16224224212E+02 -0.20872651760E+02 -0.32419415675E+02  0.41831944202E+02  0.51100000000E-03 0. -1.
         22    1    1    0    0    0  0.17189072369E+02 -0.23746466581E+02  0.24654933402E+01  0.29418319826E+02  0.00000000000E+00 0.  1.
</event>
<event>
 5    1  0.1691145E-003  0.9118800E+02  0.7818608E-02  0.1130116E+00
         25   -1    0    0    0    0  0.00000000000E+00  0.00000000000E+00  0.99999998245E-14  0.12500000000E+03  0.12500000000E+03 0.  0.
        -11    1    3    3    0    0  0.20256652596E+02  0.50393611341E+01 -0.55906227985E+02  0.59676071107E+02  0.51100000000E-03 0.  1.
         23    2    1    0    0    0  0.10197104895E+02 -0.10875898582E+02 -0.22904732681E+02  0.97670658673E+02  0.93769209595E+02 0.  0.
         11    1    3    3    0    0 -0.10059547701E+02 -0.15915259716E+02  0.33001495303E+02  0.37994587566E+02  0.51100000000E-03 0. -1.
         22    1    1    0    0    0 -0.10197104895E+02  0.10875898582E+02  0.22904732681E+02  0.27329341327E+02  0.00000000000E+00 0.  1.
</event>
<event>
 5    1  0.1691145E-003  0.9118800E+02  0.7818608E-02  0.1130116E+00
         25   -1    0    0    0    0  0.00000000000E+00  0.00000000000E+00  0.99999998245E-14  0.12500000000E+03  0.12500000000E+03 0.  0.
        -11    1    3    3    0    0 -0.32402854938E+02  0.17196581853E+02  0.18035617092E+02  0.40877266539E+02  0.51100000000E-03 0.  1.
         23    2    1    0    0    0  0.13280179932E+02  0.25037310013E+02 -0.98805353173E+01  0.94985752552E+02  0.90119022065E+02 0.  0.
         11    1    3    3    0    0  0.45683034870E+02  0.78407281604E+01 -0.27916152410E+02  0.54108486013E+02  0.51100000000E-03 0. -1.
         22    1    1    0    0    0 -0.13280179932E+02 -0.25037310013E+02  0.98805353173E+01  0.30014247448E+02  0.00000000000E+00 0. -1.
</event>
<event>
 5    1  0.1691145E-003  0.9118800E+02  0.7818608E-02  0.1130116E+00
         25   -1    0    0    0    0  0.00000000000E+00  0.00000000000E+00  0.99999998245E-14  0.12500000000E+03  0.12500000000E+03 0.  0.
        -11    1    3    3    0    0  0.29784564053E+02  0.13617590604E+01  0.33052942022E+02  0.44513723953E+02  0.51100000000E-03 0.  1.
         23    2    1    0    0    0 -0.71387872933E+01 -0.26298090119E+02  0.11996791987E+02  0.95226272557E+02  0.90452021200E+02 0.  0.
         11    1    3    3    0    0 -0.36923351347E+02 -0.27659849179E+02 -0.21056150036E+02  0.50712548603E+02  0.51100000000E-03 0. -1.
         22    1    1    0    0    0  0.71387872933E+01  0.26298090119E+02 -0.11996791987E+02  0.29773727443E+02  0.00000000000E+00 0. -1.
</event>
<event>
 5    1  0.1691145E-003  0.9118800E+02  0.7818608E-02  0.1130116E+00
         25   -1    0    0    0    0  0.00000000000E+00  0.00000000000E+00  0.99999998245E-14  0.12500000000E+03  0.12500000000E+03 0.  0.
        -11    1    3    3    0    0  0.14514428613E+02  0.13630268012E+02  0.27820832809E+02  0.34211863183E+02  0.51100000000E-03 0.  1.
         23    2    1    0    0    0 -0.18426183933E+02 -0.21112688237E+02 -0.10022756643E+02  0.95238859067E+02  0.90469413432E+02 0.  0.
         11    1    3    3    0    0 -0.32940612546E+02 -0.34742956249E+02 -0.37843589451E+02  0.61026995884E+02  0.51100000000E-03 0. -1.
         22    1    1    0    0    0  0.18426183933E+02  0.21112688237E+02  0.10022756643E+02  0.29761140933E+02  0.00000000000E+00 0. -1.
</event>
<event>
 5    1  0.1691145E-003  0.9118800E+02  0.7818608E-02  0.1130116E+00
         25   -1    0    0    0    0  0.00000000000E+00  0.00000000000E+00  0.99999998245E-14  0.12500000000E+03  0.12500000000E+03 0.  0.
        -11    1    3    3    0    0 -0.49580881017E+01  0.60074215012E+02  0.14798335044E+02  0.62068387020E+02  0.51100000000E-03 0.  1.
         23    2    1    0    0    0 -0.59974900975E+01  0.33087261444E+02  0.12315636533E+02  0.89189224240E+02  0.81684184883E+02 0.  0.
         11    1    3    3    0    0 -0.10394019957E+01 -0.26986953567E+02 -0.24826985119E+01  0.27120837220E+02  0.51100000000E-03 0. -1.
         22    1    1    0    0    0  0.59974900975E+01 -0.33087261444E+02 -0.12315636533E+02  0.35810775760E+02  0.00000000000E+00 0.  1.
</event>
<event>
 5    1  0.1691145E-003  0.9118800E+02  0.7818608E-02  0.1130116E+00
         25   -1    0    0    0    0  0.00000000000E+00  0.00000000000E+00  0.99999998245E-14  0.12500000000E+03  0.12500000000E+03 0.  0.
        -11    1    3    3    0    0 -0.10791681031E+02 -0.44631560540E+02  0.29600121187E+02  0.54631527073E+02  0.51100000000E-03 0. -1.
         23    2    1    0    0    0 -0.13283197607E+02 -0.24307317299E+02 -0.68736079198E+01  0.96459931697E+02  0.92141103337E+02 0.  0.
         11    1    3    3    0    0 -0.24915165761E+01  0.20324243242E+02 -0.36473729107E+02  0.41828404624E+02  0.51100000000E-03 0.  1.
         22    1    1    0    0    0  0.13283197607E+02  0.24307317299E+02  0.68736079198E+01  0.28540068303E+02  0.00000000000E+00 0. -1.
</event>
<event>
 5    1  0.1691145E-003  0.9118800E+02  0.7818608E-02  0.1130116E+00
         25   -1    0    0    0    0  0.00000000000E+00  0.00000000000E+00  0.99999998245E-14  0.12500000000E+03  0.12500000000E+03 0.  0.
        -11    1    3    3    0    0  0.56226517785E+02  0.16156652331E+02  0.62620838736E+01  0.58835978886E+02  0.51100000000E-03 0. -1.
         23    2    1    0    0    0  0.20677536246E+02  0.21601887482E+02  0.29249630953E+01  0.94954077529E+02  0.90075076366E+02 0.  0.
         11    1    3    3    0    0 -0.35548981538E+02  0.54452351513E+01 -0.33371207783E+01  0.36118098643E+02  0.51100000000E-03 0.  1.
         22    1    1    0    0    0 -0.20677536246E+02 -0.21601887482E+02 -0.29249630953E+01  0.30045922471E+02  0.00000000000E+00 0. -1.
</event>
<event>
 5    1  0.1691145E-003  0.9118800E+02  0.7818608E-02  0.1130116E+00
         25   -1    0    0    0    0  0.00000000000E+00  0.00000000000E+00  0.99999998245E-14  0.12500000000E+03  0.12500000000E+03 0.  0.
        -11    1    3    3    0    0 -0.17975064393E+02 -0.20189959984E+02  0.23541325705E+02  0.35845940360E+02  0.51100000000E-03 0.  1.
         23    2    1    0    0    0  0.36938508198E+01 -0.83522565955E+01 -0.29374227267E+02  0.94238823956E+02  0.89076966657E+02 0.  0.
         11    1    3    3    0    0  0.21668915213E+02  0.11837703388E+02 -0.52915552972E+02  0.58392883595E+02  0.51100000000E-03 0. -1.
         22    1    1    0    0    0 -0.36938508198E+01  0.83522565955E+01  0.29374227267E+02  0.30761176044E+02  0.00000000000E+00 0. -1.
</event>
<event>
 5    1  0.1691145E-003  0.9118800E+02  0.7818608E-02  0.1130116E+00
         25   -1    0    0    0    0  0.00000000000E+00  0.00000000000E+00  0.99999998245E-14  0.12500000000E+03  0.12500000000E+03 0.  0.
        -11    1    3    3    0    0 -0.30597532569E+02 -0.16701094721E+02  0.49962712648E+02  0.60921328118E+02  0.51100000000E-03 0. -1.
         23    2    1    0    0    0 -0.20343966456E+02  0.57327790589E-01  0.22818642800E+02  0.94429250633E+02  0.89343789142E+02 0.  0.
         11    1    3    3    0    0  0.10253566113E+02  0.16758422511E+02 -0.27144069848E+02  0.33507922515E+02  0.51100000000E-03 0.  1.
         22    1    1    0    0    0  0.20343966456E+02 -0.57327790589E-01 -0.22818642800E+02  0.30570749367E+02  0.00000000000E+00 0. -1.
</event>
<event>
 5    1  0.1691145E-003  0.9118800E+02  0.7818608E-02  0.1130116E+00
         25   -1    0    0    0    0  0.00000000000E+00  0.00000000000E+00  0.99999998245E-14  0.12500000000E+03  0.12500000000E+03 0.  0.
        -11    1    3    3    0    0 -0.28186665900E+02 -0.67337121082E+01  0.28508259866E+02  0.40651591533E+02  0.51100000000E-03 0.  1.
         23    2    1    0    0    0 -0.12380918107E+02  0.21244802609E+02 -0.16085181648E+02  0.95616980419E+02  0.90990357207E+02 0.  0.
         11    1    3    3    0    0  0.15805747793E+02  0.27978514718E+02 -0.44593441513E+02  0.54965388886E+02  0.51100000000E-03 0. -1.
         22    1    1    0    0    0  0.12380918107E+02 -0.21244802609E+02  0.16085181648E+02  0.29383019581E+02  0.00000000000E+00 0.  1.
</event>
<event>
 5    1  0.1691145E-003  0.9118800E+02  0.7818608E-02  0.1130116E+00
         25   -1    0    0    0    0  0.00000000000E+00  0.00000000000E+00  0.99999998245E-14  0.12500000000E+03  0.12500000000E+03 0.  0.
        -11    1    3    3    0    0 -0.15844107590E+02  0.55008954298E+02  0.15385300136E+02  0.59276709244E+02  0.51100000000E-03 0.  1.
         23    2    1    0    0    0 -0.20170826853E+02  0.38931444369E+02  0.12204717617E+01  0.81136471096E+02  0.68257730507E+02 0.  0.
         11    1    3    3    0    0 -0.43267192626E+01 -0.16077509929E+02 -0.14164828374E+02  0.21859761852E+02  0.51100000000E-03 0. -1.
         22    1    1    0    0    0  0.20170826853E+02 -0.38931444369E+02 -0.12204717617E+01  0.43863528904E+02  0.00000000000E+00 0.  1.
</event>
<event>
 5    1  0.1691145E-003  0.9118800E+02  0.7818608E-02  0.1130116E+00
         25   -1    0    0    0    0  0.00000000000E+00  0.00000000000E+00  0.99999998245E-14  0.12500000000E+03  0.12500000000E+03 0.  0.
        -11    1    3    3    0    0  0.39005940982E+02 -0.14570253171E+02 -0.39289388804E+01  0.41823345997E+02  0.51100000000E-03 0.  1.
         23    2    1    0    0    0 -0.51347234718E+01  0.55801488085E+01 -0.28002073160E+02  0.95989320120E+02  0.91500437321E+02 0.  0.
         11    1    3    3    0    0 -0.44140664454E+02  0.20150401979E+02 -0.24073134280E+02  0.54165974123E+02  0.51100000000E-03 0. -1.
         22    1    1    0    0    0  0.51347234718E+01 -0.55801488085E+01  0.28002073160E+02  0.29010679880E+02  0.00000000000E+00 0. -1.
</event>
<event>
 5    1  0.1691145E-003  0.9118800E+02  0.7818608E-02  0.1130116E+00
         25   -1    0    0    0    0  0.00000000000E+00  0.00000000000E+00  0.99999998245E-14  0.12500000000E+03  0.12500000000E+03 0.  0.
        -11    1    3    3    0    0 -0.29671663419E+02  0.19445273871E+02 -0.30787260343E+02  0.46972137333E+02  0.51100000000E-03 0.  1.
         23    2    1    0    0    0  0.16487728574E+02  0.37216933861E+01 -0.23158584131E+02  0.96329174861E+02  0.91963545578E+02 0.  0.
         11    1    3    3    0    0  0.46159391994E+02 -0.15723580485E+02  0.76286762124E+01  0.49357037527E+02  0.51100000000E-03 0. -1.
         22    1    1    0    0    0 -0.16487728574E+02 -0.37216933861E+01  0.23158584131E+02  0.28670825139E+02  0.00000000000E+00 0. -1.
</event>
<event>
 5    1  0.1691145E-003  0.9118800E+02  0.7818608E-02  0.1130116E+00
         25   -1    0    0    0    0  0.00000000000E+00  0.00000000000E+00  0.99999998245E-14  0.12500000000E+03  0.12500000000E+03 0.  0.
        -11    1    3    3    0    0  0.24096888743E+02 -0.73643339585E+01 -0.28696301983E+02  0.38188626704E+02  0.51100000000E-03 0.  1.
         23    2    1    0    0    0  0.74590052126E+01  0.16470455109E+01  0.26962803065E+02  0.96976041201E+02  0.92838625045E+02 0.  0.
         11    1    3    3    0    0 -0.16637883530E+02  0.90113794693E+01  0.55659105048E+02  0.58787414497E+02  0.51100000000E-03 0. -1.
         22    1    1    0    0    0 -0.74590052126E+01 -0.16470455109E+01 -0.26962803065E+02  0.28023958799E+02  0.00000000000E+00 0. -1.
</event>
<event>
 5    1  0.1691145E-003  0.9118800E+02  0.7818608E-02  0.1130116E+00
         25   -1    0    0    0    0  0.00000000000E+00  0.00000000000E+00  0.99999998245E-14  0.12500000000E+03  0.12500000000E+03 0.  0.
        -11    1    3    3    0    0  0.32620798955E+02 -0.84563318967E+01 -0.41543389513E+01  0.33954154473E+02  0.51100000000E-03 0.  1.
         23    2    1    0    0    0 -0.23630846684E+02  0.33095696648E+01  0.17544091120E+02  0.95383023456E+02  0.90668384037E+02 0.  0.
         11    1    3    3    0    0 -0.56251645639E+02  0.11765901561E+02  0.21698430072E+02  0.61428868983E+02  0.51100000000E-03 0. -1.
         22    1    1    0    0    0  0.23630846684E+02 -0.33095696648E+01 -0.17544091120E+02  0.29616976544E+02  0.00000000000E+00 0. -1.
</event>
<event>
 5    1  0.1691145E-003  0.9118800E+02  0.7818608E-02  0.1130116E+00
         25   -1    0    0    0    0  0.00000000000E+00  0.00000000000E+00  0.99999998245E-14  0.12500000000E+03  0.12500000000E+03 0.  0.
        -11    1    3    3    0    0  0.34189377231E+01  0.30608791800E+02 -0.22737639299E+02  0.38282992461E+02  0.51100000000E-03 0. -1.
         23    2    1    0    0    0 -0.34312579730E+01 -0.25408275551E+02 -0.15135015313E+02  0.95227148503E+02  0.90453231704E+02 0.  0.
         11    1    3    3    0    0 -0.68501956961E+01 -0.56017067351E+02  0.76026239859E+01  0.56944156042E+02  0.51100000000E-03 0.  1.
         22    1    1    0    0    0  0.34312579730E+01  0.25408275551E+02  0.15135015313E+02  0.29772851497E+02  0.00000000000E+00 0. -1.
</event>
<event>
 5    1  0.1691145E-003  0.9118800E+02  0.7818608E-02  0.1130116E+00
         25   -1    0    0    0    0  0.00000000000E+00  0.00000000000E+00  0.99999998245E-14  0.12500000000E+03  0.12500000000E+03 0.  0.
        -11    1    3    3    0    0  0.26721129180E+02 -0.16909965523E+02  0.20264649931E+02  0.37558244311E+02  0.51100000000E-03 0.  1.
         23    2    1    0    0    0 -0.35436020682E+01 -0.48942919376E+01 -0.28318185135E+02  0.96044330114E+02  0.91575556392E+02 0.  0.
         11    1    3    3    0    0 -0.30264731248E+02  0.12015673585E+02 -0.48582835066E+02  0.58486085803E+02  0.51100000000E-03 0. -1.
         22    1    1    0    0    0  0.35436020682E+01  0.48942919376E+01  0.28318185135E+02  0.28955669886E+02  0.00000000000E+00 0. -1.
</event>
<event>
 5    1  0.1691145E-003  0.9118800E+02  0.7818608E-02  0.1130116E+00
         25   -1    0    0    0    0  0.00000000000E+00  0.00000000000E+00  0.99999998245E-14  0.12500000000E+03  0.12500000000E+03 0.  0.
        -11    1    3    3    0    0 -0.21415215911E+02 -0.13696124407E+02 -0.24910043834E+02  0.35590807526E+02  0.51100000000E-03 0. -1.
         23    2    1    0    0    0 -0.17557501445E+01  0.54567335699E+01  0.28654424634E+02  0.95777839728E+02  0.91211073517E+02 0.  0.
         11    1    3    3    0    0  0.19659465766E+02  0.19152857977E+02  0.53564468468E+02  0.60187032203E+02  0.51100000000E-03 0.  1.
         22    1    1    0    0    0  0.17557501445E+01 -0.54567335699E+01 -0.28654424634E+02  0.29222160272E+02  0.00000000000E+00 0.  1.
</event>
<event>
 5    1  0.1691145E-003  0.9118800E+02  0.7818608E-02  0.1130116E+00
         25   -1    0    0    0    0  0.00000000000E+00  0.00000000000E+00  0.99999998245E-14  0.12500000000E+03  0.12500000000E+03 0.  0.
        -11    1    3    3    0    0  0.39885617807E+02  0.41262121735E+01  0.28715630547E+02  0.49320133543E+02  0.51100000000E-03 0. -1.
         23    2    1    0    0    0  0.19716697136E+01  0.25535623256E+02  0.16467311219E+02  0.94551225389E+02  0.89514280130E+02 0.  0.
         11    1    3    3    0    0 -0.37913948094E+02  0.21409411083E+02 -0.12248319328E+02  0.45231091846E+02  0.51100000000E-03 0.  1.
         22    1    1    0    0    0 -0.19716697136E+01 -0.25535623256E+02 -0.16467311219E+02  0.30448774611E+02  0.00000000000E+00 0.  1.
</event>
<event>
 5    1  0.1691145E-003  0.9118800E+02  0.7818608E-02  0.1130116E+00
         25   -1    0    0    0    0  0.00000000000E+00  0.00000000000E+00  0.99999998245E-14  0.12500000000E+03  0.12500000000E+03 0.  0.
        -11    1    3    3    0    0  0.48660443782E+02  0.57110228351E+01  0.19287582661E+02  0.52654206062E+02  0.51100000000E-03 0.  1.
         23    2    1    0    0    0  0.16936519157E+02 -0.66544456570E+01 -0.15327151711E+02  0.10120821764E+03  0.98372020467E+02 0.  0.
         11    1    3    3    0    0 -0.31723924625E+02 -0.12365468492E+02 -0.34614734372E+02  0.48554011581E+02  0.51100000000E-03 0. -1.
         22    1    1    0    0    0 -0.16936519157E+02  0.66544456570E+01  0.15327151711E+02  0.23791782357E+02  0.00000000000E+00 0.  1.
</event>
<event>
 5    1  0.1691145E-003  0.9118800E+02  0.7818608E-02  0.1130116E+00
         25   -1    0    0    0    0  0.00000000000E+00  0.00000000000E+00  0.99999998245E-14  0.12500000000E+03  0.12500000000E+03 0.  0.
        -11    1    3    3    0    0  0.19965128475E+02  0.60329317798E+01 -0.38106280660E+02  0.43440663518E+02  0.51100000000E-03 0. -1.
         23    2    1    0    0    0 -0.25877873117E+02  0.26877022258E+01 -0.16125073029E+02  0.94391079070E+02  0.89290367719E+02 0.  0.
         11    1    3    3    0    0 -0.45843001592E+02 -0.33452295540E+01  0.21981207631E+02  0.50950415552E+02  0.51100000000E-03 0.  1.
         22    1    1    0    0    0  0.25877873117E+02 -0.26877022258E+01  0.16125073029E+02  0.30608920930E+02  0.00000000000E+00 0.  1.
</event>
<event>
 5    1  0.1691145E-003  0.9118800E+02  0.7818608E-02  0.1130116E+00
         25   -1    0    0    0    0  0.00000000000E+00  0.00000000000E+00  0.99999998245E-14  0.12500000000E+03  0.12500000000E+03 0.  0.
        -11    1    3    3    0    0  0.52143993310E+02 -0.20053210632E+02 -0.15201835788E+02  0.57898386045E+02  0.51100000000E-03 0. -1.
         23    2    1    0    0    0  0.18145492208E+02 -0.75550917729E+01 -0.22787075882E+02  0.94906992067E+02  0.90009710681E+02 0.  0.
         11    1    3    3    0    0 -0.33998501102E+02  0.12498118859E+02 -0.75852400942E+01  0.37008606023E+02  0.51100000000E-03 0.  1.
         22    1    1    0    0    0 -0.18145492208E+02  0.75550917729E+01  0.22787075882E+02  0.30093007933E+02  0.00000000000E+00 0. -1.
</event>
<event>
 5    1  0.1691145E-003  0.9118800E+02  0.7818608E-02  0.1130116E+00
         25   -1    0    0    0    0  0.00000000000E+00  0.00000000000E+00  0.99999998245E-14  0.12500000000E+03  0.12500000000E+03 0.  0.
        -11    1    3    3    0    0  0.33636308114E+02 -0.16370505266E+02 -0.20838082720E+02  0.42820793522E+02  0.51100000000E-03 0.  1.
         23    2    1    0    0    0 -0.14953189364E+02 -0.25646636115E+02 -0.41669615244E+01  0.95021484618E+02  0.90168570769E+02 0.  0.
         11    1    3    3    0    0 -0.48589497477E+02 -0.92761308499E+01  0.16671121196E+02  0.52200691095E+02  0.51100000000E-03 0. -1.
         22    1    1    0    0    0  0.14953189364E+02  0.25646636115E+02  0.41669615244E+01  0.29978515382E+02  0.00000000000E+00 0.  1.
</event>
<event>
 5    1  0.1691145E-003  0.9118800E+02  0.7818608E-02  0.1130116E+00
         25   -1    0    0    0    0  0.00000000000E+00  0.00000000000E+00  0.99999998245E-14  0.12500000000E+03  0.12500000000E+03 0.  0.
        -11    1    3    3    0    0  0.62429112927E+01 -0.46240865579E+02 -0.22015851062E+01  0.46712295684E+02  0.51100000000E-03 0.  1.
         23    2    1    0    0    0 -0.26372158596E+02 -0.16093191933E+02 -0.11400149212E+02  0.92069087810E+02  0.85978322573E+02 0.  0.
         11    1    3    3    0    0 -0.32615069889E+02  0.30147673645E+02 -0.91985641055E+01  0.45356792126E+02  0.51100000000E-03 0. -1.
         22    1    1    0    0    0  0.26372158596E+02  0.16093191933E+02  0.11400149212E+02  0.32930912190E+02  0.00000000000E+00 0.  1.
</event>
<event>
 5    1  0.1691145E-003  0.9118800E+02  0.7818608E-02  0.1130116E+00
         25   -1    0    0    0    0  0.00000000000E+00  0.00000000000E+00  0.99999998245E-14  0.12500000000E+03  0.12500000000E+03 0.  0.
        -11    1    3    3    0    0  0.23394761612E+02  0.26380391428E+01  0.44437352547E+02  0.50288690806E+02  0.51100000000E-03 0. -1.
         23    2    1    0    0    0  0.23509866549E+02 -0.17691241769E+02  0.43216059959E+01  0.95261638598E+02  0.90500882037E+02 0.  0.
         11    1    3    3    0    0  0.11510493767E+00 -0.20329280911E+02 -0.40115746551E+02  0.44972947792E+02  0.51100000000E-03 0.  1.
         22    1    1    0    0    0 -0.23509866549E+02  0.17691241769E+02 -0.43216059959E+01  0.29738361402E+02  0.00000000000E+00 0. -1.
</event>
<event>
 5    1  0.1691145E-003  0.9118800E+02  0.7818608E-02  0.1130116E+00
         25   -1    0    0    0    0  0.00000000000E+00  0.00000000000E+00  0.99999998245E-14  0.12500000000E+03  0.12500000000E+03 0.  0.
        -11    1    3    3    0    0 -0.35807306479E+01 -0.97607602184E+01  0.55806460584E+02  0.56766672574E+02  0.51100000000E-03 0. -1.
         23    2    1    0    0    0 -0.14587642023E+00  0.14545468798E+02  0.23865575005E+02  0.97050803002E+02  0.92939231493E+02 0.  0.
         11    1    3    3    0    0  0.34348542276E+01  0.24306229016E+02 -0.31940885578E+02  0.40284130428E+02  0.51100000000E-03 0.  1.
         22    1    1    0    0    0  0.14587642023E+00 -0.14545468798E+02 -0.23865575005E+02  0.27949196998E+02  0.00000000000E+00 0. -1.
</event>
<event>
 5    1  0.1691145E-003  0.9118800E+02  0.7818608E-02  0.1130116E+00
         25   -1    0    0    0    0  0.00000000000E+00  0.00000000000E+00  0.99999998245E-14  0.12500000000E+03  0.12500000000E+03 0.  0.
        -11    1    3    3    0    0  0.31113029722E+02  0.18634170301E+02 -0.71569598884E+01  0.36965862581E+02  0.51100000000E-03 0.  1.
         23    2    1    0    0    0 -0.10372826991E+02 -0.21226363352E+02 -0.17730478674E+02  0.95461484212E+02  0.90776489539E+02 0.  0.
         11    1    3    3    0    0 -0.41485856712E+02 -0.39860533653E+02 -0.10573518785E+02  0.58495621631E+02  0.51100000000E-03 0. -1.
         22    1    1    0    0    0  0.10372826991E+02  0.21226363352E+02  0.17730478674E+02  0.29538515788E+02  0.00000000000E+00 0. -1.
</event>
<event>
 5    1  0.1691145E-003  0.9118800E+02  0.7818608E-02  0.1130116E+00
         25   -1    0    0    0    0  0.00000000000E+00  0.00000000000E+00  0.99999998245E-14  0.12500000000E+03  0.12500000000E+03 0.  0.
        -11    1    3    3    0    0  0.53064181579E+02 -0.23629025411E+02 -0.15015007546E+02  0.59996572072E+02  0.51100000000E-03 0.  1.
         23    2    1    0    0    0  0.26020906459E+02 -0.20102566784E+00 -0.13197985790E+02  0.95822700379E+02  0.91272531984E+02 0.  0.
         11    1    3    3    0    0 -0.27043275120E+02  0.23427999743E+02  0.18170217561E+01  0.35826128307E+02  0.51100000000E-03 0. -1.
         22    1    1    0    0    0 -0.26020906459E+02  0.20102566784E+00  0.13197985790E+02  0.29177299621E+02  0.00000000000E+00 0.  1.
</event>
<event>
 5    1  0.1691145E-003  0.9118800E+02  0.7818608E-02  0.1130116E+00
         25   -1    0    0    0    0  0.00000000000E+00  0.00000000000E+00  0.99999998245E-14  0.12500000000E+03  0.12500000000E+03 0.  0.
        -11    1    3    3    0    0 -0.78295662337E+01  0.61285949817E+02 -0.33913446975E+01  0.61877063371E+02  0.51100000000E-03 0. -1.
         23    2    1    0    0    0 -0.97997994497E+01  0.28158751678E+02 -0.62078697637E+00  0.95178250525E+02  0.90385632880E+02 0.  0.
         11    1    3    3    0    0 -0.19702332160E+01 -0.33127198139E+02  0.27705577212E+01  0.33301187153E+02  0.51100000000E-03 0.  1.
         22    1    1    0    0    0  0.97997994497E+01 -0.28158751678E+02  0.62078697637E+00  0.29821749475E+02  0.00000000000E+00 0. -1.
</event>
<event>
 5    1  0.1691145E-003  0.9118800E+02  0.7818608E-02  0.1130116E+00
         25   -1    0    0    0    0  0.00000000000E+00  0.00000000000E+00  0.99999998245E-14  0.12500000000E+03  0.12500000000E+03 0.  0.
        -11    1    3    3    0    0  0.27751515709E+02 -0.19061250124E+02  0.30410842938E+02  0.45368460949E+02  0.51100000000E-03 0.  1.
         23    2    1    0    0    0 -0.20222464642E+02 -0.13628720092E+02  0.16295981496E+02  0.95669996583E+02  0.91063160200E+02 0.  0.
         11    1    3    3    0    0 -0.47973980351E+02  0.54325300316E+01 -0.14114861442E+02  0.50301535634E+02  0.51100000000E-03 0. -1.
         22    1    1    0    0    0  0.20222464642E+02  0.13628720092E+02 -0.16295981496E+02  0.29330003417E+02  0.00000000000E+00 0. -1.
</event>
<event>
 5    1  0.1691145E-003  0.9118800E+02  0.7818608E-02  0.1130116E+00
         25   -1    0    0    0    0  0.00000000000E+00  0.00000000000E+00  0.99999998245E-14  0.12500000000E+03  0.12500000000E+03 0.  0.
        -11    1    3    3    0    0 -0.18495083726E+02 -0.98021106424E+00 -0.32080348778E+02  0.37042917188E+02  0.51100000000E-03 0. -1.
         23    2    1    0    0    0  0.70988683138E+01  0.27873776738E+02  0.10394045977E+02  0.94416057273E+02  0.89325328537E+02 0.  0.
         11    1    3    3    0    0  0.25593952040E+02  0.28853987802E+02  0.42474394755E+02  0.57373140085E+02  0.51100000000E-03 0.  1.
         22    1    1    0    0    0 -0.70988683138E+01 -0.27873776738E+02 -0.10394045977E+02  0.30583942727E+02  0.00000000000E+00 0.  1.
</event>
<event>
 5    1  0.1691145E-003  0.9118800E+02  0.7818608E-02  0.1130116E+00
         25   -1    0    0    0    0  0.00000000000E+00  0.00000000000E+00  0.99999998245E-14  0.12500000000E+03  0.12500000000E+03 0.  0.
        -11    1    3    3    0    0  0.36564913910E+01  0.68205148948E+00 -0.35242431218E+02  0.35438172666E+02  0.51100000000E-03 0.  1.
         23    2    1    0    0    0  0.74622780272E+01  0.16686990339E+02  0.22805770975E+02  0.95772539801E+02  0.91203809955E+02 0.  0.
         11    1    3    3    0    0  0.38057866362E+01  0.16004938850E+02  0.58048202192E+02  0.60334367135E+02  0.51100000000E-03 0. -1.
         22    1    1    0    0    0 -0.74622780272E+01 -0.16686990339E+02 -0.22805770975E+02  0.29227460199E+02  0.00000000000E+00 0. -1.
</event>
<event>
 5    1  0.1691145E-003  0.9118800E+02  0.7818608E-02  0.1130116E+00
         25   -1    0    0    0    0  0.00000000000E+00  0.00000000000E+00  0.99999998245E-14  0.12500000000E+03  0.12500000000E+03 0.  0.
        -11    1    3    3    0    0  0.13004254598E+02  0.28096872371E+02  0.32279409889E+02  0.44727007252E+02  0.51100000000E-03 0. -1.
         23    2    1    0    0    0  0.11701367790E+02 -0.20028119274E+02  0.19904635276E+02  0.94434626204E+02  0.89351309733E+02 0.  0.
         11    1    3    3    0    0 -0.13028868080E+01 -0.48124991645E+02 -0.12374774613E+02  0.49707618952E+02  0.51100000000E-03 0.  1.
         22    1    1    0    0    0 -0.11701367790E+02  0.20028119274E+02 -0.19904635276E+02  0.30565373796E+02  0.00000000000E+00 0. -1.
</event>
<event>
 5    1  0.1691145E-003  0.9118800E+02  0.7818608E-02  0.1130116E+00
         25   -1    0    0    0    0  0.00000000000E+00  0.00000000000E+00  0.99999998245E-14  0.12500000000E+03  0.12500000000E+03 0.  0.
        -11    1    3    3    0    0 -0.20145645187E+02  0.19284476714E+02  0.43857715095E+02  0.51973428170E+02  0.51100000000E-03 0.  1.
         23    2    1    0    0    0  0.56444358276E+01 -0.11301572499E+02  0.26615534432E+02  0.95538637678E+02  0.90882668422E+02 0.  0.
         11    1    3    3    0    0  0.25790081015E+02 -0.30586049212E+02 -0.17242180663E+02  0.43565209508E+02  0.51100000000E-03 0. -1.
         22    1    1    0    0    0 -0.56444358276E+01  0.11301572499E+02 -0.26615534432E+02  0.29461362322E+02  0.00000000000E+00 0. -1.
</event>
<event>
 5    1  0.1691145E-003  0.9118800E+02  0.7818608E-02  0.1130116E+00
         25   -1    0    0    0    0  0.00000000000E+00  0.00000000000E+00  0.99999998245E-14  0.12500000000E+03  0.12500000000E+03 0.  0.
        -11    1    3    3    0    0 -0.24224227390E+02  0.41619130337E+01  0.21224131809E+01  0.24670617153E+02  0.51100000000E-03 0. -1.
         23    2    1    0    0    0  0.14443282612E+01 -0.37357063089E+02  0.26444623471E+02  0.79207485794E+02  0.64628719998E+02 0.  0.
         11    1    3    3    0    0  0.25668555651E+02 -0.41518976123E+02  0.24322210290E+02  0.54536868641E+02  0.51100000000E-03 0.  1.
         22    1    1    0    0    0 -0.14443282612E+01  0.37357063089E+02 -0.26444623471E+02  0.45792514206E+02  0.00000000000E+00 0.  1.
</event>
<event>
 5    1  0.1691145E-003  0.9118800E+02  0.7818608E-02  0.1130116E+00
         25   -1    0    0    0    0  0.00000000000E+00  0.00000000000E+00  0.99999998245E-14  0.12500000000E+03  0.12500000000E+03 0.  0.
        -11    1    3    3    0    0 -0.13069917813E+02  0.14958588996E+02 -0.50802373398E+02  0.54547807284E+02  0.51100000000E-03 0.  1.
         23    2    1    0    0    0 -0.21193622594E+02  0.16133453082E+02 -0.94025766059E+01  0.96753471119E+02  0.92538466487E+02 0.  0.
         11    1    3    3    0    0 -0.81237047810E+01  0.11748640862E+01  0.41399796792E+02  0.42205663834E+02  0.51100000000E-03 0. -1.
         22    1    1    0    0    0  0.21193622594E+02 -0.16133453082E+02  0.94025766059E+01  0.28246528881E+02  0.00000000000E+00 0.  1.
</event>
<event>
 5    1  0.1691145E-003  0.9118800E+02  0.7818608E-02  0.1130116E+00
         25   -1    0    0    0    0  0.00000000000E+00  0.00000000000E+00  0.99999998245E-14  0.12500000000E+03  0.12500000000E+03 0.  0.
        -11    1    3    3    0    0  0.17530688892E+01 -0.38026510685E+02 -0.26865380738E+01  0.38161580844E+02  0.51100000000E-03 0.  1.
         23    2    1    0    0    0 -0.10613642779E+02  0.12086457426E+02  0.23875626852E+02  0.96211505359E+02  0.91803465837E+02 0.  0.
         11    1    3    3    0    0 -0.12366711668E+02  0.50112968111E+02  0.26562164925E+02  0.58049924515E+02  0.51100000000E-03 0. -1.
         22    1    1    0    0    0  0.10613642779E+02 -0.12086457426E+02 -0.23875626852E+02  0.28788494641E+02  0.00000000000E+00 0. -1.
</event>
<event>
 5    1  0.1691145E-003  0.9118800E+02  0.7818608E-02  0.1130116E+00
         25   -1    0    0    0    0  0.00000000000E+00  0.00000000000E+00  0.99999998245E-14  0.12500000000E+03  0.12500000000E+03 0.  0.
        -11    1    3    3    0    0  0.63897598101E+01  0.39456649141E+02 -0.44048865979E+02  0.59480742986E+02  0.51100000000E-03 0. -1.
         23    2    1    0    0    0 -0.93118413379E+01  0.16092645072E+02 -0.26414940307E+02  0.92697791315E+02  0.86887558538E+02 0.  0.
         11    1    3    3    0    0 -0.15701601148E+02 -0.23364004070E+02  0.17633925672E+02  0.33217048328E+02  0.51100000000E-03 0.  1.
         22    1    1    0    0    0  0.93118413379E+01 -0.16092645072E+02  0.26414940307E+02  0.32302208685E+02  0.00000000000E+00 0. -1.
</event>
<event>
 5    1  0.1691145E-003  0.9118800E+02  0.7818608E-02  0.1130116E+00
         25   -1    0    0    0    0  0.00000000000E+00  0.00000000000E+00  0.99999998245E-14  0.12500000000E+03  0.12500000000E+03 0.  0.
        -11    1    3    3    0    0 -0.10880002190E+01  0.61709630876E+01  0.36195365997E+02  0.36733758994E+02  0.51100000000E-03 0.  1.
         23    2    1    0    0    0 -0.15187223911E+02 -0.20816675180E+02 -0.14173895854E+02  0.95591071775E+02  0.90954757675E+02 0.  0.
         11    1    3    3    0    0 -0.14099223692E+02 -0.26987638268E+02 -0.50369261851E+02  0.58857312780E+02  0.51100000000E-03 0. -1.
         22    1    1    0    0    0  0.15187223911E+02  0.20816675180E+02  0.14173895854E+02  0.29408928225E+02  0.00000000000E+00 0. -1.
</event>
<event>
 5    1  0.1691145E-003  0.9118800E+02  0.7818608E-02  0.1130116E+00
         25   -1    0    0    0    0  0.00000000000E+00  0.00000000000E+00  0.99999998245E-14  0.12500000000E+03  0.12500000000E+03 0.  0.
        -11    1    3    3    0    0  0.27442520610E+02  0.20131286754E+02 -0.73987341115E+01  0.34829612552E+02  0.51100000000E-03 0. -1.
         23    2    1    0    0    0 -0.22310243732E+02 -0.16016032712E+02 -0.82188545509E+01  0.96332773951E+02  0.91968437454E+02 0.  0.
         11    1    3    3    0    0 -0.49752764343E+02 -0.36147319465E+02 -0.82012043949E+00  0.61503161399E+02  0.51100000000E-03 0.  1.
         22    1    1    0    0    0  0.22310243732E+02  0.16016032712E+02  0.82188545509E+01  0.28667226049E+02  0.00000000000E+00 0.  1.
</event>
<event>
 5    1  0.1691145E-003  0.9118800E+02  0.7818608E-02  0.1130116E+00
         25   -1    0    0    0    0  0.00000000000E+00  0.00000000000E+00  0.99999998245E-14  0.12500000000E+03  0.12500000000E+03 0.  0.
        -11    1    3    3    0    0 -0.17474828445E+02  0.19254213192E+02  0.27758754708E+02  0.38034758026E+02  0.51100000000E-03 0.  1.
         23    2    1    0    0    0  0.20197234405E+02 -0.19522285214E+02  0.62244823370E+01  0.96228623982E+02  0.91826771671E+02 0.  0.
         11    1    3    3    0    0  0.37672062850E+02 -0.38776498407E+02 -0.21534272371E+02  0.58193865956E+02  0.51100000000E-03 0. -1.
         22    1    1    0    0    0 -0.20197234405E+02  0.19522285214E+02 -0.62244823370E+01  0.28771376018E+02  0.00000000000E+00 0. -1.
</event>
<event>
 5    1  0.1691145E-003  0.9118800E+02  0.7818608E-02  0.1130116E+00
         25   -1    0    0    0    0  0.00000000000E+00  0.00000000000E+00  0.99999998245E-14  0.12500000000E+03  0.12500000000E+03 0.  0.
        -11    1    3    3    0    0  0.76676015261E+01  0.37128884229E+02  0.71369503114E+01  0.38578260942E+02  0.51100000000E-03 0. -1.
         23    2    1    0    0    0  0.26433959479E+02 -0.12849062473E+02 -0.88489060160E+01  0.94305444166E+02  0.89170404516E+02 0.  0.
         11    1    3    3    0    0  0.18766357952E+02 -0.49977946702E+02 -0.15985856327E+02  0.55727183225E+02  0.51100000000E-03 0.  1.
         22    1    1    0    0    0 -0.26433959479E+02  0.12849062473E+02  0.88489060160E+01  0.30694555834E+02  0.00000000000E+00 0.  1.
</event>
<event>
 5    1  0.1691145E-003  0.9118800E+02  0.7818608E-02  0.1130116E+00
         25   -1    0    0    0    0  0.00000000000E+00  0.00000000000E+00  0.99999998245E-14  0.12500000000E+03  0.12500000000E+03 0.  0.
        -11    1    3    3    0    0 -0.24541976668E+02  0.10314142451E+02 -0.47927474621E+02  0.54824565453E+02  0.51100000000E-03 0. -1.
         23    2    1    0    0    0 -0.14515581850E+02  0.26648311456E+02 -0.20144557075E+02  0.88576960593E+02  0.80741811648E+02 0.  0.
         11    1    3    3    0    0  0.10026394818E+02  0.16334169004E+02  0.27782917545E+02  0.33752395140E+02  0.51100000000E-03 0.  1.
         22    1    1    0    0    0  0.14515581850E+02 -0.26648311456E+02  0.20144557075E+02  0.36423039407E+02  0.00000000000E+00 0. -1.
</event>
<event>
 5    1  0.1691145E-003  0.9118800E+02  0.7818608E-02  0.1130116E+00
         25   -1    0    0    0    0  0.00000000000E+00  0.00000000000E+00  0.99999998245E-14  0.12500000000E+03  0.12500000000E+03 0.  0.
        -11    1    3    3    0    0 -0.46806215232E+02  0.21900262897E+00 -0.24306159112E+01  0.46869794543E+02  0.51100000000E-03 0. -1.
         23    2    1    0    0    0 -0.74586968067E+01 -0.28441398935E+02 -0.30267659187E+00  0.95595290436E+02  0.90960555237E+02 0.  0.
         11    1    3    3    0    0  0.39347518426E+02 -0.28660401564E+02  0.21279393193E+01  0.48725495893E+02  0.51100000000E-03 0.  1.
         22    1    1    0    0    0  0.74586968067E+01  0.28441398935E+02  0.30267659187E+00  0.29404709564E+02  0.00000000000E+00 0.  1.
</event>
<event>
 5    1  0.1691145E-003  0.9118800E+02  0.7818608E-02  0.1130116E+00
         25   -1    0    0    0    0  0.00000000000E+00  0.00000000000E+00  0.99999998245E-14  0.12500000000E+03  0.12500000000E+03 0.  0.
        -11    1    3    3    0    0 -0.41159909124E+02  0.72476749486E+01 -0.19420706975E+02  0.46085038472E+02  0.51100000000E-03 0.  1.
         23    2    1    0    0    0  0.29635400263E+01  0.17173028732E+02 -0.27905396666E+02  0.92100050936E+02  0.86023326685E+02 0.  0.
         11    1    3    3    0    0  0.44123449150E+02  0.99253537831E+01 -0.84846896914E+01  0.46015012464E+02  0.51100000000E-03 0. -1.
         22    1    1    0    0    0 -0.29635400263E+01 -0.17173028732E+02  0.27905396666E+02  0.32899949064E+02  0.00000000000E+00 0.  1.
</event>
<event>
 5    1  0.1691145E-003  0.9118800E+02  0.7818608E-02  0.1130116E+00
         25   -1    0    0    0    0  0.00000000000E+00  0.00000000000E+00  0.99999998245E-14  0.12500000000E+03  0.12500000000E+03 0.  0.
        -11    1    3    3    0    0  0.40086510092E+02 -0.30800407961E+02  0.25777629020E+02  0.56745745039E+02  0.51100000000E-03 0.  1.
         23    2    1    0    0    0  0.86767448993E+01 -0.92823617550E+01  0.27340254712E+02  0.94851406840E+02  0.89932484176E+02 0.  0.
         11    1    3    3    0    0 -0.31409765193E+02  0.21518046206E+02  0.15626256918E+01  0.38105661801E+02  0.51100000000E-03 0. -1.
         22    1    1    0    0    0 -0.86767448993E+01  0.92823617550E+01 -0.27340254712E+02  0.30148593160E+02  0.00000000000E+00 0.  1.
</event>
<event>
 5    1  0.1691145E-003  0.9118800E+02  0.7818608E-02  0.1130116E+00
         25   -1    0    0    0    0  0.00000000000E+00  0.00000000000E+00  0.99999998245E-14  0.12500000000E+03  0.12500000000E+03 0.  0.
        -11    1    3    3    0    0  0.11195437973E+02 -0.22845979550E+02  0.34408379074E+02  0.42792676520E+02  0.51100000000E-03 0. -1.
         23    2    1    0    0    0 -0.88492356627E+01  0.22791355108E+02  0.15201215740E+02  0.96210560974E+02  0.91802179949E+02 0.  0.
         11    1    3    3    0    0 -0.20044673636E+02  0.45637334658E+02 -0.19207163334E+02  0.53417884454E+02  0.51100000000E-03 0.  1.
         22    1    1    0    0    0  0.88492356627E+01 -0.22791355108E+02 -0.15201215740E+02  0.28789439026E+02  0.00000000000E+00 0.  1.
</event>
<event>
 5    1  0.1691145E-003  0.9118800E+02  0.7818608E-02  0.1130116E+00
         25   -1    0    0    0    0  0.00000000000E+00  0.00000000000E+00  0.99999998245E-14  0.12500000000E+03  0.12500000000E+03 0.  0.
        -11    1    3    3    0    0  0.33090535426E+01  0.19614153509E+02 -0.27891856989E+02  0.34258145598E+02  0.51100000000E-03 0. -1.
         23    2    1    0    0    0 -0.14295418798E+02 -0.17596131912E+02  0.18106040513E+02  0.95986010962E+02  0.91495916523E+02 0.  0.
         11    1    3    3    0    0 -0.17604472340E+02 -0.37210285422E+02  0.45997897502E+02  0.61727865364E+02  0.51100000000E-03 0.  1.
         22    1    1    0    0    0  0.14295418798E+02  0.17596131912E+02 -0.18106040513E+02  0.29013989038E+02  0.00000000000E+00 0.  1.
</event>
<event>
 5    1  0.1691145E-003  0.9118800E+02  0.7818608E-02  0.1130116E+00
         25   -1    0    0    0    0  0.00000000000E+00  0.00000000000E+00  0.99999998245E-14  0.12500000000E+03  0.12500000000E+03 0.  0.
        -11    1    3    3    0    0 -0.30212779312E+02  0.10627715885E+02 -0.22316914405E+02  0.39035945583E+02  0.51100000000E-03 0.  1.
         23    2    1    0    0    0  0.16682866938E+02  0.16187632261E+02  0.13329969149E+02  0.98203627764E+02  0.94477018057E+02 0.  0.
         11    1    3    3    0    0  0.46895646250E+02  0.55599163755E+01  0.35646883555E+02  0.59167682181E+02  0.51100000000E-03 0. -1.
         22    1    1    0    0    0 -0.16682866938E+02 -0.16187632261E+02 -0.13329969149E+02  0.26796372236E+02  0.00000000000E+00 0. -1.
</event>
<event>
 5    1  0.1691145E-003  0.9118800E+02  0.7818608E-02  0.1130116E+00
         25   -1    0    0    0    0  0.00000000000E+00  0.00000000000E+00  0.99999998245E-14  0.12500000000E+03  0.12500000000E+03 0.  0.
        -11    1    3    3    0    0  0.29061255843E+02 -0.11044001277E+02  0.28493387664E+02  0.42171076536E+02  0.51100000000E-03 0. -1.
         23    2    1    0    0    0  0.14409049314E+02  0.27511125564E+02 -0.26169550037E+01  0.93833813428E+02  0.88506798366E+02 0.  0.
         11    1    3    3    0    0 -0.14652206530E+02  0.38555126842E+02 -0.31110342668E+02  0.51662736892E+02  0.51100000000E-03 0.  1.
         22    1    1    0    0    0 -0.14409049314E+02 -0.27511125564E+02  0.26169550037E+01  0.31166186572E+02  0.00000000000E+00 0.  1.
</event>
<event>
 5    1  0.1691145E-003  0.9118800E+02  0.7818608E-02  0.1130116E+00
         25   -1    0    0    0    0  0.00000000000E+00  0.00000000000E+00  0.99999998245E-14  0.12500000000E+03  0.12500000000E+03 0.  0.
        -11    1    3    3    0    0  0.77100315704E+01 -0.20353014527E+02  0.27096686379E+02  0.34755146384E+02  0.51100000000E-03 0. -1.
         23    2    1    0    0    0  0.31206272756E+01  0.37283732664E+01 -0.28800607219E+02  0.95791883697E+02  0.91230318010E+02 0.  0.
         11    1    3    3    0    0 -0.45894042947E+01  0.24081387794E+02 -0.55897293599E+02  0.61036737313E+02  0.51100000000E-03 0.  1.
         22    1    1    0    0    0 -0.31206272756E+01 -0.37283732664E+01  0.28800607219E+02  0.29208116303E+02  0.00000000000E+00 0.  1.
</event>
<event>
 5    1  0.1691145E-003  0.9118800E+02  0.7818608E-02  0.1130116E+00
         25   -1    0    0    0    0  0.00000000000E+00  0.00000000000E+00  0.99999998245E-14  0.12500000000E+03  0.12500000000E+03 0.  0.
        -11    1    3    3    0    0  0.53089750187E+02  0.28882618292E+02  0.60492951604E+01  0.60739782569E+02  0.51100000000E-03 0. -1.
         23    2    1    0    0    0  0.26719752211E+02  0.29384085278E+01  0.43298643046E+01  0.97772676816E+02  0.93905107443E+02 0.  0.
         11    1    3    3    0    0 -0.26369997976E+02 -0.25944209764E+02 -0.17194308558E+01  0.37032894247E+02  0.51100000000E-03 0.  1.
         22    1    1    0    0    0 -0.26719752211E+02 -0.29384085278E+01 -0.43298643046E+01  0.27227323184E+02  0.00000000000E+00 0. -1.
</event>
<event>
 5    1  0.1691145E-003  0.9118800E+02  0.7818608E-02  0.1130116E+00
         25   -1    0    0    0    0  0.00000000000E+00  0.00000000000E+00  0.99999998245E-14  0.12500000000E+03  0.12500000000E+03 0.  0.
        -11    1    3    3    0    0 -0.15576231882E+02 -0.76592474220E+01  0.50762568252E+02  0.53648125844E+02  0.51100000000E-03 0. -1.
         23    2    1    0    0    0 -0.26769317317E+02 -0.51954893432E+01  0.10058120409E+02  0.95935326507E+02  0.91426646152E+02 0.  0.
         11    1    3    3    0    0 -0.11193085434E+02  0.24637580789E+01 -0.40704447843E+02  0.42287200663E+02  0.51100000000E-03 0.  1.
         22    1    1    0    0    0  0.26769317317E+02  0.51954893432E+01 -0.10058120409E+02  0.29064673493E+02  0.00000000000E+00 0.  1.
</event>
<event>
 5    1  0.1691145E-003  0.9118800E+02  0.7818608E-02  0.1130116E+00
         25   -1    0    0    0    0  0.00000000000E+00  0.00000000000E+00  0.99999998245E-14  0.12500000000E+03  0.12500000000E+03 0.  0.
        -11    1    3    3    0    0  0.35608412919E+02 -0.27565924347E+02 -0.13888796840E+02  0.47124706191E+02  0.51100000000E-03 0.  1.
         23    2    1    0    0    0 -0.13961585583E+02 -0.19654619397E+02 -0.13593781580E+02  0.97322918628E+02  0.93304499661E+02 0.  0.
         11    1    3    3    0    0 -0.49569998503E+02  0.79113049500E+01  0.29501525954E+00  0.50198212437E+02  0.51100000000E-03 0. -1.
         22    1    1    0    0    0  0.13961585583E+02  0.19654619397E+02  0.13593781580E+02  0.27677081372E+02  0.00000000000E+00 0. -1.
</event>
<event>
 5    1  0.1691145E-003  0.9118800E+02  0.7818608E-02  0.1130116E+00
         25   -1    0    0    0    0  0.00000000000E+00  0.00000000000E+00  0.99999998245E-14  0.12500000000E+03  0.12500000000E+03 0.  0.
        -11    1    3    3    0    0 -0.56682275583E+01 -0.29181003357E+02 -0.40060216888E+01  0.29995132449E+02  0.51100000000E-03 0.  1.
         23    2    1    0    0    0  0.26413803003E+02  0.15036833796E+02 -0.21963073046E+02  0.87501040851E+02  0.79058587217E+02 0.  0.
         11    1    3    3    0    0  0.32082030561E+02  0.44217837153E+02 -0.17957051357E+02  0.57505908402E+02  0.51100000000E-03 0. -1.
         22    1    1    0    0    0 -0.26413803003E+02 -0.15036833796E+02  0.21963073046E+02  0.37498959149E+02  0.00000000000E+00 0. -1.
</event>
<event>
 5    1  0.1691145E-003  0.9118800E+02  0.7818608E-02  0.1130116E+00
         25   -1    0    0    0    0  0.00000000000E+00  0.00000000000E+00  0.99999998245E-14  0.12500000000E+03  0.12500000000E+03 0.  0.
        -11    1    3    3    0    0  0.27655838479E+02 -0.22409332586E+02  0.17481884485E+02  0.39656523729E+02  0.51100000000E-03 0.  1.
         23    2    1    0    0    0  0.82399722617E+01  0.42707685922E+01 -0.27803494502E+02  0.95688382614E+02  0.91088394725E+02 0.  0.
         11    1    3    3    0    0 -0.19415866217E+02  0.26680101178E+02 -0.45285378987E+02  0.56031858885E+02  0.51100000000E-03 0. -1.
         22    1    1    0    0    0 -0.82399722617E+01 -0.42707685922E+01  0.27803494502E+02  0.29311617386E+02  0.00000000000E+00 0. -1.
</event>
<event>
 5    1  0.1691145E-003  0.9118800E+02  0.7818608E-02  0.1130116E+00
         25   -1    0    0    0    0  0.00000000000E+00  0.00000000000E+00  0.99999998245E-14  0.12500000000E+03  0.12500000000E+03 0.  0.
        -11    1    3    3    0    0 -0.49004003973E+02  0.28896787905E+02  0.14572198360E+02  0.58726192810E+02  0.51100000000E-03 0. -1.
         23    2    1    0    0    0 -0.13379144773E+02  0.20936609055E+02  0.16322987673E+02  0.95271511304E+02  0.90514517211E+02 0.  0.
         11    1    3    3    0    0  0.35624859200E+02 -0.79601788502E+01  0.17507893132E+01  0.36545318494E+02  0.51100000000E-03 0.  1.
         22    1    1    0    0    0  0.13379144773E+02 -0.20936609055E+02 -0.16322987673E+02  0.29728488696E+02  0.00000000000E+00 0. -1.
</event>
<event>
 5    1  0.1691145E-003  0.9118800E+02  0.7818608E-02  0.1130116E+00
         25   -1    0    0    0    0  0.00000000000E+00  0.00000000000E+00  0.99999998245E-14  0.12500000000E+03  0.12500000000E+03 0.  0.
        -11    1    3    3    0    0 -0.33281575561E+00 -0.21099048131E+01 -0.61955066224E+02  0.61991876046E+02  0.51100000000E-03 0.  1.
         23    2    1    0    0    0  0.53640863308E+01 -0.21319391996E+01 -0.30557024365E+02  0.93902567229E+02  0.88603847587E+02 0.  0.
         11    1    3    3    0    0  0.56969020864E+01 -0.22034386486E-01  0.31398041859E+02  0.31910691183E+02  0.51100000000E-03 0. -1.
         22    1    1    0    0    0 -0.53640863308E+01  0.21319391996E+01  0.30557024365E+02  0.31097432771E+02  0.00000000000E+00 0.  1.
</event>
<event>
 5    1  0.1691145E-003  0.9118800E+02  0.7818608E-02  0.1130116E+00
         25   -1    0    0    0    0  0.00000000000E+00  0.00000000000E+00  0.99999998245E-14  0.12500000000E+03  0.12500000000E+03 0.  0.
        -11    1    3    3    0    0  0.22110013404E+02  0.29801536006E+02 -0.25099464948E+02  0.44799189524E+02  0.51100000000E-03 0. -1.
         23    2    1    0    0    0 -0.11183540149E+02 -0.13195006176E+01 -0.32167872773E+02  0.90917971144E+02  0.84288153296E+02 0.  0.
         11    1    3    3    0    0 -0.33293553554E+02 -0.31121036623E+02 -0.70684078253E+01  0.46118781621E+02  0.51100000000E-03 0.  1.
         22    1    1    0    0    0  0.11183540149E+02  0.13195006176E+01  0.32167872773E+02  0.34082028856E+02  0.00000000000E+00 0.  1.
</event>
<event>
 5    1  0.1691145E-003  0.9118800E+02  0.7818608E-02  0.1130116E+00
         25   -1    0    0    0    0  0.00000000000E+00  0.00000000000E+00  0.99999998245E-14  0.12500000000E+03  0.12500000000E+03 0.  0.
        -11    1    3    3    0    0  0.34822933149E+02  0.28968647551E+02  0.15228669325E+02  0.47788404281E+02  0.51100000000E-03 0. -1.
         23    2    1    0    0    0 -0.12873456179E+02  0.23670344592E+02  0.10762263880E+02  0.95985565473E+02  0.91495307903E+02 0.  0.
         11    1    3    3    0    0 -0.47696389328E+02 -0.52983029593E+01 -0.44664054446E+01  0.48197161193E+02  0.51100000000E-03 0.  1.
         22    1    1    0    0    0  0.12873456179E+02 -0.23670344592E+02 -0.10762263880E+02  0.29014434527E+02  0.00000000000E+00 0. -1.
</event>
<event>
 5    1  0.1691145E-003  0.9118800E+02  0.7818608E-02  0.1130116E+00
         25   -1    0    0    0    0  0.00000000000E+00  0.00000000000E+00  0.99999998245E-14  0.12500000000E+03  0.12500000000E+03 0.  0.
        -11    1    3    3    0    0  0.39534576418E+02 -0.15524700598E+02  0.12723871988E+01  0.42492564416E+02  0.51100000000E-03 0.  1.
         23    2    1    0    0    0  0.12556932667E+02  0.27983539257E+02  0.54176436723E+01  0.93853477075E+02  0.88534565389E+02 0.  0.
         11    1    3    3    0    0 -0.26977643751E+02  0.43508239855E+02  0.41452564735E+01  0.51360912659E+02  0.51100000000E-03 0. -1.
         22    1    1    0    0    0 -0.12556932667E+02 -0.27983539257E+02 -0.54176436723E+01  0.31146522925E+02  0.00000000000E+00 0. -1.
</event>
<event>
 5    1  0.1691145E-003  0.9118800E+02  0.7818608E-02  0.1130116E+00
         25   -1    0    0    0    0  0.00000000000E+00  0.00000000000E+00  0.99999998245E-14  0.12500000000E+03  0.12500000000E+03 0.  0.
        -11    1    3    3    0    0  0.11517840330E+02 -0.29194690342E+02  0.32415535654E+02  0.45119369920E+02  0.51100000000E-03 0. -1.
         23    2    1    0    0    0 -0.92583583899E+01  0.77885684117E+01  0.35346723066E+02  0.87639996929E+02  0.79277987059E+02 0.  0.
         11    1    3    3    0    0 -0.20776198720E+02  0.36983258754E+02  0.29311874123E+01  0.42520627008E+02  0.51100000000E-03 0.  1.
         22    1    1    0    0    0  0.92583583899E+01 -0.77885684117E+01 -0.35346723066E+02  0.37360003071E+02  0.00000000000E+00 0.  1.
</event>
<event>
 5    1  0.1691145E-003  0.9118800E+02  0.7818608E-02  0.1130116E+00
         25   -1    0    0    0    0  0.00000000000E+00  0.00000000000E+00  0.99999998245E-14  0.12500000000E+03  0.12500000000E+03 0.  0.
        -11    1    3    3    0    0  0.12519145976E+02  0.21861862331E+02  0.25860369859E+02  0.36103029929E+02  0.51100000000E-03 0. -1.
         23    2    1    0    0    0  0.10965653834E+02 -0.26503893562E+02 -0.80694488521E+01  0.95203726026E+02  0.90420857695E+02 0.  0.
         11    1    3    3    0    0 -0.15534921413E+01 -0.48365755894E+02 -0.33929818711E+02  0.59100696096E+02  0.51100000000E-03 0.  1.
         22    1    1    0    0    0 -0.10965653834E+02  0.26503893562E+02  0.80694488521E+01  0.29796273974E+02  0.00000000000E+00 0.  1.
</event>
<event>
 5    1  0.1691145E-003  0.9118800E+02  0.7818608E-02  0.1130116E+00
         25   -1    0    0    0    0  0.00000000000E+00  0.00000000000E+00  0.99999998245E-14  0.12500000000E+03  0.12500000000E+03 0.  0.
        -11    1    3    3    0    0 -0.35394387671E+02  0.19933847089E+02 -0.16052498847E+02  0.43678411805E+02  0.51100000000E-03 0. -1.
         23    2    1    0    0    0  0.41770432982E+01  0.31654382601E+02  0.88337594839E+01  0.91871720009E+02  0.85690898012E+02 0.  0.
         11    1    3    3    0    0  0.39571430969E+02  0.11720535512E+02  0.24886258331E+02  0.48193308203E+02  0.51100000000E-03 0.  1.
         22    1    1    0    0    0 -0.41770432982E+01 -0.31654382601E+02 -0.88337594839E+01  0.33128279991E+02  0.00000000000E+00 0.  1.
</event>
<event>
 5    1  0.1691145E-003  0.9118800E+02  0.7818608E-02  0.1130116E+00
         25   -1    0    0    0    0  0.00000000000E+00  0.00000000000E+00  0.99999998245E-14  0.12500000000E+03  0.12500000000E+03 0.  0.
        -11    1    3    3    0    0  0.16035368926E+02 -0.29464702006E+02  0.31986098901E+01  0.33697667966E+02  0.51100000000E-03 0.  1.
         23    2    1    0    0    0 -0.16098336672E+02  0.23968037602E+02  0.19633713429E+01  0.96060786169E+02  0.91598016039E+02 0.  0.
         11    1    3    3    0    0 -0.32133705598E+02  0.53432739608E+02 -0.12352385472E+01  0.62363118203E+02  0.51100000000E-03 0. -1.
         22    1    1    0    0    0  0.16098336672E+02 -0.23968037602E+02 -0.19633713429E+01  0.28939213831E+02  0.00000000000E+00 0. -1.
</event>
<event>
 5    1  0.1691145E-003  0.9118800E+02  0.7818608E-02  0.1130116E+00
         25   -1    0    0    0    0  0.00000000000E+00  0.00000000000E+00  0.99999998245E-14  0.12500000000E+03  0.12500000000E+03 0.  0.
        -11    1    3    3    0    0  0.29724631985E+02 -0.27371776622E+01  0.17094726913E+02  0.34398772896E+02  0.51100000000E-03 0.  1.
         23    2    1    0    0    0 -0.28630086276E+02 -0.82536739368E+01  0.98282088222E+00  0.95187738923E+02  0.90398754034E+02 0.  0.
         11    1    3    3    0    0 -0.58354718261E+02 -0.55164962746E+01 -0.16111906031E+02  0.60788966028E+02  0.51100000000E-03 0. -1.
         22    1    1    0    0    0  0.28630086276E+02  0.82536739368E+01 -0.98282088222E+00  0.29812261077E+02  0.00000000000E+00 0. -1.
</event>
<event>
 5    1  0.1691145E-003  0.9118800E+02  0.7818608E-02  0.1130116E+00
         25   -1    0    0    0    0  0.00000000000E+00  0.00000000000E+00  0.99999998245E-14  0.12500000000E+03  0.12500000000E+03 0.  0.
        -11    1    3    3    0    0  0.29999585531E+02 -0.45245058506E+02 -0.29297600251E+01  0.54366110265E+02  0.51100000000E-03 0.  1.
         23    2    1    0    0    0  0.49342396100E+01 -0.21177810384E+02  0.19555080046E+02  0.95755384619E+02  0.91180294772E+02 0.  0.
         11    1    3    3    0    0 -0.25065345921E+02  0.24067248122E+02  0.22484840071E+02  0.41389274354E+02  0.51100000000E-03 0. -1.
         22    1    1    0    0    0 -0.49342396100E+01  0.21177810384E+02 -0.19555080046E+02  0.29244615381E+02  0.00000000000E+00 0. -1.
</event>
<event>
 5    1  0.1691145E-003  0.9118800E+02  0.7818608E-02  0.1130116E+00
         25   -1    0    0    0    0  0.00000000000E+00  0.00000000000E+00  0.99999998245E-14  0.12500000000E+03  0.12500000000E+03 0.  0.
        -11    1    3    3    0    0  0.28166010541E+02  0.50609170786E+02  0.10519030443E+02  0.58866478739E+02  0.51100000000E-03 0.  1.
         23    2    1    0    0    0  0.24395424078E+02  0.13617434993E+02  0.68737624056E+01  0.96228141156E+02  0.91826114418E+02 0.  0.
         11    1    3    3    0    0 -0.37705864628E+01 -0.36991735793E+02 -0.36452680371E+01  0.37361662417E+02  0.51100000000E-03 0. -1.
         22    1    1    0    0    0 -0.24395424078E+02 -0.13617434993E+02 -0.68737624056E+01  0.28771858844E+02  0.00000000000E+00 0.  1.
</event>
<event>
 5    1  0.1691145E-003  0.9118800E+02  0.7818608E-02  0.1130116E+00
         25   -1    0    0    0    0  0.00000000000E+00  0.00000000000E+00  0.99999998245E-14  0.12500000000E+03  0.12500000000E+03 0.  0.
        -11    1    3    3    0    0 -0.42566379824E+01  0.40007476561E+02  0.39960860919E+02  0.56706150930E+02  0.51100000000E-03 0. -1.
         23    2    1    0    0    0 -0.19090273459E+02  0.96668303022E+01  0.18437099135E+02  0.96754420286E+02  0.92539748603E+02 0.  0.
         11    1    3    3    0    0 -0.14833635477E+02 -0.30340646259E+02 -0.21523761783E+02  0.40048269356E+02  0.51100000000E-03 0.  1.
         22    1    1    0    0    0  0.19090273459E+02 -0.96668303022E+01 -0.18437099135E+02  0.28245579714E+02  0.00000000000E+00 0. -1.
</event>
<event>
 5    1  0.1691145E-003  0.9118800E+02  0.7818608E-02  0.1130116E+00
         25   -1    0    0    0    0  0.00000000000E+00  0.00000000000E+00  0.99999998245E-14  0.12500000000E+03  0.12500000000E+03 0.  0.
        -11    1    3    3    0    0 -0.43548608875E+02 -0.97957451768E+01 -0.17893926606E+00  0.44637091953E+02  0.51100000000E-03 0.  1.
         23    2    1    0    0    0 -0.10105971425E+01 -0.18110678426E+02 -0.24637896165E+02  0.94405165353E+02  0.89310085311E+02 0.  0.
         11    1    3    3    0    0  0.42538011732E+02 -0.83149332494E+01 -0.24458956899E+02  0.49768073400E+02  0.51100000000E-03 0. -1.
         22    1    1    0    0    0  0.10105971425E+01  0.18110678426E+02  0.24637896165E+02  0.30594834647E+02  0.00000000000E+00 0. -1.
</event>
<event>
 5    1  0.1691145E-003  0.9118800E+02  0.7818608E-02  0.1130116E+00
         25   -1    0    0    0    0  0.00000000000E+00  0.00000000000E+00  0.99999998245E-14  0.12500000000E+03  0.12500000000E+03 0.  0.
        -11    1    3    3    0    0  0.34713103988E+02 -0.25594835941E+02 -0.41889820517E+02  0.60123641594E+02  0.51100000000E-03 0. -1.
         23    2    1    0    0    0  0.49090786589E+01 -0.12987790655E+02 -0.24445224800E+02  0.96886822042E+02  0.92718420557E+02 0.  0.
         11    1    3    3    0    0 -0.29804025329E+02  0.12607045286E+02  0.17444595717E+02  0.36763180448E+02  0.51100000000E-03 0.  1.
         22    1    1    0    0    0 -0.49090786589E+01  0.12987790655E+02  0.24445224800E+02  0.28113177958E+02  0.00000000000E+00 0. -1.
</event>
<event>
 5    1  0.1691145E-003  0.9118800E+02  0.7818608E-02  0.1130116E+00
         25   -1    0    0    0    0  0.00000000000E+00  0.00000000000E+00  0.99999998245E-14  0.12500000000E+03  0.12500000000E+03 0.  0.
        -11    1    3    3    0    0 -0.20277829472E+01  0.49693637572E+02  0.35053611336E+02  0.60846735219E+02  0.51100000000E-03 0. -1.
         23    2    1    0    0    0  0.67002463480E+01  0.28414599043E+02  0.11924568529E+02  0.93464653569E+02  0.87983881434E+02 0.  0.
         11    1    3    3    0    0  0.87280292952E+01 -0.21279038529E+02 -0.23129042807E+02  0.32617918350E+02  0.51100000000E-03 0.  1.
         22    1    1    0    0    0 -0.67002463480E+01 -0.28414599043E+02 -0.11924568529E+02  0.31535346431E+02  0.00000000000E+00 0. -1.
</event>
<event>
 5    1  0.1691145E-003  0.9118800E+02  0.7818608E-02  0.1130116E+00
         25   -1    0    0    0    0  0.00000000000E+00  0.00000000000E+00  0.99999998245E-14  0.12500000000E+03  0.12500000000E+03 0.  0.
        -11    1    3    3    0    0 -0.15620341155E+02  0.37477202005E+02 -0.35256647990E+02  0.53773292216E+02  0.51100000000E-03 0. -1.
         23    2    1    0    0    0  0.12390698125E+02  0.92228965299E+01 -0.26213475397E+02  0.94574065128E+02  0.89546168439E+02 0.  0.
         11    1    3    3    0    0  0.28011039280E+02 -0.28254305475E+02  0.90431725931E+01  0.40800772913E+02  0.51100000000E-03 0.  1.
         22    1    1    0    0    0 -0.12390698125E+02 -0.92228965299E+01  0.26213475397E+02  0.30425934872E+02  0.00000000000E+00 0. -1.
</event>
<event>
 5    1  0.1691145E-003  0.9118800E+02  0.7818608E-02  0.1130116E+00
         25   -1    0    0    0    0  0.00000000000E+00  0.00000000000E+00  0.99999998245E-14  0.12500000000E+03  0.12500000000E+03 0.  0.
        -11    1    3    3    0    0  0.64732090466E+01 -0.35934370377E+02 -0.14332546640E+02  0.39225034139E+02  0.51100000000E-03 0.  1.
         23    2    1    0    0    0  0.13355796346E+02  0.20959857134E+02 -0.13874922308E+02  0.96535875630E+02  0.92244072478E+02 0.  0.
         11    1    3    3    0    0  0.68825872994E+01  0.56894227512E+02  0.45762433251E+00  0.57310841491E+02  0.51100000000E-03 0. -1.
         22    1    1    0    0    0 -0.13355796346E+02 -0.20959857134E+02  0.13874922308E+02  0.28464124370E+02  0.00000000000E+00 0. -1.
</event>
<event>
 5    1  0.1691145E-003  0.9118800E+02  0.7818608E-02  0.1130116E+00
         25   -1    0    0    0    0  0.00000000000E+00  0.00000000000E+00  0.99999998245E-14  0.12500000000E+03  0.12500000000E+03 0.  0.
        -11    1    3    3    0    0  0.32045288955E+02 -0.22132601554E+02  0.84022264449E+00  0.38954570594E+02  0.51100000000E-03 0.  1.
         23    2    1    0    0    0 -0.14689264915E+02 -0.34199347296E+01 -0.25199300227E+02  0.95632072098E+02  0.91011087372E+02 0.  0.
         11    1    3    3    0    0 -0.46734553871E+02  0.18712666825E+02 -0.26039522871E+02  0.56677501505E+02  0.51100000000E-03 0. -1.
         22    1    1    0    0    0  0.14689264915E+02  0.34199347296E+01  0.25199300227E+02  0.29367927902E+02  0.00000000000E+00 0. -1.
</event>
<event>
 5    1  0.1691145E-003  0.9118800E+02  0.7818608E-02  0.1130116E+00
         25   -1    0    0    0    0  0.00000000000E+00  0.00000000000E+00  0.99999998245E-14  0.12500000000E+03  0.12500000000E+03 0.  0.
        -11    1    3    3    0    0 -0.48644294782E+02 -0.12566415325E+02  0.28970617254E+02  0.57995507354E+02  0.51100000000E-03 0.  1.
         23    2    1    0    0    0 -0.55352868503E+01 -0.23661948316E+01  0.21188192554E+02  0.10297324849E+03  0.10058982116E+03 0.  0.
         11    1    3    3    0    0  0.43109007931E+02  0.10200220493E+02 -0.77824247003E+01  0.44977741133E+02  0.51100000000E-03 0. -1.
         22    1    1    0    0    0  0.55352868503E+01  0.23661948316E+01 -0.21188192554E+02  0.22026751513E+02  0.00000000000E+00 0.  1.
</event>
<event>
 5    1  0.1691145E-003  0.9118800E+02  0.7818608E-02  0.1130116E+00
         25   -1    0    0    0    0  0.00000000000E+00  0.00000000000E+00  0.99999998245E-14  0.12500000000E+03  0.12500000000E+03 0.  0.
        -11    1    3    3    0    0  0.29616314545E+02 -0.72903923015E+01 -0.39566868512E+02  0.49958112367E+02  0.51100000000E-03 0. -1.
         23    2    1    0    0    0 -0.61661218382E+01  0.15121122404E+02 -0.25983842114E+02  0.94310759992E+02  0.89177855984E+02 0.  0.
         11    1    3    3    0    0 -0.35782436383E+02  0.22411514706E+02  0.13583026399E+02  0.44352647625E+02  0.51100000000E-03 0.  1.
         22    1    1    0    0    0  0.61661218382E+01 -0.15121122404E+02  0.25983842114E+02  0.30689240008E+02  0.00000000000E+00 0.  1.
</event>
<event>
 5    1  0.1691145E-003  0.9118800E+02  0.7818608E-02  0.1130116E+00
         25   -1    0    0    0    0  0.00000000000E+00  0.00000000000E+00  0.99999998245E-14  0.12500000000E+03  0.12500000000E+03 0.  0.
        -11    1    3    3    0    0 -0.11763626121E+01 -0.46918641853E+02 -0.39589349727E+02  0.61400809395E+02  0.51100000000E-03 0.  1.
         23    2    1    0    0    0 -0.86014618210E+01 -0.26781771197E+02 -0.25140180865E+02  0.87273654990E+02  0.78698244881E+02 0.  0.
         11    1    3    3    0    0 -0.74250992089E+01  0.20136870656E+02  0.14449168862E+02  0.25872845594E+02  0.51100000000E-03 0. -1.
         22    1    1    0    0    0  0.86014618210E+01  0.26781771197E+02  0.25140180865E+02  0.37726345010E+02  0.00000000000E+00 0.  1.
</event>
<event>
 5    1  0.1691145E-003  0.9118800E+02  0.7818608E-02  0.1130116E+00
         25   -1    0    0    0    0  0.00000000000E+00  0.00000000000E+00  0.99999998245E-14  0.12500000000E+03  0.12500000000E+03 0.  0.
        -11    1    3    3    0    0  0.90951354795E+01 -0.49833696767E+02 -0.28076031713E+01  0.50734617952E+02  0.51100000000E-03 0.  1.
         23    2    1    0    0    0  0.26061213472E+02 -0.10968509886E+02  0.99597465847E+01  0.95021814452E+02  0.90169028013E+02 0.  0.
         11    1    3    3    0    0  0.16966077992E+02  0.38865186881E+02  0.12767349756E+02  0.44287196500E+02  0.51100000000E-03 0. -1.
         22    1    1    0    0    0 -0.26061213472E+02  0.10968509886E+02 -0.99597465847E+01  0.29978185548E+02  0.00000000000E+00 0.  1.
</event>
<event>
 5    1  0.1691145E-003  0.9118800E+02  0.7818608E-02  0.1130116E+00
         25   -1    0    0    0    0  0.00000000000E+00  0.00000000000E+00  0.99999998245E-14  0.12500000000E+03  0.12500000000E+03 0.  0.
        -11    1    3    3    0    0 -0.23651512367E+02 -0.15874810844E+02  0.53193390458E+02  0.60340205876E+02  0.51100000000E-03 0.  1.
         23    2    1    0    0    0  0.30137710347E+00 -0.81529368978E+01  0.27539197844E+02  0.96277732921E+02  0.91893597331E+02 0.  0.
         11    1    3    3    0    0  0.23952889470E+02  0.77218739465E+01 -0.25654192613E+02  0.35937527045E+02  0.51100000000E-03 0. -1.
         22    1    1    0    0    0 -0.30137710347E+00  0.81529368978E+01 -0.27539197844E+02  0.28722267079E+02  0.00000000000E+00 0.  1.
</event>
<event>
 5    1  0.1691145E-003  0.9118800E+02  0.7818608E-02  0.1130116E+00
         25   -1    0    0    0    0  0.00000000000E+00  0.00000000000E+00  0.99999998245E-14  0.12500000000E+03  0.12500000000E+03 0.  0.
        -11    1    3    3    0    0  0.52805290739E+01  0.19345852471E+02 -0.38101236661E+02  0.43056361092E+02  0.51100000000E-03 0. -1.
         23    2    1    0    0    0 -0.13362629914E+01 -0.24259324292E+02 -0.10119202108E+01  0.10068283741E+03  0.97702146100E+02 0.  0.
         11    1    3    3    0    0 -0.66167920654E+01 -0.43605176763E+02  0.37089316451E+02  0.57626476318E+02  0.51100000000E-03 0.  1.
         22    1    1    0    0    0  0.13362629914E+01  0.24259324292E+02  0.10119202108E+01  0.24317162590E+02  0.00000000000E+00 0.  1.
</event>
<event>
 5    1  0.1691145E-003  0.9118800E+02  0.7818608E-02  0.1130116E+00
         25   -1    0    0    0    0  0.00000000000E+00  0.00000000000E+00  0.99999998245E-14  0.12500000000E+03  0.12500000000E+03 0.  0.
        -11    1    3    3    0    0 -0.30976706405E+01  0.31090947068E+02 -0.13425032816E+02  0.34006970747E+02  0.51100000000E-03 0. -1.
         23    2    1    0    0    0  0.36127091439E+01 -0.29144441532E+02 -0.34459109828E+01  0.95431022302E+02  0.90734533534E+02 0.  0.
         11    1    3    3    0    0  0.67103797845E+01 -0.60235388600E+02  0.99791218333E+01  0.61424051556E+02  0.51100000000E-03 0.  1.
         22    1    1    0    0    0 -0.36127091439E+01  0.29144441532E+02  0.34459109828E+01  0.29568977698E+02  0.00000000000E+00 0.  1.
</event>
<event>
 5    1  0.1691145E-003  0.9118800E+02  0.7818608E-02  0.1130116E+00
         25   -1    0    0    0    0  0.00000000000E+00  0.00000000000E+00  0.99999998245E-14  0.12500000000E+03  0.12500000000E+03 0.  0.
        -11    1    3    3    0    0 -0.82103868902E+00 -0.23194986658E+02 -0.56171859939E+02  0.60777951264E+02  0.51100000000E-03 0. -1.
         23    2    1    0    0    0  0.16104905268E+01 -0.10168600772E+01 -0.29006555736E+02  0.95930979380E+02  0.91420702497E+02 0.  0.
         11    1    3    3    0    0  0.24315292158E+01  0.22178126581E+02  0.27165304204E+02  0.35153028116E+02  0.51100000000E-03 0.  1.
         22    1    1    0    0    0 -0.16104905268E+01  0.10168600772E+01  0.29006555736E+02  0.29069020620E+02  0.00000000000E+00 0. -1.
</event>
<event>
 5    1  0.1691145E-003  0.9118800E+02  0.7818608E-02  0.1130116E+00
         25   -1    0    0    0    0  0.00000000000E+00  0.00000000000E+00  0.99999998245E-14  0.12500000000E+03  0.12500000000E+03 0.  0.
        -11    1    3    3    0    0 -0.34633098246E+02 -0.12196909710E+02  0.99511806675E+01  0.38042635260E+02  0.51100000000E-03 0.  1.
         23    2    1    0    0    0  0.68005776324E+01  0.27905764812E+02  0.35106508647E+01  0.96063790238E+02  0.91602115475E+02 0.  0.
         11    1    3    3    0    0  0.41433675878E+02  0.40102674522E+02 -0.64405298028E+01  0.58021154978E+02  0.51100000000E-03 0. -1.
         22    1    1    0    0    0 -0.68005776324E+01 -0.27905764812E+02 -0.35106508647E+01  0.28936209762E+02  0.00000000000E+00 0. -1.
</event>
<event>
 5    1  0.1691145E-003  0.9118800E+02  0.7818608E-02  0.1130116E+00
         25   -1    0    0    0    0  0.00000000000E+00  0.00000000000E+00  0.99999998245E-14  0.12500000000E+03  0.12500000000E+03 0.  0.
        -11    1    3    3    0    0 -0.43683578694E+02 -0.29793998976E+02 -0.10015301224E+02  0.53816760227E+02  0.51100000000E-03 0.  1.
         23    2    1    0    0    0 -0.14113282120E+02  0.43980280026E+01 -0.20018050234E+02  0.10011527140E+03  0.96973284202E+02 0.  0.
         11    1    3    3    0    0  0.29570296574E+02  0.34192026979E+02 -0.10002749010E+02  0.46298511169E+02  0.51100000000E-03 0. -1.
         22    1    1    0    0    0  0.14113282120E+02 -0.43980280026E+01  0.20018050234E+02  0.24884728604E+02  0.00000000000E+00 0. -1.
</event>
<event>
 5    1  0.1691145E-003  0.9118800E+02  0.7818608E-02  0.1130116E+00
         25   -1    0    0    0    0  0.00000000000E+00  0.00000000000E+00  0.99999998245E-14  0.12500000000E+03  0.12500000000E+03 0.  0.
        -11    1    3    3    0    0  0.74125284226E+01 -0.65273033218E+01 -0.46292189568E+02  0.47334111183E+02  0.51100000000E-03 0.  1.
         23    2    1    0    0    0  0.48872115483E+01 -0.28031883057E+02 -0.21945112678E+01  0.96460778144E+02  0.92142251632E+02 0.  0.
         11    1    3    3    0    0 -0.25253168743E+01 -0.21504579736E+02  0.44097678300E+02  0.49126666960E+02  0.51100000000E-03 0. -1.
         22    1    1    0    0    0 -0.48872115483E+01  0.28031883057E+02  0.21945112678E+01  0.28539221856E+02  0.00000000000E+00 0.  1.
</event>
<event>
 5    1  0.1691145E-003  0.9118800E+02  0.7818608E-02  0.1130116E+00
         25   -1    0    0    0    0  0.00000000000E+00  0.00000000000E+00  0.99999998245E-14  0.12500000000E+03  0.12500000000E+03 0.  0.
        -11    1    3    3    0    0  0.26293303915E+02 -0.31829454245E+02  0.52097364004E+01  0.41612418122E+02  0.51100000000E-03 0.  1.
         23    2    1    0    0    0 -0.12524873865E+02 -0.10706626342E+02 -0.24938585223E+02  0.95109577689E+02  0.90290610931E+02 0.  0.
         11    1    3    3    0    0 -0.38818177780E+02  0.21122827903E+02 -0.30148321624E+02  0.53497159568E+02  0.51100000000E-03 0. -1.
         22    1    1    0    0    0  0.12524873865E+02  0.10706626342E+02  0.24938585223E+02  0.29890422311E+02  0.00000000000E+00 0.  1.
</event>
<event>
 5    1  0.1691145E-003  0.9118800E+02  0.7818608E-02  0.1130116E+00
         25   -1    0    0    0    0  0.00000000000E+00  0.00000000000E+00  0.99999998245E-14  0.12500000000E+03  0.12500000000E+03 0.  0.
        -11    1    3    3    0    0 -0.17814496262E+02 -0.54179489473E+02 -0.12905885821E+02  0.58475082263E+02  0.51100000000E-03 0. -1.
         23    2    1    0    0    0  0.23691093599E+01 -0.25725147197E+02 -0.17693186377E+02  0.93687946065E+02  0.88300546523E+02 0.  0.
         11    1    3    3    0    0  0.20183605622E+02  0.28454342276E+02 -0.47873005555E+01  0.35212863802E+02  0.51100000000E-03 0.  1.
         22    1    1    0    0    0 -0.23691093599E+01  0.25725147197E+02  0.17693186377E+02  0.31312053935E+02  0.00000000000E+00 0. -1.
</event>
<event>
 5    1  0.1691145E-003  0.9118800E+02  0.7818608E-02  0.1130116E+00
         25   -1    0    0    0    0  0.00000000000E+00  0.00000000000E+00  0.99999998245E-14  0.12500000000E+03  0.12500000000E+03 0.  0.
        -11    1    3    3    0    0  0.16431473446E+02 -0.34540157433E+02 -0.11481796375E+02  0.39935541105E+02  0.51100000000E-03 0.  1.
         23    2    1    0    0    0 -0.24936847777E+02 -0.41454787761E+01  0.12734307677E+02  0.96694630132E+02  0.92458950530E+02 0.  0.
         11    1    3    3    0    0 -0.41368321223E+02  0.30394678657E+02  0.24216104053E+02  0.56759089027E+02  0.51100000000E-03 0. -1.
         22    1    1    0    0    0  0.24936847777E+02  0.41454787761E+01 -0.12734307677E+02  0.28305369868E+02  0.00000000000E+00 0. -1.
</event>
<event>
 5    1  0.1691145E-003  0.9118800E+02  0.7818608E-02  0.1130116E+00
         25   -1    0    0    0    0  0.00000000000E+00  0.00000000000E+00  0.99999998245E-14  0.12500000000E+03  0.12500000000E+03 0.  0.
        -11    1    3    3    0    0 -0.28780416657E+02 -0.27171543165E+02 -0.43768363642E+02  0.59010802376E+02  0.51100000000E-03 0.  1.
         23    2    1    0    0    0 -0.24354534133E+02 -0.14748551390E+02 -0.10748929685E+02  0.94566423307E+02  0.89535500372E+02 0.  0.
         11    1    3    3    0    0  0.44258825240E+01  0.12422991776E+02  0.33019433956E+02  0.35555620931E+02  0.51100000000E-03 0. -1.
         22    1    1    0    0    0  0.24354534133E+02  0.14748551390E+02  0.10748929685E+02  0.30433576693E+02  0.00000000000E+00 0.  1.
</event>
<event>
 5    1  0.1691145E-003  0.9118800E+02  0.7818608E-02  0.1130116E+00
         25   -1    0    0    0    0  0.00000000000E+00  0.00000000000E+00  0.99999998245E-14  0.12500000000E+03  0.12500000000E+03 0.  0.
        -11    1    3    3    0    0 -0.12696500840E+02  0.55621360738E+01 -0.46911752486E+02  0.48916776395E+02  0.51100000000E-03 0. -1.
         23    2    1    0    0    0 -0.29438808275E+00  0.28470007737E+02 -0.85772763431E+01  0.95264538438E+02  0.90504887213E+02 0.  0.
         11    1    3    3    0    0  0.12402112757E+02  0.22907871663E+02  0.38334476143E+02  0.46347762043E+02  0.51100000000E-03 0.  1.
         22    1    1    0    0    0  0.29438808275E+00 -0.28470007737E+02  0.85772763431E+01  0.29735461562E+02  0.00000000000E+00 0.  1.
</event>
<event>
 5    1  0.1691145E-003  0.9118800E+02  0.7818608E-02  0.1130116E+00
         25   -1    0    0    0    0  0.00000000000E+00  0.00000000000E+00  0.99999998245E-14  0.12500000000E+03  0.12500000000E+03 0.  0.
        -11    1    3    3    0    0 -0.43221033183E+02 -0.58359901461E+01 -0.25693711703E+02  0.50619001489E+02  0.51100000000E-03 0.  1.
         23    2    1    0    0    0 -0.75573764215E+01 -0.27196132471E+02 -0.10811979252E+02  0.94773480930E+02  0.89824107190E+02 0.  0.
         11    1    3    3    0    0  0.35663656762E+02 -0.21360142325E+02  0.14881732451E+02  0.44154479441E+02  0.51100000000E-03 0. -1.
         22    1    1    0    0    0  0.75573764215E+01  0.27196132471E+02  0.10811979252E+02  0.30226519070E+02  0.00000000000E+00 0.  1.
</event>
<event>
 5    1  0.1691145E-003  0.9118800E+02  0.7818608E-02  0.1130116E+00
         25   -1    0    0    0    0  0.00000000000E+00  0.00000000000E+00  0.99999998245E-14  0.12500000000E+03  0.12500000000E+03 0.  0.
        -11    1    3    3    0    0 -0.14274117545E+01 -0.20038424744E+01 -0.37952743022E+02  0.38032401872E+02  0.51100000000E-03 0.  1.
         23    2    1    0    0    0  0.10192518394E+02  0.27591036389E+02  0.85534785420E+01  0.94368076857E+02  0.89258160492E+02 0.  0.
         11    1    3    3    0    0  0.11619930148E+02  0.29594878864E+02  0.46506221564E+02  0.56335674985E+02  0.51100000000E-03 0. -1.
         22    1    1    0    0    0 -0.10192518394E+02 -0.27591036389E+02 -0.85534785420E+01  0.30631923143E+02  0.00000000000E+00 0. -1.
</event>
<event>
 5    1  0.1691145E-003  0.9118800E+02  0.7818608E-02  0.1130116E+00
         25   -1    0    0    0    0  0.00000000000E+00  0.00000000000E+00  0.99999998245E-14  0.12500000000E+03  0.12500000000E+03 0.  0.
        -11    1    3    3    0    0 -0.20954983409E+02 -0.15797053371E+02 -0.48242380921E+02  0.54917989239E+02  0.51100000000E-03 0. -1.
         23    2    1    0    0    0 -0.16023561693E+02 -0.22599144329E+02 -0.78061015083E+01  0.96217868833E+02  0.91812129963E+02 0.  0.
         11    1    3    3    0    0  0.49314217157E+01 -0.68020909584E+01  0.40436279413E+02  0.41299879595E+02  0.51100000000E-03 0.  1.
         22    1    1    0    0    0  0.16023561693E+02  0.22599144329E+02  0.78061015083E+01  0.28782131167E+02  0.00000000000E+00 0. -1.
</event>
<event>
 5    1  0.1691145E-003  0.9118800E+02  0.7818608E-02  0.1130116E+00
         25   -1    0    0    0    0  0.00000000000E+00  0.00000000000E+00  0.99999998245E-14  0.12500000000E+03  0.12500000000E+03 0.  0.
        -11    1    3    3    0    0 -0.78327900909E+01  0.39162667693E+02  0.24643670359E+02  0.46929496380E+02  0.51100000000E-03 0. -1.
         23    2    1    0    0    0 -0.53163495287E+01  0.14501717620E+02 -0.21036408306E+02  0.98902224987E+02  0.95396835622E+02 0.  0.
         11    1    3    3    0    0  0.25164405622E+01 -0.24660950074E+02 -0.45680078665E+02  0.51972728606E+02  0.51100000000E-03 0.  1.
         22    1    1    0    0    0  0.53163495287E+01 -0.14501717620E+02  0.21036408306E+02  0.26097775013E+02  0.00000000000E+00 0.  1.
</event>
<event>
 5    1  0.1691145E-003  0.9118800E+02  0.7818608E-02  0.1130116E+00
         25   -1    0    0    0    0  0.00000000000E+00  0.00000000000E+00  0.99999998245E-14  0.12500000000E+03  0.12500000000E+03 0.  0.
        -11    1    3    3    0    0 -0.15015775040E+02 -0.32338752031E+02 -0.28092658074E+01  0.35765351356E+02  0.51100000000E-03 0.  1.
         23    2    1    0    0    0  0.22661708946E+02  0.12530974360E+02 -0.14220088633E+02  0.95456992511E+02  0.90770304217E+02 0.  0.
         11    1    3    3    0    0  0.37677483986E+02  0.44869726391E+02 -0.11410822826E+02  0.59691641155E+02  0.51100000000E-03 0. -1.
         22    1    1    0    0    0 -0.22661708946E+02 -0.12530974360E+02  0.14220088633E+02  0.29543007489E+02  0.00000000000E+00 0. -1.
</event>
<event>
 5    1  0.1691145E-003  0.9118800E+02  0.7818608E-02  0.1130116E+00
         25   -1    0    0    0    0  0.00000000000E+00  0.00000000000E+00  0.99999998245E-14  0.12500000000E+03  0.12500000000E+03 0.  0.
        -11    1    3    3    0    0 -0.13680740367E+01 -0.39645328556E+02  0.30193392919E+02  0.49852429019E+02  0.51100000000E-03 0.  1.
         23    2    1    0    0    0 -0.17768082334E+01 -0.23145138621E+02 -0.14591270575E+02  0.97581763983E+02  0.93650632650E+02 0.  0.
         11    1    3    3    0    0 -0.40873419671E+00  0.16500189935E+02 -0.44784663495E+02  0.47729334964E+02  0.51100000000E-03 0. -1.
         22    1    1    0    0    0  0.17768082334E+01  0.23145138621E+02  0.14591270575E+02  0.27418236017E+02  0.00000000000E+00 0. -1.
</event>
<event>
 5    1  0.1691145E-003  0.9118800E+02  0.7818608E-02  0.1130116E+00
         25   -1    0    0    0    0  0.00000000000E+00  0.00000000000E+00  0.99999998245E-14  0.12500000000E+03  0.12500000000E+03 0.  0.
        -11    1    3    3    0    0  0.34177613834E+01  0.32474180410E+02 -0.63009035171E+01  0.33255899801E+02  0.51100000000E-03 0. -1.
         23    2    1    0    0    0  0.72510604465E+00 -0.29211027504E+02  0.27128060915E+01  0.95654315079E+02  0.91041632069E+02 0.  0.
         11    1    3    3    0    0 -0.26926553387E+01 -0.61685207913E+02  0.90137096085E+01  0.62398415278E+02  0.51100000000E-03 0.  1.
         22    1    1    0    0    0 -0.72510604465E+00  0.29211027504E+02 -0.27128060915E+01  0.29345684921E+02  0.00000000000E+00 0.  1.
</event>
<event>
 5    1  0.1691145E-003  0.9118800E+02  0.7818608E-02  0.1130116E+00
         25   -1    0    0    0    0  0.00000000000E+00  0.00000000000E+00  0.99999998245E-14  0.12500000000E+03  0.12500000000E+03 0.  0.
        -11    1    3    3    0    0 -0.41362726113E+02  0.43425497385E+02 -0.36473196491E+01  0.60082875060E+02  0.51100000000E-03 0. -1.
         23    2    1    0    0    0 -0.14496832663E+02  0.11996474108E+02  0.10085629310E+02  0.10365067994E+03  0.10142815184E+03 0.  0.
         11    1    3    3    0    0  0.26865893449E+02 -0.31429023277E+02  0.13732948959E+02  0.43567804883E+02  0.51100000000E-03 0.  1.
         22    1    1    0    0    0  0.14496832663E+02 -0.11996474108E+02 -0.10085629310E+02  0.21349320056E+02  0.00000000000E+00 0. -1.
</event>
<event>
 5    1  0.1691145E-003  0.9118800E+02  0.7818608E-02  0.1130116E+00
         25   -1    0    0    0    0  0.00000000000E+00  0.00000000000E+00  0.99999998245E-14  0.12500000000E+03  0.12500000000E+03 0.  0.
        -11    1    3    3    0    0 -0.18432456904E+02  0.27962120530E+02 -0.11015638092E+02  0.35255920565E+02  0.51100000000E-03 0.  1.
         23    2    1    0    0    0  0.74922569712E+01 -0.23095776272E+02  0.13124944632E+02  0.97399040457E+02  0.93406424373E+02 0.  0.
         11    1    3    3    0    0  0.25924713875E+02 -0.51057896802E+02  0.24140582725E+02  0.62143119892E+02  0.51100000000E-03 0. -1.
         22    1    1    0    0    0 -0.74922569712E+01  0.23095776272E+02 -0.13124944632E+02  0.27600959543E+02  0.00000000000E+00 0. -1.
</event>
<event>
 5    1  0.1691145E-003  0.9118800E+02  0.7818608E-02  0.1130116E+00
         25   -1    0    0    0    0  0.00000000000E+00  0.00000000000E+00  0.99999998245E-14  0.12500000000E+03  0.12500000000E+03 0.  0.
        -11    1    3    3    0    0 -0.51862427958E+01 -0.35098897145E+02 -0.11490289551E+01  0.35498590999E+02  0.51100000000E-03 0. -1.
         23    2    1    0    0    0  0.95503548407E+01  0.24455308758E+02 -0.87687577844E+01  0.97320359158E+02  0.93301070677E+02 0.  0.
         11    1    3    3    0    0  0.14736597636E+02  0.59554205903E+02 -0.76197288293E+01  0.61821768159E+02  0.51100000000E-03 0.  1.
         22    1    1    0    0    0 -0.95503548407E+01 -0.24455308758E+02  0.87687577844E+01  0.27679640842E+02  0.00000000000E+00 0.  1.
</event>
<event>
 5    1  0.1691145E-003  0.9118800E+02  0.7818608E-02  0.1130116E+00
         25   -1    0    0    0    0  0.00000000000E+00  0.00000000000E+00  0.99999998245E-14  0.12500000000E+03  0.12500000000E+03 0.  0.
        -11    1    3    3    0    0  0.15628354902E+02 -0.23000953742E+02  0.24045835802E+02  0.36762638230E+02  0.51100000000E-03 0. -1.
         23    2    1    0    0    0 -0.92724213764E+01  0.18193973069E+02 -0.15743883469E+02  0.99214959358E+02  0.95805740117E+02 0.  0.
         11    1    3    3    0    0 -0.24900776279E+02  0.41194926811E+02 -0.39789719271E+02  0.62452321127E+02  0.51100000000E-03 0.  1.
         22    1    1    0    0    0  0.92724213764E+01 -0.18193973069E+02  0.15743883469E+02  0.25785040642E+02  0.00000000000E+00 0.  1.
</event>
<event>
 5    1  0.1691145E-003  0.9118800E+02  0.7818608E-02  0.1130116E+00
         25   -1    0    0    0    0  0.00000000000E+00  0.00000000000E+00  0.99999998245E-14  0.12500000000E+03  0.12500000000E+03 0.  0.
        -11    1    3    3    0    0  0.20242373580E+02 -0.22091745066E+02  0.22503719621E+02  0.37472873992E+02  0.51100000000E-03 0.  1.
         23    2    1    0    0    0 -0.21211173637E+02  0.17195676384E+02  0.98588257934E+01  0.95968954214E+02  0.91472610947E+02 0.  0.
         11    1    3    3    0    0 -0.41453547217E+02  0.39287421451E+02 -0.12644893827E+02  0.58496080222E+02  0.51100000000E-03 0. -1.
         22    1    1    0    0    0  0.21211173637E+02 -0.17195676384E+02 -0.98588257934E+01  0.29031045786E+02  0.00000000000E+00 0. -1.
</event>
<event>
 5    1  0.1691145E-003  0.9118800E+02  0.7818608E-02  0.1130116E+00
         25   -1    0    0    0    0  0.00000000000E+00  0.00000000000E+00  0.99999998245E-14  0.12500000000E+03  0.12500000000E+03 0.  0.
        -11    1    3    3    0    0  0.53192999417E+02 -0.16702524363E+02 -0.13697959795E+02  0.57411702726E+02  0.51100000000E-03 0. -1.
         23    2    1    0    0    0  0.21235986152E+02 -0.15790997197E+02  0.94691319005E+01  0.96893289782E+02  0.92727139747E+02 0.  0.
         11    1    3    3    0    0 -0.31957013265E+02  0.91152716582E+00  0.23167091695E+02  0.39481587056E+02  0.51100000000E-03 0.  1.
         22    1    1    0    0    0 -0.21235986152E+02  0.15790997197E+02 -0.94691319005E+01  0.28106710218E+02  0.00000000000E+00 0. -1.
</event>
<event>
 5    1  0.1691145E-003  0.9118800E+02  0.7818608E-02  0.1130116E+00
         25   -1    0    0    0    0  0.00000000000E+00  0.00000000000E+00  0.99999998245E-14  0.12500000000E+03  0.12500000000E+03 0.  0.
        -11    1    3    3    0    0  0.29585709648E+02 -0.23649688697E+02  0.23048453345E+02  0.44337943037E+02  0.51100000000E-03 0. -1.
         23    2    1    0    0    0  0.98013517060E+01 -0.14498760640E+02 -0.23477607576E+02  0.95717264253E+02  0.91128020187E+02 0.  0.
         11    1    3    3    0    0 -0.19784357942E+02  0.91509280576E+01 -0.46526060921E+02  0.51379321216E+02  0.51100000000E-03 0.  1.
         22    1    1    0    0    0 -0.98013517060E+01  0.14498760640E+02  0.23477607576E+02  0.29282735747E+02  0.00000000000E+00 0. -1.
</event>
<event>
 5    1  0.1691145E-003  0.9118800E+02  0.7818608E-02  0.1130116E+00
         25   -1    0    0    0    0  0.00000000000E+00  0.00000000000E+00  0.99999998245E-14  0.12500000000E+03  0.12500000000E+03 0.  0.
        -11    1    3    3    0    0 -0.96023178414E+01  0.57439781019E+02  0.10958343948E+02  0.59258908645E+02  0.51100000000E-03 0.  1.
         23    2    1    0    0    0  0.72754344299E+01  0.27302595007E+02  0.13077086029E+02  0.93865231344E+02  0.88551159427E+02 0.  0.
         11    1    3    3    0    0  0.16877752271E+02 -0.30137186012E+02  0.21187420818E+01  0.34606322699E+02  0.51100000000E-03 0. -1.
         22    1    1    0    0    0 -0.72754344299E+01 -0.27302595007E+02 -0.13077086029E+02  0.31134768656E+02  0.00000000000E+00 0.  1.
</event>
<event>
 5    1  0.1691145E-003  0.9118800E+02  0.7818608E-02  0.1130116E+00
         25   -1    0    0    0    0  0.00000000000E+00  0.00000000000E+00  0.99999998245E-14  0.12500000000E+03  0.12500000000E+03 0.  0.
        -11    1    3    3    0    0 -0.16407395689E+02 -0.47541172527E+02 -0.16721613260E+02  0.52999793102E+02  0.51100000000E-03 0.  1.
         23    2    1    0    0    0  0.10430908681E+02 -0.25377042558E+02  0.88279426545E+01  0.96177600440E+02  0.91757289138E+02 0.  0.
         11    1    3    3    0    0  0.26838304370E+02  0.22164129969E+02  0.25549555915E+02  0.43177807338E+02  0.51100000000E-03 0. -1.
         22    1    1    0    0    0 -0.10430908681E+02  0.25377042558E+02 -0.88279426545E+01  0.28822399560E+02  0.00000000000E+00 0.  1.
</event>
<event>
 5    1  0.1691145E-003  0.9118800E+02  0.7818608E-02  0.1130116E+00
         25   -1    0    0    0    0  0.00000000000E+00  0.00000000000E+00  0.99999998245E-14  0.12500000000E+03  0.12500000000E+03 0.  0.
        -11    1    3    3    0    0  0.17368969702E+00 -0.38702312908E+02 -0.74076852548E+01  0.39405240687E+02  0.51100000000E-03 0. -1.
         23    2    1    0    0    0 -0.11605878651E+02  0.14331190463E+02 -0.22614698161E+02  0.95819458328E+02  0.91268091807E+02 0.  0.
         11    1    3    3    0    0 -0.11779568348E+02  0.53033503371E+02 -0.15207012906E+02  0.56414217641E+02  0.51100000000E-03 0.  1.
         22    1    1    0    0    0  0.11605878651E+02 -0.14331190463E+02  0.22614698161E+02  0.29180541672E+02  0.00000000000E+00 0.  1.
</event>
<event>
 5    1  0.1691145E-003  0.9118800E+02  0.7818608E-02  0.1130116E+00
         25   -1    0    0    0    0  0.00000000000E+00  0.00000000000E+00  0.99999998245E-14  0.12500000000E+03  0.12500000000E+03 0.  0.
        -11    1    3    3    0    0 -0.25181639065E+02 -0.17297479553E+01 -0.22068090407E+02  0.33527713737E+02  0.51100000000E-03 0.  1.
         23    2    1    0    0    0  0.13571599811E+02  0.28282986106E+02  0.99672531559E+01  0.92084019687E+02  0.86000028615E+02 0.  0.
         11    1    3    3    0    0  0.38753238875E+02  0.30012734061E+02  0.32035343562E+02  0.58556305950E+02  0.51100000000E-03 0. -1.
         22    1    1    0    0    0 -0.13571599811E+02 -0.28282986106E+02 -0.99672531559E+01  0.32915980313E+02  0.00000000000E+00 0. -1.
</event>
<event>
 5    1  0.1691145E-003  0.9118800E+02  0.7818608E-02  0.1130116E+00
         25   -1    0    0    0    0  0.00000000000E+00  0.00000000000E+00  0.99999998245E-14  0.12500000000E+03  0.12500000000E+03 0.  0.
        -11    1    3    3    0    0  0.29162280915E+02  0.42763395495E+02  0.34687224844E+02  0.62308508168E+02  0.51100000000E-03 0.  1.
         23    2    1    0    0    0  0.16169750909E+02  0.18635448491E+02  0.14112142387E+02  0.96576535263E+02  0.92299153927E+02 0.  0.
         11    1    3    3    0    0 -0.12992530006E+02 -0.24127947004E+02 -0.20575082458E+02  0.34268027095E+02  0.51100000000E-03 0. -1.
         22    1    1    0    0    0 -0.16169750909E+02 -0.18635448491E+02 -0.14112142387E+02  0.28423464737E+02  0.00000000000E+00 0.  1.
</event>
<event>
 5    1  0.1691145E-003  0.9118800E+02  0.7818608E-02  0.1130116E+00
         25   -1    0    0    0    0  0.00000000000E+00  0.00000000000E+00  0.99999998245E-14  0.12500000000E+03  0.12500000000E+03 0.  0.
        -11    1    3    3    0    0 -0.29065078427E+02  0.13444430444E+02  0.21961917334E+02  0.38831138371E+02  0.51100000000E-03 0.  1.
         23    2    1    0    0    0  0.20863485745E+02 -0.19695085656E+01 -0.11709782350E+02  0.10099410481E+03  0.98099572891E+02 0.  0.
         11    1    3    3    0    0  0.49928564172E+02 -0.15413939010E+02 -0.33671699684E+02  0.62162966434E+02  0.51100000000E-03 0. -1.
         22    1    1    0    0    0 -0.20863485745E+02  0.19695085656E+01  0.11709782350E+02  0.24005895195E+02  0.00000000000E+00 0. -1.
</event>
<event>
 5    1  0.1691145E-003  0.9118800E+02  0.7818608E-02  0.1130116E+00
         25   -1    0    0    0    0  0.00000000000E+00  0.00000000000E+00  0.99999998245E-14  0.12500000000E+03  0.12500000000E+03 0.  0.
        -11    1    3    3    0    0 -0.36220603188E+02  0.37511297752E+02  0.18885915553E+02  0.55459060224E+02  0.51100000000E-03 0. -1.
         23    2    1    0    0    0 -0.29403369368E+02  0.62412208149E+00  0.78586085182E+01  0.94558163879E+02  0.89523968688E+02 0.  0.
         11    1    3    3    0    0  0.68172338197E+01 -0.36887175671E+02 -0.11027307035E+02  0.39099103655E+02  0.51100000000E-03 0.  1.
         22    1    1    0    0    0  0.29403369368E+02 -0.62412208149E+00 -0.78586085182E+01  0.30441836121E+02  0.00000000000E+00 0. -1.
</event>
<event>
 5    1  0.1691145E-003  0.9118800E+02  0.7818608E-02  0.1130116E+00
         25   -1    0    0    0    0  0.00000000000E+00  0.00000000000E+00  0.99999998245E-14  0.12500000000E+03  0.12500000000E+03 0.  0.
        -11    1    3    3    0    0 -0.32086438406E+01 -0.61759916470E+02 -0.29118918367E+01  0.61911725804E+02  0.51100000000E-03 0. -1.
         23    2    1    0    0    0  0.89524590549E+00 -0.16922873540E+02  0.43155952327E+01  0.10751259092E+03  0.10608085468E+03 0.  0.
         11    1    3    3    0    0  0.41038897461E+01  0.44837042930E+02  0.72274870694E+01  0.45600865116E+02  0.51100000000E-03 0.  1.
         22    1    1    0    0    0 -0.89524590549E+00  0.16922873540E+02 -0.43155952327E+01  0.17487409079E+02  0.00000000000E+00 0. -1.
</event>
<event>
 5    1  0.1691145E-003  0.9118800E+02  0.7818608E-02  0.1130116E+00
         25   -1    0    0    0    0  0.00000000000E+00  0.00000000000E+00  0.99999998245E-14  0.12500000000E+03  0.12500000000E+03 0.  0.
        -11    1    3    3    0    0 -0.24633343877E+02 -0.25639695710E+02 -0.33953547567E+02  0.49163391048E+02  0.51100000000E-03 0. -1.
         23    2    1    0    0    0 -0.20671987610E+02 -0.16048949243E+02  0.11953609273E+02  0.96228684107E+02  0.91826853517E+02 0.  0.
         11    1    3    3    0    0  0.39613562666E+01  0.95907464677E+01  0.45907156841E+02  0.47065293059E+02  0.51100000000E-03 0.  1.
         22    1    1    0    0    0  0.20671987610E+02  0.16048949243E+02 -0.11953609273E+02  0.28771315893E+02  0.00000000000E+00 0.  1.
</event>
<event>
 5    1  0.1691145E-003  0.9118800E+02  0.7818608E-02  0.1130116E+00
         25   -1    0    0    0    0  0.00000000000E+00  0.00000000000E+00  0.99999998245E-14  0.12500000000E+03  0.12500000000E+03 0.  0.
        -11    1    3    3    0    0 -0.23925773620E+02 -0.46214906546E+02  0.16284382953E+02  0.54529270661E+02  0.51100000000E-03 0. -1.
         23    2    1    0    0    0 -0.25839594086E+02 -0.42286204791E+01  0.97305125835E+01  0.97067067307E+02  0.92961103838E+02 0.  0.
         11    1    3    3    0    0 -0.19138204659E+01  0.41986286067E+02 -0.65538703691E+01  0.42537796646E+02  0.51100000000E-03 0.  1.
         22    1    1    0    0    0  0.25839594086E+02  0.42286204791E+01 -0.97305125835E+01  0.27932932693E+02  0.00000000000E+00 0. -1.
</event>
<event>
 5    1  0.1691145E-003  0.9118800E+02  0.7818608E-02  0.1130116E+00
         25   -1    0    0    0    0  0.00000000000E+00  0.00000000000E+00  0.99999998245E-14  0.12500000000E+03  0.12500000000E+03 0.  0.
        -11    1    3    3    0    0 -0.59000083302E+02 -0.18905441641E+01 -0.14123137977E+02  0.60696350908E+02  0.51100000000E-03 0.  1.
         23    2    1    0    0    0 -0.28896865110E+02 -0.18258518330E+00  0.39255373619E+01  0.95837147017E+02  0.91292314870E+02 0.  0.
         11    1    3    3    0    0  0.30103218193E+02  0.17079589808E+01  0.18048675339E+02  0.35140796109E+02  0.51100000000E-03 0. -1.
         22    1    1    0    0    0  0.28896865110E+02  0.18258518330E+00 -0.39255373619E+01  0.29162852983E+02  0.00000000000E+00 0.  1.
</event>
<event>
 5    1  0.1691145E-003  0.9118800E+02  0.7818608E-02  0.1130116E+00
         25   -1    0    0    0    0  0.00000000000E+00  0.00000000000E+00  0.99999998245E-14  0.12500000000E+03  0.12500000000E+03 0.  0.
        -11    1    3    3    0    0  0.33755957728E+02 -0.12072862212E+02 -0.31641093696E+02  0.47816079875E+02  0.51100000000E-03 0.  1.
         23    2    1    0    0    0 -0.28291077006E+00 -0.29160011442E+02 -0.25785050823E+01  0.95724839979E+02  0.91138411192E+02 0.  0.
         11    1    3    3    0    0 -0.34038868498E+02 -0.17087149230E+02  0.29062588613E+02  0.47908760103E+02  0.51100000000E-03 0. -1.
         22    1    1    0    0    0  0.28291077006E+00  0.29160011442E+02  0.25785050823E+01  0.29275160021E+02  0.00000000000E+00 0.  1.
</event>
<event>
 5    1  0.1691145E-003  0.9118800E+02  0.7818608E-02  0.1130116E+00
         25   -1    0    0    0    0  0.00000000000E+00  0.00000000000E+00  0.99999998245E-14  0.12500000000E+03  0.12500000000E+03 0.  0.
        -11    1    3    3    0    0  0.43657650134E+01 -0.20877565614E+02 -0.52907827196E+02  0.57045340117E+02  0.51100000000E-03 0. -1.
         23    2    1    0    0    0  0.11382907410E+02 -0.22790455608E+02 -0.15442830107E+02  0.95209792722E+02  0.90429244056E+02 0.  0.
         11    1    3    3    0    0  0.70171423963E+01 -0.19128899941E+01  0.37464997089E+02  0.38164452605E+02  0.51100000000E-03 0.  1.
         22    1    1    0    0    0 -0.11382907410E+02  0.22790455608E+02  0.15442830107E+02  0.29790207278E+02  0.00000000000E+00 0. -1.
</event>
<event>
 5    1  0.1691145E-003  0.9118800E+02  0.7818608E-02  0.1130116E+00
         25   -1    0    0    0    0  0.00000000000E+00  0.00000000000E+00  0.99999998245E-14  0.12500000000E+03  0.12500000000E+03 0.  0.
        -11    1    3    3    0    0 -0.95392711980E+00 -0.50303971951E+02  0.42909656659E+01  0.50495662761E+02  0.51100000000E-03 0. -1.
         23    2    1    0    0    0 -0.15581260040E+02 -0.16755091242E+02  0.23813439632E+02  0.91975938256E+02  0.85842789820E+02 0.  0.
         11    1    3    3    0    0 -0.14627332920E+02  0.33548880709E+02  0.19522473966E+02  0.41480275495E+02  0.51100000000E-03 0.  1.
         22    1    1    0    0    0  0.15581260040E+02  0.16755091242E+02 -0.23813439632E+02  0.33024061744E+02  0.00000000000E+00 0. -1.
</event>
<event>
 5    1  0.1691145E-003  0.9118800E+02  0.7818608E-02  0.1130116E+00
         25   -1    0    0    0    0  0.00000000000E+00  0.00000000000E+00  0.99999998245E-14  0.12500000000E+03  0.12500000000E+03 0.  0.
        -11    1    3    3    0    0  0.10004958299E+01 -0.43691530384E+02  0.38167993580E+02  0.58023672353E+02  0.51100000000E-03 0.  1.
         23    2    1    0    0    0 -0.15918515584E+02 -0.19310550114E+02  0.13808499160E+02  0.96417293110E+02  0.92083241024E+02 0.  0.
         11    1    3    3    0    0 -0.16919011414E+02  0.24380980270E+02 -0.24359494420E+02  0.38393620757E+02  0.51100000000E-03 0. -1.
         22    1    1    0    0    0  0.15918515584E+02  0.19310550114E+02 -0.13808499160E+02  0.28582706890E+02  0.00000000000E+00 0.  1.
</event>
<event>
 5    1  0.1691145E-003  0.9118800E+02  0.7818608E-02  0.1130116E+00
         25   -1    0    0    0    0  0.00000000000E+00  0.00000000000E+00  0.99999998245E-14  0.12500000000E+03  0.12500000000E+03 0.  0.
        -11    1    3    3    0    0 -0.31148031584E+02 -0.77678170441E+01  0.51846480615E+02  0.60980295223E+02  0.51100000000E-03 0.  1.
         23    2    1    0    0    0 -0.51338524740E+01 -0.92448200890E+01  0.21934713358E+02  0.10064933697E+03  0.97659276280E+02 0.  0.
         11    1    3    3    0    0  0.26014179110E+02 -0.14770030449E+01 -0.29911767257E+02  0.39669041751E+02  0.51100000000E-03 0. -1.
         22    1    1    0    0    0  0.51338524740E+01  0.92448200890E+01 -0.21934713358E+02  0.24350663026E+02  0.00000000000E+00 0.  1.
</event>
<event>
 5    1  0.1691145E-003  0.9118800E+02  0.7818608E-02  0.1130116E+00
         25   -1    0    0    0    0  0.00000000000E+00  0.00000000000E+00  0.99999998245E-14  0.12500000000E+03  0.12500000000E+03 0.  0.
        -11    1    3    3    0    0  0.16466409651E+02  0.42002016986E+01  0.51130211665E+02  0.53880264349E+02  0.51100000000E-03 0. -1.
         23    2    1    0    0    0  0.26912885124E+02  0.29333640259E+01  0.10316597066E+02  0.96028631630E+02  0.91554125563E+02 0.  0.
         11    1    3    3    0    0  0.10446475473E+02 -0.12668376727E+01 -0.40813614600E+02  0.42148367281E+02  0.51100000000E-03 0.  1.
         22    1    1    0    0    0 -0.26912885124E+02 -0.29333640259E+01 -0.10316597066E+02  0.28971368370E+02  0.00000000000E+00 0. -1.
</event>
<event>
 5    1  0.1691145E-003  0.9118800E+02  0.7818608E-02  0.1130116E+00
         25   -1    0    0    0    0  0.00000000000E+00  0.00000000000E+00  0.99999998245E-14  0.12500000000E+03  0.12500000000E+03 0.  0.
        -11    1    3    3    0    0  0.24542659491E+02  0.18010067911E+02 -0.22910442711E+02  0.38099777775E+02  0.51100000000E-03 0.  1.
         23    2    1    0    0    0  0.86080165898E+01 -0.26528094470E+02  0.96076825525E+01  0.95501774462E+02  0.90831952614E+02 0.  0.
         11    1    3    3    0    0 -0.15934642901E+02 -0.44538162382E+02  0.32518125264E+02  0.57401996687E+02  0.51100000000E-03 0. -1.
         22    1    1    0    0    0 -0.86080165898E+01  0.26528094470E+02 -0.96076825525E+01  0.29498225538E+02  0.00000000000E+00 0. -1.
</event>
<event>
 5    1  0.1691145E-003  0.9118800E+02  0.7818608E-02  0.1130116E+00
         25   -1    0    0    0    0  0.00000000000E+00  0.00000000000E+00  0.99999998245E-14  0.12500000000E+03  0.12500000000E+03 0.  0.
        -11    1    3    3    0    0  0.20889352699E+02 -0.30435450827E+00 -0.55242124100E+02  0.59060561826E+02  0.51100000000E-03 0. -1.
         23    2    1    0    0    0  0.18480059538E+02 -0.13279534669E+02 -0.33254285308E+02  0.84704762900E+02  0.74506313324E+02 0.  0.
         11    1    3    3    0    0 -0.24092931615E+01 -0.12975180161E+02  0.21987838792E+02  0.25644201074E+02  0.51100000000E-03 0.  1.
         22    1    1    0    0    0 -0.18480059538E+02  0.13279534669E+02  0.33254285308E+02  0.40295237100E+02  0.00000000000E+00 0. -1.
</event>
<event>
 5    1  0.1691145E-003  0.9118800E+02  0.7818608E-02  0.1130116E+00
         25   -1    0    0    0    0  0.00000000000E+00  0.00000000000E+00  0.99999998245E-14  0.12500000000E+03  0.12500000000E+03 0.  0.
        -11    1    3    3    0    0 -0.33921957992E+02  0.48734089308E+02 -0.19422556836E+02  0.62473565682E+02  0.51100000000E-03 0.  1.
         23    2    1    0    0    0 -0.14714581447E+02  0.22902459065E+02 -0.97325295849E+01  0.96090422513E+02  0.91638450599E+02 0.  0.
         11    1    3    3    0    0  0.19207376546E+02 -0.25831630243E+02  0.96900272506E+01  0.33616856831E+02  0.51100000000E-03 0. -1.
         22    1    1    0    0    0  0.14714581447E+02 -0.22902459065E+02  0.97325295849E+01  0.28909577487E+02  0.00000000000E+00 0.  1.
</event>
<event>
 5    1  0.1691145E-003  0.9118800E+02  0.7818608E-02  0.1130116E+00
         25   -1    0    0    0    0  0.00000000000E+00  0.00000000000E+00  0.99999998245E-14  0.12500000000E+03  0.12500000000E+03 0.  0.
        -11    1    3    3    0    0 -0.30771944714E+02 -0.21515725579E+02 -0.25190027818E+02  0.45214782212E+02  0.51100000000E-03 0. -1.
         23    2    1    0    0    0  0.76380820457E+01 -0.30575267386E+02  0.24416872194E+01  0.93390680020E+02  0.87878723279E+02 0.  0.
         11    1    3    3    0    0  0.38410026760E+02 -0.90595418071E+01  0.27631715038E+02  0.48175897809E+02  0.51100000000E-03 0.  1.
         22    1    1    0    0    0 -0.76380820457E+01  0.30575267386E+02 -0.24416872194E+01  0.31609319980E+02  0.00000000000E+00 0. -1.
</event>
<event>
 5    1  0.1691145E-003  0.9118800E+02  0.7818608E-02  0.1130116E+00
         25   -1    0    0    0    0  0.00000000000E+00  0.00000000000E+00  0.99999998245E-14  0.12500000000E+03  0.12500000000E+03 0.  0.
        -11    1    3    3    0    0 -0.48583655906E+02 -0.50296359455E+01 -0.31110213268E+02  0.57909534869E+02  0.51100000000E-03 0.  1.
         23    2    1    0    0    0 -0.12763872808E+02  0.77280672598E+00 -0.27864964245E+02  0.94341071257E+02  0.89220332965E+02 0.  0.
         11    1    3    3    0    0  0.35819783098E+02  0.58024426715E+01  0.32452490235E+01  0.36431536388E+02  0.51100000000E-03 0. -1.
         22    1    1    0    0    0  0.12763872808E+02 -0.77280672598E+00  0.27864964245E+02  0.30658928743E+02  0.00000000000E+00 0.  1.
</event>
<event>
 5    1  0.1691145E-003  0.9118800E+02  0.7818608E-02  0.1130116E+00
         25   -1    0    0    0    0  0.00000000000E+00  0.00000000000E+00  0.99999998245E-14  0.12500000000E+03  0.12500000000E+03 0.  0.
        -11    1    3    3    0    0 -0.36656241133E+01  0.94260990058E+01 -0.35713223343E+02  0.37117683985E+02  0.51100000000E-03 0. -1.
         23    2    1    0    0    0  0.19211126040E+02 -0.24179396657E+02  0.38917352309E+01  0.93873545182E+02  0.88562894575E+02 0.  0.
         11    1    3    3    0    0  0.22876750153E+02 -0.33605495663E+02  0.39604958574E+02  0.56755861197E+02  0.51100000000E-03 0.  1.
         22    1    1    0    0    0 -0.19211126040E+02  0.24179396657E+02 -0.38917352309E+01  0.31126454818E+02  0.00000000000E+00 0.  1.
</event>
<event>
 5    1  0.1691145E-003  0.9118800E+02  0.7818608E-02  0.1130116E+00
         25   -1    0    0    0    0  0.00000000000E+00  0.00000000000E+00  0.99999998245E-14  0.12500000000E+03  0.12500000000E+03 0.  0.
        -11    1    3    3    0    0  0.57496405495E+02 -0.21289031013E+02 -0.25943887864E+01  0.61366035718E+02  0.51100000000E-03 0.  1.
         23    2    1    0    0    0  0.24042060282E+02 -0.14544714401E+02 -0.76795471129E+01  0.95870207288E+02  0.91337570703E+02 0.  0.
         11    1    3    3    0    0 -0.33454345213E+02  0.67443166122E+01 -0.50851583265E+01  0.34504171569E+02  0.51100000000E-03 0. -1.
         22    1    1    0    0    0 -0.24042060282E+02  0.14544714401E+02  0.76795471129E+01  0.29129792712E+02  0.00000000000E+00 0.  1.
</event>
<event>
 5    1  0.1691145E-003  0.9118800E+02  0.7818608E-02  0.1130116E+00
         25   -1    0    0    0    0  0.00000000000E+00  0.00000000000E+00  0.99999998245E-14  0.12500000000E+03  0.12500000000E+03 0.  0.
        -11    1    3    3    0    0 -0.11431642351E+02 -0.56677742988E+02 -0.16761105497E+02  0.60199532015E+02  0.51100000000E-03 0. -1.
         23    2    1    0    0    0  0.28961703070E+01 -0.37064735811E+02 -0.40816248728E+01  0.87598902359E+02  0.79213165507E+02 0.  0.
         11    1    3    3    0    0  0.14327812658E+02  0.19613007177E+02  0.12679480624E+02  0.27399370344E+02  0.51100000000E-03 0.  1.
         22    1    1    0    0    0 -0.28961703070E+01  0.37064735811E+02  0.40816248728E+01  0.37401097641E+02  0.00000000000E+00 0. -1.
</event>
<event>
 5    1  0.1691145E-003  0.9118800E+02  0.7818608E-02  0.1130116E+00
         25   -1    0    0    0    0  0.00000000000E+00  0.00000000000E+00  0.99999998245E-14  0.12500000000E+03  0.12500000000E+03 0.  0.
        -11    1    3    3    0    0  0.37698244419E+01 -0.46269028461E+02 -0.21407391105E+02  0.51120553257E+02  0.51100000000E-03 0.  1.
         23    2    1    0    0    0  0.26602756171E+02 -0.12257542883E+02 -0.48251695304E+01  0.95314376301E+02  0.90573694168E+02 0.  0.
         11    1    3    3    0    0  0.22832931729E+02  0.34011485579E+02  0.16582221575E+02  0.44193823044E+02  0.51100000000E-03 0. -1.
         22    1    1    0    0    0 -0.26602756171E+02  0.12257542883E+02  0.48251695304E+01  0.29685623699E+02  0.00000000000E+00 0. -1.
</event>
<event>
 5    1  0.1691145E-003  0.9118800E+02  0.7818608E-02  0.1130116E+00
         25   -1    0    0    0    0  0.00000000000E+00  0.00000000000E+00  0.99999998245E-14  0.12500000000E+03  0.12500000000E+03 0.  0.
        -11    1    3    3    0    0 -0.15608468887E+02 -0.48257293398E+01 -0.31136840334E+02  0.35162690326E+02  0.51100000000E-03 0. -1.
         23    2    1    0    0    0 -0.15376805661E+02  0.50075373307E+01  0.26675279418E+02  0.93805575587E+02  0.88466908484E+02 0.  0.
         11    1    3    3    0    0  0.23166322673E+00  0.98332666705E+01  0.57812119752E+02  0.58642885261E+02  0.51100000000E-03 0.  1.
         22    1    1    0    0    0  0.15376805661E+02 -0.50075373307E+01 -0.26675279418E+02  0.31194424413E+02  0.00000000000E+00 0.  1.
</event>
<event>
 5    1  0.1691145E-003  0.9118800E+02  0.7818608E-02  0.1130116E+00
         25   -1    0    0    0    0  0.00000000000E+00  0.00000000000E+00  0.99999998245E-14  0.12500000000E+03  0.12500000000E+03 0.  0.
        -11    1    3    3    0    0  0.37916149375E+02  0.22612521276E+02  0.20833775998E+02  0.48816049866E+02  0.51100000000E-03 0.  1.
         23    2    1    0    0    0  0.10129543705E+02 -0.15659421697E+02  0.22041846246E+02  0.96126688284E+02  0.91687905805E+02 0.  0.
         11    1    3    3    0    0 -0.27786605670E+02 -0.38271942973E+02  0.12080702478E+01  0.47310638418E+02  0.51100000000E-03 0. -1.
         22    1    1    0    0    0 -0.10129543705E+02  0.15659421697E+02 -0.22041846246E+02  0.28873311716E+02  0.00000000000E+00 0. -1.
</event>
<event>
 5    1  0.1691145E-003  0.9118800E+02  0.7818608E-02  0.1130116E+00
         25   -1    0    0    0    0  0.00000000000E+00  0.00000000000E+00  0.99999998245E-14  0.12500000000E+03  0.12500000000E+03 0.  0.
        -11    1    3    3    0    0  0.46084272850E+02  0.25113503379E+02 -0.23161044654E+02  0.57366211709E+02  0.51100000000E-03 0. -1.
         23    2    1    0    0    0  0.11555328654E+02  0.12591870677E+02 -0.25647953921E+02  0.94179578721E+02  0.88993790122E+02 0.  0.
         11    1    3    3    0    0 -0.34528944197E+02 -0.12521632701E+02 -0.24869092675E+01  0.36813367013E+02  0.51100000000E-03 0.  1.
         22    1    1    0    0    0 -0.11555328654E+02 -0.12591870677E+02  0.25647953921E+02  0.30820421279E+02  0.00000000000E+00 0. -1.
</event>
<event>
 5    1  0.1691145E-003  0.9118800E+02  0.7818608E-02  0.1130116E+00
         25   -1    0    0    0    0  0.00000000000E+00  0.00000000000E+00  0.99999998245E-14  0.12500000000E+03  0.12500000000E+03 0.  0.
        -11    1    3    3    0    0 -0.31451553856E+02  0.19209958039E+02 -0.33950341108E+01  0.37010120031E+02  0.51100000000E-03 0. -1.
         23    2    1    0    0    0  0.70690716565E+01 -0.15807528870E+02  0.23661015430E+02  0.95679471453E+02  0.91076165177E+02 0.  0.
         11    1    3    3    0    0  0.38520625513E+02 -0.35017486909E+02  0.27056049541E+02  0.58669351422E+02  0.51100000000E-03 0.  1.
         22    1    1    0    0    0 -0.70690716565E+01  0.15807528870E+02 -0.23661015430E+02  0.29320528547E+02  0.00000000000E+00 0.  1.
</event>
<event>
 5    1  0.1691145E-003  0.9118800E+02  0.7818608E-02  0.1130116E+00
         25   -1    0    0    0    0  0.00000000000E+00  0.00000000000E+00  0.99999998245E-14  0.12500000000E+03  0.12500000000E+03 0.  0.
        -11    1    3    3    0    0  0.15423274573E+02 -0.34684658145E+02 -0.22666014641E+02  0.44211436633E+02  0.51100000000E-03 0. -1.
         23    2    1    0    0    0  0.79284912253E+00  0.14659675846E+02 -0.25302789446E+02  0.95746523977E+02  0.91168146819E+02 0.  0.
         11    1    3    3    0    0 -0.14630425451E+02  0.49344333992E+02 -0.26367748056E+01  0.51535087344E+02  0.51100000000E-03 0.  1.
         22    1    1    0    0    0 -0.79284912253E+00 -0.14659675846E+02  0.25302789446E+02  0.29253476023E+02  0.00000000000E+00 0.  1.
</event>
<event>
 5    1  0.1691145E-003  0.9118800E+02  0.7818608E-02  0.1130116E+00
         25   -1    0    0    0    0  0.00000000000E+00  0.00000000000E+00  0.99999998245E-14  0.12500000000E+03  0.12500000000E+03 0.  0.
        -11    1    3    3    0    0  0.64611061392E+01  0.73712840297E+01 -0.28071812835E+02  0.29733960330E+02  0.51100000000E-03 0. -1.
         23    2    1    0    0    0 -0.15818212256E+02  0.11825637216E+02  0.28287219236E+02  0.90500314398E+02  0.83666472374E+02 0.  0.
         11    1    3    3    0    0 -0.22279318395E+02  0.44543531865E+01  0.56359032071E+02  0.60766354068E+02  0.51100000000E-03 0.  1.
         22    1    1    0    0    0  0.15818212256E+02 -0.11825637216E+02 -0.28287219236E+02  0.34499685602E+02  0.00000000000E+00 0.  1.
</event>
<event>
 5    1  0.1691145E-003  0.9118800E+02  0.7818608E-02  0.1130116E+00
         25   -1    0    0    0    0  0.00000000000E+00  0.00000000000E+00  0.99999998245E-14  0.12500000000E+03  0.12500000000E+03 0.  0.
        -11    1    3    3    0    0 -0.20604602375E+02 -0.41565169506E+02 -0.10128580302E+02  0.47484745912E+02  0.51100000000E-03 0.  1.
         23    2    1    0    0    0  0.56532525817E+01 -0.56870780821E+01 -0.28352776471E+02  0.95535070754E+02  0.90877762343E+02 0.  0.
         11    1    3    3    0    0  0.26257854957E+02  0.35878091424E+02 -0.18224196169E+02  0.48050324842E+02  0.51100000000E-03 0. -1.
         22    1    1    0    0    0 -0.56532525817E+01  0.56870780821E+01  0.28352776471E+02  0.29464929246E+02  0.00000000000E+00 0.  1.
</event>
<event>
 5    1  0.1691145E-003  0.9118800E+02  0.7818608E-02  0.1130116E+00
         25   -1    0    0    0    0  0.00000000000E+00  0.00000000000E+00  0.99999998245E-14  0.12500000000E+03  0.12500000000E+03 0.  0.
        -11    1    3    3    0    0 -0.15033607578E+01 -0.43172701249E+02  0.14335949200E+01  0.43222649402E+02  0.51100000000E-03 0. -1.
         23    2    1    0    0    0 -0.22017352602E+02  0.14074289198E+01 -0.18517214842E+02  0.96196668295E+02  0.91783261403E+02 0.  0.
         11    1    3    3    0    0 -0.20513991845E+02  0.44580130169E+02 -0.19950809762E+02  0.52974018893E+02  0.51100000000E-03 0.  1.
         22    1    1    0    0    0  0.22017352602E+02 -0.14074289198E+01  0.18517214842E+02  0.28803331705E+02  0.00000000000E+00 0.  1.
</event>
<event>
 5    1  0.1691145E-003  0.9118800E+02  0.7818608E-02  0.1130116E+00
         25   -1    0    0    0    0  0.00000000000E+00  0.00000000000E+00  0.99999998245E-14  0.12500000000E+03  0.12500000000E+03 0.  0.
        -11    1    3    3    0    0  0.41270619949E+02  0.28793249813E+02 -0.36942984947E+02  0.62426752622E+02  0.51100000000E-03 0.  1.
         23    2    1    0    0    0  0.20295917837E+02  0.14818588916E+02 -0.15879547968E+02  0.95273330123E+02  0.90517028954E+02 0.  0.
         11    1    3    3    0    0 -0.20974702112E+02 -0.13974660898E+02  0.21063436979E+02  0.32846577501E+02  0.51100000000E-03 0. -1.
         22    1    1    0    0    0 -0.20295917837E+02 -0.14818588916E+02  0.15879547968E+02  0.29726669877E+02  0.00000000000E+00 0.  1.
</event>
<event>
 5    1  0.1691145E-003  0.9118800E+02  0.7818608E-02  0.1130116E+00
         25   -1    0    0    0    0  0.00000000000E+00  0.00000000000E+00  0.99999998245E-14  0.12500000000E+03  0.12500000000E+03 0.  0.
        -11    1    3    3    0    0  0.22959230869E+02  0.29483480312E+02  0.38398575657E+02  0.53580336936E+02  0.51100000000E-03 0. -1.
         23    2    1    0    0    0 -0.55140890989E+01  0.28001607357E+02  0.77782774467E+01  0.95419655289E+02  0.90718872470E+02 0.  0.
         11    1    3    3    0    0 -0.28473319968E+02 -0.14818729543E+01 -0.30620298211E+02  0.41839318353E+02  0.51100000000E-03 0.  1.
         22    1    1    0    0    0  0.55140890989E+01 -0.28001607357E+02 -0.77782774467E+01  0.29580344711E+02  0.00000000000E+00 0. -1.
</event>
<event>
 5    1  0.1691145E-003  0.9118800E+02  0.7818608E-02  0.1130116E+00
         25   -1    0    0    0    0  0.00000000000E+00  0.00000000000E+00  0.99999998245E-14  0.12500000000E+03  0.12500000000E+03 0.  0.
        -11    1    3    3    0    0 -0.12032179486E+02 -0.19709940066E+02 -0.36224370457E+02  0.42958818604E+02  0.51100000000E-03 0. -1.
         23    2    1    0    0    0  0.96475496452E+01 -0.23875928544E+02  0.12443517271E+02  0.96399715035E+02  0.92059376267E+02 0.  0.
         11    1    3    3    0    0  0.21679729131E+02 -0.41659884781E+01  0.48667887728E+02  0.53440896431E+02  0.51100000000E-03 0.  1.
         22    1    1    0    0    0 -0.96475496452E+01  0.23875928544E+02 -0.12443517271E+02  0.28600284965E+02  0.00000000000E+00 0.  1.
</event>
<event>
 5    1  0.1691145E-003  0.9118800E+02  0.7818608E-02  0.1130116E+00
         25   -1    0    0    0    0  0.00000000000E+00  0.00000000000E+00  0.99999998245E-14  0.12500000000E+03  0.12500000000E+03 0.  0.
        -11    1    3    3    0    0 -0.24007675999E+02 -0.14086625071E+02  0.39993064267E+02  0.48726242442E+02  0.51100000000E-03 0.  1.
         23    2    1    0    0    0 -0.29533547789E+02 -0.40653005930E+01 -0.46631439991E+01  0.94825473892E+02  0.89896431925E+02 0.  0.
         11    1    3    3    0    0 -0.55258717893E+01  0.10021324478E+02 -0.44656208266E+02  0.46099231450E+02  0.51100000000E-03 0. -1.
         22    1    1    0    0    0  0.29533547789E+02  0.40653005930E+01  0.46631439991E+01  0.30174526108E+02  0.00000000000E+00 0. -1.
</event>
<event>
 5    1  0.1691145E-003  0.9118800E+02  0.7818608E-02  0.1130116E+00
         25   -1    0    0    0    0  0.00000000000E+00  0.00000000000E+00  0.99999998245E-14  0.12500000000E+03  0.12500000000E+03 0.  0.
        -11    1    3    3    0    0 -0.44083633853E+01 -0.57448950490E+02  0.86796863665E+01  0.58267937460E+02  0.51100000000E-03 0.  1.
         23    2    1    0    0    0  0.11677986641E+02 -0.22588274431E+02  0.12150569902E+02  0.96817703026E+02  0.92625189644E+02 0.  0.
         11    1    3    3    0    0  0.16086350027E+02  0.34860676059E+02  0.34708835358E+01  0.38549765567E+02  0.51100000000E-03 0. -1.
         22    1    1    0    0    0 -0.11677986641E+02  0.22588274431E+02 -0.12150569902E+02  0.28182296974E+02  0.00000000000E+00 0.  1.
</event>
<event>
 5    1  0.1691145E-003  0.9118800E+02  0.7818608E-02  0.1130116E+00
         25   -1    0    0    0    0  0.00000000000E+00  0.00000000000E+00  0.99999998245E-14  0.12500000000E+03  0.12500000000E+03 0.  0.
        -11    1    3    3    0    0  0.32463383220E+02  0.69571447825E+01 -0.14471680895E+02  0.36217435881E+02  0.51100000000E-03 0. -1.
         23    2    1    0    0    0 -0.18205846504E+02  0.24648696540E+02  0.62105997113E+01  0.93733682071E+02  0.88365267598E+02 0.  0.
         11    1    3    3    0    0 -0.50669229724E+02  0.17691551758E+02  0.20682280606E+02  0.57516246190E+02  0.51100000000E-03 0.  1.
         22    1    1    0    0    0  0.18205846504E+02 -0.24648696540E+02 -0.62105997113E+01  0.31266317929E+02  0.00000000000E+00 0.  1.
</event>
<event>
 5    1  0.1691145E-003  0.9118800E+02  0.7818608E-02  0.1130116E+00
         25   -1    0    0    0    0  0.00000000000E+00  0.00000000000E+00  0.99999998245E-14  0.12500000000E+03  0.12500000000E+03 0.  0.
        -11    1    3    3    0    0  0.48153204708E+02 -0.12013539905E+02  0.34697320908E+02  0.60555431987E+02  0.51100000000E-03 0.  1.
         23    2    1    0    0    0  0.22145052038E+02 -0.15472439580E+02  0.11273689494E+02  0.95727217571E+02  0.91141672098E+02 0.  0.
         11    1    3    3    0    0 -0.26008152671E+02 -0.34588996745E+01 -0.23423631414E+02  0.35171785584E+02  0.51100000000E-03 0. -1.
         22    1    1    0    0    0 -0.22145052038E+02  0.15472439580E+02 -0.11273689494E+02  0.29272782429E+02  0.00000000000E+00 0.  1.
</event>
<event>
 5    1  0.1691145E-003  0.9118800E+02  0.7818608E-02  0.1130116E+00
         25   -1    0    0    0    0  0.00000000000E+00  0.00000000000E+00  0.99999998245E-14  0.12500000000E+03  0.12500000000E+03 0.  0.
        -11    1    3    3    0    0 -0.11725589059E+02  0.33120171107E+02 -0.15600422432E+02  0.38442272998E+02  0.51100000000E-03 0.  1.
         23    2    1    0    0    0 -0.98773809598E+01 -0.25048601717E+02 -0.57261870105E+01  0.97472117403E+02  0.93504167558E+02 0.  0.
         11    1    3    3    0    0  0.18482080991E+01 -0.58168772824E+02  0.98742354218E+01  0.59029844405E+02  0.51100000000E-03 0. -1.
         22    1    1    0    0    0  0.98773809598E+01  0.25048601717E+02  0.57261870105E+01  0.27527882597E+02  0.00000000000E+00 0. -1.
</event>
<event>
 5    1  0.1691145E-003  0.9118800E+02  0.7818608E-02  0.1130116E+00
         25   -1    0    0    0    0  0.00000000000E+00  0.00000000000E+00  0.99999998245E-14  0.12500000000E+03  0.12500000000E+03 0.  0.
        -11    1    3    3    0    0 -0.39661002251E+02  0.40370201746E+01  0.16463424414E+02  0.43131623841E+02  0.51100000000E-03 0. -1.
         23    2    1    0    0    0 -0.10680479781E+02 -0.18385523569E+02 -0.20702816978E+02  0.95323296071E+02  0.90586003431E+02 0.  0.
         11    1    3    3    0    0  0.28980522471E+02 -0.22422543744E+02 -0.37166241392E+02  0.52191672230E+02  0.51100000000E-03 0.  1.
         22    1    1    0    0    0  0.10680479781E+02  0.18385523569E+02  0.20702816978E+02  0.29676703929E+02  0.00000000000E+00 0.  1.
</event>
<event>
 5    1  0.1691145E-003  0.9118800E+02  0.7818608E-02  0.1130116E+00
         25   -1    0    0    0    0  0.00000000000E+00  0.00000000000E+00  0.99999998245E-14  0.12500000000E+03  0.12500000000E+03 0.  0.
        -11    1    3    3    0    0  0.34450319512E+02  0.29694214408E+02  0.13636021936E+02  0.47481701510E+02  0.51100000000E-03 0.  1.
         23    2    1    0    0    0 -0.45484829285E+01  0.14367843965E+02  0.29166905433E+02  0.92169648042E+02  0.86124398462E+02 0.  0.
         11    1    3    3    0    0 -0.38998802441E+02 -0.15326370443E+02  0.15530883497E+02  0.44687946532E+02  0.51100000000E-03 0. -1.
         22    1    1    0    0    0  0.45484829285E+01 -0.14367843965E+02 -0.29166905433E+02  0.32830351958E+02  0.00000000000E+00 0. -1.
</event>
<event>
 5    1  0.1691145E-003  0.9118800E+02  0.7818608E-02  0.1130116E+00
         25   -1    0    0    0    0  0.00000000000E+00  0.00000000000E+00  0.99999998245E-14  0.12500000000E+03  0.12500000000E+03 0.  0.
        -11    1    3    3    0    0  0.12963482298E+02  0.54103391310E+01  0.37198798352E+02  0.39762724277E+02  0.51100000000E-03 0.  1.
         23    2    1    0    0    0 -0.11538759767E+02  0.23535014461E+02 -0.10825101351E+02  0.96641179469E+02  0.92386659574E+02 0.  0.
         11    1    3    3    0    0 -0.24502242065E+02  0.18124675330E+02 -0.48023899703E+02  0.56878455192E+02  0.51100000000E-03 0. -1.
         22    1    1    0    0    0  0.11538759767E+02 -0.23535014461E+02  0.10825101351E+02  0.28358820531E+02  0.00000000000E+00 0. -1.
</event>
<event>
 5    1  0.1691145E-003  0.9118800E+02  0.7818608E-02  0.1130116E+00
         25   -1    0    0    0    0  0.00000000000E+00  0.00000000000E+00  0.99999998245E-14  0.12500000000E+03  0.12500000000E+03 0.  0.
        -11    1    3    3    0    0  0.55090485949E+02  0.14817575442E+02  0.14721757724E+01  0.57067411767E+02  0.51100000000E-03 0. -1.
         23    2    1    0    0    0  0.20878918313E+02  0.50589038908E+01 -0.17413739903E+02  0.97345704205E+02  0.93335020498E+02 0.  0.
         11    1    3    3    0    0 -0.34211567636E+02 -0.97586715509E+01 -0.18885915675E+02  0.40278292438E+02  0.51100000000E-03 0.  1.
         22    1    1    0    0    0 -0.20878918313E+02 -0.50589038908E+01  0.17413739903E+02  0.27654295795E+02  0.00000000000E+00 0. -1.
</event>
<event>
 5    1  0.1691145E-003  0.9118800E+02  0.7818608E-02  0.1130116E+00
         25   -1    0    0    0    0  0.00000000000E+00  0.00000000000E+00  0.99999998245E-14  0.12500000000E+03  0.12500000000E+03 0.  0.
        -11    1    3    3    0    0 -0.76402662119E+01  0.43421275229E+02 -0.29024092178E+02  0.52784266001E+02  0.51100000000E-03 0. -1.
         23    2    1    0    0    0 -0.16210406631E+02  0.21494451411E+02  0.82253467262E+01  0.96849599411E+02  0.92668224611E+02 0.  0.
         11    1    3    3    0    0 -0.85701404187E+01 -0.21926823818E+02  0.37249438904E+02  0.44065333409E+02  0.51100000000E-03 0.  1.
         22    1    1    0    0    0  0.16210406631E+02 -0.21494451411E+02 -0.82253467262E+01  0.28150400589E+02  0.00000000000E+00 0. -1.
</event>
<event>
 5    1  0.1691145E-003  0.9118800E+02  0.7818608E-02  0.1130116E+00
         25   -1    0    0    0    0  0.00000000000E+00  0.00000000000E+00  0.99999998245E-14  0.12500000000E+03  0.12500000000E+03 0.  0.
        -11    1    3    3    0    0  0.52829986490E+01  0.24079156817E+02  0.29639509712E+02  0.38551477325E+02  0.51100000000E-03 0.  1.
         23    2    1    0    0    0  0.21639010561E+02 -0.18868281105E+02 -0.46834638521E+01  0.95910592244E+02  0.91392822809E+02 0.  0.
         11    1    3    3    0    0  0.16356011912E+02 -0.42947437922E+02 -0.34322973564E+02  0.57359114919E+02  0.51100000000E-03 0. -1.
         22    1    1    0    0    0 -0.21639010561E+02  0.18868281105E+02  0.46834638521E+01  0.29089407756E+02  0.00000000000E+00 0. -1.
</event>
<event>
 5    1  0.1691145E-003  0.9118800E+02  0.7818608E-02  0.1130116E+00
         25   -1    0    0    0    0  0.00000000000E+00  0.00000000000E+00  0.99999998245E-14  0.12500000000E+03  0.12500000000E+03 0.  0.
        -11    1    3    3    0    0  0.38229583900E+02  0.16587516085E+02 -0.74273999905E+01  0.42329812732E+02  0.51100000000E-03 0.  1.
         23    2    1    0    0    0 -0.15061437413E+02  0.23796002996E+02 -0.64196554293E+01  0.96115598823E+02  0.91672786069E+02 0.  0.
         11    1    3    3    0    0 -0.53291021312E+02  0.72084869112E+01  0.10077445613E+01  0.53785786091E+02  0.51100000000E-03 0. -1.
         22    1    1    0    0    0  0.15061437413E+02 -0.23796002996E+02  0.64196554293E+01  0.28884401177E+02  0.00000000000E+00 0. -1.
</event>
<event>
 5    1  0.1691145E-003  0.9118800E+02  0.7818608E-02  0.1130116E+00
         25   -1    0    0    0    0  0.00000000000E+00  0.00000000000E+00  0.99999998245E-14  0.12500000000E+03  0.12500000000E+03 0.  0.
        -11    1    3    3    0    0  0.18733245872E+02  0.17681473678E+02  0.46585802980E+02  0.53233504974E+02  0.51100000000E-03 0. -1.
         23    2    1    0    0    0  0.16891527244E+02  0.22682811312E+02  0.36670399161E+01  0.96481921463E+02  0.92170930156E+02 0.  0.
         11    1    3    3    0    0 -0.18417186273E+01  0.50013376344E+01 -0.42918763064E+02  0.43248416489E+02  0.51100000000E-03 0.  1.
         22    1    1    0    0    0 -0.16891527244E+02 -0.22682811312E+02 -0.36670399161E+01  0.28518078537E+02  0.00000000000E+00 0. -1.
</event>
<event>
 5    1  0.1691145E-003  0.9118800E+02  0.7818608E-02  0.1130116E+00
         25   -1    0    0    0    0  0.00000000000E+00  0.00000000000E+00  0.99999998245E-14  0.12500000000E+03  0.12500000000E+03 0.  0.
        -11    1    3    3    0    0 -0.12781713537E+02  0.28806190444E+02  0.38927545222E+02  0.50085153350E+02  0.51100000000E-03 0. -1.
         23    2    1    0    0    0  0.17844783971E+02 -0.14148817567E+01  0.22748000445E+02  0.96053329559E+02  0.91587839749E+02 0.  0.
         11    1    3    3    0    0  0.30626497508E+02 -0.30221072200E+02 -0.16179544777E+02  0.45968176209E+02  0.51100000000E-03 0.  1.
         22    1    1    0    0    0 -0.17844783971E+02  0.14148817567E+01 -0.22748000445E+02  0.28946670441E+02  0.00000000000E+00 0. -1.
</event>
<event>
 5    1  0.1691145E-003  0.9118800E+02  0.7818608E-02  0.1130116E+00
         25   -1    0    0    0    0  0.00000000000E+00  0.00000000000E+00  0.99999998245E-14  0.12500000000E+03  0.12500000000E+03 0.  0.
        -11    1    3    3    0    0  0.48603747008E+02  0.61446211176E+01  0.44232556207E+01  0.49189895126E+02  0.51100000000E-03 0.  1.
         23    2    1    0    0    0  0.11922813856E+02  0.23251329041E+02 -0.15830655740E+02  0.94448609629E+02  0.89370870016E+02 0.  0.
         11    1    3    3    0    0 -0.36680933152E+02  0.17106707923E+02 -0.20253911361E+02  0.45258714504E+02  0.51100000000E-03 0. -1.
         22    1    1    0    0    0 -0.11922813856E+02 -0.23251329041E+02  0.15830655740E+02  0.30551390371E+02  0.00000000000E+00 0.  1.
</event>
<event>
 5    1  0.1691145E-003  0.9118800E+02  0.7818608E-02  0.1130116E+00
         25   -1    0    0    0    0  0.00000000000E+00  0.00000000000E+00  0.99999998245E-14  0.12500000000E+03  0.12500000000E+03 0.  0.
        -11    1    3    3    0    0 -0.27478614365E+01  0.37436162275E+02 -0.34353280608E+01  0.37693745734E+02  0.51100000000E-03 0. -1.
         23    2    1    0    0    0  0.18823086358E+02 -0.18601964627E+02  0.41328299010E+01  0.98215266456E+02  0.94492415643E+02 0.  0.
         11    1    3    3    0    0  0.21570947794E+02 -0.56038126901E+02  0.75681579618E+01  0.60521520722E+02  0.51100000000E-03 0.  1.
         22    1    1    0    0    0 -0.18823086358E+02  0.18601964627E+02 -0.41328299010E+01  0.26784733544E+02  0.00000000000E+00 0.  1.
</event>
<event>
 5    1  0.1691145E-003  0.9118800E+02  0.7818608E-02  0.1130116E+00
         25   -1    0    0    0    0  0.00000000000E+00  0.00000000000E+00  0.99999998245E-14  0.12500000000E+03  0.12500000000E+03 0.  0.
        -11    1    3    3    0    0  0.11834022544E+02 -0.36803991670E+02 -0.24846210376E+01  0.38739530642E+02  0.51100000000E-03 0. -1.
         23    2    1    0    0    0 -0.79951553647E+01  0.11351540438E+02 -0.25724252448E+02  0.95767874801E+02  0.91197416083E+02 0.  0.
         11    1    3    3    0    0 -0.19829177909E+02  0.48155532108E+02 -0.23239631410E+02  0.57028344159E+02  0.51100000000E-03 0.  1.
         22    1    1    0    0    0  0.79951553647E+01 -0.11351540438E+02  0.25724252448E+02  0.29232125199E+02  0.00000000000E+00 0.  1.
</event>
<event>
 5    1  0.1691145E-003  0.9118800E+02  0.7818608E-02  0.1130116E+00
         25   -1    0    0    0    0  0.00000000000E+00  0.00000000000E+00  0.99999998245E-14  0.12500000000E+03  0.12500000000E+03 0.  0.
        -11    1    3    3    0    0  0.44086910246E+02  0.64219646920E+01 -0.43792115915E+02  0.62471166967E+02  0.51100000000E-03 0.  1.
         23    2    1    0    0    0  0.20907830438E+02  0.33425847025E+01 -0.18981380493E+02  0.96564053532E+02  0.92282248471E+02 0.  0.
         11    1    3    3    0    0 -0.23179079808E+02 -0.30793799895E+01  0.24810735422E+02  0.34092886565E+02  0.51100000000E-03 0. -1.
         22    1    1    0    0    0 -0.20907830438E+02 -0.33425847025E+01  0.18981380493E+02  0.28435946468E+02  0.00000000000E+00 0.  1.
</event>
<event>
 5    1  0.1691145E-003  0.9118800E+02  0.7818608E-02  0.1130116E+00
         25   -1    0    0    0    0  0.00000000000E+00  0.00000000000E+00  0.99999998245E-14  0.12500000000E+03  0.12500000000E+03 0.  0.
        -11    1    3    3    0    0  0.24880844334E+02  0.48205069887E+02 -0.14308862108E+02  0.56102840504E+02  0.51100000000E-03 0. -1.
         23    2    1    0    0    0  0.23663067894E+02  0.95947182237E+01 -0.16168562967E+02  0.94777130705E+02  0.89829186105E+02 0.  0.
         11    1    3    3    0    0 -0.12177764395E+01 -0.38610351663E+02 -0.18597008598E+01  0.38674290201E+02  0.51100000000E-03 0.  1.
         22    1    1    0    0    0 -0.23663067894E+02 -0.95947182237E+01  0.16168562967E+02  0.30222869295E+02  0.00000000000E+00 0. -1.
</event>
<event>
 5    1  0.1691145E-003  0.9118800E+02  0.7818608E-02  0.1130116E+00
         25   -1    0    0    0    0  0.00000000000E+00  0.00000000000E+00  0.99999998245E-14  0.12500000000E+03  0.12500000000E+03 0.  0.
        -11    1    3    3    0    0 -0.17363923665E+02  0.51438447651E+02 -0.72027206719E+01  0.54765855486E+02  0.51100000000E-03 0.  1.
         23    2    1    0    0    0 -0.26912098620E+02  0.12382579081E+02 -0.19792591959E+01  0.95309820078E+02  0.90567405945E+02 0.  0.
         11    1    3    3    0    0 -0.95481749556E+01 -0.39055868571E+02  0.52234614760E+01  0.40543964592E+02  0.51100000000E-03 0. -1.
         22    1    1    0    0    0  0.26912098620E+02 -0.12382579081E+02  0.19792591959E+01  0.29690179922E+02  0.00000000000E+00 0.  1.
</event>
<event>
 5    1  0.1691145E-003  0.9118800E+02  0.7818608E-02  0.1130116E+00
         25   -1    0    0    0    0  0.00000000000E+00  0.00000000000E+00  0.99999998245E-14  0.12500000000E+03  0.12500000000E+03 0.  0.
        -11    1    3    3    0    0 -0.22511939869E+02 -0.97723572008E+01 -0.25599459287E+02  0.35462920324E+02  0.51100000000E-03 0.  1.
         23    2    1    0    0    0  0.75725213827E+00 -0.58135321900E+01  0.29246190401E+02  0.95171988999E+02  0.90376973006E+02 0.  0.
         11    1    3    3    0    0  0.23269192007E+02  0.39588250108E+01  0.54845649687E+02  0.59709068675E+02  0.51100000000E-03 0. -1.
         22    1    1    0    0    0 -0.75725213827E+00  0.58135321900E+01 -0.29246190401E+02  0.29828011001E+02  0.00000000000E+00 0. -1.
</event>
<event>
 5    1  0.1691145E-003  0.9118800E+02  0.7818608E-02  0.1130116E+00
         25   -1    0    0    0    0  0.00000000000E+00  0.00000000000E+00  0.99999998245E-14  0.12500000000E+03  0.12500000000E+03 0.  0.
        -11    1    3    3    0    0 -0.18883264135E+02 -0.51243926654E+01 -0.38849243997E+02  0.43498285299E+02  0.51100000000E-03 0.  1.
         23    2    1    0    0    0 -0.20779216771E+02  0.22451573799E+02  0.36456165085E+01  0.94191891726E+02  0.89011083194E+02 0.  0.
         11    1    3    3    0    0 -0.18959526363E+01  0.27575966465E+02  0.42494860506E+02  0.50693606426E+02  0.51100000000E-03 0. -1.
         22    1    1    0    0    0  0.20779216771E+02 -0.22451573799E+02 -0.36456165085E+01  0.30808108274E+02  0.00000000000E+00 0. -1.
</event>
<event>
 5    1  0.1691145E-003  0.9118800E+02  0.7818608E-02  0.1130116E+00
         25   -1    0    0    0    0  0.00000000000E+00  0.00000000000E+00  0.99999998245E-14  0.12500000000E+03  0.12500000000E+03 0.  0.
        -11    1    3    3    0    0 -0.11930949194E+02  0.55140259813E+02 -0.69569546020E+01  0.56843601386E+02  0.51100000000E-03 0.  1.
         23    2    1    0    0    0 -0.91910097073E+01  0.19064448891E+02 -0.20557409859E+02  0.95495170377E+02  0.90822863830E+02 0.  0.
         11    1    3    3    0    0  0.27399394869E+01 -0.36075810922E+02 -0.13600455257E+02  0.38651568992E+02  0.51100000000E-03 0. -1.
         22    1    1    0    0    0  0.91910097073E+01 -0.19064448891E+02  0.20557409859E+02  0.29504829623E+02  0.00000000000E+00 0.  1.
</event>
<event>
 5    1  0.1691145E-003  0.9118800E+02  0.7818608E-02  0.1130116E+00
         25   -1    0    0    0    0  0.00000000000E+00  0.00000000000E+00  0.99999998245E-14  0.12500000000E+03  0.12500000000E+03 0.  0.
        -11    1    3    3    0    0  0.33318097433E+02 -0.31294975003E+02 -0.26238007517E+01  0.45785973918E+02  0.51100000000E-03 0. -1.
         23    2    1    0    0    0 -0.11844389198E+02 -0.11554881705E+02  0.19168942077E+02  0.99677022548E+02  0.96406719874E+02 0.  0.
         11    1    3    3    0    0 -0.45162486632E+02  0.19740093297E+02  0.21792742828E+02  0.53891048630E+02  0.51100000000E-03 0.  1.
         22    1    1    0    0    0  0.11844389198E+02  0.11554881705E+02 -0.19168942077E+02  0.25322977452E+02  0.00000000000E+00 0.  1.
</event>
<event>
 5    1  0.1691145E-003  0.9118800E+02  0.7818608E-02  0.1130116E+00
         25   -1    0    0    0    0  0.00000000000E+00  0.00000000000E+00  0.99999998245E-14  0.12500000000E+03  0.12500000000E+03 0.  0.
        -11    1    3    3    0    0 -0.50391628033E+01 -0.30589926149E+02 -0.17931749183E+02  0.35814583239E+02  0.51100000000E-03 0. -1.
         23    2    1    0    0    0  0.18984928255E+02  0.10339856541E+02  0.19210073705E+02  0.96079988488E+02  0.91624216897E+02 0.  0.
         11    1    3    3    0    0  0.24024091059E+02  0.40929782689E+02  0.37141822887E+02  0.60265405249E+02  0.51100000000E-03 0.  1.
         22    1    1    0    0    0 -0.18984928255E+02 -0.10339856541E+02 -0.19210073705E+02  0.28920011512E+02  0.00000000000E+00 0.  1.
</event>
<event>
 5    1  0.1691145E-003  0.9118800E+02  0.7818608E-02  0.1130116E+00
         25   -1    0    0    0    0  0.00000000000E+00  0.00000000000E+00  0.99999998245E-14  0.12500000000E+03  0.12500000000E+03 0.  0.
        -11    1    3    3    0    0  0.45585738003E+02  0.70632480416E+01  0.39685329581E+02  0.60851247862E+02  0.51100000000E-03 0. -1.
         23    2    1    0    0    0  0.15216387062E+02 -0.25082722104E+01  0.24310017884E+02  0.96210994560E+02  0.91802770328E+02 0.  0.
         11    1    3    3    0    0 -0.30369350940E+02 -0.95715202519E+01 -0.15375311697E+02  0.35359746698E+02  0.51100000000E-03 0.  1.
         22    1    1    0    0    0 -0.15216387062E+02  0.25082722104E+01 -0.24310017884E+02  0.28789005440E+02  0.00000000000E+00 0. -1.
</event>
<event>
 5    1  0.1691145E-003  0.9118800E+02  0.7818608E-02  0.1130116E+00
         25   -1    0    0    0    0  0.00000000000E+00  0.00000000000E+00  0.99999998245E-14  0.12500000000E+03  0.12500000000E+03 0.  0.
        -11    1    3    3    0    0  0.59928260725E+02 -0.81763533302E+01  0.36581672029E+01  0.60593987943E+02  0.51100000000E-03 0. -1.
         23    2    1    0    0    0  0.29127046730E+02  0.20865524807E+01 -0.73712635937E+01  0.94882329449E+02  0.89975454221E+02 0.  0.
         11    1    3    3    0    0 -0.30801213995E+02  0.10262905811E+02 -0.11029430797E+02  0.34288341506E+02  0.51100000000E-03 0.  1.
         22    1    1    0    0    0 -0.29127046730E+02 -0.20865524807E+01  0.73712635937E+01  0.30117670551E+02  0.00000000000E+00 0. -1.
</event>
<event>
 5    1  0.1691145E-003  0.9118800E+02  0.7818608E-02  0.1130116E+00
         25   -1    0    0    0    0  0.00000000000E+00  0.00000000000E+00  0.99999998245E-14  0.12500000000E+03  0.12500000000E+03 0.  0.
        -11    1    3    3    0    0 -0.14525251994E+01  0.19058959987E+02 -0.55415584003E+02  0.58619456974E+02  0.51100000000E-03 0.  1.
         23    2    1    0    0    0 -0.51287982801E+01 -0.60431011710E+01 -0.27678364751E+02  0.96209107016E+02  0.91800200185E+02 0.  0.
         11    1    3    3    0    0 -0.36762730807E+01 -0.25102061158E+02  0.27737219253E+02  0.37589650042E+02  0.51100000000E-03 0. -1.
         22    1    1    0    0    0  0.51287982801E+01  0.60431011710E+01  0.27678364751E+02  0.28790892984E+02  0.00000000000E+00 0.  1.
</event>
<event>
 5    1  0.1691145E-003  0.9118800E+02  0.7818608E-02  0.1130116E+00
         25   -1    0    0    0    0  0.00000000000E+00  0.00000000000E+00  0.99999998245E-14  0.12500000000E+03  0.12500000000E+03 0.  0.
        -11    1    3    3    0    0 -0.24518186766E+02 -0.44595103567E+01 -0.25857318437E+02  0.35911413672E+02  0.51100000000E-03 0.  1.
         23    2    1    0    0    0  0.17759006102E+02 -0.17404259661E+02  0.14872083414E+02  0.96026401377E+02  0.91551080519E+02 0.  0.
         11    1    3    3    0    0  0.42277192868E+02 -0.12944749305E+02  0.40729401851E+02  0.60114987705E+02  0.51100000000E-03 0. -1.
         22    1    1    0    0    0 -0.17759006102E+02  0.17404259661E+02 -0.14872083414E+02  0.28973598623E+02  0.00000000000E+00 0. -1.
</event>
<event>
 5    1  0.1691145E-003  0.9118800E+02  0.7818608E-02  0.1130116E+00
         25   -1    0    0    0    0  0.00000000000E+00  0.00000000000E+00  0.99999998245E-14  0.12500000000E+03  0.12500000000E+03 0.  0.
        -11    1    3    3    0    0 -0.59187152352E+02  0.94794182646E+01 -0.37316498114E+01  0.60057502318E+02  0.51100000000E-03 0. -1.
         23    2    1    0    0    0 -0.27895502931E+02  0.81570244115E+01 -0.13623115371E+02  0.92901940815E+02  0.87180761661E+02 0.  0.
         11    1    3    3    0    0  0.31291649421E+02 -0.13223938531E+01 -0.98914655600E+01  0.32844438497E+02  0.51100000000E-03 0.  1.
         22    1    1    0    0    0  0.27895502931E+02 -0.81570244115E+01  0.13623115371E+02  0.32098059185E+02  0.00000000000E+00 0. -1.
</event>
<event>
 5    1  0.1691145E-003  0.9118800E+02  0.7818608E-02  0.1130116E+00
         25   -1    0    0    0    0  0.00000000000E+00  0.00000000000E+00  0.99999998245E-14  0.12500000000E+03  0.12500000000E+03 0.  0.
        -11    1    3    3    0    0  0.34270777340E+02  0.44406963818E+02  0.25255082764E+02  0.61516532905E+02  0.51100000000E-03 0. -1.
         23    2    1    0    0    0  0.13151811295E+02  0.25098469863E+02  0.59172094727E+01  0.96053209198E+02  0.91587675478E+02 0.  0.
         11    1    3    3    0    0 -0.21118966045E+02 -0.19308493955E+02 -0.19337873292E+02  0.34536676292E+02  0.51100000000E-03 0.  1.
         22    1    1    0    0    0 -0.13151811295E+02 -0.25098469863E+02 -0.59172094727E+01  0.28946790802E+02  0.00000000000E+00 0. -1.
</event>
<event>
 5    1  0.1691145E-003  0.9118800E+02  0.7818608E-02  0.1130116E+00
         25   -1    0    0    0    0  0.00000000000E+00  0.00000000000E+00  0.99999998245E-14  0.12500000000E+03  0.12500000000E+03 0.  0.
        -11    1    3    3    0    0 -0.37752360418E+01 -0.43620668966E+02 -0.41162646513E+02  0.60094747161E+02  0.51100000000E-03 0.  1.
         23    2    1    0    0    0 -0.52679273773E+01 -0.10950059219E+02 -0.26320919289E+02  0.96009559369E+02  0.91528082260E+02 0.  0.
         11    1    3    3    0    0 -0.14926913355E+01  0.32670609747E+02  0.14841727224E+02  0.35914812207E+02  0.51100000000E-03 0. -1.
         22    1    1    0    0    0  0.52679273773E+01  0.10950059219E+02  0.26320919289E+02  0.28990440631E+02  0.00000000000E+00 0.  1.
</event>
<event>
 5    1  0.1691145E-003  0.9118800E+02  0.7818608E-02  0.1130116E+00
         25   -1    0    0    0    0  0.00000000000E+00  0.00000000000E+00  0.99999998245E-14  0.12500000000E+03  0.12500000000E+03 0.  0.
        -11    1    3    3    0    0 -0.22270456796E+01 -0.43623539999E+02  0.15253665170E+02  0.46267129540E+02  0.51100000000E-03 0. -1.
         23    2    1    0    0    0  0.41955453096E+01  0.32331823508E+01  0.29000847027E+02  0.95519409829E+02  0.90856218595E+02 0.  0.
         11    1    3    3    0    0  0.64225909892E+01  0.46856722350E+02  0.13747181856E+02  0.49252280289E+02  0.51100000000E-03 0.  1.
         22    1    1    0    0    0 -0.41955453096E+01 -0.32331823508E+01 -0.29000847027E+02  0.29480590171E+02  0.00000000000E+00 0.  1.
</event>
<event>
 5    1  0.1691145E-003  0.9118800E+02  0.7818608E-02  0.1130116E+00
         25   -1    0    0    0    0  0.00000000000E+00  0.00000000000E+00  0.99999998245E-14  0.12500000000E+03  0.12500000000E+03 0.  0.
        -11    1    3    3    0    0 -0.24046395564E+02 -0.48987073800E+02 -0.16290743905E+02  0.56950424725E+02  0.51100000000E-03 0.  1.
         23    2    1    0    0    0 -0.16494988385E+02 -0.21418689442E+02  0.10376943676E+02  0.96042689018E+02  0.91573316280E+02 0.  0.
         11    1    3    3    0    0  0.75514071789E+01  0.27568384357E+02  0.26667687580E+02  0.39092264294E+02  0.51100000000E-03 0. -1.
         22    1    1    0    0    0  0.16494988385E+02  0.21418689442E+02 -0.10376943676E+02  0.28957310982E+02  0.00000000000E+00 0.  1.
</event>
<event>
 5    1  0.1691145E-003  0.9118800E+02  0.7818608E-02  0.1130116E+00
         25   -1    0    0    0    0  0.00000000000E+00  0.00000000000E+00  0.99999998245E-14  0.12500000000E+03  0.12500000000E+03 0.  0.
        -11    1    3    3    0    0 -0.33629619854E+02 -0.42579818835E+02  0.42128830213E+01  0.54421876917E+02  0.51100000000E-03 0.  1.
         23    2    1    0    0    0 -0.11307778018E+02 -0.14310379442E+02  0.23478034586E+02  0.95270033443E+02  0.90512476272E+02 0.  0.
         11    1    3    3    0    0  0.22321841836E+02  0.28269439393E+02  0.19265151564E+02  0.40848156527E+02  0.51100000000E-03 0. -1.
         22    1    1    0    0    0  0.11307778018E+02  0.14310379442E+02 -0.23478034586E+02  0.29729966557E+02  0.00000000000E+00 0.  1.
</event>
<event>
 5    1  0.1691145E-003  0.9118800E+02  0.7818608E-02  0.1130116E+00
         25   -1    0    0    0    0  0.00000000000E+00  0.00000000000E+00  0.99999998245E-14  0.12500000000E+03  0.12500000000E+03 0.  0.
        -11    1    3    3    0    0  0.50744080232E+02  0.13290181586E+02 -0.18328534643E+02  0.55565508975E+02  0.51100000000E-03 0.  1.
         23    2    1    0    0    0  0.11161448328E+02  0.21538635280E+02 -0.15742084333E+02  0.96081079590E+02  0.91625705441E+02 0.  0.
         11    1    3    3    0    0 -0.39582631904E+02  0.82484536939E+01  0.25864503106E+01  0.40515570615E+02  0.51100000000E-03 0. -1.
         22    1    1    0    0    0 -0.11161448328E+02 -0.21538635280E+02  0.15742084333E+02  0.28918920410E+02  0.00000000000E+00 0.  1.
</event>
<event>
 5    1  0.1691145E-003  0.9118800E+02  0.7818608E-02  0.1130116E+00
         25   -1    0    0    0    0  0.00000000000E+00  0.00000000000E+00  0.99999998245E-14  0.12500000000E+03  0.12500000000E+03 0.  0.
        -11    1    3    3    0    0  0.46343489549E+02 -0.14770888032E+02  0.24980664527E+02  0.54680268446E+02  0.51100000000E-03 0.  1.
         23    2    1    0    0    0  0.11911842024E+02 -0.26093726235E+02  0.56272719843E+01  0.95769182029E+02  0.91199207822E+02 0.  0.
         11    1    3    3    0    0 -0.34431647525E+02 -0.11322838203E+02 -0.19353392543E+02  0.41088913583E+02  0.51100000000E-03 0. -1.
         22    1    1    0    0    0 -0.11911842024E+02  0.26093726235E+02 -0.56272719843E+01  0.29230817971E+02  0.00000000000E+00 0.  1.
</event>
<event>
 5    1  0.1691145E-003  0.9118800E+02  0.7818608E-02  0.1130116E+00
         25   -1    0    0    0    0  0.00000000000E+00  0.00000000000E+00  0.99999998245E-14  0.12500000000E+03  0.12500000000E+03 0.  0.
        -11    1    3    3    0    0  0.41887061683E+02  0.29489149802E+02  0.34455395055E+02  0.61735809229E+02  0.51100000000E-03 0.  1.
         23    2    1    0    0    0  0.14796302881E+02  0.18164412072E+02  0.18463858163E+02  0.95170643602E+02  0.90375112174E+02 0.  0.
         11    1    3    3    0    0 -0.27090758803E+02 -0.11324737729E+02 -0.15991536892E+02  0.33434834373E+02  0.51100000000E-03 0. -1.
         22    1    1    0    0    0 -0.14796302881E+02 -0.18164412072E+02 -0.18463858163E+02  0.29829356398E+02  0.00000000000E+00 0.  1.
</event>
<event>
 5    1  0.1691145E-003  0.9118800E+02  0.7818608E-02  0.1130116E+00
         25   -1    0    0    0    0  0.00000000000E+00  0.00000000000E+00  0.99999998245E-14  0.12500000000E+03  0.12500000000E+03 0.  0.
        -11    1    3    3    0    0 -0.26906226175E+02  0.13980334000E+02  0.53370091958E+02  0.61382093982E+02  0.51100000000E-03 0.  1.
         23    2    1    0    0    0 -0.56646885307E+01  0.33868459662E+01  0.28437035760E+02  0.95807116885E+02  0.91251187507E+02 0.  0.
         11    1    3    3    0    0  0.21241537645E+02 -0.10593488034E+02 -0.24933056199E+02  0.34425022903E+02  0.51100000000E-03 0. -1.
         22    1    1    0    0    0  0.56646885307E+01 -0.33868459662E+01 -0.28437035760E+02  0.29192883115E+02  0.00000000000E+00 0.  1.
</event>
<event>
 5    1  0.1691145E-003  0.9118800E+02  0.7818608E-02  0.1130116E+00
         25   -1    0    0    0    0  0.00000000000E+00  0.00000000000E+00  0.99999998245E-14  0.12500000000E+03  0.12500000000E+03 0.  0.
        -11    1    3    3    0    0 -0.14765077806E+02 -0.54666582194E+02 -0.73951563663E+01  0.57106313743E+02  0.51100000000E-03 0. -1.
         23    2    1    0    0    0 -0.18242401937E+02 -0.15141288809E+02 -0.14202345472E+02  0.97363964247E+02  0.93359472266E+02 0.  0.
         11    1    3    3    0    0 -0.34773241311E+01  0.39525293385E+02 -0.68071891057E+01  0.40257650504E+02  0.51100000000E-03 0.  1.
         22    1    1    0    0    0  0.18242401937E+02  0.15141288809E+02  0.14202345472E+02  0.27636035753E+02  0.00000000000E+00 0. -1.
</event>
<event>
 5    1  0.1691145E-003  0.9118800E+02  0.7818608E-02  0.1130116E+00
         25   -1    0    0    0    0  0.00000000000E+00  0.00000000000E+00  0.99999998245E-14  0.12500000000E+03  0.12500000000E+03 0.  0.
        -11    1    3    3    0    0 -0.43090441959E+02 -0.10750280813E+02  0.12193447065E+02  0.46054694412E+02  0.51100000000E-03 0.  1.
         23    2    1    0    0    0 -0.10008472963E+02  0.26401535085E+02  0.52064275916E+01  0.96289070476E+02  0.91909018159E+02 0.  0.
         11    1    3    3    0    0  0.33081968996E+02  0.37151815898E+02 -0.69870194730E+01  0.50234376064E+02  0.51100000000E-03 0. -1.
         22    1    1    0    0    0  0.10008472963E+02 -0.26401535085E+02 -0.52064275916E+01  0.28710929524E+02  0.00000000000E+00 0. -1.
</event>
<event>
 5    1  0.1691145E-003  0.9118800E+02  0.7818608E-02  0.1130116E+00
         25   -1    0    0    0    0  0.00000000000E+00  0.00000000000E+00  0.99999998245E-14  0.12500000000E+03  0.12500000000E+03 0.  0.
        -11    1    3    3    0    0  0.25959053100E+02 -0.12007550539E+02  0.27768754278E+02  0.39864237384E+02  0.51100000000E-03 0.  1.
         23    2    1    0    0    0  0.29752917979E+02  0.23626192119E+02 -0.27141365514E+01  0.86910636398E+02  0.78119518045E+02 0.  0.
         11    1    3    3    0    0  0.37938648795E+01  0.35633742659E+02 -0.30482890830E+02  0.47046399014E+02  0.51100000000E-03 0. -1.
         22    1    1    0    0    0 -0.29752917979E+02 -0.23626192119E+02  0.27141365514E+01  0.38089363602E+02  0.00000000000E+00 0. -1.
</event>
<event>
 5    1  0.1691145E-003  0.9118800E+02  0.7818608E-02  0.1130116E+00
         25   -1    0    0    0    0  0.00000000000E+00  0.00000000000E+00  0.99999998245E-14  0.12500000000E+03  0.12500000000E+03 0.  0.
        -11    1    3    3    0    0 -0.31885713160E+02  0.29149798776E+01  0.15019140831E+02  0.35366232524E+02  0.51100000000E-03 0.  1.
         23    2    1    0    0    0  0.13415372003E+02 -0.19178824971E+02 -0.17872918269E+02  0.95551048564E+02  0.90899736749E+02 0.  0.
         11    1    3    3    0    0  0.45301085163E+02 -0.22093804848E+02 -0.32892059100E+02  0.60184816040E+02  0.51100000000E-03 0. -1.
         22    1    1    0    0    0 -0.13415372003E+02  0.19178824971E+02  0.17872918269E+02  0.29448951436E+02  0.00000000000E+00 0. -1.
</event>
<event>
 5    1  0.1691145E-003  0.9118800E+02  0.7818608E-02  0.1130116E+00
         25   -1    0    0    0    0  0.00000000000E+00  0.00000000000E+00  0.99999998245E-14  0.12500000000E+03  0.12500000000E+03 0.  0.
        -11    1    3    3    0    0 -0.38550634078E+02 -0.47888527565E+02 -0.66979394442E+00  0.61480981485E+02  0.51100000000E-03 0. -1.
         23    2    1    0    0    0 -0.25337240716E+02 -0.21072999988E+02 -0.49327278446E+01  0.91677651650E+02  0.85407335238E+02 0.  0.
         11    1    3    3    0    0  0.13213393362E+02  0.26815527577E+02 -0.42629339002E+01  0.30196670165E+02  0.51100000000E-03 0.  1.
         22    1    1    0    0    0  0.25337240716E+02  0.21072999988E+02  0.49327278446E+01  0.33322348350E+02  0.00000000000E+00 0. -1.
</event>
<event>
 5    1  0.1691145E-003  0.9118800E+02  0.7818608E-02  0.1130116E+00
         25   -1    0    0    0    0  0.00000000000E+00  0.00000000000E+00  0.99999998245E-14  0.12500000000E+03  0.12500000000E+03 0.  0.
        -11    1    3    3    0    0 -0.27375285860E+02 -0.34318754553E+02  0.17844361330E+02  0.47387808786E+02  0.51100000000E-03 0.  1.
         23    2    1    0    0    0  0.65865453502E+01 -0.12402996719E+02  0.31871458735E+02  0.90171752999E+02  0.83174144118E+02 0.  0.
         11    1    3    3    0    0  0.33961831210E+02  0.21915757834E+02  0.14027097405E+02  0.42783944213E+02  0.51100000000E-03 0. -1.
         22    1    1    0    0    0 -0.65865453502E+01  0.12402996719E+02 -0.31871458735E+02  0.34828247001E+02  0.00000000000E+00 0. -1.
</event>
<event>
 5    1  0.1691145E-003  0.9118800E+02  0.7818608E-02  0.1130116E+00
         25   -1    0    0    0    0  0.00000000000E+00  0.00000000000E+00  0.99999998245E-14  0.12500000000E+03  0.12500000000E+03 0.  0.
        -11    1    3    3    0    0  0.21791794009E+02  0.23165002898E+02  0.40337116551E+02  0.51367135576E+02  0.51100000000E-03 0. -1.
         23    2    1    0    0    0  0.60316410581E+01 -0.14800437096E+02  0.25173783854E+02  0.95181330921E+02  0.90389892855E+02 0.  0.
         11    1    3    3    0    0 -0.15760152951E+02 -0.37965439994E+02 -0.15163332697E+02  0.43814195345E+02  0.51100000000E-03 0.  1.
         22    1    1    0    0    0 -0.60316410581E+01  0.14800437096E+02 -0.25173783854E+02  0.29818669079E+02  0.00000000000E+00 0. -1.
</event>
<event>
 5    1  0.1691145E-003  0.9118800E+02  0.7818608E-02  0.1130116E+00
         25   -1    0    0    0    0  0.00000000000E+00  0.00000000000E+00  0.99999998245E-14  0.12500000000E+03  0.12500000000E+03 0.  0.
        -11    1    3    3    0    0  0.25789237805E+02  0.24234005769E+02 -0.39976573792E+02  0.53390057825E+02  0.51100000000E-03 0.  1.
         23    2    1    0    0    0  0.24582440198E+01 -0.11511647085E+02 -0.22680124808E+02  0.99447132380E+02  0.96108184330E+02 0.  0.
         11    1    3    3    0    0 -0.23330993785E+02 -0.35745652854E+02  0.17296448984E+02  0.46057074556E+02  0.51100000000E-03 0. -1.
         22    1    1    0    0    0 -0.24582440198E+01  0.11511647085E+02  0.22680124808E+02  0.25552867620E+02  0.00000000000E+00 0. -1.
</event>
<event>
 5    1  0.1691145E-003  0.9118800E+02  0.7818608E-02  0.1130116E+00
         25   -1    0    0    0    0  0.00000000000E+00  0.00000000000E+00  0.99999998245E-14  0.12500000000E+03  0.12500000000E+03 0.  0.
        -11    1    3    3    0    0  0.96014656752E+01 -0.21122019377E+02 -0.31191883993E+02  0.38874946597E+02  0.51100000000E-03 0. -1.
         23    2    1    0    0    0 -0.16844854459E+02 -0.17058726736E+02  0.18100025310E+02  0.94960689159E+02  0.90084251064E+02 0.  0.
         11    1    3    3    0    0 -0.26446320134E+02  0.40632926411E+01  0.49291909303E+02  0.56085742562E+02  0.51100000000E-03 0.  1.
         22    1    1    0    0    0  0.16844854459E+02  0.17058726736E+02 -0.18100025310E+02  0.30039310841E+02  0.00000000000E+00 0.  1.
</event>
<event>
 5    1  0.1691145E-003  0.9118800E+02  0.7818608E-02  0.1130116E+00
         25   -1    0    0    0    0  0.00000000000E+00  0.00000000000E+00  0.99999998245E-14  0.12500000000E+03  0.12500000000E+03 0.  0.
        -11    1    3    3    0    0 -0.13602194562E+02  0.11945522655E+02 -0.25946553003E+02  0.31637617189E+02  0.51100000000E-03 0.  1.
         23    2    1    0    0    0 -0.76361320410E+01 -0.73025215771E+01  0.31108155311E+02  0.92146466541E+02  0.86090746513E+02 0.  0.
         11    1    3    3    0    0  0.59660625208E+01 -0.19248044232E+02  0.57054708314E+02  0.60508849351E+02  0.51100000000E-03 0. -1.
         22    1    1    0    0    0  0.76361320410E+01  0.73025215771E+01 -0.31108155311E+02  0.32853533459E+02  0.00000000000E+00 0. -1.
</event>
<event>
 5    1  0.1691145E-003  0.9118800E+02  0.7818608E-02  0.1130116E+00
         25   -1    0    0    0    0  0.00000000000E+00  0.00000000000E+00  0.99999998245E-14  0.12500000000E+03  0.12500000000E+03 0.  0.
        -11    1    3    3    0    0 -0.51581823358E+02  0.87802061950E+01  0.28314020532E+02  0.59493363333E+02  0.51100000000E-03 0.  1.
         23    2    1    0    0    0 -0.14553035448E+02  0.11673491739E+02  0.20184102314E+02  0.97514381282E+02  0.93560650492E+02 0.  0.
         11    1    3    3    0    0  0.37028787910E+02  0.28932855438E+01 -0.81299182186E+01  0.38021017948E+02  0.51100000000E-03 0. -1.
         22    1    1    0    0    0  0.14553035448E+02 -0.11673491739E+02 -0.20184102314E+02  0.27485618718E+02  0.00000000000E+00 0.  1.
</event>
<event>
 5    1  0.1691145E-003  0.9118800E+02  0.7818608E-02  0.1130116E+00
         25   -1    0    0    0    0  0.00000000000E+00  0.00000000000E+00  0.99999998245E-14  0.12500000000E+03  0.12500000000E+03 0.  0.
        -11    1    3    3    0    0  0.13204238333E+02  0.29758171867E+02  0.16081618114E+02  0.36311418924E+02  0.51100000000E-03 0. -1.
         23    2    1    0    0    0 -0.43838170093E+01 -0.26788056352E+02  0.10874826274E+02  0.95758254820E+02  0.91184229475E+02 0.  0.
         11    1    3    3    0    0 -0.17588055343E+02 -0.56546228219E+02 -0.52067918401E+01  0.59446835896E+02  0.51100000000E-03 0.  1.
         22    1    1    0    0    0  0.43838170093E+01  0.26788056352E+02 -0.10874826274E+02  0.29241745180E+02  0.00000000000E+00 0.  1.
</event>
<event>
 5    1  0.1691145E-003  0.9118800E+02  0.7818608E-02  0.1130116E+00
         25   -1    0    0    0    0  0.00000000000E+00  0.00000000000E+00  0.99999998245E-14  0.12500000000E+03  0.12500000000E+03 0.  0.
        -11    1    3    3    0    0  0.33268906360E+02  0.29688112768E+02  0.71554481311E+01  0.45159767585E+02  0.51100000000E-03 0. -1.
         23    2    1    0    0    0  0.21074284237E+02 -0.14094532146E+02 -0.14809565894E+02  0.95638383313E+02  0.91019755154E+02 0.  0.
         11    1    3    3    0    0 -0.12194622124E+02 -0.43782644914E+02 -0.21965014025E+02  0.50478615728E+02  0.51100000000E-03 0.  1.
         22    1    1    0    0    0 -0.21074284237E+02  0.14094532146E+02  0.14809565894E+02  0.29361616687E+02  0.00000000000E+00 0.  1.
</event>
<event>
 5    1  0.1691145E-003  0.9118800E+02  0.7818608E-02  0.1130116E+00
         25   -1    0    0    0    0  0.00000000000E+00  0.00000000000E+00  0.99999998245E-14  0.12500000000E+03  0.12500000000E+03 0.  0.
        -11    1    3    3    0    0  0.26027536791E+02  0.45443034914E+02  0.14275863843E+02  0.54279852453E+02  0.51100000000E-03 0. -1.
         23    2    1    0    0    0 -0.40659813872E+01  0.27600732344E+02 -0.82710752355E+01  0.95901145794E+02  0.91379901775E+02 0.  0.
         11    1    3    3    0    0 -0.30093518178E+02 -0.17842302570E+02 -0.22546939079E+02  0.41621293341E+02  0.51100000000E-03 0.  1.
         22    1    1    0    0    0  0.40659813872E+01 -0.27600732344E+02  0.82710752355E+01  0.29098854206E+02  0.00000000000E+00 0. -1.
</event>
<event>
 5    1  0.1691145E-003  0.9118800E+02  0.7818608E-02  0.1130116E+00
         25   -1    0    0    0    0  0.00000000000E+00  0.00000000000E+00  0.99999998245E-14  0.12500000000E+03  0.12500000000E+03 0.  0.
        -11    1    3    3    0    0  0.22805702375E+02 -0.25379881592E+02  0.61234984121E+01  0.34666059532E+02  0.51100000000E-03 0.  1.
         23    2    1    0    0    0 -0.22490005881E+02  0.16721254728E+02  0.51001676135E+01  0.96514697933E+02  0.92215370102E+02 0.  0.
         11    1    3    3    0    0 -0.45295708256E+02  0.42101136319E+02 -0.10233307986E+01  0.61848638400E+02  0.51100000000E-03 0. -1.
         22    1    1    0    0    0  0.22490005881E+02 -0.16721254728E+02 -0.51001676135E+01  0.28485302067E+02  0.00000000000E+00 0. -1.
</event>
<event>
 5    1  0.1691145E-003  0.9118800E+02  0.7818608E-02  0.1130116E+00
         25   -1    0    0    0    0  0.00000000000E+00  0.00000000000E+00  0.99999998245E-14  0.12500000000E+03  0.12500000000E+03 0.  0.
        -11    1    3    3    0    0  0.48139619467E+02 -0.28578047986E+02  0.19553948388E+02  0.59299955202E+02  0.51100000000E-03 0. -1.
         23    2    1    0    0    0  0.18660325249E+02 -0.58724940171E+01  0.20688493265E+02  0.96527071139E+02  0.92232140736E+02 0.  0.
         11    1    3    3    0    0 -0.29479294219E+02  0.22705553969E+02  0.11345448770E+01  0.37227115937E+02  0.51100000000E-03 0.  1.
         22    1    1    0    0    0 -0.18660325249E+02  0.58724940171E+01 -0.20688493265E+02  0.28472928861E+02  0.00000000000E+00 0. -1.
</event>
<event>
 5    1  0.1691145E-003  0.9118800E+02  0.7818608E-02  0.1130116E+00
         25   -1    0    0    0    0  0.00000000000E+00  0.00000000000E+00  0.99999998245E-14  0.12500000000E+03  0.12500000000E+03 0.  0.
        -11    1    3    3    0    0 -0.37408166493E+02 -0.41212729637E+01 -0.15098037235E+02  0.40550049813E+02  0.51100000000E-03 0.  1.
         23    2    1    0    0    0  0.19949470090E+02  0.12284067769E+02 -0.46088824469E+01  0.10112278334E+03  0.98263400287E+02 0.  0.
         11    1    3    3    0    0  0.57357636583E+02  0.16405340733E+02  0.10489154788E+02  0.60572733531E+02  0.51100000000E-03 0. -1.
         22    1    1    0    0    0 -0.19949470090E+02 -0.12284067769E+02  0.46088824469E+01  0.23877216656E+02  0.00000000000E+00 0. -1.
</event>
<event>
 5    1  0.1691145E-003  0.9118800E+02  0.7818608E-02  0.1130116E+00
         25   -1    0    0    0    0  0.00000000000E+00  0.00000000000E+00  0.99999998245E-14  0.12500000000E+03  0.12500000000E+03 0.  0.
        -11    1    3    3    0    0 -0.10376138000E+02 -0.15515454878E+02  0.50235456484E+02  0.53590994283E+02  0.51100000000E-03 0. -1.
         23    2    1    0    0    0 -0.87490405949E+00 -0.28030909548E+02  0.12835721841E+02  0.94157608679E+02  0.88962925817E+02 0.  0.
         11    1    3    3    0    0  0.95012339404E+01 -0.12515454670E+02 -0.37399734642E+02  0.40566614396E+02  0.51100000000E-03 0.  1.
         22    1    1    0    0    0  0.87490405949E+00  0.28030909548E+02 -0.12835721841E+02  0.30842391321E+02  0.00000000000E+00 0. -1.
</event>
<event>
 5    1  0.1691145E-003  0.9118800E+02  0.7818608E-02  0.1130116E+00
         25   -1    0    0    0    0  0.00000000000E+00  0.00000000000E+00  0.99999998245E-14  0.12500000000E+03  0.12500000000E+03 0.  0.
        -11    1    3    3    0    0 -0.34878435287E+02 -0.23612022274E+02  0.14667867447E+02  0.44600215017E+02  0.51100000000E-03 0. -1.
         23    2    1    0    0    0  0.70917330208E+01 -0.20315057037E+02 -0.17242342863E+02  0.97426596020E+02  0.93443292991E+02 0.  0.
         11    1    3    3    0    0  0.41970168307E+02  0.32969652366E+01 -0.31910210310E+02  0.52826381002E+02  0.51100000000E-03 0.  1.
         22    1    1    0    0    0 -0.70917330208E+01  0.20315057037E+02  0.17242342863E+02  0.27573403980E+02  0.00000000000E+00 0. -1.
</event>
<event>
 5    1  0.1691145E-003  0.9118800E+02  0.7818608E-02  0.1130116E+00
         25   -1    0    0    0    0  0.00000000000E+00  0.00000000000E+00  0.99999998245E-14  0.12500000000E+03  0.12500000000E+03 0.  0.
        -11    1    3    3    0    0  0.42272878384E+02  0.13293447812E+02  0.11843378612E+02  0.45869135798E+02  0.51100000000E-03 0. -1.
         23    2    1    0    0    0  0.13590929547E+02  0.23885693245E+01 -0.26585936346E+02  0.95046191548E+02  0.90202815295E+02 0.  0.
         11    1    3    3    0    0 -0.28681948837E+02 -0.10904878488E+02 -0.38429314958E+02  0.49177055751E+02  0.51100000000E-03 0.  1.
         22    1    1    0    0    0 -0.13590929547E+02 -0.23885693245E+01  0.26585936346E+02  0.29953808452E+02  0.00000000000E+00 0. -1.
</event>
<event>
 5    1  0.1691145E-003  0.9118800E+02  0.7818608E-02  0.1130116E+00
         25   -1    0    0    0    0  0.00000000000E+00  0.00000000000E+00  0.99999998245E-14  0.12500000000E+03  0.12500000000E+03 0.  0.
        -11    1    3    3    0    0 -0.41652181413E+02 -0.77462412104E+01  0.22296206404E+02  0.47875142711E+02  0.51100000000E-03 0.  1.
         23    2    1    0    0    0  0.41710955920E+01 -0.16739406574E+02  0.24971369822E+02  0.94649133757E+02  0.89650897593E+02 0.  0.
         11    1    3    3    0    0  0.45823277005E+02 -0.89931653640E+01  0.26751634187E+01  0.46773991046E+02  0.51100000000E-03 0. -1.
         22    1    1    0    0    0 -0.41710955920E+01  0.16739406574E+02 -0.24971369822E+02  0.30350866243E+02  0.00000000000E+00 0.  1.
</event>
<event>
 5    1  0.1691145E-003  0.9118800E+02  0.7818608E-02  0.1130116E+00
         25   -1    0    0    0    0  0.00000000000E+00  0.00000000000E+00  0.99999998245E-14  0.12500000000E+03  0.12500000000E+03 0.  0.
        -11    1    3    3    0    0 -0.36321700987E+02  0.39536367484E+02  0.24689229874E+02  0.59092710113E+02  0.51100000000E-03 0. -1.
         23    2    1    0    0    0 -0.52404518910E+01  0.17761857279E+02  0.20659121897E+02  0.97255717209E+02  0.93214426471E+02 0.  0.
         11    1    3    3    0    0  0.31081249096E+02 -0.21774510205E+02 -0.40301079766E+01  0.38163007096E+02  0.51100000000E-03 0.  1.
         22    1    1    0    0    0  0.52404518910E+01 -0.17761857279E+02 -0.20659121897E+02  0.27744282791E+02  0.00000000000E+00 0. -1.
</event>
<event>
 5    1  0.1691145E-003  0.9118800E+02  0.7818608E-02  0.1130116E+00
         25   -1    0    0    0    0  0.00000000000E+00  0.00000000000E+00  0.99999998245E-14  0.12500000000E+03  0.12500000000E+03 0.  0.
        -11    1    3    3    0    0  0.18891154788E+02  0.48624250178E+02  0.30546951930E+02  0.60450886736E+02  0.51100000000E-03 0.  1.
         23    2    1    0    0    0  0.15294065589E+02  0.13498150142E+02  0.17595413950E+02  0.98061048804E+02  0.94288186964E+02 0.  0.
         11    1    3    3    0    0 -0.35970891995E+01 -0.35126100036E+02 -0.12951537981E+02  0.37610162068E+02  0.51100000000E-03 0. -1.
         22    1    1    0    0    0 -0.15294065589E+02 -0.13498150142E+02 -0.17595413950E+02  0.26938951196E+02  0.00000000000E+00 0.  1.
</event>
<event>
 5    1  0.1691145E-003  0.9118800E+02  0.7818608E-02  0.1130116E+00
         25   -1    0    0    0    0  0.00000000000E+00  0.00000000000E+00  0.99999998245E-14  0.12500000000E+03  0.12500000000E+03 0.  0.
        -11    1    3    3    0    0  0.21030084455E+02 -0.81170584663E+01  0.44541308428E+02  0.49920729633E+02  0.51100000000E-03 0. -1.
         23    2    1    0    0    0 -0.13000408758E+02 -0.20026579672E+02  0.13057869734E+02  0.97786354834E+02  0.93923312913E+02 0.  0.
         11    1    3    3    0    0 -0.34030493213E+02 -0.11909521206E+02 -0.31483438695E+02  0.47865625202E+02  0.51100000000E-03 0.  1.
         22    1    1    0    0    0  0.13000408758E+02  0.20026579672E+02 -0.13057869734E+02  0.27213645166E+02  0.00000000000E+00 0. -1.
</event>
<event>
 5    1  0.1691145E-003  0.9118800E+02  0.7818608E-02  0.1130116E+00
         25   -1    0    0    0    0  0.00000000000E+00  0.00000000000E+00  0.99999998245E-14  0.12500000000E+03  0.12500000000E+03 0.  0.
        -11    1    3    3    0    0  0.40311564186E+02 -0.86661209523E+01 -0.33827450495E+02  0.53333106667E+02  0.51100000000E-03 0. -1.
         23    2    1    0    0    0 -0.19207360091E+01 -0.13907634302E+02 -0.24288989539E+02  0.96945293951E+02  0.92797217026E+02 0.  0.
         11    1    3    3    0    0 -0.42232300195E+02 -0.52415133493E+01  0.95384609564E+01  0.43612187284E+02  0.51100000000E-03 0.  1.
         22    1    1    0    0    0  0.19207360091E+01  0.13907634302E+02  0.24288989539E+02  0.28054706049E+02  0.00000000000E+00 0. -1.
</event>
<event>
 5    1  0.1691145E-003  0.9118800E+02  0.7818608E-02  0.1130116E+00
         25   -1    0    0    0    0  0.00000000000E+00  0.00000000000E+00  0.99999998245E-14  0.12500000000E+03  0.12500000000E+03 0.  0.
        -11    1    3    3    0    0 -0.34221414209E+02 -0.67212256419E+01  0.29217227848E+02  0.45496444564E+02  0.51100000000E-03 0. -1.
         23    2    1    0    0    0  0.77891301542E+01  0.21457893401E+01  0.35233530734E+02  0.88852017367E+02  0.81166522297E+02 0.  0.
         11    1    3    3    0    0  0.42010544363E+02  0.88670149820E+01  0.60163028854E+01  0.43355572803E+02  0.51100000000E-03 0.  1.
         22    1    1    0    0    0 -0.77891301542E+01 -0.21457893401E+01 -0.35233530734E+02  0.36147982633E+02  0.00000000000E+00 0. -1.
</event>
<event>
 5    1  0.1691145E-003  0.9118800E+02  0.7818608E-02  0.1130116E+00
         25   -1    0    0    0    0  0.00000000000E+00  0.00000000000E+00  0.99999998245E-14  0.12500000000E+03  0.12500000000E+03 0.  0.
        -11    1    3    3    0    0 -0.42628797312E+02  0.27619388675E+02  0.12100849097E+02  0.52215663743E+02  0.51100000000E-03 0.  1.
         23    2    1    0    0    0  0.17249588247E+01  0.24938261881E+02  0.13335530465E+02  0.96667531675E+02  0.92422307474E+02 0.  0.
         11    1    3    3    0    0  0.44353756137E+02 -0.26811267938E+01  0.12346813678E+01  0.44451867932E+02  0.51100000000E-03 0. -1.
         22    1    1    0    0    0 -0.17249588247E+01 -0.24938261881E+02 -0.13335530465E+02  0.28332468325E+02  0.00000000000E+00 0. -1.
</event>
<event>
 5    1  0.1691145E-003  0.9118800E+02  0.7818608E-02  0.1130116E+00
         25   -1    0    0    0    0  0.00000000000E+00  0.00000000000E+00  0.99999998245E-14  0.12500000000E+03  0.12500000000E+03 0.  0.
        -11    1    3    3    0    0 -0.52647023284E+02  0.27456125955E+02 -0.19436438394E+02  0.62476580019E+02  0.51100000000E-03 0. -1.
         23    2    1    0    0    0 -0.25370459119E+02  0.11872676048E+02 -0.90656227677E+01  0.95558428224E+02  0.90909884259E+02 0.  0.
         11    1    3    3    0    0  0.27276564165E+02 -0.15583449907E+02  0.10370815627E+02  0.33081848205E+02  0.51100000000E-03 0.  1.
         22    1    1    0    0    0  0.25370459119E+02 -0.11872676048E+02  0.90656227677E+01  0.29441571776E+02  0.00000000000E+00 0. -1.
</event>
<event>
 5    1  0.1691145E-003  0.9118800E+02  0.7818608E-02  0.1130116E+00
         25   -1    0    0    0    0  0.00000000000E+00  0.00000000000E+00  0.99999998245E-14  0.12500000000E+03  0.12500000000E+03 0.  0.
        -11    1    3    3    0    0 -0.37373165931E+02  0.39575206916E+02  0.29854345204E+02  0.62082465012E+02  0.51100000000E-03 0. -1.
         23    2    1    0    0    0 -0.21885665442E+02  0.18038020184E+02  0.19610461939E+02  0.90519240997E+02  0.83694744454E+02 0.  0.
         11    1    3    3    0    0  0.15487500490E+02 -0.21537186733E+02 -0.10243883265E+02  0.28436775984E+02  0.51100000000E-03 0.  1.
         22    1    1    0    0    0  0.21885665442E+02 -0.18038020184E+02 -0.19610461939E+02  0.34480759003E+02  0.00000000000E+00 0. -1.
</event>
<event>
 5    1  0.1691145E-003  0.9118800E+02  0.7818608E-02  0.1130116E+00
         25   -1    0    0    0    0  0.00000000000E+00  0.00000000000E+00  0.99999998245E-14  0.12500000000E+03  0.12500000000E+03 0.  0.
        -11    1    3    3    0    0  0.28765657749E+02 -0.38698596790E+01  0.15685249652E+02  0.32991907138E+02  0.51100000000E-03 0. -1.
         23    2    1    0    0    0 -0.25602783151E+02 -0.33105712198E+01 -0.14714902875E+02  0.95284839670E+02  0.90532921732E+02 0.  0.
         11    1    3    3    0    0 -0.54368440900E+02  0.55928845917E+00 -0.30400152527E+02  0.62292932532E+02  0.51100000000E-03 0.  1.
         22    1    1    0    0    0  0.25602783151E+02  0.33105712198E+01  0.14714902875E+02  0.29715160330E+02  0.00000000000E+00 0.  1.
</event>
<event>
 5    1  0.1691145E-003  0.9118800E+02  0.7818608E-02  0.1130116E+00
         25   -1    0    0    0    0  0.00000000000E+00  0.00000000000E+00  0.99999998245E-14  0.12500000000E+03  0.12500000000E+03 0.  0.
        -11    1    3    3    0    0  0.11235235515E+02  0.37571658603E+02 -0.47239498714E+02  0.61395686219E+02  0.51100000000E-03 0.  1.
         23    2    1    0    0    0  0.77741836793E+01  0.10862809382E+02 -0.26270437284E+02  0.95528413096E+02  0.90868604446E+02 0.  0.
         11    1    3    3    0    0 -0.34610518360E+01 -0.26708849222E+02  0.20969061429E+02  0.34132726877E+02  0.51100000000E-03 0. -1.
         22    1    1    0    0    0 -0.77741836793E+01 -0.10862809382E+02  0.26270437284E+02  0.29471586904E+02  0.00000000000E+00 0.  1.
</event>
<event>
 5    1  0.1691145E-003  0.9118800E+02  0.7818608E-02  0.1130116E+00
         25   -1    0    0    0    0  0.00000000000E+00  0.00000000000E+00  0.99999998245E-14  0.12500000000E+03  0.12500000000E+03 0.  0.
        -11    1    3    3    0    0 -0.14945806484E+02  0.88038827246E+01 -0.43020350922E+02  0.46385731385E+02  0.51100000000E-03 0.  1.
         23    2    1    0    0    0  0.16441268681E+02 -0.17697193938E+02 -0.20988403468E+02  0.92999702044E+02  0.87320819459E+02 0.  0.
         11    1    3    3    0    0  0.31387075165E+02 -0.26501076663E+02  0.22031947454E+02  0.46613970659E+02  0.51100000000E-03 0. -1.
         22    1    1    0    0    0 -0.16441268681E+02  0.17697193938E+02  0.20988403468E+02  0.32000297956E+02  0.00000000000E+00 0. -1.
</event>
<event>
 5    1  0.1691145E-003  0.9118800E+02  0.7818608E-02  0.1130116E+00
         25   -1    0    0    0    0  0.00000000000E+00  0.00000000000E+00  0.99999998245E-14  0.12500000000E+03  0.12500000000E+03 0.  0.
        -11    1    3    3    0    0 -0.28752728546E+02  0.11693830254E+02  0.46060724173E+02  0.55543274809E+02  0.51100000000E-03 0.  1.
         23    2    1    0    0    0  0.65800056101E+01  0.69747945107E+01  0.27795864718E+02  0.95596695292E+02  0.90962485801E+02 0.  0.
         11    1    3    3    0    0  0.35332734156E+02 -0.47190357433E+01 -0.18264859455E+02  0.40053420484E+02  0.51100000000E-03 0. -1.
         22    1    1    0    0    0 -0.65800056101E+01 -0.69747945107E+01 -0.27795864718E+02  0.29403304708E+02  0.00000000000E+00 0.  1.
</event>
<event>
 5    1  0.1691145E-003  0.9118800E+02  0.7818608E-02  0.1130116E+00
         25   -1    0    0    0    0  0.00000000000E+00  0.00000000000E+00  0.99999998245E-14  0.12500000000E+03  0.12500000000E+03 0.  0.
        -11    1    3    3    0    0  0.26895048050E+02 -0.67883753680E+01  0.30064142496E+02  0.40905724710E+02  0.51100000000E-03 0.  1.
         23    2    1    0    0    0  0.86853787813E+01 -0.18933605308E+02 -0.20357672700E+02  0.95873516308E+02  0.91342099149E+02 0.  0.
         11    1    3    3    0    0 -0.18209669269E+02 -0.12145229940E+02 -0.50421815196E+02  0.54967791598E+02  0.51100000000E-03 0. -1.
         22    1    1    0    0    0 -0.86853787813E+01  0.18933605308E+02  0.20357672700E+02  0.29126483692E+02  0.00000000000E+00 0. -1.
</event>
<event>
 5    1  0.1691145E-003  0.9118800E+02  0.7818608E-02  0.1130116E+00
         25   -1    0    0    0    0  0.00000000000E+00  0.00000000000E+00  0.99999998245E-14  0.12500000000E+03  0.12500000000E+03 0.  0.
        -11    1    3    3    0    0 -0.22353297887E+02  0.29282338856E+02 -0.64404537299E+01  0.37397924272E+02  0.51100000000E-03 0. -1.
         23    2    1    0    0    0  0.92846818724E+01 -0.89153141563E+01  0.25530742015E+02  0.96407921870E+02  0.92070518992E+02 0.  0.
         11    1    3    3    0    0  0.31637979759E+02 -0.38197653013E+02  0.31971195745E+02  0.59009997598E+02  0.51100000000E-03 0.  1.
         22    1    1    0    0    0 -0.92846818724E+01  0.89153141563E+01 -0.25530742015E+02  0.28592078130E+02  0.00000000000E+00 0. -1.
</event>
<event>
 5    1  0.1691145E-003  0.9118800E+02  0.7818608E-02  0.1130116E+00
         25   -1    0    0    0    0  0.00000000000E+00  0.00000000000E+00  0.99999998245E-14  0.12500000000E+03  0.12500000000E+03 0.  0.
        -11    1    3    3    0    0 -0.30042148262E+02  0.36724169028E+02  0.28670057441E+02  0.55436156585E+02  0.51100000000E-03 0.  1.
         23    2    1    0    0    0  0.52655274756E+01  0.17690564266E+02  0.22303609046E+02  0.96049476342E+02  0.91582580688E+02 0.  0.
         11    1    3    3    0    0  0.35307675737E+02 -0.19033604762E+02 -0.63664483956E+01  0.40613319757E+02  0.51100000000E-03 0. -1.
         22    1    1    0    0    0 -0.52655274756E+01 -0.17690564266E+02 -0.22303609046E+02  0.28950523658E+02  0.00000000000E+00 0.  1.
</event>
<event>
 5    1  0.1691145E-003  0.9118800E+02  0.7818608E-02  0.1130116E+00
         25   -1    0    0    0    0  0.00000000000E+00  0.00000000000E+00  0.99999998245E-14  0.12500000000E+03  0.12500000000E+03 0.  0.
        -11    1    3    3    0    0  0.67473005367E+01  0.31906430366E+02  0.14742998543E+02  0.35789696416E+02  0.51100000000E-03 0.  1.
         23    2    1    0    0    0 -0.18197470745E+02 -0.21851602651E+02  0.81481295857E+01  0.95419051812E+02  0.90718040946E+02 0.  0.
         11    1    3    3    0    0 -0.24944771281E+02 -0.53758033017E+02 -0.65948689573E+01  0.59629355396E+02  0.51100000000E-03 0. -1.
         22    1    1    0    0    0  0.18197470745E+02  0.21851602651E+02 -0.81481295857E+01  0.29580948188E+02  0.00000000000E+00 0. -1.
</event>
<event>
 5    1  0.1691145E-003  0.9118800E+02  0.7818608E-02  0.1130116E+00
         25   -1    0    0    0    0  0.00000000000E+00  0.00000000000E+00  0.99999998245E-14  0.12500000000E+03  0.12500000000E+03 0.  0.
        -11    1    3    3    0    0 -0.43088999397E+01  0.35474926994E+02  0.15027279904E+02  0.38766689380E+02  0.51100000000E-03 0. -1.
         23    2    1    0    0    0 -0.24411424624E+02 -0.15842526461E+02 -0.20598856601E-01  0.95898389716E+02  0.91376131615E+02 0.  0.
         11    1    3    3    0    0 -0.20102524684E+02 -0.51317453455E+02 -0.15047878760E+02  0.57131700336E+02  0.51100000000E-03 0.  1.
         22    1    1    0    0    0  0.24411424624E+02  0.15842526461E+02  0.20598856601E-01  0.29101610284E+02  0.00000000000E+00 0.  1.
</event>
<event>
 5    1  0.1691145E-003  0.9118800E+02  0.7818608E-02  0.1130116E+00
         25   -1    0    0    0    0  0.00000000000E+00  0.00000000000E+00  0.99999998245E-14  0.12500000000E+03  0.12500000000E+03 0.  0.
        -11    1    3    3    0    0 -0.16610016664E+01 -0.44180760433E+01 -0.45236119080E+02  0.45481697331E+02  0.51100000000E-03 0.  1.
         23    2    1    0    0    0 -0.18829096690E+02 -0.21882431502E+02 -0.91674435669E+00  0.96117200433E+02  0.91674969912E+02 0.  0.
         11    1    3    3    0    0 -0.17168095023E+02 -0.17464355459E+02  0.44319374723E+02  0.50635503102E+02  0.51100000000E-03 0. -1.
         22    1    1    0    0    0  0.18829096690E+02  0.21882431502E+02  0.91674435669E+00  0.28882799567E+02  0.00000000000E+00 0.  1.
</event>
<event>
 5    1  0.1691145E-003  0.9118800E+02  0.7818608E-02  0.1130116E+00
         25   -1    0    0    0    0  0.00000000000E+00  0.00000000000E+00  0.99999998245E-14  0.12500000000E+03  0.12500000000E+03 0.  0.
        -11    1    3    3    0    0  0.22430884576E+02 -0.38130398137E+02 -0.21447131091E+02  0.49163515712E+02  0.51100000000E-03 0. -1.
         23    2    1    0    0    0  0.20843077272E+02  0.31533723059E+01 -0.26886991875E+02  0.90834403867E+02  0.84164131117E+02 0.  0.
         11    1    3    3    0    0 -0.15878073034E+01  0.41283770443E+02 -0.54398607840E+01  0.41670888155E+02  0.51100000000E-03 0.  1.
         22    1    1    0    0    0 -0.20843077272E+02 -0.31533723059E+01  0.26886991875E+02  0.34165596133E+02  0.00000000000E+00 0. -1.
</event>
<event>
 5    1  0.1691145E-003  0.9118800E+02  0.7818608E-02  0.1130116E+00
         25   -1    0    0    0    0  0.00000000000E+00  0.00000000000E+00  0.99999998245E-14  0.12500000000E+03  0.12500000000E+03 0.  0.
        -11    1    3    3    0    0  0.12657164331E+02  0.25592077962E+02  0.98435093369E+01  0.30200214231E+02  0.51100000000E-03 0. -1.
         23    2    1    0    0    0 -0.21184792119E+02 -0.11348318352E+02  0.32000547497E+02  0.84979820258E+02  0.74966359552E+02 0.  0.
         11    1    3    3    0    0 -0.33841956450E+02 -0.36940396313E+02  0.22157038160E+02  0.54779606026E+02  0.51100000000E-03 0.  1.
         22    1    1    0    0    0  0.21184792119E+02  0.11348318352E+02 -0.32000547497E+02  0.40020179742E+02  0.00000000000E+00 0.  1.
</event>
<event>
 5    1  0.1691145E-003  0.9118800E+02  0.7818608E-02  0.1130116E+00
         25   -1    0    0    0    0  0.00000000000E+00  0.00000000000E+00  0.99999998245E-14  0.12500000000E+03  0.12500000000E+03 0.  0.
        -11    1    3    3    0    0 -0.29100788824E+02 -0.45209239265E+02 -0.21658462832E+02  0.57963956366E+02  0.51100000000E-03 0.  1.
         23    2    1    0    0    0 -0.53796440975E+00 -0.21660063952E+02 -0.20758739148E+02  0.94993783525E+02  0.90130160775E+02 0.  0.
         11    1    3    3    0    0  0.28562824414E+02  0.23549175313E+02  0.89972368386E+00  0.37029827159E+02  0.51100000000E-03 0. -1.
         22    1    1    0    0    0  0.53796440975E+00  0.21660063952E+02  0.20758739148E+02  0.30006216475E+02  0.00000000000E+00 0.  1.
</event>
<event>
 5    1  0.1691145E-003  0.9118800E+02  0.7818608E-02  0.1130116E+00
         25   -1    0    0    0    0  0.00000000000E+00  0.00000000000E+00  0.99999998245E-14  0.12500000000E+03  0.12500000000E+03 0.  0.
        -11    1    3    3    0    0 -0.12114364676E+02  0.90923092687E+01 -0.38072675842E+02  0.40975072487E+02  0.51100000000E-03 0.  1.
         23    2    1    0    0    0  0.29809110640E+02 -0.22700745639E+01 -0.72438799808E+01  0.94239471512E+02  0.89077875356E+02 0.  0.
         11    1    3    3    0    0  0.41923475316E+02 -0.11362383833E+02  0.30828795861E+02  0.53264399024E+02  0.51100000000E-03 0. -1.
         22    1    1    0    0    0 -0.29809110640E+02  0.22700745639E+01  0.72438799808E+01  0.30760528488E+02  0.00000000000E+00 0. -1.
</event>
<event>
 5    1  0.1691145E-003  0.9118800E+02  0.7818608E-02  0.1130116E+00
         25   -1    0    0    0    0  0.00000000000E+00  0.00000000000E+00  0.99999998245E-14  0.12500000000E+03  0.12500000000E+03 0.  0.
        -11    1    3    3    0    0 -0.17726818210E+02  0.26787122944E+01  0.48681180250E+02  0.51877479643E+02  0.51100000000E-03 0. -1.
         23    2    1    0    0    0  0.17273804413E+02  0.66754048717E+01  0.22992697582E+02  0.95476966769E+02  0.90797806648E+02 0.  0.
         11    1    3    3    0    0  0.35000622623E+02  0.39966925773E+01 -0.25688482668E+02  0.43599487125E+02  0.51100000000E-03 0.  1.
         22    1    1    0    0    0 -0.17273804413E+02 -0.66754048717E+01 -0.22992697582E+02  0.29523033231E+02  0.00000000000E+00 0. -1.
</event>
<event>
 5    1  0.1691145E-003  0.9118800E+02  0.7818608E-02  0.1130116E+00
         25   -1    0    0    0    0  0.00000000000E+00  0.00000000000E+00  0.99999998245E-14  0.12500000000E+03  0.12500000000E+03 0.  0.
        -11    1    3    3    0    0 -0.10811463447E+02  0.39847807501E+02 -0.28321003004E+01  0.41385459969E+02  0.51100000000E-03 0.  1.
         23    2    1    0    0    0  0.18655372342E+02 -0.51049205262E+01 -0.19375047794E+02  0.97623447847E+02  0.93706253589E+02 0.  0.
         11    1    3    3    0    0  0.29466835789E+02 -0.44952728027E+02 -0.16542947493E+02  0.56237987878E+02  0.51100000000E-03 0. -1.
         22    1    1    0    0    0 -0.18655372342E+02  0.51049205262E+01  0.19375047794E+02  0.27376552153E+02  0.00000000000E+00 0. -1.
</event>
<event>
 5    1  0.1691145E-003  0.9118800E+02  0.7818608E-02  0.1130116E+00
         25   -1    0    0    0    0  0.00000000000E+00  0.00000000000E+00  0.99999998245E-14  0.12500000000E+03  0.12500000000E+03 0.  0.
        -11    1    3    3    0    0  0.58421683672E+02 -0.44881586290E+01 -0.14420069261E+02  0.60342150183E+02  0.51100000000E-03 0.  1.
         23    2    1    0    0    0  0.42865829327E+02  0.69446510343E+01 -0.70485017207E+01  0.81006945112E+02  0.68020116716E+02 0.  0.
         11    1    3    3    0    0 -0.15555854345E+02  0.11432809663E+02  0.73715675403E+01  0.20664794929E+02  0.51100000000E-03 0. -1.
         22    1    1    0    0    0 -0.42865829327E+02 -0.69446510343E+01  0.70485017207E+01  0.43993054888E+02  0.00000000000E+00 0.  1.
</event>
<event>
 5    1  0.1691145E-003  0.9118800E+02  0.7818608E-02  0.1130116E+00
         25   -1    0    0    0    0  0.00000000000E+00  0.00000000000E+00  0.99999998245E-14  0.12500000000E+03  0.12500000000E+03 0.  0.
        -11    1    3    3    0    0 -0.44628135680E+02  0.23668121511E+01 -0.37200095556E+02  0.58147393782E+02  0.51100000000E-03 0.  1.
         23    2    1    0    0    0 -0.28600162656E+02 -0.66685031642E+00 -0.27552379714E+01  0.96259691554E+02  0.91869052943E+02 0.  0.
         11    1    3    3    0    0  0.16027973024E+02 -0.30336624675E+01  0.34444857584E+02  0.38112297772E+02  0.51100000000E-03 0. -1.
         22    1    1    0    0    0  0.28600162656E+02  0.66685031642E+00  0.27552379714E+01  0.28740308446E+02  0.00000000000E+00 0.  1.
</event>
<event>
 5    1  0.1691145E-003  0.9118800E+02  0.7818608E-02  0.1130116E+00
         25   -1    0    0    0    0  0.00000000000E+00  0.00000000000E+00  0.99999998245E-14  0.12500000000E+03  0.12500000000E+03 0.  0.
        -11    1    3    3    0    0  0.30896406486E+02 -0.28031713955E+02 -0.12870015026E+02  0.43657785193E+02  0.51100000000E-03 0.  1.
         23    2    1    0    0    0  0.15842357987E+02  0.56801064162E+01  0.23902701865E+02  0.95766747155E+02  0.91195870459E+02 0.  0.
         11    1    3    3    0    0 -0.15054048499E+02  0.33711820371E+02  0.36772716891E+02  0.52108961961E+02  0.51100000000E-03 0. -1.
         22    1    1    0    0    0 -0.15842357987E+02 -0.56801064162E+01 -0.23902701865E+02  0.29233252845E+02  0.00000000000E+00 0.  1.
</event>
<event>
 5    1  0.1691145E-003  0.9118800E+02  0.7818608E-02  0.1130116E+00
         25   -1    0    0    0    0  0.00000000000E+00  0.00000000000E+00  0.99999998245E-14  0.12500000000E+03  0.12500000000E+03 0.  0.
        -11    1    3    3    0    0  0.38658528230E+02 -0.11799624124E+02  0.15585884019E+02  0.43320119059E+02  0.51100000000E-03 0. -1.
         23    2    1    0    0    0 -0.13236957855E+02  0.37747127923E+01  0.23189356138E+02  0.98033136111E+02  0.94251175207E+02 0.  0.
         11    1    3    3    0    0 -0.51895486085E+02  0.15574336916E+02  0.76034721191E+01  0.54713017052E+02  0.51100000000E-03 0.  1.
         22    1    1    0    0    0  0.13236957855E+02 -0.37747127923E+01 -0.23189356138E+02  0.26966863889E+02  0.00000000000E+00 0.  1.
</event>
<event>
 5    1  0.1691145E-003  0.9118800E+02  0.7818608E-02  0.1130116E+00
         25   -1    0    0    0    0  0.00000000000E+00  0.00000000000E+00  0.99999998245E-14  0.12500000000E+03  0.12500000000E+03 0.  0.
        -11    1    3    3    0    0 -0.19406170610E+02  0.36847682466E+01 -0.76471345046E+01  0.21181492893E+02  0.51100000000E-03 0.  1.
         23    2    1    0    0    0  0.11586146739E+02  0.94375391996E+01  0.42240961620E+02  0.80193697084E+02  0.66508828519E+02 0.  0.
         11    1    3    3    0    0  0.30992317349E+02  0.57527709530E+01  0.49888096125E+02  0.59012204191E+02  0.51100000000E-03 0. -1.
         22    1    1    0    0    0 -0.11586146739E+02 -0.94375391996E+01 -0.42240961620E+02  0.44806302916E+02  0.00000000000E+00 0. -1.
</event>
<event>
 5    1  0.1691145E-003  0.9118800E+02  0.7818608E-02  0.1130116E+00
         25   -1    0    0    0    0  0.00000000000E+00  0.00000000000E+00  0.99999998245E-14  0.12500000000E+03  0.12500000000E+03 0.  0.
        -11    1    3    3    0    0 -0.25589530612E+02 -0.33822478474E+02  0.40171264037E+02  0.58416732035E+02  0.51100000000E-03 0.  1.
         23    2    1    0    0    0 -0.98629701840E+00 -0.78538481607E+01  0.27525686004E+02  0.96358786640E+02  0.92003786117E+02 0.  0.
         11    1    3    3    0    0  0.24603233594E+02  0.25968630313E+02 -0.12645578032E+02  0.37942054605E+02  0.51100000000E-03 0. -1.
         22    1    1    0    0    0  0.98629701840E+00  0.78538481607E+01 -0.27525686004E+02  0.28641213360E+02  0.00000000000E+00 0.  1.
</event>
<event>
 5    1  0.1691145E-003  0.9118800E+02  0.7818608E-02  0.1130116E+00
         25   -1    0    0    0    0  0.00000000000E+00  0.00000000000E+00  0.99999998245E-14  0.12500000000E+03  0.12500000000E+03 0.  0.
        -11    1    3    3    0    0  0.42012227258E+02  0.43858507577E+02  0.64704285543E+01  0.61077511180E+02  0.51100000000E-03 0. -1.
         23    2    1    0    0    0  0.22068865817E+02  0.18066253253E+02 -0.57676646735E+01  0.95902056759E+02  0.91381147890E+02 0.  0.
         11    1    3    3    0    0 -0.19943361441E+02 -0.25792254323E+02 -0.12238093228E+02  0.34824545579E+02  0.51100000000E-03 0.  1.
         22    1    1    0    0    0 -0.22068865817E+02 -0.18066253253E+02  0.57676646735E+01  0.29097943241E+02  0.00000000000E+00 0. -1.
</event>
<event>
 5    1  0.1691145E-003  0.9118800E+02  0.7818608E-02  0.1130116E+00
         25   -1    0    0    0    0  0.00000000000E+00  0.00000000000E+00  0.99999998245E-14  0.12500000000E+03  0.12500000000E+03 0.  0.
        -11    1    3    3    0    0 -0.51557450199E+02 -0.38987914615E+01 -0.34206332938E+02  0.61995519671E+02  0.51100000000E-03 0. -1.
         23    2    1    0    0    0 -0.28887189053E+02  0.97816761845E-01 -0.12896724838E+02  0.93364501410E+02  0.87841478542E+02 0.  0.
         11    1    3    3    0    0  0.22670261146E+02  0.39966082233E+01  0.21309608100E+02  0.31368981739E+02  0.51100000000E-03 0.  1.
         22    1    1    0    0    0  0.28887189053E+02 -0.97816761845E-01  0.12896724838E+02  0.31635498590E+02  0.00000000000E+00 0. -1.
</event>
<event>
 5    1  0.1691145E-003  0.9118800E+02  0.7818608E-02  0.1130116E+00
         25   -1    0    0    0    0  0.00000000000E+00  0.00000000000E+00  0.99999998245E-14  0.12500000000E+03  0.12500000000E+03 0.  0.
        -11    1    3    3    0    0  0.22604793672E+02  0.48056402100E+02 -0.18770241271E+02  0.56326871362E+02  0.51100000000E-03 0. -1.
         23    2    1    0    0    0  0.25900376057E+02  0.11451591513E+02 -0.14067514068E+02  0.93379383622E+02  0.87862653644E+02 0.  0.
         11    1    3    3    0    0  0.32955823855E+01 -0.36604810587E+02  0.47027272036E+01  0.37052512260E+02  0.51100000000E-03 0.  1.
         22    1    1    0    0    0 -0.25900376057E+02 -0.11451591513E+02  0.14067514068E+02  0.31620616378E+02  0.00000000000E+00 0.  1.
</event>
<event>
 5    1  0.1691145E-003  0.9118800E+02  0.7818608E-02  0.1130116E+00
         25   -1    0    0    0    0  0.00000000000E+00  0.00000000000E+00  0.99999998245E-14  0.12500000000E+03  0.12500000000E+03 0.  0.
        -11    1    3    3    0    0  0.22639276571E+02  0.55672061832E+02 -0.68288008670E+01  0.60485930875E+02  0.51100000000E-03 0.  1.
         23    2    1    0    0    0  0.18151309280E+02  0.23643177957E+02  0.47069253129E+01  0.94823435610E+02  0.89893597672E+02 0.  0.
         11    1    3    3    0    0 -0.44879672902E+01 -0.32028883875E+02  0.11535726180E+02  0.34337504735E+02  0.51100000000E-03 0. -1.
         22    1    1    0    0    0 -0.18151309280E+02 -0.23643177957E+02 -0.47069253129E+01  0.30176564390E+02  0.00000000000E+00 0.  1.
</event>
<event>
 5    1  0.1691145E-003  0.9118800E+02  0.7818608E-02  0.1130116E+00
         25   -1    0    0    0    0  0.00000000000E+00  0.00000000000E+00  0.99999998245E-14  0.12500000000E+03  0.12500000000E+03 0.  0.
        -11    1    3    3    0    0 -0.29104455018E+02 -0.46996934153E+02 -0.26494150443E+02  0.61300253912E+02  0.51100000000E-03 0.  1.
         23    2    1    0    0    0 -0.12064093763E+02 -0.18496577330E+02 -0.20146780292E+02  0.95107551332E+02  0.90287805562E+02 0.  0.
         11    1    3    3    0    0  0.17040361256E+02  0.28500356823E+02  0.63473701517E+01  0.33807297421E+02  0.51100000000E-03 0. -1.
         22    1    1    0    0    0  0.12064093763E+02  0.18496577330E+02  0.20146780292E+02  0.29892448668E+02  0.00000000000E+00 0.  1.
</event>
<event>
 5    1  0.1691145E-003  0.9118800E+02  0.7818608E-02  0.1130116E+00
         25   -1    0    0    0    0  0.00000000000E+00  0.00000000000E+00  0.99999998245E-14  0.12500000000E+03  0.12500000000E+03 0.  0.
        -11    1    3    3    0    0 -0.24400017925E+02  0.23493114995E+02 -0.47310741072E+02  0.58185853503E+02  0.51100000000E-03 0. -1.
         23    2    1    0    0    0 -0.24998264433E+02  0.10811706201E+02 -0.12900924797E+02  0.94862978312E+02  0.89948566292E+02 0.  0.
         11    1    3    3    0    0 -0.59824650752E+00 -0.12681408794E+02  0.34409816275E+02  0.36677124808E+02  0.51100000000E-03 0.  1.
         22    1    1    0    0    0  0.24998264433E+02 -0.10811706201E+02  0.12900924797E+02  0.30137021688E+02  0.00000000000E+00 0. -1.
</event>
<event>
 5    1  0.1691145E-003  0.9118800E+02  0.7818608E-02  0.1130116E+00
         25   -1    0    0    0    0  0.00000000000E+00  0.00000000000E+00  0.99999998245E-14  0.12500000000E+03  0.12500000000E+03 0.  0.
        -11    1    3    3    0    0 -0.37528665239E+02  0.96224494613E+01  0.44371452757E+02  0.58905161644E+02  0.51100000000E-03 0. -1.
         23    2    1    0    0    0 -0.15997797560E+02 -0.10788981175E+02  0.18471518289E+02  0.98288043324E+02  0.94588640073E+02 0.  0.
         11    1    3    3    0    0  0.21530867679E+02 -0.20411430637E+02 -0.25899934468E+02  0.39382881679E+02  0.51100000000E-03 0.  1.
         22    1    1    0    0    0  0.15997797560E+02  0.10788981175E+02 -0.18471518289E+02  0.26711956676E+02  0.00000000000E+00 0. -1.
</event>
<event>
 5    1  0.1691145E-003  0.9118800E+02  0.7818608E-02  0.1130116E+00
         25   -1    0    0    0    0  0.00000000000E+00  0.00000000000E+00  0.99999998245E-14  0.12500000000E+03  0.12500000000E+03 0.  0.
        -11    1    3    3    0    0 -0.16568516630E+02  0.17426419050E+02  0.35092416492E+02  0.42540257636E+02  0.51100000000E-03 0. -1.
         23    2    1    0    0    0  0.13192664690E+02  0.22789789402E+02 -0.99984707494E+01  0.96832814838E+02  0.92645581166E+02 0.  0.
         11    1    3    3    0    0  0.29761181319E+02  0.53633703522E+01 -0.45090887242E+02  0.54292557202E+02  0.51100000000E-03 0.  1.
         22    1    1    0    0    0 -0.13192664690E+02 -0.22789789402E+02  0.99984707494E+01  0.28167185162E+02  0.00000000000E+00 0.  1.
</event>
<event>
 5    1  0.1691145E-003  0.9118800E+02  0.7818608E-02  0.1130116E+00
         25   -1    0    0    0    0  0.00000000000E+00  0.00000000000E+00  0.99999998245E-14  0.12500000000E+03  0.12500000000E+03 0.  0.
        -11    1    3    3    0    0  0.34054402186E+02  0.48544673341E+01  0.50720196138E+02  0.61284634762E+02  0.51100000000E-03 0. -1.
         23    2    1    0    0    0  0.23166663224E+02  0.45029003264E+00  0.19246887730E+02  0.94877919506E+02  0.89969327420E+02 0.  0.
         11    1    3    3    0    0 -0.10887738962E+02 -0.44041773015E+01 -0.31473308409E+02  0.33593284744E+02  0.51100000000E-03 0.  1.
         22    1    1    0    0    0 -0.23166663224E+02 -0.45029003264E+00 -0.19246887730E+02  0.30122080494E+02  0.00000000000E+00 0. -1.
</event>
<event>
 5    1  0.1691145E-003  0.9118800E+02  0.7818608E-02  0.1130116E+00
         25   -1    0    0    0    0  0.00000000000E+00  0.00000000000E+00  0.99999998245E-14  0.12500000000E+03  0.12500000000E+03 0.  0.
        -11    1    3    3    0    0 -0.37905545636E+02 -0.10747570804E+02 -0.26084866839E+02  0.47252099915E+02  0.51100000000E-03 0. -1.
         23    2    1    0    0    0 -0.41354002501E+01 -0.32381643295E+02 -0.72510662492E+01  0.91559750009E+02  0.85234602728E+02 0.  0.
         11    1    3    3    0    0  0.33770145386E+02 -0.21634072491E+02  0.18833800589E+02  0.44307650094E+02  0.51100000000E-03 0.  1.
         22    1    1    0    0    0  0.41354002501E+01  0.32381643295E+02  0.72510662492E+01  0.33440249991E+02  0.00000000000E+00 0. -1.
</event>
<event>
 5    1  0.1691145E-003  0.9118800E+02  0.7818608E-02  0.1130116E+00
         25   -1    0    0    0    0  0.00000000000E+00  0.00000000000E+00  0.99999998245E-14  0.12500000000E+03  0.12500000000E+03 0.  0.
        -11    1    3    3    0    0  0.54653731270E+02 -0.21083127238E+02  0.24885472329E+01  0.58632085614E+02  0.51100000000E-03 0.  1.
         23    2    1    0    0    0  0.15918089582E+02 -0.22223254781E+02 -0.17056223741E+01  0.97610809126E+02  0.93689392578E+02 0.  0.
         11    1    3    3    0    0 -0.38735641687E+02 -0.11401275436E+01 -0.41941696070E+01  0.38978723513E+02  0.51100000000E-03 0. -1.
         22    1    1    0    0    0 -0.15918089582E+02  0.22223254781E+02  0.17056223741E+01  0.27389190874E+02  0.00000000000E+00 0.  1.
</event>
<event>
 5    1  0.1691145E-003  0.9118800E+02  0.7818608E-02  0.1130116E+00
         25   -1    0    0    0    0  0.00000000000E+00  0.00000000000E+00  0.99999998245E-14  0.12500000000E+03  0.12500000000E+03 0.  0.
        -11    1    3    3    0    0  0.18910384204E+02 -0.13853365244E+02  0.41286875635E+02  0.47477620615E+02  0.51100000000E-03 0.  1.
         23    2    1    0    0    0  0.17018367673E+02 -0.36641693730E+02  0.16065006181E+02  0.81522155283E+02  0.68960414882E+02 0.  0.
         11    1    3    3    0    0 -0.18920165313E+01 -0.22788328487E+02 -0.25221869453E+02  0.34044534668E+02  0.51100000000E-03 0. -1.
         22    1    1    0    0    0 -0.17018367673E+02  0.36641693730E+02 -0.16065006181E+02  0.43477844717E+02  0.00000000000E+00 0.  1.
</event>
<event>
 5    1  0.1691145E-003  0.9118800E+02  0.7818608E-02  0.1130116E+00
         25   -1    0    0    0    0  0.00000000000E+00  0.00000000000E+00  0.99999998245E-14  0.12500000000E+03  0.12500000000E+03 0.  0.
        -11    1    3    3    0    0 -0.12383454700E+02  0.11595527959E+02 -0.53870942482E+02  0.56479063937E+02  0.51100000000E-03 0.  1.
         23    2    1    0    0    0 -0.21283762356E+02 -0.52550360615E+01 -0.20091835621E+02  0.95262888461E+02  0.90502608335E+02 0.  0.
         11    1    3    3    0    0 -0.89003076557E+01 -0.16850564021E+02  0.33779106861E+02  0.38783824525E+02  0.51100000000E-03 0. -1.
         22    1    1    0    0    0  0.21283762356E+02  0.52550360615E+01  0.20091835621E+02  0.29737111539E+02  0.00000000000E+00 0.  1.
</event>
<event>
 5    1  0.1691145E-003  0.9118800E+02  0.7818608E-02  0.1130116E+00
         25   -1    0    0    0    0  0.00000000000E+00  0.00000000000E+00  0.99999998245E-14  0.12500000000E+03  0.12500000000E+03 0.  0.
        -11    1    3    3    0    0 -0.25409145719E+02  0.25265672622E+02 -0.36583310268E+02  0.51208568518E+02  0.51100000000E-03 0.  1.
         23    2    1    0    0    0 -0.11628544479E+02 -0.12162484327E+02 -0.28498889324E+02  0.91904142791E+02  0.85738181096E+02 0.  0.
         11    1    3    3    0    0  0.13780601240E+02 -0.37428156949E+02  0.80844209441E+01  0.40695574273E+02  0.51100000000E-03 0. -1.
         22    1    1    0    0    0  0.11628544479E+02  0.12162484327E+02  0.28498889324E+02  0.33095857209E+02  0.00000000000E+00 0.  1.
</event>
<event>
 5    1  0.1691145E-003  0.9118800E+02  0.7818608E-02  0.1130116E+00
         25   -1    0    0    0    0  0.00000000000E+00  0.00000000000E+00  0.99999998245E-14  0.12500000000E+03  0.12500000000E+03 0.  0.
        -11    1    3    3    0    0 -0.16615935226E+02  0.29328212433E+02 -0.48655757954E+01  0.34057410002E+02  0.51100000000E-03 0. -1.
         23    2    1    0    0    0  0.13149234492E+02 -0.14058708681E+02 -0.27580051298E+02  0.91366551067E+02  0.84950796152E+02 0.  0.
         11    1    3    3    0    0  0.29765169718E+02 -0.43386921114E+02 -0.22714475503E+02  0.57309141066E+02  0.51100000000E-03 0.  1.
         22    1    1    0    0    0 -0.13149234492E+02  0.14058708681E+02  0.27580051298E+02  0.33633448933E+02  0.00000000000E+00 0.  1.
</event>
<event>
 5    1  0.1691145E-003  0.9118800E+02  0.7818608E-02  0.1130116E+00
         25   -1    0    0    0    0  0.00000000000E+00  0.00000000000E+00  0.99999998245E-14  0.12500000000E+03  0.12500000000E+03 0.  0.
        -11    1    3    3    0    0  0.61492033645E+01 -0.32371912115E+02  0.13456987547E+02  0.35592750808E+02  0.51100000000E-03 0. -1.
         23    2    1    0    0    0 -0.17147849492E+02  0.22782671243E+02  0.45184053630E+01  0.96129342956E+02  0.91691524902E+02 0.  0.
         11    1    3    3    0    0 -0.23297052857E+02  0.55154583357E+02 -0.89385821839E+01  0.60536592148E+02  0.51100000000E-03 0.  1.
         22    1    1    0    0    0  0.17147849492E+02 -0.22782671243E+02 -0.45184053630E+01  0.28870657044E+02  0.00000000000E+00 0.  1.
</event>
<event>
 5    1  0.1691145E-003  0.9118800E+02  0.7818608E-02  0.1130116E+00
         25   -1    0    0    0    0  0.00000000000E+00  0.00000000000E+00  0.99999998245E-14  0.12500000000E+03  0.12500000000E+03 0.  0.
        -11    1    3    3    0    0  0.49825082317E+02  0.25987066033E+02 -0.55629409065E+01  0.56469573584E+02  0.51100000000E-03 0.  1.
         23    2    1    0    0    0  0.10646892661E+02  0.26680862700E+02  0.12700392054E+01  0.96245213315E+02  0.91849351270E+02 0.  0.
         11    1    3    3    0    0 -0.39178189656E+02  0.69379666641E+00  0.68329801119E+01  0.39775639731E+02  0.51100000000E-03 0. -1.
         22    1    1    0    0    0 -0.10646892661E+02 -0.26680862700E+02 -0.12700392054E+01  0.28754786685E+02  0.00000000000E+00 0.  1.
</event>
<event>
 5    1  0.1691145E-003  0.9118800E+02  0.7818608E-02  0.1130116E+00
         25   -1    0    0    0    0  0.00000000000E+00  0.00000000000E+00  0.99999998245E-14  0.12500000000E+03  0.12500000000E+03 0.  0.
        -11    1    3    3    0    0 -0.13259291086E+02 -0.23991696903E+02  0.23901658702E+02  0.36368937424E+02  0.51100000000E-03 0.  1.
         23    2    1    0    0    0  0.24621614857E+02 -0.26524965310E+01 -0.16110941283E+02  0.95456437502E+02  0.90769539911E+02 0.  0.
         11    1    3    3    0    0  0.37880905943E+02  0.21339200372E+02 -0.40012599985E+02  0.59087500078E+02  0.51100000000E-03 0. -1.
         22    1    1    0    0    0 -0.24621614857E+02  0.26524965310E+01  0.16110941283E+02  0.29543562498E+02  0.00000000000E+00 0. -1.
</event>
<event>
 5    1  0.1691145E-003  0.9118800E+02  0.7818608E-02  0.1130116E+00
         25   -1    0    0    0    0  0.00000000000E+00  0.00000000000E+00  0.99999998245E-14  0.12500000000E+03  0.12500000000E+03 0.  0.
        -11    1    3    3    0    0 -0.36245807376E+02 -0.66205339684E+01 -0.55862499500E+01  0.37266556202E+02  0.51100000000E-03 0. -1.
         23    2    1    0    0    0  0.14311751543E+02  0.41624346706E+01  0.23940105936E+02  0.96799277193E+02  0.92600320185E+02 0.  0.
         11    1    3    3    0    0  0.50557558919E+02  0.10782968639E+02  0.29526355886E+02  0.59532720992E+02  0.51100000000E-03 0.  1.
         22    1    1    0    0    0 -0.14311751543E+02 -0.41624346706E+01 -0.23940105936E+02  0.28200722807E+02  0.00000000000E+00 0.  1.
</event>
<event>
 5    1  0.1691145E-003  0.9118800E+02  0.7818608E-02  0.1130116E+00
         25   -1    0    0    0    0  0.00000000000E+00  0.00000000000E+00  0.99999998245E-14  0.12500000000E+03  0.12500000000E+03 0.  0.
        -11    1    3    3    0    0 -0.51925924891E+02  0.63921353041E+01  0.19906012042E+02  0.55976873664E+02  0.51100000000E-03 0.  1.
         23    2    1    0    0    0 -0.18616298761E+02  0.20029378581E+02 -0.10663149367E+01  0.97634335136E+02  0.93720775626E+02 0.  0.
         11    1    3    3    0    0  0.33309626130E+02  0.13637243277E+02 -0.20972326979E+02  0.41657461472E+02  0.51100000000E-03 0. -1.
         22    1    1    0    0    0  0.18616298761E+02 -0.20029378581E+02  0.10663149367E+01  0.27365664864E+02  0.00000000000E+00 0.  1.
</event>
<event>
 5    1  0.1691145E-003  0.9118800E+02  0.7818608E-02  0.1130116E+00
         25   -1    0    0    0    0  0.00000000000E+00  0.00000000000E+00  0.99999998245E-14  0.12500000000E+03  0.12500000000E+03 0.  0.
        -11    1    3    3    0    0 -0.87527625083E+01  0.34860709339E+02  0.53275805453E+01  0.36335423789E+02  0.51100000000E-03 0.  1.
         23    2    1    0    0    0  0.25689806771E+02 -0.12324365176E+02 -0.61002885015E+01  0.95861199943E+02  0.91325242873E+02 0.  0.
         11    1    3    3    0    0  0.34442569280E+02 -0.47185074515E+02 -0.11427869047E+02  0.59525776155E+02  0.51100000000E-03 0. -1.
         22    1    1    0    0    0 -0.25689806771E+02  0.12324365176E+02  0.61002885015E+01  0.29138800057E+02  0.00000000000E+00 0. -1.
</event>
<event>
 5    1  0.1691145E-003  0.9118800E+02  0.7818608E-02  0.1130116E+00
         25   -1    0    0    0    0  0.00000000000E+00  0.00000000000E+00  0.99999998245E-14  0.12500000000E+03  0.12500000000E+03 0.  0.
        -11    1    3    3    0    0 -0.14815105594E+02  0.22939579602E+02 -0.48688874059E+02  0.55823992364E+02  0.51100000000E-03 0. -1.
         23    2    1    0    0    0 -0.18098358660E+02 -0.66301129587E+01 -0.21464130803E+02  0.96151812966E+02  0.91722152403E+02 0.  0.
         11    1    3    3    0    0 -0.32832530656E+01 -0.29569692561E+02  0.27224743257E+02  0.40327820602E+02  0.51100000000E-03 0.  1.
         22    1    1    0    0    0  0.18098358660E+02  0.66301129587E+01  0.21464130803E+02  0.28848187034E+02  0.00000000000E+00 0. -1.
</event>
<event>
 5    1  0.1691145E-003  0.9118800E+02  0.7818608E-02  0.1130116E+00
         25   -1    0    0    0    0  0.00000000000E+00  0.00000000000E+00  0.99999998245E-14  0.12500000000E+03  0.12500000000E+03 0.  0.
        -11    1    3    3    0    0  0.33548960320E+02  0.39801639570E+02 -0.33820092353E+02  0.62076580914E+02  0.51100000000E-03 0. -1.
         23    2    1    0    0    0  0.98397566697E+01  0.19342291369E+02 -0.15111826985E+02  0.98555485227E+02  0.94941409863E+02 0.  0.
         11    1    3    3    0    0 -0.23709203651E+02 -0.20459348201E+02  0.18708265368E+02  0.36478904313E+02  0.51100000000E-03 0.  1.
         22    1    1    0    0    0 -0.98397566697E+01 -0.19342291369E+02  0.15111826985E+02  0.26444514773E+02  0.00000000000E+00 0. -1.
</event>
<event>
 5    1  0.1691145E-003  0.9118800E+02  0.7818608E-02  0.1130116E+00
         25   -1    0    0    0    0  0.00000000000E+00  0.00000000000E+00  0.99999998245E-14  0.12500000000E+03  0.12500000000E+03 0.  0.
        -11    1    3    3    0    0  0.44115984938E+02 -0.17924481829E+02  0.34855225553E+01  0.47745743723E+02  0.51100000000E-03 0.  1.
         23    2    1    0    0    0  0.35140220585E+01 -0.28976261780E+02  0.16087693303E+02  0.91671544086E+02  0.85398395896E+02 0.  0.
         11    1    3    3    0    0 -0.40601962880E+02 -0.11051779951E+02  0.12602170747E+02  0.43925800364E+02  0.51100000000E-03 0. -1.
         22    1    1    0    0    0 -0.35140220585E+01  0.28976261780E+02 -0.16087693303E+02  0.33328455914E+02  0.00000000000E+00 0.  1.
</event>
<event>
 5    1  0.1691145E-003  0.9118800E+02  0.7818608E-02  0.1130116E+00
         25   -1    0    0    0    0  0.00000000000E+00  0.00000000000E+00  0.99999998245E-14  0.12500000000E+03  0.12500000000E+03 0.  0.
        -11    1    3    3    0    0 -0.20621387425E+02  0.25044119213E+02 -0.41796044138E+01  0.32709610511E+02  0.51100000000E-03 0. -1.
         23    2    1    0    0    0  0.30146414079E+02 -0.62000942561E+01 -0.10083036466E+02  0.92613041591E+02  0.86765548450E+02 0.  0.
         11    1    3    3    0    0  0.50767801504E+02 -0.31244213469E+02 -0.59034320517E+01  0.59903431080E+02  0.51100000000E-03 0.  1.
         22    1    1    0    0    0 -0.30146414079E+02  0.62000942561E+01  0.10083036466E+02  0.32386958409E+02  0.00000000000E+00 0.  1.
</event>
<event>
 5    1  0.1691145E-003  0.9118800E+02  0.7818608E-02  0.1130116E+00
         25   -1    0    0    0    0  0.00000000000E+00  0.00000000000E+00  0.99999998245E-14  0.12500000000E+03  0.12500000000E+03 0.  0.
        -11    1    3    3    0    0 -0.21654517782E+01  0.30263403729E+01  0.44704233486E+02  0.44858849844E+02  0.51100000000E-03 0. -1.
         23    2    1    0    0    0 -0.43991072770E+01  0.28829505114E+02  0.80872732557E+00  0.95825583984E+02  0.91276481068E+02 0.  0.
         11    1    3    3    0    0 -0.22336554988E+01  0.25803164741E+02 -0.43895506161E+02  0.50966734140E+02  0.51100000000E-03 0.  1.
         22    1    1    0    0    0  0.43991072770E+01 -0.28829505114E+02 -0.80872732557E+00  0.29174416016E+02  0.00000000000E+00 0. -1.
</event>
<event>
 5    1  0.1691145E-003  0.9118800E+02  0.7818608E-02  0.1130116E+00
         25   -1    0    0    0    0  0.00000000000E+00  0.00000000000E+00  0.99999998245E-14  0.12500000000E+03  0.12500000000E+03 0.  0.
        -11    1    3    3    0    0  0.35288281342E+01  0.61341176413E+02  0.60055264041E+01  0.61735394219E+02  0.51100000000E-03 0.  1.
         23    2    1    0    0    0 -0.52475956383E+01  0.28720879094E+02  0.30519532805E+01  0.95644581850E+02  0.91028267382E+02 0.  0.
         11    1    3    3    0    0 -0.87764237725E+01 -0.32620297318E+02 -0.29535731237E+01  0.33909187631E+02  0.51100000000E-03 0. -1.
         22    1    1    0    0    0  0.52475956383E+01 -0.28720879094E+02 -0.30519532805E+01  0.29355418150E+02  0.00000000000E+00 0.  1.
</event>
<event>
 5    1  0.1691145E-003  0.9118800E+02  0.7818608E-02  0.1130116E+00
         25   -1    0    0    0    0  0.00000000000E+00  0.00000000000E+00  0.99999998245E-14  0.12500000000E+03  0.12500000000E+03 0.  0.
        -11    1    3    3    0    0  0.12685073701E+02  0.68943633569E+01 -0.30879222642E+02  0.34087677130E+02  0.51100000000E-03 0.  1.
         23    2    1    0    0    0 -0.51515043870E+00 -0.13026505412E+02  0.26072419682E+02  0.95849934969E+02  0.91309822814E+02 0.  0.
         11    1    3    3    0    0 -0.13200224139E+02 -0.19920868769E+02  0.56951642324E+02  0.61762257840E+02  0.51100000000E-03 0. -1.
         22    1    1    0    0    0  0.51515043870E+00  0.13026505412E+02 -0.26072419682E+02  0.29150065031E+02  0.00000000000E+00 0. -1.
</event>
<event>
 5    1  0.1691145E-003  0.9118800E+02  0.7818608E-02  0.1130116E+00
         25   -1    0    0    0    0  0.00000000000E+00  0.00000000000E+00  0.99999998245E-14  0.12500000000E+03  0.12500000000E+03 0.  0.
        -11    1    3    3    0    0  0.20115050305E+02  0.10706988468E+02  0.55594526619E+02  0.60083327480E+02  0.51100000000E-03 0.  1.
         23    2    1    0    0    0  0.13663670241E+02  0.13716799245E+02  0.17293928293E+02  0.99039907131E+02  0.95577072474E+02 0.  0.
         11    1    3    3    0    0 -0.64513800640E+01  0.30098107767E+01 -0.38300598326E+02  0.38956579650E+02  0.51100000000E-03 0. -1.
         22    1    1    0    0    0 -0.13663670241E+02 -0.13716799245E+02 -0.17293928293E+02  0.25960092869E+02  0.00000000000E+00 0.  1.
</event>
<event>
 5    1  0.1691145E-003  0.9118800E+02  0.7818608E-02  0.1130116E+00
         25   -1    0    0    0    0  0.00000000000E+00  0.00000000000E+00  0.99999998245E-14  0.12500000000E+03  0.12500000000E+03 0.  0.
        -11    1    3    3    0    0 -0.28404707229E+02 -0.20861911149E+02  0.30657274197E+02  0.46710975059E+02  0.51100000000E-03 0.  1.
         23    2    1    0    0    0 -0.23237100895E+02  0.20069984406E+02  0.11313249628E+02  0.92277580328E+02  0.86280907981E+02 0.  0.
         11    1    3    3    0    0  0.51676063345E+01  0.40931895555E+02 -0.19344024569E+02  0.45566605269E+02  0.51100000000E-03 0. -1.
         22    1    1    0    0    0  0.23237100895E+02 -0.20069984406E+02 -0.11313249628E+02  0.32722419672E+02  0.00000000000E+00 0.  1.
</event>
<event>
 5    1  0.1691145E-003  0.9118800E+02  0.7818608E-02  0.1130116E+00
         25   -1    0    0    0    0  0.00000000000E+00  0.00000000000E+00  0.99999998245E-14  0.12500000000E+03  0.12500000000E+03 0.  0.
        -11    1    3    3    0    0 -0.32469934136E+02 -0.10733835939E+02  0.42263891300E+02  0.54366794690E+02  0.51100000000E-03 0. -1.
         23    2    1    0    0    0 -0.16131476540E+01  0.12238462878E+02  0.26166180483E+02  0.96068162518E+02  0.91608081683E+02 0.  0.
         11    1    3    3    0    0  0.30856786482E+02  0.22972298818E+02 -0.16097710817E+02  0.41701367829E+02  0.51100000000E-03 0.  1.
         22    1    1    0    0    0  0.16131476540E+01 -0.12238462878E+02 -0.26166180483E+02  0.28931837482E+02  0.00000000000E+00 0. -1.
</event>
<event>
 5    1  0.1691145E-003  0.9118800E+02  0.7818608E-02  0.1130116E+00
         25   -1    0    0    0    0  0.00000000000E+00  0.00000000000E+00  0.99999998245E-14  0.12500000000E+03  0.12500000000E+03 0.  0.
        -11    1    3    3    0    0 -0.33751554225E+02  0.23945042331E+02 -0.12572566890E+02  0.43250455527E+02  0.51100000000E-03 0.  1.
         23    2    1    0    0    0  0.20748801226E+02  0.14263296873E+02 -0.68952015581E+01  0.98894479615E+02  0.95386686198E+02 0.  0.
         11    1    3    3    0    0  0.54500355451E+02 -0.96817454575E+01  0.56773653320E+01  0.55644024089E+02  0.51100000000E-03 0. -1.
         22    1    1    0    0    0 -0.20748801226E+02 -0.14263296873E+02  0.68952015581E+01  0.26105520385E+02  0.00000000000E+00 0. -1.
</event>
<event>
 5    1  0.1691145E-003  0.9118800E+02  0.7818608E-02  0.1130116E+00
         25   -1    0    0    0    0  0.00000000000E+00  0.00000000000E+00  0.99999998245E-14  0.12500000000E+03  0.12500000000E+03 0.  0.
        -11    1    3    3    0    0 -0.13640484735E+02 -0.10164266606E+02 -0.36384856533E+02  0.40165070952E+02  0.51100000000E-03 0.  1.
         23    2    1    0    0    0 -0.14651925351E+01  0.29206042776E+02  0.90678230808E+00  0.95743172114E+02  0.91163550986E+02 0.  0.
         11    1    3    3    0    0  0.12175292200E+02  0.39370309382E+02  0.37291638841E+02  0.55578101161E+02  0.51100000000E-03 0. -1.
         22    1    1    0    0    0  0.14651925351E+01 -0.29206042776E+02 -0.90678230808E+00  0.29256827886E+02  0.00000000000E+00 0. -1.
</event>
<event>
 5    1  0.1691145E-003  0.9118800E+02  0.7818608E-02  0.1130116E+00
         25   -1    0    0    0    0  0.00000000000E+00  0.00000000000E+00  0.99999998245E-14  0.12500000000E+03  0.12500000000E+03 0.  0.
        -11    1    3    3    0    0  0.48044493656E+01  0.85614602693E+01 -0.38185189215E+02  0.39427021334E+02  0.51100000000E-03 0.  1.
         23    2    1    0    0    0  0.31632940654E+01 -0.29414302579E+02  0.27496634728E+01  0.95288583427E+02  0.90538090640E+02 0.  0.
         11    1    3    3    0    0 -0.16411553003E+01 -0.37975762848E+02  0.40934852688E+02  0.55861562093E+02  0.51100000000E-03 0. -1.
         22    1    1    0    0    0 -0.31632940654E+01  0.29414302579E+02 -0.27496634728E+01  0.29711416573E+02  0.00000000000E+00 0.  1.
</event>
<event>
 5    1  0.1691145E-003  0.9118800E+02  0.7818608E-02  0.1130116E+00
         25   -1    0    0    0    0  0.00000000000E+00  0.00000000000E+00  0.99999998245E-14  0.12500000000E+03  0.12500000000E+03 0.  0.
        -11    1    3    3    0    0 -0.82532358697E+01 -0.15947950865E+02  0.18643541785E+02  0.25885028292E+02  0.51100000000E-03 0.  1.
         23    2    1    0    0    0 -0.38579577724E+02  0.20130867119E+02 -0.90536558622E+01  0.80552229383E+02  0.67179292537E+02 0.  0.
         11    1    3    3    0    0 -0.30326341855E+02  0.36078817984E+02 -0.27697197647E+02  0.54667201091E+02  0.51100000000E-03 0. -1.
         22    1    1    0    0    0  0.38579577724E+02 -0.20130867119E+02  0.90536558622E+01  0.44447770617E+02  0.00000000000E+00 0. -1.
</event>
<event>
 5    1  0.1691145E-003  0.9118800E+02  0.7818608E-02  0.1130116E+00
         25   -1    0    0    0    0  0.00000000000E+00  0.00000000000E+00  0.99999998245E-14  0.12500000000E+03  0.12500000000E+03 0.  0.
        -11    1    3    3    0    0  0.58946081063E+02  0.18148972639E+02 -0.94500550834E+01  0.62396548157E+02  0.51100000000E-03 0.  1.
         23    2    1    0    0    0  0.23837183890E+02  0.67978648991E+01 -0.13357557699E+01  0.10017649206E+03  0.97052166461E+02 0.  0.
         11    1    3    3    0    0 -0.35108897173E+02 -0.11351107740E+02  0.81142993136E+01  0.37779943902E+02  0.51100000000E-03 0. -1.
         22    1    1    0    0    0 -0.23837183890E+02 -0.67978648991E+01  0.13357557699E+01  0.24823507941E+02  0.00000000000E+00 0.  1.
</event>
<event>
 5    1  0.1691145E-003  0.9118800E+02  0.7818608E-02  0.1130116E+00
         25   -1    0    0    0    0  0.00000000000E+00  0.00000000000E+00  0.99999998245E-14  0.12500000000E+03  0.12500000000E+03 0.  0.
        -11    1    3    3    0    0  0.31565149806E+02 -0.29573112144E+02  0.39489867411E+02  0.58569422675E+02  0.51100000000E-03 0. -1.
         23    2    1    0    0    0  0.39055400546E+00 -0.18074952970E+02  0.23235342105E+02  0.95559592733E+02  0.90911485430E+02 0.  0.
         11    1    3    3    0    0 -0.31174595800E+02  0.11498159173E+02 -0.16254525306E+02  0.36990170057E+02  0.51100000000E-03 0.  1.
         22    1    1    0    0    0 -0.39055400546E+00  0.18074952970E+02 -0.23235342105E+02  0.29440407267E+02  0.00000000000E+00 0. -1.
</event>
<event>
 5    1  0.1691145E-003  0.9118800E+02  0.7818608E-02  0.1130116E+00
         25   -1    0    0    0    0  0.00000000000E+00  0.00000000000E+00  0.99999998245E-14  0.12500000000E+03  0.12500000000E+03 0.  0.
        -11    1    3    3    0    0  0.44651759069E+02 -0.14873102378E+02 -0.20222306583E+02  0.51224314989E+02  0.51100000000E-03 0.  1.
         23    2    1    0    0    0  0.47338366067E+01  0.43463441271E+01 -0.28057757960E+02  0.96215669227E+02  0.91809135203E+02 0.  0.
         11    1    3    3    0    0 -0.39917922462E+02  0.19219446506E+02 -0.78354513768E+01  0.44991354238E+02  0.51100000000E-03 0. -1.
         22    1    1    0    0    0 -0.47338366067E+01 -0.43463441271E+01  0.28057757960E+02  0.28784330773E+02  0.00000000000E+00 0.  1.
</event>
<event>
 4    1  0.1691145E-003  0.9118800E+02  0.7818608E-02  0.1130116E+00
         25   -1    0    0    0    0  0.00000000000E+00  0.00000000000E+00  0.99999998245E-14  0.12500000000E+03  0.12500000000E+03 0.  0.
        -11    1    1    0    0    0 -0.52622412731E+01 -0.80549540493E+01  0.27553451963E+01  0.10008266352E+02  0.51100000000E-03 0.  1.
         11    1    1    0    0    0  0.57333183372E+01  0.24121874955E+02  0.52170398277E+02  0.57762325500E+02  0.51100000000E-03 0. -1.
         22    1    1    0    0    0 -0.47107706406E+00 -0.16066920906E+02 -0.54925743473E+02  0.57229408149E+02  0.00000000000E+00 0. -1.
</event>
<event>
 5    1  0.1691145E-003  0.9118800E+02  0.7818608E-02  0.1130116E+00
         25   -1    0    0    0    0  0.00000000000E+00  0.00000000000E+00  0.99999998245E-14  0.12500000000E+03  0.12500000000E+03 0.  0.
        -11    1    3    3    0    0  0.32829720241E+02  0.13526527468E+02  0.34202011936E+02  0.49300457373E+02  0.51100000000E-03 0. -1.
         23    2    1    0    0    0  0.27459355390E+02 -0.13716173576E+02 -0.11870743966E+01  0.94282598391E+02  0.89138373317E+02 0.  0.
         11    1    3    3    0    0 -0.53703648515E+01 -0.27242701044E+02 -0.35389086332E+02  0.44982141018E+02  0.51100000000E-03 0.  1.
         22    1    1    0    0    0 -0.27459355390E+02  0.13716173576E+02  0.11870743966E+01  0.30717401609E+02  0.00000000000E+00 0. -1.
</event>
<event>
 5    1  0.1691145E-003  0.9118800E+02  0.7818608E-02  0.1130116E+00
         25   -1    0    0    0    0  0.00000000000E+00  0.00000000000E+00  0.99999998245E-14  0.12500000000E+03  0.12500000000E+03 0.  0.
        -11    1    3    3    0    0  0.19691835683E+02  0.43291653053E+02 -0.24467736171E+02  0.53484630785E+02  0.51100000000E-03 0. -1.
         23    2    1    0    0    0 -0.14028965665E+02  0.18063111505E+02 -0.17569131287E+02  0.96159711357E+02  0.91732915789E+02 0.  0.
         11    1    3    3    0    0 -0.33720801348E+02 -0.25228541549E+02  0.68986048835E+01  0.42675080572E+02  0.51100000000E-03 0.  1.
         22    1    1    0    0    0  0.14028965665E+02 -0.18063111505E+02  0.17569131287E+02  0.28840288643E+02  0.00000000000E+00 0.  1.
</event>
<event>
 5    1  0.1691145E-003  0.9118800E+02  0.7818608E-02  0.1130116E+00
         25   -1    0    0    0    0  0.00000000000E+00  0.00000000000E+00  0.99999998245E-14  0.12500000000E+03  0.12500000000E+03 0.  0.
        -11    1    3    3    0    0  0.34921701038E+02 -0.23438695846E+02 -0.22867387246E+01  0.42120385096E+02  0.51100000000E-03 0. -1.
         23    2    1    0    0    0 -0.17727958303E+02 -0.17511878146E+02 -0.14050658008E+02  0.96392878994E+02  0.92050093691E+02 0.  0.
         11    1    3    3    0    0 -0.52649659341E+02  0.59268177006E+01 -0.11763919283E+02  0.54272493899E+02  0.51100000000E-03 0.  1.
         22    1    1    0    0    0  0.17727958303E+02  0.17511878146E+02  0.14050658008E+02  0.28607121006E+02  0.00000000000E+00 0. -1.
</event>
<event>
 5    1  0.1691145E-003  0.9118800E+02  0.7818608E-02  0.1130116E+00
         25   -1    0    0    0    0  0.00000000000E+00  0.00000000000E+00  0.99999998245E-14  0.12500000000E+03  0.12500000000E+03 0.  0.
        -11    1    3    3    0    0 -0.23211093090E+02  0.23136574014E+02  0.74084977128E+01  0.33599728245E+02  0.51100000000E-03 0. -1.
         23    2    1    0    0    0  0.24594391467E+02 -0.15891249546E+02  0.34180796518E+00  0.95716340112E+02  0.91126752537E+02 0.  0.
         11    1    3    3    0    0  0.47805484556E+02 -0.39027823560E+02 -0.70666897477E+01  0.62116611867E+02  0.51100000000E-03 0.  1.
         22    1    1    0    0    0 -0.24594391467E+02  0.15891249546E+02 -0.34180796518E+00  0.29283659888E+02  0.00000000000E+00 0.  1.
</event>
<event>
 5    1  0.1691145E-003  0.9118800E+02  0.7818608E-02  0.1130116E+00
         25   -1    0    0    0    0  0.00000000000E+00  0.00000000000E+00  0.99999998245E-14  0.12500000000E+03  0.12500000000E+03 0.  0.
        -11    1    3    3    0    0 -0.20247480766E+02 -0.24808382745E+02  0.45448083225E+02  0.55596264271E+02  0.51100000000E-03 0.  1.
         23    2    1    0    0    0 -0.61170899939E+01 -0.25087932123E+02  0.46646441673E+01  0.98759153341E+02  0.95209181990E+02 0.  0.
         11    1    3    3    0    0  0.14130390773E+02 -0.27954937751E+00 -0.40783439058E+02  0.43162889070E+02  0.51100000000E-03 0. -1.
         22    1    1    0    0    0  0.61170899939E+01  0.25087932123E+02 -0.46646441673E+01  0.26240846659E+02  0.00000000000E+00 0. -1.
</event>
<event>
 5    1  0.1691145E-003  0.9118800E+02  0.7818608E-02  0.1130116E+00
         25   -1    0    0    0    0  0.00000000000E+00  0.00000000000E+00  0.99999998245E-14  0.12500000000E+03  0.12500000000E+03 0.  0.
        -11    1    3    3    0    0  0.29269800201E+02 -0.19169618259E+02 -0.24552827600E+02  0.42743851153E+02  0.51100000000E-03 0. -1.
         23    2    1    0    0    0  0.14248230875E+02  0.25957466918E+02 -0.21678115768E+01  0.95309907732E+02  0.90567526923E+02 0.  0.
         11    1    3    3    0    0 -0.15021569326E+02  0.45127085177E+02  0.22385016024E+02  0.52566056579E+02  0.51100000000E-03 0.  1.
         22    1    1    0    0    0 -0.14248230875E+02 -0.25957466918E+02  0.21678115768E+01  0.29690092268E+02  0.00000000000E+00 0.  1.
</event>
<event>
 5    1  0.1691145E-003  0.9118800E+02  0.7818608E-02  0.1130116E+00
         25   -1    0    0    0    0  0.00000000000E+00  0.00000000000E+00  0.99999998245E-14  0.12500000000E+03  0.12500000000E+03 0.  0.
        -11    1    3    3    0    0  0.31085248148E+02 -0.17101331713E+02  0.25075441064E+02  0.43445666569E+02  0.51100000000E-03 0.  1.
         23    2    1    0    0    0  0.19388444110E+02  0.38082588786E+01 -0.21486102254E+02  0.95809810025E+02  0.91254876616E+02 0.  0.
         11    1    3    3    0    0 -0.11696804038E+02  0.20909590591E+02 -0.46561543319E+02  0.52364143456E+02  0.51100000000E-03 0. -1.
         22    1    1    0    0    0 -0.19388444110E+02 -0.38082588786E+01  0.21486102254E+02  0.29190189975E+02  0.00000000000E+00 0. -1.
</event>
<event>
 5    1  0.1691145E-003  0.9118800E+02  0.7818608E-02  0.1130116E+00
         25   -1    0    0    0    0  0.00000000000E+00  0.00000000000E+00  0.99999998245E-14  0.12500000000E+03  0.12500000000E+03 0.  0.
        -11    1    3    3    0    0  0.43678591129E+02 -0.28627209834E+01  0.20514111556E+02  0.48340906773E+02  0.51100000000E-03 0. -1.
         23    2    1    0    0    0  0.13704924121E+02 -0.17867070161E+02 -0.15594502362E+02  0.97609387645E+02  0.93687496024E+02 0.  0.
         11    1    3    3    0    0 -0.29973667008E+02 -0.15004349178E+02 -0.36108613917E+02  0.49268480872E+02  0.51100000000E-03 0.  1.
         22    1    1    0    0    0 -0.13704924121E+02  0.17867070161E+02  0.15594502362E+02  0.27390612355E+02  0.00000000000E+00 0.  1.
</event>
<event>
 5    1  0.1691145E-003  0.9118800E+02  0.7818608E-02  0.1130116E+00
         25   -1    0    0    0    0  0.00000000000E+00  0.00000000000E+00  0.99999998245E-14  0.12500000000E+03  0.12500000000E+03 0.  0.
        -11    1    3    3    0    0 -0.31804037807E+01 -0.30463193843E+02  0.39315388696E+02  0.49837946747E+02  0.51100000000E-03 0.  1.
         23    2    1    0    0    0  0.23702633915E+02 -0.17181592630E+02  0.51842656947E+01  0.95269567938E+02  0.90511833395E+02 0.  0.
         11    1    3    3    0    0  0.26883037695E+02  0.13281601214E+02 -0.34131123001E+02  0.45431621192E+02  0.51100000000E-03 0. -1.
         22    1    1    0    0    0 -0.23702633915E+02  0.17181592630E+02 -0.51842656947E+01  0.29730432062E+02  0.00000000000E+00 0.  1.
</event>
<event>
 5    1  0.1691145E-003  0.9118800E+02  0.7818608E-02  0.1130116E+00
         25   -1    0    0    0    0  0.00000000000E+00  0.00000000000E+00  0.99999998245E-14  0.12500000000E+03  0.12500000000E+03 0.  0.
        -11    1    3    3    0    0 -0.37345987183E+02 -0.13114267826E+01 -0.25605126633E+02  0.45299725264E+02  0.51100000000E-03 0.  1.
         23    2    1    0    0    0  0.11710800251E+02  0.17092891848E+02 -0.16571851900E+02  0.98468206437E+02  0.94826428855E+02 0.  0.
         11    1    3    3    0    0  0.49056787434E+02  0.18404318630E+02  0.90332747326E+01  0.53168481173E+02  0.51100000000E-03 0. -1.
         22    1    1    0    0    0 -0.11710800251E+02 -0.17092891848E+02  0.16571851900E+02  0.26531793563E+02  0.00000000000E+00 0. -1.
</event>
<event>
 5    1  0.1691145E-003  0.9118800E+02  0.7818608E-02  0.1130116E+00
         25   -1    0    0    0    0  0.00000000000E+00  0.00000000000E+00  0.99999998245E-14  0.12500000000E+03  0.12500000000E+03 0.  0.
        -11    1    3    3    0    0 -0.15868053562E+02  0.23717505243E+02  0.18408271705E+02  0.33958498881E+02  0.51100000000E-03 0.  1.
         23    2    1    0    0    0  0.73241619616E+01 -0.25083246614E+02 -0.12313621349E+02  0.96113361569E+02  0.91669735421E+02 0.  0.
         11    1    3    3    0    0  0.23192215523E+02 -0.48800751857E+02 -0.30721893054E+02  0.62154862688E+02  0.51100000000E-03 0. -1.
         22    1    1    0    0    0 -0.73241619616E+01  0.25083246614E+02  0.12313621349E+02  0.28886638431E+02  0.00000000000E+00 0. -1.
</event>
<event>
 4    1  0.1691145E-003  0.9118800E+02  0.7818608E-02  0.1130116E+00
         25   -1    0    0    0    0  0.00000000000E+00  0.00000000000E+00  0.99999998245E-14  0.12500000000E+03  0.12500000000E+03 0.  0.
        -11    1    1    0    0    0 -0.34367185630E+02  0.19083069613E+02 -0.13272507600E+02  0.41490076551E+02  0.51100000000E-03 0.  1.
         11    1    1    0    0    0  0.11682335636E+02 -0.34886647134E+01 -0.29909964467E+02  0.32299438417E+02  0.51100000000E-03 0. -1.
         22    1    1    0    0    0  0.22684849994E+02 -0.15594404899E+02  0.43182472067E+02  0.51210485032E+02  0.00000000000E+00 0.  1.
</event>
<event>
 5    1  0.1691145E-003  0.9118800E+02  0.7818608E-02  0.1130116E+00
         25   -1    0    0    0    0  0.00000000000E+00  0.00000000000E+00  0.99999998245E-14  0.12500000000E+03  0.12500000000E+03 0.  0.
        -11    1    3    3    0    0 -0.27180183945E+02 -0.11219726372E+01  0.17388274354E+02  0.32285806590E+02  0.51100000000E-03 0.  1.
         23    2    1    0    0    0  0.28458369635E+02  0.66266130388E+01 -0.91040741697E+01  0.94394853878E+02  0.89295652019E+02 0.  0.
         11    1    3    3    0    0  0.55638553581E+02  0.77485856760E+01 -0.26492348523E+02  0.62109047288E+02  0.51100000000E-03 0. -1.
         22    1    1    0    0    0 -0.28458369635E+02 -0.66266130388E+01  0.91040741697E+01  0.30605146122E+02  0.00000000000E+00 0. -1.
</event>
<event>
 5    1  0.1691145E-003  0.9118800E+02  0.7818608E-02  0.1130116E+00
         25   -1    0    0    0    0  0.00000000000E+00  0.00000000000E+00  0.99999998245E-14  0.12500000000E+03  0.12500000000E+03 0.  0.
        -11    1    3    3    0    0  0.60164453431E+02  0.51752214301E+01 -0.11202667133E+02  0.61416969354E+02  0.51100000000E-03 0.  1.
         23    2    1    0    0    0  0.27343305213E+02 -0.31004681008E+01 -0.11263888114E+02  0.95265433955E+02  0.90506124040E+02 0.  0.
         11    1    3    3    0    0 -0.32821148218E+02 -0.82756895308E+01 -0.61220980881E-01  0.33848464601E+02  0.51100000000E-03 0. -1.
         22    1    1    0    0    0 -0.27343305213E+02  0.31004681008E+01  0.11263888114E+02  0.29734566045E+02  0.00000000000E+00 0.  1.
</event>
<event>
 5    1  0.1691145E-003  0.9118800E+02  0.7818608E-02  0.1130116E+00
         25   -1    0    0    0    0  0.00000000000E+00  0.00000000000E+00  0.99999998245E-14  0.12500000000E+03  0.12500000000E+03 0.  0.
        -11    1    3    3    0    0 -0.14153555607E+02  0.50227230430E+02 -0.29281315408E+02  0.59837222908E+02  0.51100000000E-03 0.  1.
         23    2    1    0    0    0 -0.94936708362E+01  0.26221353163E+02 -0.11811802098E+01  0.97087917772E+02  0.92989136155E+02 0.  0.
         11    1    3    3    0    0  0.46598847707E+01 -0.24005877268E+02  0.28100135198E+02  0.37250694864E+02  0.51100000000E-03 0. -1.
         22    1    1    0    0    0  0.94936708362E+01 -0.26221353163E+02  0.11811802098E+01  0.27912082228E+02  0.00000000000E+00 0.  1.
</event>
<event>
 5    1  0.1691145E-003  0.9118800E+02  0.7818608E-02  0.1130116E+00
         25   -1    0    0    0    0  0.00000000000E+00  0.00000000000E+00  0.99999998245E-14  0.12500000000E+03  0.12500000000E+03 0.  0.
        -11    1    3    3    0    0  0.38777482463E+01  0.14216021127E+02 -0.24684209450E+02  0.28747910960E+02  0.51100000000E-03 0. -1.
         23    2    1    0    0    0 -0.23106289379E+02  0.84741634938E+01  0.27695840639E+02  0.87949066888E+02  0.79763818376E+02 0.  0.
         11    1    3    3    0    0 -0.26984037626E+02 -0.57418576332E+01  0.52380050088E+02  0.59201155928E+02  0.51100000000E-03 0.  1.
         22    1    1    0    0    0  0.23106289379E+02 -0.84741634938E+01 -0.27695840639E+02  0.37050933112E+02  0.00000000000E+00 0.  1.
</event>
<event>
 5    1  0.1691145E-003  0.9118800E+02  0.7818608E-02  0.1130116E+00
         25   -1    0    0    0    0  0.00000000000E+00  0.00000000000E+00  0.99999998245E-14  0.12500000000E+03  0.12500000000E+03 0.  0.
        -11    1    3    3    0    0  0.24309997327E+02  0.31536675292E+02 -0.23480564479E+01  0.39887983502E+02  0.51100000000E-03 0.  1.
         23    2    1    0    0    0  0.12168093505E+02 -0.24661286327E+02  0.10202824363E+01  0.97481233329E+02  0.93516353288E+02 0.  0.
         11    1    3    3    0    0 -0.12141903822E+02 -0.56197961619E+02  0.33683388843E+01  0.57593249827E+02  0.51100000000E-03 0. -1.
         22    1    1    0    0    0 -0.12168093505E+02  0.24661286327E+02 -0.10202824363E+01  0.27518766671E+02  0.00000000000E+00 0. -1.
</event>
<event>
 5    1  0.1691145E-003  0.9118800E+02  0.7818608E-02  0.1130116E+00
         25   -1    0    0    0    0  0.00000000000E+00  0.00000000000E+00  0.99999998245E-14  0.12500000000E+03  0.12500000000E+03 0.  0.
        -11    1    3    3    0    0 -0.26122637826E+02 -0.14053083594E+01 -0.22454646129E+02  0.34475762959E+02  0.51100000000E-03 0.  1.
         23    2    1    0    0    0  0.29437890883E+02  0.73362813200E+01 -0.10858537862E+01  0.94642307043E+02  0.89641378619E+02 0.  0.
         11    1    3    3    0    0  0.55560528709E+02  0.87415896794E+01  0.21368792343E+02  0.60166544084E+02  0.51100000000E-03 0. -1.
         22    1    1    0    0    0 -0.29437890883E+02 -0.73362813200E+01  0.10858537862E+01  0.30357692957E+02  0.00000000000E+00 0. -1.
</event>
<event>
 5    1  0.1691145E-003  0.9118800E+02  0.7818608E-02  0.1130116E+00
         25   -1    0    0    0    0  0.00000000000E+00  0.00000000000E+00  0.99999998245E-14  0.12500000000E+03  0.12500000000E+03 0.  0.
        -11    1    3    3    0    0  0.11147733717E+02 -0.22818255618E+02  0.39583927860E+02  0.47030119090E+02  0.51100000000E-03 0.  1.
         23    2    1    0    0    0 -0.24289612361E+02  0.94277629253E+00  0.17294814898E+02  0.95167388345E+02  0.90370609638E+02 0.  0.
         11    1    3    3    0    0 -0.35437346078E+02  0.23761031911E+02 -0.22289112962E+02  0.48137269256E+02  0.51100000000E-03 0. -1.
         22    1    1    0    0    0  0.24289612361E+02 -0.94277629253E+00 -0.17294814898E+02  0.29832611655E+02  0.00000000000E+00 0.  1.
</event>
<event>
 5    1  0.1691145E-003  0.9118800E+02  0.7818608E-02  0.1130116E+00
         25   -1    0    0    0    0  0.00000000000E+00  0.00000000000E+00  0.99999998245E-14  0.12500000000E+03  0.12500000000E+03 0.  0.
        -11    1    3    3    0    0  0.24828434293E+02  0.53273627089E+02  0.13739880048E+02  0.60359877374E+02  0.51100000000E-03 0. -1.
         23    2    1    0    0    0  0.19015249881E+02  0.20927324761E+02  0.14478573730E+02  0.93232693741E+02  0.87653713186E+02 0.  0.
         11    1    3    3    0    0 -0.58131844119E+01 -0.32346302327E+02  0.73869368167E+00  0.32872816367E+02  0.51100000000E-03 0.  1.
         22    1    1    0    0    0 -0.19015249881E+02 -0.20927324761E+02 -0.14478573730E+02  0.31767306259E+02  0.00000000000E+00 0. -1.
</event>
<event>
 5    1  0.1691145E-003  0.9118800E+02  0.7818608E-02  0.1130116E+00
         25   -1    0    0    0    0  0.00000000000E+00  0.00000000000E+00  0.99999998245E-14  0.12500000000E+03  0.12500000000E+03 0.  0.
        -11    1    3    3    0    0 -0.30579715828E+01 -0.23770559213E+02  0.12352650890E+02  0.26962541790E+02  0.51100000000E-03 0.  1.
         23    2    1    0    0    0  0.33491427935E+02  0.16117459895E+02 -0.11507682256E+02  0.86091453259E+02  0.76797547583E+02 0.  0.
         11    1    3    3    0    0  0.36549399518E+02  0.39888019107E+02 -0.23860333147E+02  0.59128911469E+02  0.51100000000E-03 0. -1.
         22    1    1    0    0    0 -0.33491427935E+02 -0.16117459895E+02  0.11507682256E+02  0.38908546741E+02  0.00000000000E+00 0. -1.
</event>
<event>
 5    1  0.1691145E-003  0.9118800E+02  0.7818608E-02  0.1130116E+00
         25   -1    0    0    0    0  0.00000000000E+00  0.00000000000E+00  0.99999998245E-14  0.12500000000E+03  0.12500000000E+03 0.  0.
        -11    1    3    3    0    0 -0.30301461552E+02 -0.83535089246E+00  0.20628759437E+02  0.36666361961E+02  0.51100000000E-03 0. -1.
         23    2    1    0    0    0  0.79135629418E+01 -0.26969895266E+01 -0.26408705323E+02  0.97299495532E+02  0.93273114471E+02 0.  0.
         11    1    3    3    0    0  0.38215024494E+02 -0.18616386341E+01 -0.47037464759E+02  0.60633133572E+02  0.51100000000E-03 0.  1.
         22    1    1    0    0    0 -0.79135629418E+01  0.26969895266E+01  0.26408705323E+02  0.27700504468E+02  0.00000000000E+00 0.  1.
</event>
<event>
 5    1  0.1691145E-003  0.9118800E+02  0.7818608E-02  0.1130116E+00
         25   -1    0    0    0    0  0.00000000000E+00  0.00000000000E+00  0.99999998245E-14  0.12500000000E+03  0.12500000000E+03 0.  0.
        -11    1    3    3    0    0  0.57367874537E+02 -0.11306173495E+02  0.91629227567E+01  0.59184979020E+02  0.51100000000E-03 0. -1.
         23    2    1    0    0    0  0.23754966772E+02 -0.16801734647E+02 -0.38594597580E+01  0.95648813259E+02  0.91034077767E+02 0.  0.
         11    1    3    3    0    0 -0.33612907765E+02 -0.54955611520E+01 -0.13022382515E+02  0.36463834239E+02  0.51100000000E-03 0.  1.
         22    1    1    0    0    0 -0.23754966772E+02  0.16801734647E+02  0.38594597580E+01  0.29351186741E+02  0.00000000000E+00 0. -1.
</event>
<event>
 5    1  0.1691145E-003  0.9118800E+02  0.7818608E-02  0.1130116E+00
         25   -1    0    0    0    0  0.00000000000E+00  0.00000000000E+00  0.99999998245E-14  0.12500000000E+03  0.12500000000E+03 0.  0.
        -11    1    3    3    0    0 -0.29255164972E+02 -0.85648971705E+01 -0.36763634868E+02  0.47757585680E+02  0.51100000000E-03 0.  1.
         23    2    1    0    0    0  0.35162844750E+01 -0.27487968890E+02 -0.57204554010E+01  0.96703775867E+02  0.92471314291E+02 0.  0.
         11    1    3    3    0    0  0.32771449447E+02 -0.18923071719E+02  0.31043179467E+02  0.48946190187E+02  0.51100000000E-03 0. -1.
         22    1    1    0    0    0 -0.35162844750E+01  0.27487968890E+02  0.57204554010E+01  0.28296224133E+02  0.00000000000E+00 0. -1.
</event>
<event>
 5    1  0.1691145E-003  0.9118800E+02  0.7818608E-02  0.1130116E+00
         25   -1    0    0    0    0  0.00000000000E+00  0.00000000000E+00  0.99999998245E-14  0.12500000000E+03  0.12500000000E+03 0.  0.
        -11    1    3    3    0    0 -0.52340958645E+01  0.48729614057E+02 -0.54888934921E+01  0.49316315735E+02  0.51100000000E-03 0. -1.
         23    2    1    0    0    0  0.30497669588E+01  0.52533140929E+01 -0.26145625777E+02  0.98158015447E+02  0.94416650342E+02 0.  0.
         11    1    3    3    0    0  0.82838628233E+01 -0.43476299964E+02 -0.20656732285E+02  0.48841699712E+02  0.51100000000E-03 0.  1.
         22    1    1    0    0    0 -0.30497669588E+01 -0.52533140929E+01  0.26145625777E+02  0.26841984553E+02  0.00000000000E+00 0. -1.
</event>
<event>
 5    1  0.1691145E-003  0.9118800E+02  0.7818608E-02  0.1130116E+00
         25   -1    0    0    0    0  0.00000000000E+00  0.00000000000E+00  0.99999998245E-14  0.12500000000E+03  0.12500000000E+03 0.  0.
        -11    1    3    3    0    0 -0.67316182862E+01  0.60504582609E+02 -0.11095838189E+02  0.61880827619E+02  0.51100000000E-03 0.  1.
         23    2    1    0    0    0 -0.92768988199E+01  0.27684458728E+02 -0.44138589323E+01  0.95470823624E+02  0.90789349077E+02 0.  0.
         11    1    3    3    0    0 -0.25452805337E+01 -0.32820123881E+02  0.66819792568E+01  0.33589996004E+02  0.51100000000E-03 0. -1.
         22    1    1    0    0    0  0.92768988199E+01 -0.27684458728E+02  0.44138589323E+01  0.29529176376E+02  0.00000000000E+00 0.  1.
</event>
<event>
 5    1  0.1691145E-003  0.9118800E+02  0.7818608E-02  0.1130116E+00
         25   -1    0    0    0    0  0.00000000000E+00  0.00000000000E+00  0.99999998245E-14  0.12500000000E+03  0.12500000000E+03 0.  0.
        -11    1    3    3    0    0  0.34710448773E+02  0.42208648901E+02  0.18176459477E+02  0.57591396714E+02  0.51100000000E-03 0. -1.
         23    2    1    0    0    0  0.16604049612E+02  0.12540144681E+02  0.24433439511E+02  0.92907280289E+02  0.87188417076E+02 0.  0.
         11    1    3    3    0    0 -0.18106399161E+02 -0.29668504220E+02  0.62569800337E+01  0.35315883575E+02  0.51100000000E-03 0.  1.
         22    1    1    0    0    0 -0.16604049612E+02 -0.12540144681E+02 -0.24433439511E+02  0.32092719711E+02  0.00000000000E+00 0. -1.
</event>
<event>
 5    1  0.1691145E-003  0.9118800E+02  0.7818608E-02  0.1130116E+00
         25   -1    0    0    0    0  0.00000000000E+00  0.00000000000E+00  0.99999998245E-14  0.12500000000E+03  0.12500000000E+03 0.  0.
        -11    1    3    3    0    0 -0.24335008235E+02 -0.49269336544E+02 -0.75610914441E+01  0.55469182916E+02  0.51100000000E-03 0. -1.
         23    2    1    0    0    0 -0.19297515105E+02 -0.13589468327E+02  0.14094520973E+02  0.97509578757E+02  0.93554233946E+02 0.  0.
         11    1    3    3    0    0  0.50374931301E+01  0.35679868217E+02  0.21655612417E+02  0.42040395841E+02  0.51100000000E-03 0.  1.
         22    1    1    0    0    0  0.19297515105E+02  0.13589468327E+02 -0.14094520973E+02  0.27490421243E+02  0.00000000000E+00 0. -1.
</event>
<event>
 5    1  0.1691145E-003  0.9118800E+02  0.7818608E-02  0.1130116E+00
         25   -1    0    0    0    0  0.00000000000E+00  0.00000000000E+00  0.99999998245E-14  0.12500000000E+03  0.12500000000E+03 0.  0.
        -11    1    3    3    0    0  0.50052547089E+01 -0.35522915327E+02 -0.52143553118E+01  0.36250787435E+02  0.51100000000E-03 0. -1.
         23    2    1    0    0    0  0.29660712141E+02 -0.14551796541E+02  0.27309283977E+02  0.82136150212E+02  0.70064524212E+02 0.  0.
         11    1    3    3    0    0  0.24655457432E+02  0.20971118786E+02  0.32523639289E+02  0.45885362777E+02  0.51100000000E-03 0.  1.
         22    1    1    0    0    0 -0.29660712141E+02  0.14551796541E+02 -0.27309283977E+02  0.42863849788E+02  0.00000000000E+00 0.  1.
</event>
<event>
 5    1  0.1691145E-003  0.9118800E+02  0.7818608E-02  0.1130116E+00
         25   -1    0    0    0    0  0.00000000000E+00  0.00000000000E+00  0.99999998245E-14  0.12500000000E+03  0.12500000000E+03 0.  0.
        -11    1    3    3    0    0  0.25248501656E+02 -0.40722370603E+01 -0.21948314179E+02  0.33701608954E+02  0.51100000000E-03 0.  1.
         23    2    1    0    0    0  0.11927521898E+02 -0.42622948289E+02 -0.24208821130E+02  0.74551526089E+02  0.54889721462E+02 0.  0.
         11    1    3    3    0    0 -0.13320979758E+02 -0.38550711229E+02 -0.22605069514E+01  0.40849917134E+02  0.51100000000E-03 0. -1.
         22    1    1    0    0    0 -0.11927521898E+02  0.42622948289E+02  0.24208821130E+02  0.50448473911E+02  0.00000000000E+00 0.  1.
</event>
<event>
 5    1  0.1691145E-003  0.9118800E+02  0.7818608E-02  0.1130116E+00
         25   -1    0    0    0    0  0.00000000000E+00  0.00000000000E+00  0.99999998245E-14  0.12500000000E+03  0.12500000000E+03 0.  0.
        -11    1    3    3    0    0  0.14609993537E+02 -0.39942968100E+02  0.38311973479E+02  0.57242466089E+02  0.51100000000E-03 0. -1.
         23    2    1    0    0    0 -0.60401887159E+01 -0.27688240765E+02  0.87243129242E+01  0.95348082821E+02  0.90620200316E+02 0.  0.
         11    1    3    3    0    0 -0.20650182253E+02  0.12254727335E+02 -0.29587660555E+02  0.38105616732E+02  0.51100000000E-03 0.  1.
         22    1    1    0    0    0  0.60401887159E+01  0.27688240765E+02 -0.87243129242E+01  0.29651917179E+02  0.00000000000E+00 0. -1.
</event>
<event>
 5    1  0.1691145E-003  0.9118800E+02  0.7818608E-02  0.1130116E+00
         25   -1    0    0    0    0  0.00000000000E+00  0.00000000000E+00  0.99999998245E-14  0.12500000000E+03  0.12500000000E+03 0.  0.
        -11    1    3    3    0    0  0.47637087108E+02 -0.32711282025E+02  0.18752691001E+02  0.60753464592E+02  0.51100000000E-03 0. -1.
         23    2    1    0    0    0  0.17770773101E+02 -0.24326340955E+02  0.60607149879E+01  0.94270478249E+02  0.89121375451E+02 0.  0.
         11    1    3    3    0    0 -0.29866314007E+02  0.83849410698E+01 -0.12691976013E+02  0.33517013657E+02  0.51100000000E-03 0.  1.
         22    1    1    0    0    0 -0.17770773101E+02  0.24326340955E+02 -0.60607149879E+01  0.30729521751E+02  0.00000000000E+00 0. -1.
</event>
<event>
 5    1  0.1691145E-003  0.9118800E+02  0.7818608E-02  0.1130116E+00
         25   -1    0    0    0    0  0.00000000000E+00  0.00000000000E+00  0.99999998245E-14  0.12500000000E+03  0.12500000000E+03 0.  0.
        -11    1    3    3    0    0 -0.25636452387E+02  0.31358944083E+02 -0.49507752410E+01  0.40805897132E+02  0.51100000000E-03 0.  1.
         23    2    1    0    0    0  0.15387096895E+01 -0.82537181111E+01  0.25816763386E+02  0.97852315718E+02  0.94011057485E+02 0.  0.
         11    1    3    3    0    0  0.27175162077E+02 -0.39612662194E+02  0.30767538627E+02  0.57046418586E+02  0.51100000000E-03 0. -1.
         22    1    1    0    0    0 -0.15387096895E+01  0.82537181111E+01 -0.25816763386E+02  0.27147684282E+02  0.00000000000E+00 0. -1.
</event>
<event>
 5    1  0.1691145E-003  0.9118800E+02  0.7818608E-02  0.1130116E+00
         25   -1    0    0    0    0  0.00000000000E+00  0.00000000000E+00  0.99999998245E-14  0.12500000000E+03  0.12500000000E+03 0.  0.
        -11    1    3    3    0    0  0.19709121362E+02 -0.44026492681E+02 -0.92250962721E+01  0.49110934873E+02  0.51100000000E-03 0. -1.
         23    2    1    0    0    0  0.21001672117E+02  0.22649711435E+01 -0.19168332225E+02  0.96475882375E+02  0.92162739726E+02 0.  0.
         11    1    3    3    0    0  0.12925507553E+01  0.46291463824E+02 -0.99432359526E+01  0.47364947502E+02  0.51100000000E-03 0.  1.
         22    1    1    0    0    0 -0.21001672117E+02 -0.22649711435E+01  0.19168332225E+02  0.28524117625E+02  0.00000000000E+00 0.  1.
</event>
<event>
 5    1  0.1691145E-003  0.9118800E+02  0.7818608E-02  0.1130116E+00
         25   -1    0    0    0    0  0.00000000000E+00  0.00000000000E+00  0.99999998245E-14  0.12500000000E+03  0.12500000000E+03 0.  0.
        -11    1    3    3    0    0  0.32875227889E+02 -0.18221352437E+02  0.16571366004E+02  0.41078077668E+02  0.51100000000E-03 0. -1.
         23    2    1    0    0    0  0.67414735535E+01 -0.61731753831E+00 -0.28296439658E+02  0.95905034045E+02  0.91385220420E+02 0.  0.
         11    1    3    3    0    0 -0.26133754335E+02  0.17604034899E+02 -0.44867805662E+02  0.54826956377E+02  0.51100000000E-03 0.  1.
         22    1    1    0    0    0 -0.67414735535E+01  0.61731753831E+00  0.28296439658E+02  0.29094965955E+02  0.00000000000E+00 0.  1.
</event>
<event>
 5    1  0.1691145E-003  0.9118800E+02  0.7818608E-02  0.1130116E+00
         25   -1    0    0    0    0  0.00000000000E+00  0.00000000000E+00  0.99999998245E-14  0.12500000000E+03  0.12500000000E+03 0.  0.
        -11    1    3    3    0    0 -0.73343815632E+01  0.40675473130E+02 -0.14569153451E+02  0.43824051613E+02  0.51100000000E-03 0. -1.
         23    2    1    0    0    0  0.50018671409E+01  0.56924913334E+01  0.25482533702E+02  0.98414615739E+02  0.94755759374E+02 0.  0.
         11    1    3    3    0    0  0.12336248704E+02 -0.34982981796E+02  0.40051687153E+02  0.54590564125E+02  0.51100000000E-03 0.  1.
         22    1    1    0    0    0 -0.50018671409E+01 -0.56924913334E+01 -0.25482533702E+02  0.26585384261E+02  0.00000000000E+00 0.  1.
</event>
<event>
 5    1  0.1691145E-003  0.9118800E+02  0.7818608E-02  0.1130116E+00
         25   -1    0    0    0    0  0.00000000000E+00  0.00000000000E+00  0.99999998245E-14  0.12500000000E+03  0.12500000000E+03 0.  0.
        -11    1    3    3    0    0  0.86697887556E+01 -0.43534871470E+02  0.37230289833E+02  0.57935694976E+02  0.51100000000E-03 0. -1.
         23    2    1    0    0    0  0.12602383366E+02 -0.25479959438E+02  0.35485847131E+01  0.96353170282E+02  0.91996155194E+02 0.  0.
         11    1    3    3    0    0  0.39325946101E+01  0.18054912033E+02 -0.33681705120E+02  0.38417475306E+02  0.51100000000E-03 0.  1.
         22    1    1    0    0    0 -0.12602383366E+02  0.25479959438E+02 -0.35485847131E+01  0.28646829718E+02  0.00000000000E+00 0. -1.
</event>
<event>
 5    1  0.1691145E-003  0.9118800E+02  0.7818608E-02  0.1130116E+00
         25   -1    0    0    0    0  0.00000000000E+00  0.00000000000E+00  0.99999998245E-14  0.12500000000E+03  0.12500000000E+03 0.  0.
        -11    1    3    3    0    0 -0.17089237289E+02 -0.43542625972E+02  0.33282137330E+02  0.57408213464E+02  0.51100000000E-03 0. -1.
         23    2    1    0    0    0 -0.13617850709E+02 -0.61394835000E+01  0.25004473598E+02  0.95873331542E+02  0.91341846299E+02 0.  0.
         11    1    3    3    0    0  0.34713865796E+01  0.37403142472E+02 -0.82776637325E+01  0.38465118077E+02  0.51100000000E-03 0.  1.
         22    1    1    0    0    0  0.13617850709E+02  0.61394835000E+01 -0.25004473598E+02  0.29126668458E+02  0.00000000000E+00 0. -1.
</event>
<event>
 5    1  0.1691145E-003  0.9118800E+02  0.7818608E-02  0.1130116E+00
         25   -1    0    0    0    0  0.00000000000E+00  0.00000000000E+00  0.99999998245E-14  0.12500000000E+03  0.12500000000E+03 0.  0.
        -11    1    3    3    0    0  0.14619775087E+02 -0.22378378064E+02 -0.46729895406E+02  0.53835051345E+02  0.51100000000E-03 0.  1.
         23    2    1    0    0    0 -0.16554414247E+02 -0.12447428722E+02 -0.21458482274E+02  0.95176291740E+02  0.90382923913E+02 0.  0.
         11    1    3    3    0    0 -0.31174189334E+02  0.99309493413E+01  0.25271413132E+02  0.41341240396E+02  0.51100000000E-03 0. -1.
         22    1    1    0    0    0  0.16554414247E+02  0.12447428722E+02  0.21458482274E+02  0.29823708260E+02  0.00000000000E+00 0.  1.
</event>
<event>
 5    1  0.1691145E-003  0.9118800E+02  0.7818608E-02  0.1130116E+00
         25   -1    0    0    0    0  0.00000000000E+00  0.00000000000E+00  0.99999998245E-14  0.12500000000E+03  0.12500000000E+03 0.  0.
        -11    1    3    3    0    0  0.39332861136E+02  0.95265221720E+01 -0.94538773762E+01  0.41559648549E+02  0.51100000000E-03 0. -1.
         23    2    1    0    0    0 -0.88170247403E+01 -0.16835519808E+02 -0.19948427628E+02  0.97447968907E+02  0.93471879337E+02 0.  0.
         11    1    3    3    0    0 -0.48149885876E+02 -0.26362041980E+02 -0.10494550252E+02  0.55888320358E+02  0.51100000000E-03 0.  1.
         22    1    1    0    0    0  0.88170247403E+01  0.16835519808E+02  0.19948427628E+02  0.27552031093E+02  0.00000000000E+00 0.  1.
</event>
<event>
 5    1  0.1691145E-003  0.9118800E+02  0.7818608E-02  0.1130116E+00
         25   -1    0    0    0    0  0.00000000000E+00  0.00000000000E+00  0.99999998245E-14  0.12500000000E+03  0.12500000000E+03 0.  0.
        -11    1    3    3    0    0 -0.22554222721E+02 -0.44361216709E+02 -0.31329925785E+02  0.58806247631E+02  0.51100000000E-03 0. -1.
         23    2    1    0    0    0  0.29661843339E+01 -0.18137438372E+02 -0.21539556534E+02  0.96685385119E+02  0.92446450877E+02 0.  0.
         11    1    3    3    0    0  0.25520407054E+02  0.26223778337E+02  0.97903692510E+01  0.37879137488E+02  0.51100000000E-03 0.  1.
         22    1    1    0    0    0 -0.29661843339E+01  0.18137438372E+02  0.21539556534E+02  0.28314614881E+02  0.00000000000E+00 0. -1.
</event>
<event>
 5    1  0.1691145E-003  0.9118800E+02  0.7818608E-02  0.1130116E+00
         25   -1    0    0    0    0  0.00000000000E+00  0.00000000000E+00  0.99999998245E-14  0.12500000000E+03  0.12500000000E+03 0.  0.
        -11    1    3    3    0    0  0.36454634004E+02 -0.44772476038E+02 -0.45774196136E+01  0.57917766890E+02  0.51100000000E-03 0. -1.
         23    2    1    0    0    0  0.19955735514E+02 -0.17667615001E+02  0.14211760308E+02  0.94794865821E+02  0.89853861660E+02 0.  0.
         11    1    3    3    0    0 -0.16498898490E+02  0.27104861037E+02  0.18789179921E+02  0.36877098931E+02  0.51100000000E-03 0.  1.
         22    1    1    0    0    0 -0.19955735514E+02  0.17667615001E+02 -0.14211760308E+02  0.30205134179E+02  0.00000000000E+00 0. -1.
</event>
<event>
 5    1  0.1691145E-003  0.9118800E+02  0.7818608E-02  0.1130116E+00
         25   -1    0    0    0    0  0.00000000000E+00  0.00000000000E+00  0.99999998245E-14  0.12500000000E+03  0.12500000000E+03 0.  0.
        -11    1    3    3    0    0 -0.22055093052E+02 -0.33840382967E+01  0.26645271797E+02  0.34754127153E+02  0.51100000000E-03 0.  1.
         23    2    1    0    0    0  0.10642836431E+02 -0.11876692389E+02 -0.24330904500E+02  0.95908442750E+02  0.91389882851E+02 0.  0.
         11    1    3    3    0    0  0.32697929483E+02 -0.84926540922E+01 -0.50976176298E+02  0.61154315598E+02  0.51100000000E-03 0. -1.
         22    1    1    0    0    0 -0.10642836431E+02  0.11876692389E+02  0.24330904500E+02  0.29091557250E+02  0.00000000000E+00 0. -1.
</event>
<event>
 5    1  0.1691145E-003  0.9118800E+02  0.7818608E-02  0.1130116E+00
         25   -1    0    0    0    0  0.00000000000E+00  0.00000000000E+00  0.99999998245E-14  0.12500000000E+03  0.12500000000E+03 0.  0.
        -11    1    3    3    0    0  0.44796823482E+01  0.22430049941E+02 -0.28625982069E+02  0.36641800501E+02  0.51100000000E-03 0.  1.
         23    2    1    0    0    0  0.16550341307E+02 -0.24271293855E+02  0.46707439411E+01  0.95253985952E+02  0.90490311569E+02 0.  0.
         11    1    3    3    0    0  0.12070658959E+02 -0.46701343796E+02  0.33296726010E+02  0.58612185451E+02  0.51100000000E-03 0. -1.
         22    1    1    0    0    0 -0.16550341307E+02  0.24271293855E+02 -0.46707439411E+01  0.29746014048E+02  0.00000000000E+00 0. -1.
</event>
<event>
 5    1  0.1691145E-003  0.9118800E+02  0.7818608E-02  0.1130116E+00
         25   -1    0    0    0    0  0.00000000000E+00  0.00000000000E+00  0.99999998245E-14  0.12500000000E+03  0.12500000000E+03 0.  0.
        -11    1    3    3    0    0 -0.15342582711E+02 -0.49467905679E+02 -0.90029911998E+01  0.52569215205E+02  0.51100000000E-03 0. -1.
         23    2    1    0    0    0  0.18017099450E+02 -0.22928154257E+02 -0.53363911481E+01  0.95355553628E+02  0.90630504837E+02 0.  0.
         11    1    3    3    0    0  0.33359682161E+02  0.26539751422E+02  0.36666000517E+01  0.42786338423E+02  0.51100000000E-03 0.  1.
         22    1    1    0    0    0 -0.18017099450E+02  0.22928154257E+02  0.53363911481E+01  0.29644446372E+02  0.00000000000E+00 0. -1.
</event>
<event>
 5    1  0.1691145E-003  0.9118800E+02  0.7818608E-02  0.1130116E+00
         25   -1    0    0    0    0  0.00000000000E+00  0.00000000000E+00  0.99999998245E-14  0.12500000000E+03  0.12500000000E+03 0.  0.
        -11    1    3    3    0    0  0.89814003747E+01  0.38028658662E+02 -0.44991112447E+02  0.59590642150E+02  0.51100000000E-03 0.  1.
         23    2    1    0    0    0  0.14093026529E+02  0.11903488861E+02 -0.28954064489E+02  0.90668610657E+02  0.83917534903E+02 0.  0.
         11    1    3    3    0    0  0.51116261539E+01 -0.26125169801E+02  0.16037047958E+02  0.31077968507E+02  0.51100000000E-03 0. -1.
         22    1    1    0    0    0 -0.14093026529E+02 -0.11903488861E+02  0.28954064489E+02  0.34331389343E+02  0.00000000000E+00 0.  1.
</event>
<event>
 5    1  0.1691145E-003  0.9118800E+02  0.7818608E-02  0.1130116E+00
         25   -1    0    0    0    0  0.00000000000E+00  0.00000000000E+00  0.99999998245E-14  0.12500000000E+03  0.12500000000E+03 0.  0.
        -11    1    3    3    0    0  0.38760805344E+02 -0.27182258952E+00 -0.90953408950E+01  0.39814559456E+02  0.51100000000E-03 0. -1.
         23    2    1    0    0    0 -0.12151897244E+02 -0.14739364121E+02 -0.23545379369E+02  0.94680000809E+02  0.89693925114E+02 0.  0.
         11    1    3    3    0    0 -0.50912702587E+02 -0.14467541531E+02 -0.14450038474E+02  0.54865441353E+02  0.51100000000E-03 0.  1.
         22    1    1    0    0    0  0.12151897244E+02  0.14739364121E+02  0.23545379369E+02  0.30319999191E+02  0.00000000000E+00 0.  1.
</event>
<event>
 5    1  0.1691145E-003  0.9118800E+02  0.7818608E-02  0.1130116E+00
         25   -1    0    0    0    0  0.00000000000E+00  0.00000000000E+00  0.99999998245E-14  0.12500000000E+03  0.12500000000E+03 0.  0.
        -11    1    3    3    0    0 -0.18941445043E+02 -0.28337176736E+02 -0.58231078628E+01  0.34578642412E+02  0.51100000000E-03 0. -1.
         23    2    1    0    0    0  0.14063977939E+02  0.67357682031E+01  0.27668329634E+02  0.93239922647E+02  0.87664021478E+02 0.  0.
         11    1    3    3    0    0  0.33005422981E+02  0.35072944939E+02  0.33491437497E+02  0.58661280234E+02  0.51100000000E-03 0.  1.
         22    1    1    0    0    0 -0.14063977939E+02 -0.67357682031E+01 -0.27668329634E+02  0.31760077353E+02  0.00000000000E+00 0.  1.
</event>
<event>
 5    1  0.1691145E-003  0.9118800E+02  0.7818608E-02  0.1130116E+00
         25   -1    0    0    0    0  0.00000000000E+00  0.00000000000E+00  0.99999998245E-14  0.12500000000E+03  0.12500000000E+03 0.  0.
        -11    1    3    3    0    0 -0.18269212070E+02  0.37069963093E+02 -0.90065786131E+00  0.41337119617E+02  0.51100000000E-03 0. -1.
         23    2    1    0    0    0  0.21586858914E+02  0.13070187885E+02 -0.21146817069E+02  0.92075690420E+02  0.85987921275E+02 0.  0.
         11    1    3    3    0    0  0.39856070984E+02 -0.23999775207E+02 -0.20246159208E+02  0.50738570804E+02  0.51100000000E-03 0.  1.
         22    1    1    0    0    0 -0.21586858914E+02 -0.13070187885E+02  0.21146817069E+02  0.32924309580E+02  0.00000000000E+00 0.  1.
</event>
<event>
 5    1  0.1691145E-003  0.9118800E+02  0.7818608E-02  0.1130116E+00
         25   -1    0    0    0    0  0.00000000000E+00  0.00000000000E+00  0.99999998245E-14  0.12500000000E+03  0.12500000000E+03 0.  0.
        -11    1    3    3    0    0  0.21755974784E+02  0.39866631580E+02  0.50959906000E+01  0.45701639717E+02  0.51100000000E-03 0. -1.
         23    2    1    0    0    0  0.13811639644E+02 -0.54162893741E+01  0.25103006937E+02  0.95840806980E+02  0.91297326057E+02 0.  0.
         11    1    3    3    0    0 -0.79443351400E+01 -0.45282920954E+02  0.20007016337E+02  0.50139167264E+02  0.51100000000E-03 0.  1.
         22    1    1    0    0    0 -0.13811639644E+02  0.54162893741E+01 -0.25103006937E+02  0.29159193020E+02  0.00000000000E+00 0.  1.
</event>
<event>
 5    1  0.1691145E-003  0.9118800E+02  0.7818608E-02  0.1130116E+00
         25   -1    0    0    0    0  0.00000000000E+00  0.00000000000E+00  0.99999998245E-14  0.12500000000E+03  0.12500000000E+03 0.  0.
        -11    1    3    3    0    0 -0.61017499911E+01 -0.50604409141E+02 -0.24319824814E+02  0.56475582836E+02  0.51100000000E-03 0.  1.
         23    2    1    0    0    0 -0.17955812394E+02 -0.89307954538E+01 -0.31420660157E+01  0.10470116050E+03  0.10271460522E+03 0.  0.
         11    1    3    3    0    0 -0.11854062402E+02  0.41673613687E+02  0.21177758798E+02  0.48225577665E+02  0.51100000000E-03 0. -1.
         22    1    1    0    0    0  0.17955812394E+02  0.89307954538E+01  0.31420660157E+01  0.20298839499E+02  0.00000000000E+00 0.  1.
</event>
<event>
 5    1  0.1691145E-003  0.9118800E+02  0.7818608E-02  0.1130116E+00
         25   -1    0    0    0    0  0.00000000000E+00  0.00000000000E+00  0.99999998245E-14  0.12500000000E+03  0.12500000000E+03 0.  0.
        -11    1    3    3    0    0 -0.29295881462E+02  0.13735427466E+02  0.39802450001E+02  0.51294694313E+02  0.51100000000E-03 0. -1.
         23    2    1    0    0    0 -0.13485001871E+01 -0.15940571830E+02  0.26262496996E+02  0.94248755611E+02  0.89090902469E+02 0.  0.
         11    1    3    3    0    0  0.27947381275E+02 -0.29675999296E+02 -0.13539953005E+02  0.42954061298E+02  0.51100000000E-03 0.  1.
         22    1    1    0    0    0  0.13485001871E+01  0.15940571830E+02 -0.26262496996E+02  0.30751244389E+02  0.00000000000E+00 0. -1.
</event>
<event>
 5    1  0.1691145E-003  0.9118800E+02  0.7818608E-02  0.1130116E+00
         25   -1    0    0    0    0  0.00000000000E+00  0.00000000000E+00  0.99999998245E-14  0.12500000000E+03  0.12500000000E+03 0.  0.
        -11    1    3    3    0    0  0.14873473370E+02  0.23529256012E+02  0.46190300492E+02  0.53929490618E+02  0.51100000000E-03 0.  1.
         23    2    1    0    0    0  0.24289578354E+02  0.17271396551E+02  0.74597003697E+01  0.94276525505E+02  0.89129856818E+02 0.  0.
         11    1    3    3    0    0  0.94161049837E+01 -0.62578594608E+01 -0.38730600122E+02  0.40347034887E+02  0.51100000000E-03 0. -1.
         22    1    1    0    0    0 -0.24289578354E+02 -0.17271396551E+02 -0.74597003697E+01  0.30723474495E+02  0.00000000000E+00 0.  1.
</event>
<event>
 5    1  0.1691145E-003  0.9118800E+02  0.7818608E-02  0.1130116E+00
         25   -1    0    0    0    0  0.00000000000E+00  0.00000000000E+00  0.99999998245E-14  0.12500000000E+03  0.12500000000E+03 0.  0.
        -11    1    3    3    0    0 -0.20519350560E+02  0.40764981137E+02  0.40814702445E+02  0.61226361728E+02  0.51100000000E-03 0.  1.
         23    2    1    0    0    0 -0.13179736700E+01  0.13295778962E+02  0.20847732089E+02  0.10023828104E+03  0.97131716030E+02 0.  0.
         11    1    3    3    0    0  0.19201376890E+02 -0.27469202175E+02 -0.19966970357E+02  0.39011919308E+02  0.51100000000E-03 0. -1.
         22    1    1    0    0    0  0.13179736700E+01 -0.13295778962E+02 -0.20847732089E+02  0.24761718964E+02  0.00000000000E+00 0.  1.
</event>
<event>
 5    1  0.1691145E-003  0.9118800E+02  0.7818608E-02  0.1130116E+00
         25   -1    0    0    0    0  0.00000000000E+00  0.00000000000E+00  0.99999998245E-14  0.12500000000E+03  0.12500000000E+03 0.  0.
        -11    1    3    3    0    0 -0.11878387192E+02 -0.91549920441E+01  0.50486267414E+02  0.52666622820E+02  0.51100000000E-03 0.  1.
         23    2    1    0    0    0 -0.12408467786E+02 -0.24461954016E+02  0.10251928193E+02  0.95717594041E+02  0.91128472555E+02 0.  0.
         11    1    3    3    0    0 -0.53008059426E+00 -0.15306961972E+02 -0.40234339221E+02  0.43050971221E+02  0.51100000000E-03 0. -1.
         22    1    1    0    0    0  0.12408467786E+02  0.24461954016E+02 -0.10251928193E+02  0.29282405959E+02  0.00000000000E+00 0.  1.
</event>
<event>
 5    1  0.1691145E-003  0.9118800E+02  0.7818608E-02  0.1130116E+00
         25   -1    0    0    0    0  0.00000000000E+00  0.00000000000E+00  0.99999998245E-14  0.12500000000E+03  0.12500000000E+03 0.  0.
        -11    1    3    3    0    0  0.29509643345E+02 -0.27647088883E+00 -0.40236925529E+02  0.49898954526E+02  0.51100000000E-03 0.  1.
         23    2    1    0    0    0 -0.12156895084E+02 -0.11117106072E+02 -0.23952394999E+02  0.95929441497E+02  0.91418599717E+02 0.  0.
         11    1    3    3    0    0 -0.41666538429E+02 -0.10840635183E+02  0.16284530531E+02  0.46030486971E+02  0.51100000000E-03 0. -1.
         22    1    1    0    0    0  0.12156895084E+02  0.11117106072E+02  0.23952394999E+02  0.29070558503E+02  0.00000000000E+00 0. -1.
</event>
<event>
 5    1  0.1691145E-003  0.9118800E+02  0.7818608E-02  0.1130116E+00
         25   -1    0    0    0    0  0.00000000000E+00  0.00000000000E+00  0.99999998245E-14  0.12500000000E+03  0.12500000000E+03 0.  0.
        -11    1    3    3    0    0 -0.40126409649E+02 -0.31169560316E+02  0.14417111981E+02  0.52815938501E+02  0.51100000000E-03 0.  1.
         23    2    1    0    0    0 -0.28149971255E+02  0.80720116929E+01  0.21607820013E+01  0.95635953390E+02  0.91016418011E+02 0.  0.
         11    1    3    3    0    0  0.11976438394E+02  0.39241572009E+02 -0.12256329979E+02  0.42820014890E+02  0.51100000000E-03 0. -1.
         22    1    1    0    0    0  0.28149971255E+02 -0.80720116929E+01 -0.21607820013E+01  0.29364046610E+02  0.00000000000E+00 0.  1.
</event>
<event>
 5    1  0.1691145E-003  0.9118800E+02  0.7818608E-02  0.1130116E+00
         25   -1    0    0    0    0  0.00000000000E+00  0.00000000000E+00  0.99999998245E-14  0.12500000000E+03  0.12500000000E+03 0.  0.
        -11    1    3    3    0    0 -0.14289797957E+02  0.33544260993E+02 -0.49961392149E+02  0.61851083070E+02  0.51100000000E-03 0. -1.
         23    2    1    0    0    0 -0.91578973519E+01  0.20182310611E+02 -0.19615217782E+02  0.95403555718E+02  0.90696686431E+02 0.  0.
         11    1    3    3    0    0  0.51319006055E+01 -0.13361950382E+02  0.30346174367E+02  0.33552472648E+02  0.51100000000E-03 0.  1.
         22    1    1    0    0    0  0.91578973519E+01 -0.20182310611E+02  0.19615217782E+02  0.29596444282E+02  0.00000000000E+00 0. -1.
</event>
<event>
 5    1  0.1691145E-003  0.9118800E+02  0.7818608E-02  0.1130116E+00
         25   -1    0    0    0    0  0.00000000000E+00  0.00000000000E+00  0.99999998245E-14  0.12500000000E+03  0.12500000000E+03 0.  0.
        -11    1    3    3    0    0  0.19601996808E+02 -0.18688717590E+01  0.48371618450E+02  0.52225898099E+02  0.51100000000E-03 0. -1.
         23    2    1    0    0    0  0.26361418525E+02 -0.13736232142E+02  0.89346957861E+01  0.93960714426E+02  0.88685842199E+02 0.  0.
         11    1    3    3    0    0  0.67594217176E+01 -0.11867360384E+02 -0.39436922664E+02  0.41734816327E+02  0.51100000000E-03 0.  1.
         22    1    1    0    0    0 -0.26361418525E+02  0.13736232142E+02 -0.89346957861E+01  0.31039285574E+02  0.00000000000E+00 0. -1.
</event>
<event>
 5    1  0.1691145E-003  0.9118800E+02  0.7818608E-02  0.1130116E+00
         25   -1    0    0    0    0  0.00000000000E+00  0.00000000000E+00  0.99999998245E-14  0.12500000000E+03  0.12500000000E+03 0.  0.
        -11    1    3    3    0    0  0.58534846088E+02 -0.12597585964E+02  0.16866823197E+02  0.62205442718E+02  0.51100000000E-03 0.  1.
         23    2    1    0    0    0  0.29397914881E+02 -0.10112299165E+02  0.10940116411E+02  0.92042722490E+02  0.85939982677E+02 0.  0.
         11    1    3    3    0    0 -0.29136931207E+02  0.24852867987E+01 -0.59267067858E+01  0.29837279772E+02  0.51100000000E-03 0. -1.
         22    1    1    0    0    0 -0.29397914881E+02  0.10112299165E+02 -0.10940116411E+02  0.32957277510E+02  0.00000000000E+00 0.  1.
</event>
<event>
 5    1  0.1691145E-003  0.9118800E+02  0.7818608E-02  0.1130116E+00
         25   -1    0    0    0    0  0.00000000000E+00  0.00000000000E+00  0.99999998245E-14  0.12500000000E+03  0.12500000000E+03 0.  0.
        -11    1    3    3    0    0  0.20149057445E+02  0.26653420722E+02 -0.25186777995E+02  0.41842121578E+02  0.51100000000E-03 0.  1.
         23    2    1    0    0    0  0.15465853037E+02  0.12521907221E+01  0.23432103820E+02  0.96896190984E+02  0.92731050604E+02 0.  0.
         11    1    3    3    0    0 -0.46832044079E+01 -0.25401229999E+02  0.48618881815E+02  0.55054069407E+02  0.51100000000E-03 0. -1.
         22    1    1    0    0    0 -0.15465853037E+02 -0.12521907221E+01 -0.23432103820E+02  0.28103809016E+02  0.00000000000E+00 0. -1.
</event>
<event>
 5    1  0.1691145E-003  0.9118800E+02  0.7818608E-02  0.1130116E+00
         25   -1    0    0    0    0  0.00000000000E+00  0.00000000000E+00  0.99999998245E-14  0.12500000000E+03  0.12500000000E+03 0.  0.
        -11    1    3    3    0    0  0.35207785978E+02 -0.35790687131E+02 -0.78354464720E+01  0.50812948158E+02  0.51100000000E-03 0.  1.
         23    2    1    0    0    0  0.23381285574E+02  0.86121248725E+01 -0.12722602982E+02  0.97022905144E+02  0.92901702277E+02 0.  0.
         11    1    3    3    0    0 -0.11826500404E+02  0.44402812004E+02 -0.48871565104E+01  0.46209956986E+02  0.51100000000E-03 0. -1.
         22    1    1    0    0    0 -0.23381285574E+02 -0.86121248725E+01  0.12722602982E+02  0.27977094856E+02  0.00000000000E+00 0.  1.
</event>
<event>
 5    1  0.1691145E-003  0.9118800E+02  0.7818608E-02  0.1130116E+00
         25   -1    0    0    0    0  0.00000000000E+00  0.00000000000E+00  0.99999998245E-14  0.12500000000E+03  0.12500000000E+03 0.  0.
        -11    1    3    3    0    0 -0.27489658266E+02 -0.90266727908E+01  0.13725596419E+02  0.32024274084E+02  0.51100000000E-03 0.  1.
         23    2    1    0    0    0  0.24105713208E+02  0.17680295240E+02 -0.80038935251E+01  0.94052616255E+02  0.88815280576E+02 0.  0.
         11    1    3    3    0    0  0.51595371475E+02  0.26706968031E+02 -0.21729489945E+02  0.62028342171E+02  0.51100000000E-03 0. -1.
         22    1    1    0    0    0 -0.24105713208E+02 -0.17680295240E+02  0.80038935251E+01  0.30947383745E+02  0.00000000000E+00 0. -1.
</event>
<event>
 5    1  0.1691145E-003  0.9118800E+02  0.7818608E-02  0.1130116E+00
         25   -1    0    0    0    0  0.00000000000E+00  0.00000000000E+00  0.99999998245E-14  0.12500000000E+03  0.12500000000E+03 0.  0.
        -11    1    3    3    0    0 -0.45617378517E+02 -0.23431659859E+01  0.30296600753E+02  0.54811674550E+02  0.51100000000E-03 0. -1.
         23    2    1    0    0    0 -0.21115027915E+02  0.20352451246E+02  0.94232302502E+01  0.94196364761E+02  0.89017364543E+02 0.  0.
         11    1    3    3    0    0  0.24502350602E+02  0.22695617232E+02 -0.20873370502E+02  0.39384690211E+02  0.51100000000E-03 0.  1.
         22    1    1    0    0    0  0.21115027915E+02 -0.20352451246E+02 -0.94232302502E+01  0.30803635239E+02  0.00000000000E+00 0.  1.
</event>
<event>
 5    1  0.1691145E-003  0.9118800E+02  0.7818608E-02  0.1130116E+00
         25   -1    0    0    0    0  0.00000000000E+00  0.00000000000E+00  0.99999998245E-14  0.12500000000E+03  0.12500000000E+03 0.  0.
        -11    1    3    3    0    0 -0.20061199411E+02 -0.29406836363E+02 -0.19816338300E+02  0.40741882757E+02  0.51100000000E-03 0. -1.
         23    2    1    0    0    0  0.12052298600E+02 -0.67933366861E+00  0.21439433537E+02  0.10039575837E+03  0.97334164571E+02 0.  0.
         11    1    3    3    0    0  0.32113498011E+02  0.28727502695E+02  0.41255771837E+02  0.59653875614E+02  0.51100000000E-03 0.  1.
         22    1    1    0    0    0 -0.12052298600E+02  0.67933366861E+00 -0.21439433537E+02  0.24604241629E+02  0.00000000000E+00 0.  1.
</event>
<event>
 5    1  0.1691145E-003  0.9118800E+02  0.7818608E-02  0.1130116E+00
         25   -1    0    0    0    0  0.00000000000E+00  0.00000000000E+00  0.99999998245E-14  0.12500000000E+03  0.12500000000E+03 0.  0.
        -11    1    3    3    0    0  0.80062278976E+01 -0.89519564976E+01  0.36119261263E+02  0.38063607878E+02  0.51100000000E-03 0. -1.
         23    2    1    0    0    0  0.26850410149E+01 -0.20584345930E+02 -0.20330144555E+02  0.95944199886E+02  0.91438777177E+02 0.  0.
         11    1    3    3    0    0 -0.53211868827E+01 -0.11632389432E+02 -0.56449405818E+02  0.57880592008E+02  0.51100000000E-03 0.  1.
         22    1    1    0    0    0 -0.26850410149E+01  0.20584345930E+02  0.20330144555E+02  0.29055800114E+02  0.00000000000E+00 0.  1.
</event>
<event>
 5    1  0.1691145E-003  0.9118800E+02  0.7818608E-02  0.1130116E+00
         25   -1    0    0    0    0  0.00000000000E+00  0.00000000000E+00  0.99999998245E-14  0.12500000000E+03  0.12500000000E+03 0.  0.
        -11    1    3    3    0    0  0.34288068450E+01  0.33347288399E+02 -0.27794139421E+02  0.43546670898E+02  0.51100000000E-03 0. -1.
         23    2    1    0    0    0  0.10642313776E+02  0.15323442166E+02  0.21504727571E+02  0.96530366525E+02  0.92236606785E+02 0.  0.
         11    1    3    3    0    0  0.72135069308E+01 -0.18023846232E+02  0.49298866992E+02  0.52983695626E+02  0.51100000000E-03 0.  1.
         22    1    1    0    0    0 -0.10642313776E+02 -0.15323442166E+02 -0.21504727571E+02  0.28469633475E+02  0.00000000000E+00 0.  1.
</event>
<event>
 5    1  0.1691145E-003  0.9118800E+02  0.7818608E-02  0.1130116E+00
         25   -1    0    0    0    0  0.00000000000E+00  0.00000000000E+00  0.99999998245E-14  0.12500000000E+03  0.12500000000E+03 0.  0.
        -11    1    3    3    0    0 -0.33625472821E+02  0.38081363794E+02  0.27388550658E+02  0.57714776256E+02  0.51100000000E-03 0. -1.
         23    2    1    0    0    0 -0.22412612339E+01  0.17697665239E+02  0.23725172651E+02  0.95316428379E+02  0.90576526180E+02 0.  0.
         11    1    3    3    0    0  0.31384211587E+02 -0.20383698555E+02 -0.36633780070E+01  0.37601652123E+02  0.51100000000E-03 0.  1.
         22    1    1    0    0    0  0.22412612339E+01 -0.17697665239E+02 -0.23725172651E+02  0.29683571621E+02  0.00000000000E+00 0. -1.
</event>
<event>
 5    1  0.1691145E-003  0.9118800E+02  0.7818608E-02  0.1130116E+00
         25   -1    0    0    0    0  0.00000000000E+00  0.00000000000E+00  0.99999998245E-14  0.12500000000E+03  0.12500000000E+03 0.  0.
        -11    1    3    3    0    0  0.46992723405E+02 -0.26927407915E+02  0.11685783976E+02  0.55407209796E+02  0.51100000000E-03 0.  1.
         23    2    1    0    0    0  0.17140097238E+02 -0.34053200259E+01  0.23958278230E+02  0.95345687774E+02  0.90616896568E+02 0.  0.
         11    1    3    3    0    0 -0.29852626167E+02  0.23522087889E+02  0.12272494255E+02  0.39938477978E+02  0.51100000000E-03 0. -1.
         22    1    1    0    0    0 -0.17140097238E+02  0.34053200259E+01 -0.23958278230E+02  0.29654312226E+02  0.00000000000E+00 0.  1.
</event>
<event>
 5    1  0.1691145E-003  0.9118800E+02  0.7818608E-02  0.1130116E+00
         25   -1    0    0    0    0  0.00000000000E+00  0.00000000000E+00  0.99999998245E-14  0.12500000000E+03  0.12500000000E+03 0.  0.
        -11    1    3    3    0    0  0.15189161284E+02 -0.17819930164E+02  0.26763098682E+02  0.35560145991E+02  0.51100000000E-03 0. -1.
         23    2    1    0    0    0 -0.10641479891E+02  0.28251643249E+02 -0.84566011927E-01  0.94810538396E+02  0.89875661883E+02 0.  0.
         11    1    3    3    0    0 -0.25830641175E+02  0.46071573413E+02 -0.26847664694E+02  0.59250392405E+02  0.51100000000E-03 0.  1.
         22    1    1    0    0    0  0.10641479891E+02 -0.28251643249E+02  0.84566011927E-01  0.30189461604E+02  0.00000000000E+00 0.  1.
</event>
<event>
 5    1  0.1691145E-003  0.9118800E+02  0.7818608E-02  0.1130116E+00
         25   -1    0    0    0    0  0.00000000000E+00  0.00000000000E+00  0.99999998245E-14  0.12500000000E+03  0.12500000000E+03 0.  0.
        -11    1    3    3    0    0 -0.12656451879E+02  0.48428354507E+02 -0.29427892958E+02  0.58064551825E+02  0.51100000000E-03 0. -1.
         23    2    1    0    0    0  0.25262617946E+01  0.14063309998E+02 -0.25409833613E+02  0.95848356290E+02  0.91307661631E+02 0.  0.
         11    1    3    3    0    0  0.15182713673E+02 -0.34365044510E+02  0.40180593451E+01  0.37783804464E+02  0.51100000000E-03 0.  1.
         22    1    1    0    0    0 -0.25262617946E+01 -0.14063309998E+02  0.25409833613E+02  0.29151643710E+02  0.00000000000E+00 0. -1.
</event>
<event>
 5    1  0.1691145E-003  0.9118800E+02  0.7818608E-02  0.1130116E+00
         25   -1    0    0    0    0  0.00000000000E+00  0.00000000000E+00  0.99999998245E-14  0.12500000000E+03  0.12500000000E+03 0.  0.
        -11    1    3    3    0    0 -0.78049612502E+01 -0.49436427005E+02 -0.30088349113E+02  0.58396802033E+02  0.51100000000E-03 0. -1.
         23    2    1    0    0    0  0.10727878163E+02 -0.28198945914E+02 -0.92728666332E+01  0.93436508809E+02  0.87943886668E+02 0.  0.
         11    1    3    3    0    0  0.18532839413E+02  0.21237481091E+02  0.20815482480E+02  0.35039706776E+02  0.51100000000E-03 0.  1.
         22    1    1    0    0    0 -0.10727878163E+02  0.28198945914E+02  0.92728666332E+01  0.31563491191E+02  0.00000000000E+00 0. -1.
</event>
<event>
 5    1  0.1691145E-003  0.9118800E+02  0.7818608E-02  0.1130116E+00
         25   -1    0    0    0    0  0.00000000000E+00  0.00000000000E+00  0.99999998245E-14  0.12500000000E+03  0.12500000000E+03 0.  0.
        -11    1    3    3    0    0 -0.29265694559E+01 -0.32837632059E+02  0.46062379190E+01  0.33288020608E+02  0.51100000000E-03 0.  1.
         23    2    1    0    0    0 -0.16056799396E+01  0.29289722246E+02 -0.72187454134E+00  0.95657417629E+02  0.91045891765E+02 0.  0.
         11    1    3    3    0    0  0.13208895163E+01  0.62127354305E+02 -0.53281124603E+01  0.62369397021E+02  0.51100000000E-03 0. -1.
         22    1    1    0    0    0  0.16056799396E+01 -0.29289722246E+02  0.72187454134E+00  0.29342582371E+02  0.00000000000E+00 0. -1.
</event>
<event>
 5    1  0.1691145E-003  0.9118800E+02  0.7818608E-02  0.1130116E+00
         25   -1    0    0    0    0  0.00000000000E+00  0.00000000000E+00  0.99999998245E-14  0.12500000000E+03  0.12500000000E+03 0.  0.
        -11    1    3    3    0    0 -0.34773681488E+02 -0.18387052736E+02 -0.13467725387E+02  0.41577304625E+02  0.51100000000E-03 0.  1.
         23    2    1    0    0    0  0.71971177059E+01  0.15351895354E+02 -0.23164042429E+02  0.96293693099E+02  0.91915304900E+02 0.  0.
         11    1    3    3    0    0  0.41970799194E+02  0.33738948091E+02 -0.96963170419E+01  0.54716388474E+02  0.51100000000E-03 0. -1.
         22    1    1    0    0    0 -0.71971177059E+01 -0.15351895354E+02  0.23164042429E+02  0.28706306901E+02  0.00000000000E+00 0. -1.
</event>
<event>
 5    1  0.1691145E-003  0.9118800E+02  0.7818608E-02  0.1130116E+00
         25   -1    0    0    0    0  0.00000000000E+00  0.00000000000E+00  0.99999998245E-14  0.12500000000E+03  0.12500000000E+03 0.  0.
        -11    1    3    3    0    0 -0.23617339980E+02 -0.18827540166E+02  0.17693892975E+02  0.35004697761E+02  0.51100000000E-03 0. -1.
         23    2    1    0    0    0  0.23494346971E+02  0.58765472746E+01 -0.14098602706E+02  0.96976996133E+02  0.92839910778E+02 0.  0.
         11    1    3    3    0    0  0.47111686951E+02  0.24704087441E+02 -0.31792495682E+02  0.61972298372E+02  0.51100000000E-03 0.  1.
         22    1    1    0    0    0 -0.23494346971E+02 -0.58765472746E+01  0.14098602706E+02  0.28023003867E+02  0.00000000000E+00 0.  1.
</event>
<event>
 5    1  0.1691145E-003  0.9118800E+02  0.7818608E-02  0.1130116E+00
         25   -1    0    0    0    0  0.00000000000E+00  0.00000000000E+00  0.99999998245E-14  0.12500000000E+03  0.12500000000E+03 0.  0.
        -11    1    3    3    0    0  0.52910718557E+02  0.16814316541E+01  0.13947723460E+02  0.54744043883E+02  0.51100000000E-03 0.  1.
         23    2    1    0    0    0  0.92612155158E+01 -0.12121461156E+02  0.18810543234E+02  0.10078148497E+03  0.97828274252E+02 0.  0.
         11    1    3    3    0    0 -0.43649503041E+02 -0.13802892810E+02  0.48628197742E+01  0.46037441090E+02  0.51100000000E-03 0. -1.
         22    1    1    0    0    0 -0.92612155158E+01  0.12121461156E+02 -0.18810543234E+02  0.24218515028E+02  0.00000000000E+00 0.  1.
</event>
<event>
 5    1  0.1691145E-003  0.9118800E+02  0.7818608E-02  0.1130116E+00
         25   -1    0    0    0    0  0.00000000000E+00  0.00000000000E+00  0.99999998245E-14  0.12500000000E+03  0.12500000000E+03 0.  0.
        -11    1    3    3    0    0  0.22373740918E+00 -0.49041699611E+02  0.37345990768E+02  0.61643015710E+02  0.51100000000E-03 0.  1.
         23    2    1    0    0    0  0.64085383489E+01 -0.20390963086E+02  0.20147156397E+02  0.95627076240E+02  0.91004225506E+02 0.  0.
         11    1    3    3    0    0  0.61848009398E+01  0.28650736525E+02 -0.17198834371E+02  0.33984060530E+02  0.51100000000E-03 0. -1.
         22    1    1    0    0    0 -0.64085383489E+01  0.20390963086E+02 -0.20147156397E+02  0.29372923760E+02  0.00000000000E+00 0.  1.
</event>
<event>
 5    1  0.1691145E-003  0.9118800E+02  0.7818608E-02  0.1130116E+00
         25   -1    0    0    0    0  0.00000000000E+00  0.00000000000E+00  0.99999998245E-14  0.12500000000E+03  0.12500000000E+03 0.  0.
        -11    1    3    3    0    0 -0.16197401939E+02  0.43794363149E+02 -0.33742897947E+02  0.57609766840E+02  0.51100000000E-03 0.  1.
         23    2    1    0    0    0  0.96788259963E+01  0.10443215159E+02 -0.16494084438E+02  0.10321020337E+03  0.10088384828E+03 0.  0.
         11    1    3    3    0    0  0.25876227936E+02 -0.33351147990E+02  0.17248813509E+02  0.45600436535E+02  0.51100000000E-03 0. -1.
         22    1    1    0    0    0 -0.96788259963E+01 -0.10443215159E+02  0.16494084438E+02  0.21789796626E+02  0.00000000000E+00 0.  1.
</event>
<event>
 5    1  0.1691145E-003  0.9118800E+02  0.7818608E-02  0.1130116E+00
         25   -1    0    0    0    0  0.00000000000E+00  0.00000000000E+00  0.99999998245E-14  0.12500000000E+03  0.12500000000E+03 0.  0.
        -11    1    3    3    0    0 -0.36300237642E+02  0.42684101516E+02  0.95879515087E+01  0.56846887245E+02  0.51100000000E-03 0.  1.
         23    2    1    0    0    0 -0.22113289798E+02  0.14757504048E+02 -0.12942437583E+02  0.95431635115E+02  0.90735377768E+02 0.  0.
         11    1    3    3    0    0  0.14186947844E+02 -0.27926597468E+02 -0.22530389092E+02  0.38584747869E+02  0.51100000000E-03 0. -1.
         22    1    1    0    0    0  0.22113289798E+02 -0.14757504048E+02  0.12942437583E+02  0.29568364885E+02  0.00000000000E+00 0.  1.
</event>
<event>
 5    1  0.1691145E-003  0.9118800E+02  0.7818608E-02  0.1130116E+00
         25   -1    0    0    0    0  0.00000000000E+00  0.00000000000E+00  0.99999998245E-14  0.12500000000E+03  0.12500000000E+03 0.  0.
        -11    1    3    3    0    0  0.31286791873E+02  0.24375342393E+01 -0.53163378847E+02  0.61734510361E+02  0.51100000000E-03 0.  1.
         23    2    1    0    0    0  0.94083837190E+01  0.56278193031E+01 -0.26166295052E+02  0.96629856697E+02  0.92371338488E+02 0.  0.
         11    1    3    3    0    0 -0.21878408154E+02  0.31902850638E+01  0.26997083795E+02  0.34895346335E+02  0.51100000000E-03 0. -1.
         22    1    1    0    0    0 -0.94083837190E+01 -0.56278193031E+01  0.26166295052E+02  0.28370143303E+02  0.00000000000E+00 0.  1.
</event>
<event>
 5    1  0.1691145E-003  0.9118800E+02  0.7818608E-02  0.1130116E+00
         25   -1    0    0    0    0  0.00000000000E+00  0.00000000000E+00  0.99999998245E-14  0.12500000000E+03  0.12500000000E+03 0.  0.
        -11    1    3    3    0    0 -0.39090281703E+02 -0.94456870090E+01  0.49855242971E-01  0.40215340512E+02  0.51100000000E-03 0. -1.
         23    2    1    0    0    0 -0.45180259662E+01  0.26331888812E+02  0.17639613808E+02  0.92985364247E+02  0.87300292450E+02 0.  0.
         11    1    3    3    0    0  0.34572255737E+02  0.35777575821E+02  0.17589758565E+02  0.52770023735E+02  0.51100000000E-03 0.  1.
         22    1    1    0    0    0  0.45180259662E+01 -0.26331888812E+02 -0.17639613808E+02  0.32014635753E+02  0.00000000000E+00 0. -1.
</event>
<event>
 5    1  0.1691145E-003  0.9118800E+02  0.7818608E-02  0.1130116E+00
         25   -1    0    0    0    0  0.00000000000E+00  0.00000000000E+00  0.99999998245E-14  0.12500000000E+03  0.12500000000E+03 0.  0.
        -11    1    3    3    0    0  0.33652574126E+01 -0.30661382582E+02 -0.16228517597E+02  0.34854126340E+02  0.51100000000E-03 0. -1.
         23    2    1    0    0    0 -0.23624602290E+01  0.96071816050E+01  0.28215320490E+02  0.95100443698E+02  0.90277964778E+02 0.  0.
         11    1    3    3    0    0 -0.57277176416E+01  0.40268564187E+02  0.44443838086E+02  0.60246317358E+02  0.51100000000E-03 0.  1.
         22    1    1    0    0    0  0.23624602290E+01 -0.96071816050E+01 -0.28215320490E+02  0.29899556302E+02  0.00000000000E+00 0.  1.
</event>
<event>
 5    1  0.1691145E-003  0.9118800E+02  0.7818608E-02  0.1130116E+00
         25   -1    0    0    0    0  0.00000000000E+00  0.00000000000E+00  0.99999998245E-14  0.12500000000E+03  0.12500000000E+03 0.  0.
        -11    1    3    3    0    0  0.99098789651E+01  0.10690677981E+02 -0.34969592413E+02  0.37886259919E+02  0.51100000000E-03 0.  1.
         23    2    1    0    0    0 -0.17166046638E+02 -0.19282544318E+02  0.90631073120E+01  0.97638903774E+02  0.93726868845E+02 0.  0.
         11    1    3    3    0    0 -0.27075925603E+02 -0.29973222299E+02  0.44032699725E+02  0.59752643855E+02  0.51100000000E-03 0. -1.
         22    1    1    0    0    0  0.17166046638E+02  0.19282544318E+02 -0.90631073120E+01  0.27361096226E+02  0.00000000000E+00 0. -1.
</event>
<event>
 5    1  0.1691145E-003  0.9118800E+02  0.7818608E-02  0.1130116E+00
         25   -1    0    0    0    0  0.00000000000E+00  0.00000000000E+00  0.99999998245E-14  0.12500000000E+03  0.12500000000E+03 0.  0.
        -11    1    3    3    0    0  0.64020572252E+01 -0.23417526246E+02 -0.22646313800E+02  0.33199734957E+02  0.51100000000E-03 0.  1.
         23    2    1    0    0    0  0.93117412229E+01  0.28799666457E+02  0.78380091020E+01  0.93733984914E+02  0.88365695994E+02 0.  0.
         11    1    3    3    0    0  0.29096839976E+01  0.52217192704E+02  0.30484322902E+02  0.60534249957E+02  0.51100000000E-03 0. -1.
         22    1    1    0    0    0 -0.93117412229E+01 -0.28799666457E+02 -0.78380091020E+01  0.31266015086E+02  0.00000000000E+00 0. -1.
</event>
<event>
 5    1  0.1691145E-003  0.9118800E+02  0.7818608E-02  0.1130116E+00
         25   -1    0    0    0    0  0.00000000000E+00  0.00000000000E+00  0.99999998245E-14  0.12500000000E+03  0.12500000000E+03 0.  0.
        -11    1    3    3    0    0 -0.43485351057E+02 -0.16599629090E+02 -0.15141169183E+01  0.46570548556E+02  0.51100000000E-03 0.  1.
         23    2    1    0    0    0 -0.13296306815E+02  0.18053544753E+02  0.17749527211E+02  0.96403357377E+02  0.92064321777E+02 0.  0.
         11    1    3    3    0    0  0.30189044242E+02  0.34653173843E+02  0.19263644130E+02  0.49832808822E+02  0.51100000000E-03 0. -1.
         22    1    1    0    0    0  0.13296306815E+02 -0.18053544753E+02 -0.17749527211E+02  0.28596642623E+02  0.00000000000E+00 0. -1.
</event>
<event>
 5    1  0.1691145E-003  0.9118800E+02  0.7818608E-02  0.1130116E+00
         25   -1    0    0    0    0  0.00000000000E+00  0.00000000000E+00  0.99999998245E-14  0.12500000000E+03  0.12500000000E+03 0.  0.
        -11    1    3    3    0    0  0.46846201230E+02 -0.10593597230E+02  0.45463592909E+01  0.48243758715E+02  0.51100000000E-03 0.  1.
         23    2    1    0    0    0  0.14259911389E+02  0.24613478641E+02 -0.10018220167E+01  0.96536478591E+02  0.92244889549E+02 0.  0.
         11    1    3    3    0    0 -0.32586289841E+02  0.35207075871E+02 -0.55481813076E+01  0.48292719876E+02  0.51100000000E-03 0. -1.
         22    1    1    0    0    0 -0.14259911389E+02 -0.24613478641E+02  0.10018220167E+01  0.28463521409E+02  0.00000000000E+00 0.  1.
</event>
<event>
 5    1  0.1691145E-003  0.9118800E+02  0.7818608E-02  0.1130116E+00
         25   -1    0    0    0    0  0.00000000000E+00  0.00000000000E+00  0.99999998245E-14  0.12500000000E+03  0.12500000000E+03 0.  0.
        -11    1    3    3    0    0  0.44675789766E+02  0.12194267507E+02  0.31830402846E+02  0.56194313741E+02  0.51100000000E-03 0.  1.
         23    2    1    0    0    0  0.61828025643E+01  0.17183649155E+02  0.22326655530E+02  0.96155860335E+02  0.91727668039E+02 0.  0.
         11    1    3    3    0    0 -0.38492987201E+02  0.49893816484E+01 -0.95037473162E+01  0.39961546594E+02  0.51100000000E-03 0. -1.
         22    1    1    0    0    0 -0.61828025643E+01 -0.17183649155E+02 -0.22326655530E+02  0.28844139665E+02  0.00000000000E+00 0.  1.
</event>
<event>
 5    1  0.1691145E-003  0.9118800E+02  0.7818608E-02  0.1130116E+00
         25   -1    0    0    0    0  0.00000000000E+00  0.00000000000E+00  0.99999998245E-14  0.12500000000E+03  0.12500000000E+03 0.  0.
        -11    1    3    3    0    0  0.12189658789E+02 -0.52698336061E+02 -0.20626299708E+02  0.57889089170E+02  0.51100000000E-03 0.  1.
         23    2    1    0    0    0 -0.72327186279E+01 -0.20104154112E+02 -0.19845834390E+02  0.95839300867E+02  0.91295263934E+02 0.  0.
         11    1    3    3    0    0 -0.19422377417E+02  0.32594181949E+02  0.78046531834E+00  0.37950211697E+02  0.51100000000E-03 0. -1.
         22    1    1    0    0    0  0.72327186279E+01  0.20104154112E+02  0.19845834390E+02  0.29160699133E+02  0.00000000000E+00 0.  1.
</event>
<event>
 5    1  0.1691145E-003  0.9118800E+02  0.7818608E-02  0.1130116E+00
         25   -1    0    0    0    0  0.00000000000E+00  0.00000000000E+00  0.99999998245E-14  0.12500000000E+03  0.12500000000E+03 0.  0.
        -11    1    3    3    0    0  0.29724636848E+02 -0.10599535338E+02  0.79337054961E+01  0.32539942659E+02  0.51100000000E-03 0. -1.
         23    2    1    0    0    0 -0.29358866356E+02  0.47842226984E+01 -0.46945763732E+01  0.94885703264E+02  0.89980141232E+02 0.  0.
         11    1    3    3    0    0 -0.59083503204E+02  0.15383758037E+02 -0.12628281869E+02  0.62345760605E+02  0.51100000000E-03 0.  1.
         22    1    1    0    0    0  0.29358866356E+02 -0.47842226984E+01  0.46945763732E+01  0.30114296736E+02  0.00000000000E+00 0.  1.
</event>
<event>
 5    1  0.1691145E-003  0.9118800E+02  0.7818608E-02  0.1130116E+00
         25   -1    0    0    0    0  0.00000000000E+00  0.00000000000E+00  0.99999998245E-14  0.12500000000E+03  0.12500000000E+03 0.  0.
        -11    1    3    3    0    0  0.14145009319E+01 -0.26973765369E+02 -0.53850578974E+02  0.60245080190E+02  0.51100000000E-03 0.  1.
         23    2    1    0    0    0  0.12388817197E+02 -0.13455262730E+02 -0.23689802336E+02  0.95071190779E+02  0.90237451730E+02 0.  0.
         11    1    3    3    0    0  0.10974316265E+02  0.13518502639E+02  0.30160776638E+02  0.34826110589E+02  0.51100000000E-03 0. -1.
         22    1    1    0    0    0 -0.12388817197E+02  0.13455262730E+02  0.23689802336E+02  0.29928809221E+02  0.00000000000E+00 0.  1.
</event>
<event>
 5    1  0.1691145E-003  0.9118800E+02  0.7818608E-02  0.1130116E+00
         25   -1    0    0    0    0  0.00000000000E+00  0.00000000000E+00  0.99999998245E-14  0.12500000000E+03  0.12500000000E+03 0.  0.
        -11    1    3    3    0    0  0.26017245823E+02 -0.36160846125E+02  0.16158293181E+02  0.47387702112E+02  0.51100000000E-03 0.  1.
         23    2    1    0    0    0  0.26314368141E+02  0.86832414474E+01 -0.47811537258E+01  0.96880539058E+02  0.92709949652E+02 0.  0.
         11    1    3    3    0    0  0.29712231843E+00  0.44844087573E+02 -0.20939446907E+02  0.49492836946E+02  0.51100000000E-03 0. -1.
         22    1    1    0    0    0 -0.26314368141E+02 -0.86832414474E+01  0.47811537258E+01  0.28119460942E+02  0.00000000000E+00 0. -1.
</event>
<event>
 5    1  0.1691145E-003  0.9118800E+02  0.7818608E-02  0.1130116E+00
         25   -1    0    0    0    0  0.00000000000E+00  0.00000000000E+00  0.99999998245E-14  0.12500000000E+03  0.12500000000E+03 0.  0.
        -11    1    3    3    0    0 -0.11743124792E+02 -0.40113665964E+02  0.35041368030E+01  0.41943845221E+02  0.51100000000E-03 0.  1.
         23    2    1    0    0    0  0.13114829707E+02  0.15684027058E+01  0.26305352719E+02  0.95564813115E+02  0.90918662984E+02 0.  0.
         11    1    3    3    0    0  0.24857954499E+02  0.41682068669E+02  0.22801215916E+02  0.53620967894E+02  0.51100000000E-03 0. -1.
         22    1    1    0    0    0 -0.13114829707E+02 -0.15684027058E+01 -0.26305352719E+02  0.29435186885E+02  0.00000000000E+00 0.  1.
</event>
<event>
 5    1  0.1691145E-003  0.9118800E+02  0.7818608E-02  0.1130116E+00
         25   -1    0    0    0    0  0.00000000000E+00  0.00000000000E+00  0.99999998245E-14  0.12500000000E+03  0.12500000000E+03 0.  0.
        -11    1    3    3    0    0  0.44300904236E+02  0.46365465911E+00 -0.20284295168E+02  0.48726150294E+02  0.51100000000E-03 0.  1.
         23    2    1    0    0    0  0.15550587671E+02  0.22385779190E+02  0.10078808203E+02  0.95939265982E+02  0.91432032109E+02 0.  0.
         11    1    3    3    0    0 -0.28750316565E+02  0.21922124531E+02  0.30363103370E+02  0.47213115689E+02  0.51100000000E-03 0. -1.
         22    1    1    0    0    0 -0.15550587671E+02 -0.22385779190E+02 -0.10078808203E+02  0.29060734018E+02  0.00000000000E+00 0.  1.
</event>
<event>
 5    1  0.1691145E-003  0.9118800E+02  0.7818608E-02  0.1130116E+00
         25   -1    0    0    0    0  0.00000000000E+00  0.00000000000E+00  0.99999998245E-14  0.12500000000E+03  0.12500000000E+03 0.  0.
        -11    1    3    3    0    0  0.67294171186E+01  0.19216530574E+02  0.34795122077E+02  0.40314521238E+02  0.51100000000E-03 0.  1.
         23    2    1    0    0    0  0.27768370107E+02 -0.71589024246E+01 -0.83946932817E+01  0.95120188461E+02  0.90305299486E+02 0.  0.
         11    1    3    3    0    0  0.21038952988E+02 -0.26375432999E+02 -0.43189815359E+02  0.54805667222E+02  0.51100000000E-03 0. -1.
         22    1    1    0    0    0 -0.27768370107E+02  0.71589024246E+01  0.83946932817E+01  0.29879811539E+02  0.00000000000E+00 0. -1.
</event>
<event>
 5    1  0.1691145E-003  0.9118800E+02  0.7818608E-02  0.1130116E+00
         25   -1    0    0    0    0  0.00000000000E+00  0.00000000000E+00  0.99999998245E-14  0.12500000000E+03  0.12500000000E+03 0.  0.
        -11    1    3    3    0    0 -0.21006486356E+02 -0.36962782506E+02  0.31361952900E+02  0.52830785055E+02  0.51100000000E-03 0.  1.
         23    2    1    0    0    0  0.14660339169E+02 -0.16948478009E+02  0.19175440069E+02  0.95506374363E+02  0.90838282628E+02 0.  0.
         11    1    3    3    0    0  0.35666825525E+02  0.20014304496E+02 -0.12186512831E+02  0.42675589308E+02  0.51100000000E-03 0. -1.
         22    1    1    0    0    0 -0.14660339169E+02  0.16948478009E+02 -0.19175440069E+02  0.29493625637E+02  0.00000000000E+00 0.  1.
</event>
<event>
 5    1  0.1691145E-003  0.9118800E+02  0.7818608E-02  0.1130116E+00
         25   -1    0    0    0    0  0.00000000000E+00  0.00000000000E+00  0.99999998245E-14  0.12500000000E+03  0.12500000000E+03 0.  0.
        -11    1    3    3    0    0 -0.22385871387E+02 -0.20517902281E+02 -0.19529379719E+02  0.36104130293E+02  0.51100000000E-03 0.  1.
         23    2    1    0    0    0  0.86469874094E+00  0.29364605800E+02  0.27851656069E+01  0.95490934864E+02  0.90817034284E+02 0.  0.
         11    1    3    3    0    0  0.23250570128E+02  0.49882508082E+02  0.22314545325E+02  0.59386804571E+02  0.51100000000E-03 0. -1.
         22    1    1    0    0    0 -0.86469874094E+00 -0.29364605800E+02 -0.27851656069E+01  0.29509065136E+02  0.00000000000E+00 0. -1.
</event>
<event>
 5    1  0.1691145E-003  0.9118800E+02  0.7818608E-02  0.1130116E+00
         25   -1    0    0    0    0  0.00000000000E+00  0.00000000000E+00  0.99999998245E-14  0.12500000000E+03  0.12500000000E+03 0.  0.
        -11    1    3    3    0    0  0.29142478300E+02  0.53530035525E+02  0.10357241056E+02  0.61822497421E+02  0.51100000000E-03 0.  1.
         23    2    1    0    0    0  0.17147304182E+02  0.23670600961E+02 -0.45032432692E+00  0.95767651778E+02  0.91197110396E+02 0.  0.
         11    1    3    3    0    0 -0.11995174118E+02 -0.29859434564E+02 -0.10807565383E+02  0.33945154357E+02  0.51100000000E-03 0. -1.
         22    1    1    0    0    0 -0.17147304182E+02 -0.23670600961E+02  0.45032432692E+00  0.29232348222E+02  0.00000000000E+00 0.  1.
</event>
<event>
 5    1  0.1691145E-003  0.9118800E+02  0.7818608E-02  0.1130116E+00
         25   -1    0    0    0    0  0.00000000000E+00  0.00000000000E+00  0.99999998245E-14  0.12500000000E+03  0.12500000000E+03 0.  0.
        -11    1    3    3    0    0 -0.33961686798E+02  0.67376938000E+01  0.26514095412E+02  0.43609516665E+02  0.51100000000E-03 0.  1.
         23    2    1    0    0    0 -0.21779150538E+02 -0.40011399922E+01 -0.21402752984E+02  0.94203598348E+02  0.89027521515E+02 0.  0.
         11    1    3    3    0    0  0.12182536260E+02 -0.10738833792E+02 -0.47916848396E+02  0.50594081684E+02  0.51100000000E-03 0. -1.
         22    1    1    0    0    0  0.21779150538E+02  0.40011399922E+01  0.21402752984E+02  0.30796401652E+02  0.00000000000E+00 0. -1.
</event>
<event>
 5    1  0.1691145E-003  0.9118800E+02  0.7818608E-02  0.1130116E+00
         25   -1    0    0    0    0  0.00000000000E+00  0.00000000000E+00  0.99999998245E-14  0.12500000000E+03  0.12500000000E+03 0.  0.
        -11    1    3    3    0    0 -0.15381467873E+02  0.16808505510E+02  0.25658861686E+02  0.34314611970E+02  0.51100000000E-03 0. -1.
         23    2    1    0    0    0 -0.10378681021E+01  0.19681671823E+01 -0.30640987690E+02  0.94278330468E+02  0.89132388148E+02 0.  0.
         11    1    3    3    0    0  0.14343599771E+02 -0.14840338328E+02 -0.56299849375E+02  0.59963718497E+02  0.51100000000E-03 0.  1.
         22    1    1    0    0    0  0.10378681021E+01 -0.19681671823E+01  0.30640987690E+02  0.30721669532E+02  0.00000000000E+00 0.  1.
</event>
<event>
 5    1  0.1691145E-003  0.9118800E+02  0.7818608E-02  0.1130116E+00
         25   -1    0    0    0    0  0.00000000000E+00  0.00000000000E+00  0.99999998245E-14  0.12500000000E+03  0.12500000000E+03 0.  0.
        -11    1    3    3    0    0  0.29387566480E+02 -0.22063574182E+02 -0.16949882679E+02  0.40468863245E+02  0.51100000000E-03 0.  1.
         23    2    1    0    0    0  0.66652763068E+01  0.26223691114E+02  0.36992685183E+01  0.97690798776E+02  0.93796053724E+02 0.  0.
         11    1    3    3    0    0 -0.22722290173E+02  0.48287265296E+02  0.20649151198E+02  0.57221935531E+02  0.51100000000E-03 0. -1.
         22    1    1    0    0    0 -0.66652763068E+01 -0.26223691114E+02 -0.36992685183E+01  0.27309201224E+02  0.00000000000E+00 0. -1.
</event>
<event>
 5    1  0.1691145E-003  0.9118800E+02  0.7818608E-02  0.1130116E+00
         25   -1    0    0    0    0  0.00000000000E+00  0.00000000000E+00  0.99999998245E-14  0.12500000000E+03  0.12500000000E+03 0.  0.
        -11    1    3    3    0    0 -0.27735261472E+02 -0.34909392961E+02 -0.16704821295E+02  0.47612619132E+02  0.51100000000E-03 0. -1.
         23    2    1    0    0    0 -0.94939996878E+01 -0.14159682720E+02  0.23237947913E+02  0.96179263229E+02  0.91759554310E+02 0.  0.
         11    1    3    3    0    0  0.18241261784E+02  0.20749710241E+02  0.39942769208E+02  0.48566644097E+02  0.51100000000E-03 0.  1.
         22    1    1    0    0    0  0.94939996878E+01  0.14159682720E+02 -0.23237947913E+02  0.28820736771E+02  0.00000000000E+00 0.  1.
</event>
<event>
 5    1  0.1691145E-003  0.9118800E+02  0.7818608E-02  0.1130116E+00
         25   -1    0    0    0    0  0.00000000000E+00  0.00000000000E+00  0.99999998245E-14  0.12500000000E+03  0.12500000000E+03 0.  0.
        -11    1    3    3    0    0  0.14035758879E+02  0.24567152984E+02 -0.43820921368E+02  0.52161486586E+02  0.51100000000E-03 0. -1.
         23    2    1    0    0    0  0.93527592203E+01  0.38675789638E+02 -0.19445832751E+02  0.80711951719E+02  0.67475832191E+02 0.  0.
         11    1    3    3    0    0 -0.46829996585E+01  0.14108636654E+02  0.24375088616E+02  0.28550465134E+02  0.51100000000E-03 0.  1.
         22    1    1    0    0    0 -0.93527592203E+01 -0.38675789638E+02  0.19445832751E+02  0.44288048281E+02  0.00000000000E+00 0. -1.
</event>
<event>
 5    1  0.1691145E-003  0.9118800E+02  0.7818608E-02  0.1130116E+00
         25   -1    0    0    0    0  0.00000000000E+00  0.00000000000E+00  0.99999998245E-14  0.12500000000E+03  0.12500000000E+03 0.  0.
        -11    1    3    3    0    0  0.11758420891E+02  0.26481444935E+02 -0.45870260690E+02  0.54255029294E+02  0.51100000000E-03 0. -1.
         23    2    1    0    0    0  0.19283874898E+02  0.23685348769E+02 -0.73737989444E+01  0.93579680328E+02  0.88147150164E+02 0.  0.
         11    1    3    3    0    0  0.75254540074E+01 -0.27960961656E+01  0.38496461745E+02  0.39324651034E+02  0.51100000000E-03 0.  1.
         22    1    1    0    0    0 -0.19283874898E+02 -0.23685348769E+02  0.73737989444E+01  0.31420319672E+02  0.00000000000E+00 0. -1.
</event>
<event>
 5    1  0.1691145E-003  0.9118800E+02  0.7818608E-02  0.1130116E+00
         25   -1    0    0    0    0  0.00000000000E+00  0.00000000000E+00  0.99999998245E-14  0.12500000000E+03  0.12500000000E+03 0.  0.
        -11    1    3    3    0    0 -0.12418544105E+02 -0.46571628296E+02  0.19639027396E+02  0.52046404267E+02  0.51100000000E-03 0.  1.
         23    2    1    0    0    0 -0.11312906247E+02 -0.14211757193E+00  0.23772407263E+02  0.98672649350E+02  0.95095543206E+02 0.  0.
         11    1    3    3    0    0  0.11056378577E+01  0.46429510724E+02  0.41333798670E+01  0.46626245083E+02  0.51100000000E-03 0. -1.
         22    1    1    0    0    0  0.11312906247E+02  0.14211757193E+00 -0.23772407263E+02  0.26327350650E+02  0.00000000000E+00 0.  1.
</event>
<event>
 5    1  0.1691145E-003  0.9118800E+02  0.7818608E-02  0.1130116E+00
         25   -1    0    0    0    0  0.00000000000E+00  0.00000000000E+00  0.99999998245E-14  0.12500000000E+03  0.12500000000E+03 0.  0.
        -11    1    3    3    0    0  0.37901181293E+02  0.12006069999E+00 -0.40307062257E+02  0.55327870246E+02  0.51100000000E-03 0.  1.
         23    2    1    0    0    0  0.15337731150E+01  0.12564628083E+02 -0.25522845376E+02  0.96510739306E+02  0.92210003939E+02 0.  0.
         11    1    3    3    0    0 -0.36367408178E+02  0.12444567383E+02  0.14784216881E+02  0.41182869059E+02  0.51100000000E-03 0. -1.
         22    1    1    0    0    0 -0.15337731150E+01 -0.12564628083E+02  0.25522845376E+02  0.28489260694E+02  0.00000000000E+00 0.  1.
</event>
<event>
 5    1  0.1691145E-003  0.9118800E+02  0.7818608E-02  0.1130116E+00
         25   -1    0    0    0    0  0.00000000000E+00  0.00000000000E+00  0.99999998245E-14  0.12500000000E+03  0.12500000000E+03 0.  0.
        -11    1    3    3    0    0 -0.28272372993E+02 -0.22660197860E+02  0.33319997043E+02  0.49224321681E+02  0.51100000000E-03 0.  1.
         23    2    1    0    0    0 -0.29780771566E+02  0.85102615535E+01  0.12058820061E+01  0.94003660568E+02  0.88746352837E+02 0.  0.
         11    1    3    3    0    0 -0.15083985732E+01  0.31170459413E+02 -0.32114115037E+02  0.44779338887E+02  0.51100000000E-03 0. -1.
         22    1    1    0    0    0  0.29780771566E+02 -0.85102615535E+01 -0.12058820061E+01  0.30996339432E+02  0.00000000000E+00 0.  1.
</event>
<event>
 5    1  0.1691145E-003  0.9118800E+02  0.7818608E-02  0.1130116E+00
         25   -1    0    0    0    0  0.00000000000E+00  0.00000000000E+00  0.99999998245E-14  0.12500000000E+03  0.12500000000E+03 0.  0.
        -11    1    3    3    0    0  0.38008583131E+01  0.19289694025E+02  0.51391278145E+02  0.55023652088E+02  0.51100000000E-03 0.  1.
         23    2    1    0    0    0 -0.88959551805E+01 -0.10035040787E+02  0.25644373707E+02  0.96060857563E+02  0.91598113467E+02 0.  0.
         11    1    3    3    0    0 -0.12696813494E+02 -0.29324734813E+02 -0.25746904438E+02  0.41037205474E+02  0.51100000000E-03 0. -1.
         22    1    1    0    0    0  0.88959551805E+01  0.10035040787E+02 -0.25644373707E+02  0.28939142437E+02  0.00000000000E+00 0.  1.
</event>
<event>
 5    1  0.1691145E-003  0.9118800E+02  0.7818608E-02  0.1130116E+00
         25   -1    0    0    0    0  0.00000000000E+00  0.00000000000E+00  0.99999998245E-14  0.12500000000E+03  0.12500000000E+03 0.  0.
        -11    1    3    3    0    0  0.26495765653E+02 -0.14842334366E+02 -0.10581696278E+02  0.32160422624E+02  0.51100000000E-03 0.  1.
         23    2    1    0    0    0 -0.32253510747E+02 -0.43810779881E+01 -0.44345488475E+01  0.92149611519E+02  0.86095312763E+02 0.  0.
         11    1    3    3    0    0 -0.58749276400E+02  0.10461256378E+02  0.61471474305E+01  0.59989188895E+02  0.51100000000E-03 0. -1.
         22    1    1    0    0    0  0.32253510747E+02  0.43810779881E+01  0.44345488475E+01  0.32850388481E+02  0.00000000000E+00 0. -1.
</event>
<event>
 4    1  0.1691145E-003  0.9118800E+02  0.7818608E-02  0.1130116E+00
         25   -1    0    0    0    0  0.00000000000E+00  0.00000000000E+00  0.99999998245E-14  0.12500000000E+03  0.12500000000E+03 0.  0.
        -11    1    1    0    0    0 -0.22111599338E+01  0.42648445412E+02  0.10381641358E+02  0.43949489210E+02  0.51100000000E-03 0. -1.
         11    1    1    0    0    0  0.48690772640E+01  0.66646581527E+01 -0.27555319495E+02  0.28764930287E+02  0.51100000000E-03 0.  1.
         22    1    1    0    0    0 -0.26579173302E+01 -0.49313103565E+02  0.17173678137E+02  0.52285580502E+02  0.00000000000E+00 0.  1.
</event>
<event>
 5    1  0.1691145E-003  0.9118800E+02  0.7818608E-02  0.1130116E+00
         25   -1    0    0    0    0  0.00000000000E+00  0.00000000000E+00  0.99999998245E-14  0.12500000000E+03  0.12500000000E+03 0.  0.
        -11    1    3    3    0    0  0.24154977226E+02 -0.61776227365E+01 -0.22445505092E+02  0.33547379132E+02  0.51100000000E-03 0. -1.
         23    2    1    0    0    0 -0.21030672542E+02  0.35339001830E+01  0.19605300865E+02  0.96031992473E+02  0.91558714048E+02 0.  0.
         11    1    3    3    0    0 -0.45185649769E+02  0.97115229195E+01  0.42050805958E+02  0.62484613341E+02  0.51100000000E-03 0.  1.
         22    1    1    0    0    0  0.21030672542E+02 -0.35339001830E+01 -0.19605300865E+02  0.28968007527E+02  0.00000000000E+00 0.  1.
</event>
<event>
 5    1  0.1691145E-003  0.9118800E+02  0.7818608E-02  0.1130116E+00
         25   -1    0    0    0    0  0.00000000000E+00  0.00000000000E+00  0.99999998245E-14  0.12500000000E+03  0.12500000000E+03 0.  0.
        -11    1    3    3    0    0  0.75822400838E+01  0.34018729186E+02 -0.19681011711E+02  0.40026322868E+02  0.51100000000E-03 0.  1.
         23    2    1    0    0    0  0.15555480387E+02 -0.19719849401E+02 -0.17483140093E+02  0.94397620713E+02  0.89299525073E+02 0.  0.
         11    1    3    3    0    0  0.79732403035E+01 -0.53738578587E+02  0.21978716177E+01  0.54371297845E+02  0.51100000000E-03 0. -1.
         22    1    1    0    0    0 -0.15555480387E+02  0.19719849401E+02  0.17483140093E+02  0.30602379287E+02  0.00000000000E+00 0. -1.
</event>
<event>
 5    1  0.1691145E-003  0.9118800E+02  0.7818608E-02  0.1130116E+00
         25   -1    0    0    0    0  0.00000000000E+00  0.00000000000E+00  0.99999998245E-14  0.12500000000E+03  0.12500000000E+03 0.  0.
        -11    1    3    3    0    0 -0.39754077131E+01 -0.58643660550E+02 -0.17845762078E+02  0.61427632330E+02  0.51100000000E-03 0. -1.
         23    2    1    0    0    0 -0.23515926465E+01 -0.28761885337E+02 -0.25422749883E+00  0.96141021021E+02  0.91707443838E+02 0.  0.
         11    1    3    3    0    0  0.16238150666E+01  0.29881775214E+02  0.17591534580E+02  0.34713388691E+02  0.51100000000E-03 0.  1.
         22    1    1    0    0    0  0.23515926465E+01  0.28761885337E+02  0.25422749883E+00  0.28858978979E+02  0.00000000000E+00 0. -1.
</event>
<event>
 5    1  0.1691145E-003  0.9118800E+02  0.7818608E-02  0.1130116E+00
         25   -1    0    0    0    0  0.00000000000E+00  0.00000000000E+00  0.99999998245E-14  0.12500000000E+03  0.12500000000E+03 0.  0.
        -11    1    3    3    0    0  0.44538775734E+02 -0.18311241618E+02  0.23026518434E+02  0.53378129088E+02  0.51100000000E-03 0.  1.
         23    2    1    0    0    0  0.13948054064E+02  0.10247317209E+02  0.24204335448E+02  0.95244234565E+02  0.90476840358E+02 0.  0.
         11    1    3    3    0    0 -0.30590721670E+02  0.28558558828E+02  0.11778170135E+01  0.41866105477E+02  0.51100000000E-03 0. -1.
         22    1    1    0    0    0 -0.13948054064E+02 -0.10247317209E+02 -0.24204335448E+02  0.29755765435E+02  0.00000000000E+00 0. -1.
</event>
<event>
 5    1  0.1691145E-003  0.9118800E+02  0.7818608E-02  0.1130116E+00
         25   -1    0    0    0    0  0.00000000000E+00  0.00000000000E+00  0.99999998245E-14  0.12500000000E+03  0.12500000000E+03 0.  0.
        -11    1    3    3    0    0  0.25425270136E+02 -0.20842024203E+02 -0.99983657240E+01  0.34362794586E+02  0.51100000000E-03 0. -1.
         23    2    1    0    0    0 -0.15739867741E+02  0.47752708720E+01 -0.33075938650E+02  0.88059989632E+02  0.79937459354E+02 0.  0.
         11    1    3    3    0    0 -0.41165137877E+02  0.25617295075E+02 -0.23077572926E+02  0.53697195046E+02  0.51100000000E-03 0.  1.
         22    1    1    0    0    0  0.15739867741E+02 -0.47752708720E+01  0.33075938650E+02  0.36940010368E+02  0.00000000000E+00 0.  1.
</event>
<event>
 5    1  0.1691145E-003  0.9118800E+02  0.7818608E-02  0.1130116E+00
         25   -1    0    0    0    0  0.00000000000E+00  0.00000000000E+00  0.99999998245E-14  0.12500000000E+03  0.12500000000E+03 0.  0.
        -11    1    3    3    0    0 -0.31799969283E+02 -0.14422615949E+02  0.18600099286E+02  0.39562780374E+02  0.51100000000E-03 0. -1.
         23    2    1    0    0    0  0.24595357880E+02 -0.77078923138E+01  0.11420008121E+02  0.96808515139E+02  0.92612789531E+02 0.  0.
         11    1    3    3    0    0  0.56395327163E+02  0.67147236350E+01 -0.71800911649E+01  0.57245734765E+02  0.51100000000E-03 0.  1.
         22    1    1    0    0    0 -0.24595357880E+02  0.77078923138E+01 -0.11420008121E+02  0.28191484861E+02  0.00000000000E+00 0.  1.
</event>
<event>
 5    1  0.1691145E-003  0.9118800E+02  0.7818608E-02  0.1130116E+00
         25   -1    0    0    0    0  0.00000000000E+00  0.00000000000E+00  0.99999998245E-14  0.12500000000E+03  0.12500000000E+03 0.  0.
        -11    1    3    3    0    0 -0.20310555515E+02  0.21167011149E+02  0.29188727724E+02  0.41382881156E+02  0.51100000000E-03 0. -1.
         23    2    1    0    0    0  0.23439957672E+02  0.14745895379E+02 -0.44624086548E+01  0.96950291674E+02  0.92803948830E+02 0.  0.
         11    1    3    3    0    0  0.43750513187E+02 -0.64211157699E+01 -0.33651136379E+02  0.55567410518E+02  0.51100000000E-03 0.  1.
         22    1    1    0    0    0 -0.23439957672E+02 -0.14745895379E+02  0.44624086548E+01  0.28049708326E+02  0.00000000000E+00 0.  1.
</event>
<event>
 5    1  0.1691145E-003  0.9118800E+02  0.7818608E-02  0.1130116E+00
         25   -1    0    0    0    0  0.00000000000E+00  0.00000000000E+00  0.99999998245E-14  0.12500000000E+03  0.12500000000E+03 0.  0.
        -11    1    3    3    0    0  0.18610462364E+02 -0.28376282784E+01  0.29119701030E+02  0.34675040475E+02  0.51100000000E-03 0.  1.
         23    2    1    0    0    0  0.13247791891E+01  0.15994592812E+02 -0.25436722568E+02  0.94923283189E+02  0.90032331955E+02 0.  0.
         11    1    3    3    0    0 -0.17285683175E+02  0.18832221091E+02 -0.54556423598E+02  0.60248242713E+02  0.51100000000E-03 0. -1.
         22    1    1    0    0    0 -0.13247791891E+01 -0.15994592812E+02  0.25436722568E+02  0.30076716811E+02  0.00000000000E+00 0. -1.
</event>
<event>
 5    1  0.1691145E-003  0.9118800E+02  0.7818608E-02  0.1130116E+00
         25   -1    0    0    0    0  0.00000000000E+00  0.00000000000E+00  0.99999998245E-14  0.12500000000E+03  0.12500000000E+03 0.  0.
        -11    1    3    3    0    0  0.49372703559E+02  0.30648124362E+02 -0.83736862733E+01  0.58711923880E+02  0.51100000000E-03 0. -1.
         23    2    1    0    0    0  0.26588026192E+02  0.27460893905E+00 -0.96782276842E+01  0.96703946601E+02  0.92471545084E+02 0.  0.
         11    1    3    3    0    0 -0.22784677367E+02 -0.30373515423E+02 -0.13045414108E+01  0.37992022721E+02  0.51100000000E-03 0.  1.
         22    1    1    0    0    0 -0.26588026192E+02 -0.27460893905E+00  0.96782276842E+01  0.28296053399E+02  0.00000000000E+00 0. -1.
</event>
<event>
 5    1  0.1691145E-003  0.9118800E+02  0.7818608E-02  0.1130116E+00
         25   -1    0    0    0    0  0.00000000000E+00  0.00000000000E+00  0.99999998245E-14  0.12500000000E+03  0.12500000000E+03 0.  0.
        -11    1    3    3    0    0 -0.23125904177E+02 -0.17004331722E+02  0.52898176045E+02  0.60184481143E+02  0.51100000000E-03 0.  1.
         23    2    1    0    0    0 -0.21716877602E+02 -0.85311347505E+01  0.19739116364E+02  0.94438001575E+02  0.89356031658E+02 0.  0.
         11    1    3    3    0    0  0.14090265751E+01  0.84731969715E+01 -0.33159059681E+02  0.34253520432E+02  0.51100000000E-03 0. -1.
         22    1    1    0    0    0  0.21716877602E+02  0.85311347505E+01 -0.19739116364E+02  0.30561998425E+02  0.00000000000E+00 0.  1.
</event>
<event>
 5    1  0.1691145E-003  0.9118800E+02  0.7818608E-02  0.1130116E+00
         25   -1    0    0    0    0  0.00000000000E+00  0.00000000000E+00  0.99999998245E-14  0.12500000000E+03  0.12500000000E+03 0.  0.
        -11    1    3    3    0    0  0.47421186419E+01  0.32173002768E+02  0.95393582153E+01  0.33890841709E+02  0.51100000000E-03 0. -1.
         23    2    1    0    0    0  0.36278400498E+01 -0.22375465201E+02 -0.18962408843E+02  0.95446732575E+02  0.90756174135E+02 0.  0.
         11    1    3    3    0    0 -0.11142785921E+01 -0.54548467969E+02 -0.28501767058E+02  0.61555890866E+02  0.51100000000E-03 0.  1.
         22    1    1    0    0    0 -0.36278400498E+01  0.22375465201E+02  0.18962408843E+02  0.29553267425E+02  0.00000000000E+00 0.  1.
</event>
<event>
 5    1  0.1691145E-003  0.9118800E+02  0.7818608E-02  0.1130116E+00
         25   -1    0    0    0    0  0.00000000000E+00  0.00000000000E+00  0.99999998245E-14  0.12500000000E+03  0.12500000000E+03 0.  0.
        -11    1    3    3    0    0 -0.88836634414E+01 -0.22062161477E+02 -0.14303651453E+02  0.27753430245E+02  0.51100000000E-03 0.  1.
         23    2    1    0    0    0  0.36295983692E+01  0.36124925641E+02 -0.13275449451E+01  0.88668930480E+02  0.80884069012E+02 0.  0.
         11    1    3    3    0    0  0.12513261811E+02  0.58187087119E+02  0.12976106508E+02  0.60915500235E+02  0.51100000000E-03 0. -1.
         22    1    1    0    0    0 -0.36295983692E+01 -0.36124925641E+02  0.13275449451E+01  0.36331069520E+02  0.00000000000E+00 0. -1.
</event>
<event>
 5    1  0.1691145E-003  0.9118800E+02  0.7818608E-02  0.1130116E+00
         25   -1    0    0    0    0  0.00000000000E+00  0.00000000000E+00  0.99999998245E-14  0.12500000000E+03  0.12500000000E+03 0.  0.
        -11    1    3    3    0    0  0.17291470988E+02 -0.34588721398E+02  0.11005766564E+02  0.40205739824E+02  0.51100000000E-03 0. -1.
         23    2    1    0    0    0 -0.11757004965E+02  0.65305455011E+01 -0.21144657326E+02  0.99940636007E+02  0.96747914715E+02 0.  0.
         11    1    3    3    0    0 -0.29048475953E+02  0.41119266899E+02 -0.32150423890E+02  0.59734896183E+02  0.51100000000E-03 0.  1.
         22    1    1    0    0    0  0.11757004965E+02 -0.65305455011E+01  0.21144657326E+02  0.25059363993E+02  0.00000000000E+00 0.  1.
</event>
<event>
 5    1  0.1691145E-003  0.9118800E+02  0.7818608E-02  0.1130116E+00
         25   -1    0    0    0    0  0.00000000000E+00  0.00000000000E+00  0.99999998245E-14  0.12500000000E+03  0.12500000000E+03 0.  0.
        -11    1    3    3    0    0  0.15482619889E+02  0.13019133791E+02  0.33162846861E+02  0.38845640366E+02  0.51100000000E-03 0. -1.
         23    2    1    0    0    0  0.20373212739E+02 -0.11064657322E+02 -0.18029132637E+02  0.95630899527E+02  0.91009476879E+02 0.  0.
         11    1    3    3    0    0  0.48905928498E+01 -0.24083791113E+02 -0.51191979498E+02  0.56785259161E+02  0.51100000000E-03 0.  1.
         22    1    1    0    0    0 -0.20373212739E+02  0.11064657322E+02  0.18029132637E+02  0.29369100473E+02  0.00000000000E+00 0. -1.
</event>
<event>
 5    1  0.1691145E-003  0.9118800E+02  0.7818608E-02  0.1130116E+00
         25   -1    0    0    0    0  0.00000000000E+00  0.00000000000E+00  0.99999998245E-14  0.12500000000E+03  0.12500000000E+03 0.  0.
        -11    1    3    3    0    0  0.28646634084E+02  0.11625925643E+02  0.17707591766E+02  0.35627946865E+02  0.51100000000E-03 0.  1.
         23    2    1    0    0    0 -0.22505651866E+02  0.10725008835E+02 -0.14574608391E+02  0.96121818094E+02  0.91681265935E+02 0.  0.
         11    1    3    3    0    0 -0.51152285951E+02 -0.90091680785E+00 -0.32282200156E+02  0.60493871229E+02  0.51100000000E-03 0. -1.
         22    1    1    0    0    0  0.22505651866E+02 -0.10725008835E+02  0.14574608391E+02  0.28878181906E+02  0.00000000000E+00 0. -1.
</event>
<event>
 5    1  0.1691145E-003  0.9118800E+02  0.7818608E-02  0.1130116E+00
         25   -1    0    0    0    0  0.00000000000E+00  0.00000000000E+00  0.99999998245E-14  0.12500000000E+03  0.12500000000E+03 0.  0.
        -11    1    3    3    0    0  0.34388999858E+02  0.96524454560E+01  0.36771800884E+02  0.51263421219E+02  0.51100000000E-03 0. -1.
         23    2    1    0    0    0  0.23220914736E+02 -0.16573531918E+02  0.17524409012E+01  0.96417419806E+02  0.92083413009E+02 0.  0.
         11    1    3    3    0    0 -0.11168085121E+02 -0.26225977374E+02 -0.35019359983E+02  0.45153998587E+02  0.51100000000E-03 0.  1.
         22    1    1    0    0    0 -0.23220914736E+02  0.16573531918E+02 -0.17524409012E+01  0.28582580194E+02  0.00000000000E+00 0. -1.
</event>
<event>
 5    1  0.1691145E-003  0.9118800E+02  0.7818608E-02  0.1130116E+00
         25   -1    0    0    0    0  0.00000000000E+00  0.00000000000E+00  0.99999998245E-14  0.12500000000E+03  0.12500000000E+03 0.  0.
        -11    1    3    3    0    0 -0.28963796652E+02  0.16622193097E+02 -0.14724220749E+02  0.36496595688E+02  0.51100000000E-03 0.  1.
         23    2    1    0    0    0  0.18268992891E+02 -0.18955590779E+02 -0.12961735362E+02  0.95655884634E+02  0.91043787039E+02 0.  0.
         11    1    3    3    0    0  0.47232789543E+02 -0.35577783876E+02  0.17624853868E+01  0.59159288946E+02  0.51100000000E-03 0. -1.
         22    1    1    0    0    0 -0.18268992891E+02  0.18955590779E+02  0.12961735362E+02  0.29344115366E+02  0.00000000000E+00 0. -1.
</event>
<event>
 5    1  0.1691145E-003  0.9118800E+02  0.7818608E-02  0.1130116E+00
         25   -1    0    0    0    0  0.00000000000E+00  0.00000000000E+00  0.99999998245E-14  0.12500000000E+03  0.12500000000E+03 0.  0.
        -11    1    3    3    0    0 -0.18409551874E+02  0.15002860616E+02  0.28458192418E+02  0.37065700355E+02  0.51100000000E-03 0.  1.
         23    2    1    0    0    0  0.85286627463E+01  0.14658262987E+02 -0.23750989384E+02  0.95815890304E+02  0.91263204941E+02 0.  0.
         11    1    3    3    0    0  0.26938214620E+02 -0.34459762861E+00 -0.52209181801E+02  0.58750189949E+02  0.51100000000E-03 0. -1.
         22    1    1    0    0    0 -0.85286627463E+01 -0.14658262987E+02  0.23750989384E+02  0.29184109696E+02  0.00000000000E+00 0. -1.
</event>
<event>
 5    1  0.1691145E-003  0.9118800E+02  0.7818608E-02  0.1130116E+00
         25   -1    0    0    0    0  0.00000000000E+00  0.00000000000E+00  0.99999998245E-14  0.12500000000E+03  0.12500000000E+03 0.  0.
        -11    1    3    3    0    0  0.21625056043E+01  0.83646881200E+01 -0.38636186715E+02  0.39590394820E+02  0.51100000000E-03 0.  1.
         23    2    1    0    0    0  0.64852336473E+01  0.25827769125E+02  0.13785987284E+02  0.95013580427E+02  0.90157612584E+02 0.  0.
         11    1    3    3    0    0  0.43227280430E+01  0.17463081005E+02  0.52422173999E+02  0.55423185608E+02  0.51100000000E-03 0. -1.
         22    1    1    0    0    0 -0.64852336473E+01 -0.25827769125E+02 -0.13785987284E+02  0.29986419573E+02  0.00000000000E+00 0. -1.
</event>
<event>
 5    1  0.1691145E-003  0.9118800E+02  0.7818608E-02  0.1130116E+00
         25   -1    0    0    0    0  0.00000000000E+00  0.00000000000E+00  0.99999998245E-14  0.12500000000E+03  0.12500000000E+03 0.  0.
        -11    1    3    3    0    0 -0.28899651062E+02  0.50104235374E+01  0.39878302765E+02  0.49503264612E+02  0.51100000000E-03 0. -1.
         23    2    1    0    0    0 -0.23796661726E+02  0.17048551549E+02 -0.41516937309E+01  0.95433620782E+02  0.90738113246E+02 0.  0.
         11    1    3    3    0    0  0.51029893359E+01  0.12038128012E+02 -0.44029996496E+02  0.45930356170E+02  0.51100000000E-03 0.  1.
         22    1    1    0    0    0  0.23796661726E+02 -0.17048551549E+02  0.41516937309E+01  0.29566379218E+02  0.00000000000E+00 0. -1.
</event>
<event>
 5    1  0.1691145E-003  0.9118800E+02  0.7818608E-02  0.1130116E+00
         25   -1    0    0    0    0  0.00000000000E+00  0.00000000000E+00  0.99999998245E-14  0.12500000000E+03  0.12500000000E+03 0.  0.
        -11    1    3    3    0    0 -0.15244674478E+01  0.10482069402E+02 -0.33094322563E+02  0.34748121764E+02  0.51100000000E-03 0.  1.
         23    2    1    0    0    0 -0.20982991748E+01  0.11170948348E+02  0.27445179688E+02  0.95294262599E+02  0.90545931161E+02 0.  0.
         11    1    3    3    0    0 -0.57383172696E+00  0.68887894617E+00  0.60539502251E+02  0.60546140835E+02  0.51100000000E-03 0. -1.
         22    1    1    0    0    0  0.20982991748E+01 -0.11170948348E+02 -0.27445179688E+02  0.29705737401E+02  0.00000000000E+00 0. -1.
</event>
<event>
 5    1  0.1691145E-003  0.9118800E+02  0.7818608E-02  0.1130116E+00
         25   -1    0    0    0    0  0.00000000000E+00  0.00000000000E+00  0.99999998245E-14  0.12500000000E+03  0.12500000000E+03 0.  0.
        -11    1    3    3    0    0  0.26707477428E+02  0.20950774732E+02  0.85807691288E+01  0.35012196611E+02  0.51100000000E-03 0.  1.
         23    2    1    0    0    0 -0.14515895129E+02 -0.16307536363E+02 -0.18089739055E+02  0.96647123379E+02  0.92394701389E+02 0.  0.
         11    1    3    3    0    0 -0.41223372557E+02 -0.37258311095E+02 -0.26670508184E+02  0.61634926768E+02  0.51100000000E-03 0. -1.
         22    1    1    0    0    0  0.14515895129E+02  0.16307536363E+02  0.18089739055E+02  0.28352876621E+02  0.00000000000E+00 0. -1.
</event>
<event>
 5    1  0.1691145E-003  0.9118800E+02  0.7818608E-02  0.1130116E+00
         25   -1    0    0    0    0  0.00000000000E+00  0.00000000000E+00  0.99999998245E-14  0.12500000000E+03  0.12500000000E+03 0.  0.
        -11    1    3    3    0    0  0.28508431513E+02  0.36128638270E+02 -0.15124246343E+02  0.48443286411E+02  0.51100000000E-03 0.  1.
         23    2    1    0    0    0  0.18052877895E+02 -0.10300836835E+02 -0.19836882037E+02  0.96268213965E+02  0.91880648078E+02 0.  0.
         11    1    3    3    0    0 -0.10455553619E+02 -0.46429475106E+02 -0.47126356942E+01  0.47824927554E+02  0.51100000000E-03 0. -1.
         22    1    1    0    0    0 -0.18052877895E+02  0.10300836835E+02  0.19836882037E+02  0.28731786035E+02  0.00000000000E+00 0. -1.
</event>
<event>
 5    1  0.1691145E-003  0.9118800E+02  0.7818608E-02  0.1130116E+00
         25   -1    0    0    0    0  0.00000000000E+00  0.00000000000E+00  0.99999998245E-14  0.12500000000E+03  0.12500000000E+03 0.  0.
        -11    1    3    3    0    0 -0.32835214752E+02  0.15040647976E+02  0.30069820821E+02  0.46995388538E+02  0.51100000000E-03 0.  1.
         23    2    1    0    0    0  0.12412922451E+02 -0.13471413993E+02  0.53324189786E+01  0.10592136454E+03  0.10418896840E+03 0.  0.
         11    1    3    3    0    0  0.45248137203E+02 -0.28512061969E+02 -0.24737401842E+02  0.58925976005E+02  0.51100000000E-03 0. -1.
         22    1    1    0    0    0 -0.12412922451E+02  0.13471413993E+02 -0.53324189786E+01  0.19078635457E+02  0.00000000000E+00 0. -1.
</event>
<event>
 5    1  0.1691145E-003  0.9118800E+02  0.7818608E-02  0.1130116E+00
         25   -1    0    0    0    0  0.00000000000E+00  0.00000000000E+00  0.99999998245E-14  0.12500000000E+03  0.12500000000E+03 0.  0.
        -11    1    3    3    0    0  0.38419034477E+02  0.24751511813E+02 -0.45781785218E+00  0.45704148003E+02  0.51100000000E-03 0. -1.
         23    2    1    0    0    0  0.39205683810E+01  0.86521583441E+01 -0.29769918999E+02  0.93751339586E+02  0.88390242089E+02 0.  0.
         11    1    3    3    0    0 -0.34498466097E+02 -0.16099353469E+02 -0.29312101147E+02  0.48047191583E+02  0.51100000000E-03 0.  1.
         22    1    1    0    0    0 -0.39205683810E+01 -0.86521583441E+01  0.29769918999E+02  0.31248660414E+02  0.00000000000E+00 0.  1.
</event>
<event>
 5    1  0.1691145E-003  0.9118800E+02  0.7818608E-02  0.1130116E+00
         25   -1    0    0    0    0  0.00000000000E+00  0.00000000000E+00  0.99999998245E-14  0.12500000000E+03  0.12500000000E+03 0.  0.
        -11    1    3    3    0    0  0.44564113110E+02  0.56153244174E+01  0.40017634869E+02  0.60157319973E+02  0.51100000000E-03 0.  1.
         23    2    1    0    0    0  0.20204374046E+02 -0.95088724550E+01  0.18378943790E+02  0.96079056710E+02  0.91622945693E+02 0.  0.
         11    1    3    3    0    0 -0.24359739064E+02 -0.15124196872E+02 -0.21638691079E+02  0.35921736737E+02  0.51100000000E-03 0. -1.
         22    1    1    0    0    0 -0.20204374046E+02  0.95088724550E+01 -0.18378943790E+02  0.28920943290E+02  0.00000000000E+00 0.  1.
</event>
<event>
 5    1  0.1691145E-003  0.9118800E+02  0.7818608E-02  0.1130116E+00
         25   -1    0    0    0    0  0.00000000000E+00  0.00000000000E+00  0.99999998245E-14  0.12500000000E+03  0.12500000000E+03 0.  0.
        -11    1    3    3    0    0  0.12017132035E+02 -0.27975942050E+02 -0.24454570590E+02  0.39052411179E+02  0.51100000000E-03 0. -1.
         23    2    1    0    0    0 -0.14837617008E+02 -0.12554864020E+02  0.22479897294E+02  0.95282576300E+02  0.90529796614E+02 0.  0.
         11    1    3    3    0    0 -0.26854749043E+02  0.15421078030E+02  0.46934467884E+02  0.56230165121E+02  0.51100000000E-03 0.  1.
         22    1    1    0    0    0  0.14837617008E+02  0.12554864020E+02 -0.22479897294E+02  0.29717423700E+02  0.00000000000E+00 0.  1.
</event>
<event>
 5    1  0.1691145E-003  0.9118800E+02  0.7818608E-02  0.1130116E+00
         25   -1    0    0    0    0  0.00000000000E+00  0.00000000000E+00  0.99999998245E-14  0.12500000000E+03  0.12500000000E+03 0.  0.
        -11    1    3    3    0    0 -0.31845131439E+02 -0.41099321977E+02 -0.19736419953E+02  0.55612884623E+02  0.51100000000E-03 0.  1.
         23    2    1    0    0    0 -0.25681801534E+02 -0.18888618172E+01 -0.13915898826E+02  0.95729281369E+02  0.91144502535E+02 0.  0.
         11    1    3    3    0    0  0.61633299045E+01  0.39210460160E+02  0.58205211265E+01  0.40116396746E+02  0.51100000000E-03 0. -1.
         22    1    1    0    0    0  0.25681801534E+02  0.18888618172E+01  0.13915898826E+02  0.29270718631E+02  0.00000000000E+00 0.  1.
</event>
<event>
 5    1  0.1691145E-003  0.9118800E+02  0.7818608E-02  0.1130116E+00
         25   -1    0    0    0    0  0.00000000000E+00  0.00000000000E+00  0.99999998245E-14  0.12500000000E+03  0.12500000000E+03 0.  0.
        -11    1    3    3    0    0 -0.79569063111E+01 -0.44139583272E+02  0.24254529732E+02  0.50989188876E+02  0.51100000000E-03 0. -1.
         23    2    1    0    0    0  0.12576899865E+02 -0.55609534013E+01  0.26917591357E+02  0.94773201668E+02  0.89823718566E+02 0.  0.
         11    1    3    3    0    0  0.20533806176E+02  0.38578629870E+02  0.26630616243E+01  0.43784012792E+02  0.51100000000E-03 0.  1.
         22    1    1    0    0    0 -0.12576899865E+02  0.55609534013E+01 -0.26917591357E+02  0.30226798332E+02  0.00000000000E+00 0. -1.
</event>
<event>
 5    1  0.1691145E-003  0.9118800E+02  0.7818608E-02  0.1130116E+00
         25   -1    0    0    0    0  0.00000000000E+00  0.00000000000E+00  0.99999998245E-14  0.12500000000E+03  0.12500000000E+03 0.  0.
        -11    1    3    3    0    0  0.25771548545E+01 -0.48565449628E+02 -0.16084574773E+02  0.51224585607E+02  0.51100000000E-03 0.  1.
         23    2    1    0    0    0  0.25238659867E+02 -0.11505803654E+02 -0.11739132922E+02  0.94880559245E+02  0.89972994900E+02 0.  0.
         11    1    3    3    0    0  0.22661505013E+02  0.37059645974E+02  0.43454418507E+01  0.43655973638E+02  0.51100000000E-03 0. -1.
         22    1    1    0    0    0 -0.25238659867E+02  0.11505803654E+02  0.11739132922E+02  0.30119440755E+02  0.00000000000E+00 0.  1.
</event>
<event>
 5    1  0.1691145E-003  0.9118800E+02  0.7818608E-02  0.1130116E+00
         25   -1    0    0    0    0  0.00000000000E+00  0.00000000000E+00  0.99999998245E-14  0.12500000000E+03  0.12500000000E+03 0.  0.
        -11    1    3    3    0    0  0.25778469639E+02 -0.28626819795E+02 -0.10894648017E+02  0.40033956390E+02  0.51100000000E-03 0. -1.
         23    2    1    0    0    0  0.15486070866E+02  0.23966927706E+02  0.52114694236E+01  0.95993252025E+02  0.91505808593E+02 0.  0.
         11    1    3    3    0    0 -0.10292398773E+02  0.52593747501E+02  0.16106117441E+02  0.55959295636E+02  0.51100000000E-03 0.  1.
         22    1    1    0    0    0 -0.15486070866E+02 -0.23966927706E+02 -0.52114694236E+01  0.29006747975E+02  0.00000000000E+00 0.  1.
</event>
<event>
 5    1  0.1691145E-003  0.9118800E+02  0.7818608E-02  0.1130116E+00
         25   -1    0    0    0    0  0.00000000000E+00  0.00000000000E+00  0.99999998245E-14  0.12500000000E+03  0.12500000000E+03 0.  0.
        -11    1    3    3    0    0 -0.28215929727E+02  0.18209084376E+02  0.60257734727E+01  0.34117728388E+02  0.51100000000E-03 0. -1.
         23    2    1    0    0    0  0.28730279036E+02 -0.97183197755E+00 -0.65668187007E+01  0.95512773974E+02  0.90847088525E+02 0.  0.
         11    1    3    3    0    0  0.56946208763E+02 -0.19180916353E+02 -0.12592592173E+02  0.61395045586E+02  0.51100000000E-03 0.  1.
         22    1    1    0    0    0 -0.28730279036E+02  0.97183197755E+00  0.65668187007E+01  0.29487226026E+02  0.00000000000E+00 0.  1.
</event>
<event>
 5    1  0.1691145E-003  0.9118800E+02  0.7818608E-02  0.1130116E+00
         25   -1    0    0    0    0  0.00000000000E+00  0.00000000000E+00  0.99999998245E-14  0.12500000000E+03  0.12500000000E+03 0.  0.
        -11    1    3    3    0    0  0.48985129605E+02  0.22974420828E+02  0.19687278170E+02  0.57575653334E+02  0.51100000000E-03 0.  1.
         23    2    1    0    0    0  0.32116803782E+02 -0.31163291700E+01  0.16359702907E+02  0.88822099676E+02  0.81120434657E+02 0.  0.
         11    1    3    3    0    0 -0.16868325823E+02 -0.26090749998E+02 -0.33275752639E+01  0.31246446341E+02  0.51100000000E-03 0. -1.
         22    1    1    0    0    0 -0.32116803782E+02  0.31163291700E+01 -0.16359702907E+02  0.36177900324E+02  0.00000000000E+00 0.  1.
</event>
<event>
 5    1  0.1691145E-003  0.9118800E+02  0.7818608E-02  0.1130116E+00
         25   -1    0    0    0    0  0.00000000000E+00  0.00000000000E+00  0.99999998245E-14  0.12500000000E+03  0.12500000000E+03 0.  0.
        -11    1    3    3    0    0 -0.14766530447E+02  0.12916557903E+02 -0.30838347067E+02  0.36549850063E+02  0.51100000000E-03 0.  1.
         23    2    1    0    0    0  0.27668228605E+01  0.16852450116E+02  0.24726999200E+02  0.94948629431E+02  0.90067515552E+02 0.  0.
         11    1    3    3    0    0  0.17533353308E+02  0.39358922128E+01  0.55565346267E+02  0.58398779369E+02  0.51100000000E-03 0. -1.
         22    1    1    0    0    0 -0.27668228605E+01 -0.16852450116E+02 -0.24726999200E+02  0.30051370569E+02  0.00000000000E+00 0. -1.
</event>
<event>
 5    1  0.1691145E-003  0.9118800E+02  0.7818608E-02  0.1130116E+00
         25   -1    0    0    0    0  0.00000000000E+00  0.00000000000E+00  0.99999998245E-14  0.12500000000E+03  0.12500000000E+03 0.  0.
        -11    1    3    3    0    0 -0.28946267087E+02 -0.16478460924E+02  0.45181140107E+02  0.56131644144E+02  0.51100000000E-03 0.  1.
         23    2    1    0    0    0 -0.11765879178E+02  0.10267769431E+02  0.29599223684E+02  0.91533941903E+02  0.85196745687E+02 0.  0.
         11    1    3    3    0    0  0.17180387909E+02  0.26746230355E+02 -0.15581916423E+02  0.35402297759E+02  0.51100000000E-03 0. -1.
         22    1    1    0    0    0  0.11765879178E+02 -0.10267769431E+02 -0.29599223684E+02  0.33466058097E+02  0.00000000000E+00 0.  1.
</event>
<event>
 5    1  0.1691145E-003  0.9118800E+02  0.7818608E-02  0.1130116E+00
         25   -1    0    0    0    0  0.00000000000E+00  0.00000000000E+00  0.99999998245E-14  0.12500000000E+03  0.12500000000E+03 0.  0.
        -11    1    3    3    0    0 -0.14001552832E+02  0.43605743599E+01 -0.22528352970E+02  0.26880937079E+02  0.51100000000E-03 0.  1.
         23    2    1    0    0    0 -0.22019446139E+02 -0.25151905160E+02  0.24901795757E+02  0.83315785081E+02  0.72138382781E+02 0.  0.
         11    1    3    3    0    0 -0.80178933076E+01 -0.29512479520E+02  0.47430148727E+02  0.56434848002E+02  0.51100000000E-03 0. -1.
         22    1    1    0    0    0  0.22019446139E+02  0.25151905160E+02 -0.24901795757E+02  0.41684214919E+02  0.00000000000E+00 0. -1.
</event>
<event>
 5    1  0.1691145E-003  0.9118800E+02  0.7818608E-02  0.1130116E+00
         25   -1    0    0    0    0  0.00000000000E+00  0.00000000000E+00  0.99999998245E-14  0.12500000000E+03  0.12500000000E+03 0.  0.
        -11    1    3    3    0    0 -0.28005020257E+02 -0.22202636557E+02 -0.14502762522E+00  0.35738764150E+02  0.51100000000E-03 0. -1.
         23    2    1    0    0    0  0.11140388107E+02  0.19836150350E+02  0.18012105498E+02  0.95982469913E+02  0.91491078682E+02 0.  0.
         11    1    3    3    0    0  0.39145408364E+02  0.42038786907E+02  0.18157133123E+02  0.60243705763E+02  0.51100000000E-03 0.  1.
         22    1    1    0    0    0 -0.11140388107E+02 -0.19836150350E+02 -0.18012105498E+02  0.29017530087E+02  0.00000000000E+00 0.  1.
</event>
<event>
 5    1  0.1691145E-003  0.9118800E+02  0.7818608E-02  0.1130116E+00
         25   -1    0    0    0    0  0.00000000000E+00  0.00000000000E+00  0.99999998245E-14  0.12500000000E+03  0.12500000000E+03 0.  0.
        -11    1    3    3    0    0 -0.20775362612E+02  0.23240906324E+02 -0.12305564293E+02  0.33513912503E+02  0.51100000000E-03 0.  1.
         23    2    1    0    0    0  0.15330371663E+02 -0.24202808292E+02  0.56908467677E+01  0.95790721312E+02  0.91228725344E+02 0.  0.
         11    1    3    3    0    0  0.36105734274E+02 -0.47443714617E+02  0.17996411061E+02  0.62276808809E+02  0.51100000000E-03 0. -1.
         22    1    1    0    0    0 -0.15330371663E+02  0.24202808292E+02 -0.56908467677E+01  0.29209278688E+02  0.00000000000E+00 0. -1.
</event>
<event>
 5    1  0.1691145E-003  0.9118800E+02  0.7818608E-02  0.1130116E+00
         25   -1    0    0    0    0  0.00000000000E+00  0.00000000000E+00  0.99999998245E-14  0.12500000000E+03  0.12500000000E+03 0.  0.
        -11    1    3    3    0    0  0.47511842130E+02 -0.31126315039E+02  0.42849941170E+01  0.56961248278E+02  0.51100000000E-03 0.  1.
         23    2    1    0    0    0  0.13369182840E+02 -0.23128787149E+02 -0.12106689751E+02  0.95670019067E+02  0.91063191064E+02 0.  0.
         11    1    3    3    0    0 -0.34142659290E+02  0.79975278900E+01 -0.16391683868E+02  0.38708770789E+02  0.51100000000E-03 0. -1.
         22    1    1    0    0    0 -0.13369182840E+02  0.23128787149E+02  0.12106689751E+02  0.29329980933E+02  0.00000000000E+00 0.  1.
</event>
<event>
 5    1  0.1691145E-003  0.9118800E+02  0.7818608E-02  0.1130116E+00
         25   -1    0    0    0    0  0.00000000000E+00  0.00000000000E+00  0.99999998245E-14  0.12500000000E+03  0.12500000000E+03 0.  0.
        -11    1    3    3    0    0  0.60670356925E+02  0.35879568683E+01 -0.86428811870E+01  0.61387824847E+02  0.51100000000E-03 0.  1.
         23    2    1    0    0    0  0.26274762496E+02  0.97983213850E+01 -0.47941695617E+01  0.96550846972E+02  0.92264357924E+02 0.  0.
         11    1    3    3    0    0 -0.34395594429E+02  0.62103645166E+01  0.38487116253E+01  0.35163022126E+02  0.51100000000E-03 0. -1.
         22    1    1    0    0    0 -0.26274762496E+02 -0.97983213850E+01  0.47941695617E+01  0.28449153028E+02  0.00000000000E+00 0.  1.
</event>
<event>
 5    1  0.1691145E-003  0.9118800E+02  0.7818608E-02  0.1130116E+00
         25   -1    0    0    0    0  0.00000000000E+00  0.00000000000E+00  0.99999998245E-14  0.12500000000E+03  0.12500000000E+03 0.  0.
        -11    1    3    3    0    0 -0.41611084305E+02  0.76007018184E+00 -0.92577415841E+01  0.42635265019E+02  0.51100000000E-03 0. -1.
         23    2    1    0    0    0 -0.98249441554E+00 -0.24478443017E+02  0.15010091126E+02  0.96269140225E+02  0.91881908210E+02 0.  0.
         11    1    3    3    0    0  0.40628589890E+02 -0.25238513198E+02  0.24267832710E+02  0.53633875206E+02  0.51100000000E-03 0.  1.
         22    1    1    0    0    0  0.98249441554E+00  0.24478443017E+02 -0.15010091126E+02  0.28730859775E+02  0.00000000000E+00 0.  1.
</event>
<event>
 5    1  0.1691145E-003  0.9118800E+02  0.7818608E-02  0.1130116E+00
         25   -1    0    0    0    0  0.00000000000E+00  0.00000000000E+00  0.99999998245E-14  0.12500000000E+03  0.12500000000E+03 0.  0.
        -11    1    3    3    0    0 -0.34329695600E+02 -0.18513784770E+00 -0.95753321371E+01  0.35640556418E+02  0.51100000000E-03 0.  1.
         23    2    1    0    0    0  0.16415811407E+02 -0.14413212650E+02  0.19400792585E+02  0.95783389725E+02  0.91218679179E+02 0.  0.
         11    1    3    3    0    0  0.50745507007E+02 -0.14228074802E+02  0.28976124722E+02  0.60142833307E+02  0.51100000000E-03 0. -1.
         22    1    1    0    0    0 -0.16415811407E+02  0.14413212650E+02 -0.19400792585E+02  0.29216610275E+02  0.00000000000E+00 0. -1.
</event>
<event>
 5    1  0.1691145E-003  0.9118800E+02  0.7818608E-02  0.1130116E+00
         25   -1    0    0    0    0  0.00000000000E+00  0.00000000000E+00  0.99999998245E-14  0.12500000000E+03  0.12500000000E+03 0.  0.
        -11    1    3    3    0    0  0.27430090775E+02  0.10535645337E+02 -0.22255744329E+02  0.36860925904E+02  0.51100000000E-03 0.  1.
         23    2    1    0    0    0 -0.10925332746E+02 -0.28520625997E+02 -0.81485573064E+01  0.93390065026E+02  0.87877848497E+02 0.  0.
         11    1    3    3    0    0 -0.38355423521E+02 -0.39056271334E+02  0.14107187023E+02  0.56529139122E+02  0.51100000000E-03 0. -1.
         22    1    1    0    0    0  0.10925332746E+02  0.28520625997E+02  0.81485573064E+01  0.31609934974E+02  0.00000000000E+00 0. -1.
</event>
<event>
 5    1  0.1691145E-003  0.9118800E+02  0.7818608E-02  0.1130116E+00
         25   -1    0    0    0    0  0.00000000000E+00  0.00000000000E+00  0.99999998245E-14  0.12500000000E+03  0.12500000000E+03 0.  0.
        -11    1    3    3    0    0  0.38083973016E+02 -0.61787423483E+01 -0.77648689793E+01  0.39355546600E+02  0.51100000000E-03 0. -1.
         23    2    1    0    0    0 -0.15940223909E+02  0.81028226314E+01 -0.21635652260E+02  0.96931371220E+02  0.92778460890E+02 0.  0.
         11    1    3    3    0    0 -0.54024196924E+02  0.14281564980E+02 -0.13870783281E+02  0.57575824620E+02  0.51100000000E-03 0.  1.
         22    1    1    0    0    0  0.15940223909E+02 -0.81028226314E+01  0.21635652260E+02  0.28068628780E+02  0.00000000000E+00 0.  1.
</event>
<event>
 5    1  0.1691145E-003  0.9118800E+02  0.7818608E-02  0.1130116E+00
         25   -1    0    0    0    0  0.00000000000E+00  0.00000000000E+00  0.99999998245E-14  0.12500000000E+03  0.12500000000E+03 0.  0.
        -11    1    3    3    0    0 -0.46151459757E+02  0.23935305208E+02  0.76757706171E+01  0.52552578699E+02  0.51100000000E-03 0.  1.
         23    2    1    0    0    0 -0.36076169614E+01  0.28848362751E+02  0.89088042483E+00  0.95913291670E+02  0.91396514799E+02 0.  0.
         11    1    3    3    0    0  0.42543842795E+02  0.49130575432E+01 -0.67848901922E+01  0.43360712971E+02  0.51100000000E-03 0. -1.
         22    1    1    0    0    0  0.36076169614E+01 -0.28848362751E+02 -0.89088042483E+00  0.29086708330E+02  0.00000000000E+00 0.  1.
</event>
<event>
 5    1  0.1691145E-003  0.9118800E+02  0.7818608E-02  0.1130116E+00
         25   -1    0    0    0    0  0.00000000000E+00  0.00000000000E+00  0.99999998245E-14  0.12500000000E+03  0.12500000000E+03 0.  0.
        -11    1    3    3    0    0  0.12741427503E+02 -0.22164525368E+02 -0.46946508689E+02  0.53456382575E+02  0.51100000000E-03 0. -1.
         23    2    1    0    0    0 -0.17862985021E+02 -0.12751022342E+02 -0.20045186357E+02  0.95276536193E+02  0.90521456286E+02 0.  0.
         11    1    3    3    0    0 -0.30604412524E+02  0.94135030263E+01  0.26901322332E+02  0.41820153618E+02  0.51100000000E-03 0.  1.
         22    1    1    0    0    0  0.17862985021E+02  0.12751022342E+02  0.20045186357E+02  0.29723463807E+02  0.00000000000E+00 0. -1.
</event>
<event>
 5    1  0.1691145E-003  0.9118800E+02  0.7818608E-02  0.1130116E+00
         25   -1    0    0    0    0  0.00000000000E+00  0.00000000000E+00  0.99999998245E-14  0.12500000000E+03  0.12500000000E+03 0.  0.
        -11    1    3    3    0    0 -0.31309408723E+02  0.16522638326E+02 -0.12116988655E+02  0.37417884309E+02  0.51100000000E-03 0.  1.
         23    2    1    0    0    0  0.46799770682E+01 -0.27411522639E+02 -0.13192720010E+02  0.94221084814E+02  0.89052070181E+02 0.  0.
         11    1    3    3    0    0  0.35989385791E+02 -0.43934160966E+02 -0.10757313549E+01  0.56803200505E+02  0.51100000000E-03 0. -1.
         22    1    1    0    0    0 -0.46799770682E+01  0.27411522639E+02  0.13192720010E+02  0.30778915186E+02  0.00000000000E+00 0. -1.
</event>
<event>
 5    1  0.1691145E-003  0.9118800E+02  0.7818608E-02  0.1130116E+00
         25   -1    0    0    0    0  0.00000000000E+00  0.00000000000E+00  0.99999998245E-14  0.12500000000E+03  0.12500000000E+03 0.  0.
        -11    1    3    3    0    0 -0.40500011155E+02 -0.21277520622E+02 -0.23828974848E+02  0.51582980042E+02  0.51100000000E-03 0. -1.
         23    2    1    0    0    0 -0.18988666856E+02 -0.21356393806E+02  0.12504212949E+02  0.93806725615E+02  0.88468533411E+02 0.  0.
         11    1    3    3    0    0  0.21511344299E+02 -0.78873183428E-01  0.36333187797E+02  0.42223745574E+02  0.51100000000E-03 0.  1.
         22    1    1    0    0    0  0.18988666856E+02  0.21356393806E+02 -0.12504212949E+02  0.31193274385E+02  0.00000000000E+00 0. -1.
</event>
<event>
 5    1  0.1691145E-003  0.9118800E+02  0.7818608E-02  0.1130116E+00
         25   -1    0    0    0    0  0.00000000000E+00  0.00000000000E+00  0.99999998245E-14  0.12500000000E+03  0.12500000000E+03 0.  0.
        -11    1    3    3    0    0 -0.29673507062E+02 -0.40153239275E+02 -0.30721527603E+02  0.58622622802E+02  0.51100000000E-03 0.  1.
         23    2    1    0    0    0 -0.57287556500E+01 -0.29546900537E+02 -0.66858675954E+01  0.94169190764E+02  0.88979198081E+02 0.  0.
         11    1    3    3    0    0  0.23944751412E+02  0.10606338738E+02  0.24035660008E+02  0.35546567962E+02  0.51100000000E-03 0. -1.
         22    1    1    0    0    0  0.57287556500E+01  0.29546900537E+02  0.66858675954E+01  0.30830809236E+02  0.00000000000E+00 0.  1.
</event>
<event>
 5    1  0.1691145E-003  0.9118800E+02  0.7818608E-02  0.1130116E+00
         25   -1    0    0    0    0  0.00000000000E+00  0.00000000000E+00  0.99999998245E-14  0.12500000000E+03  0.12500000000E+03 0.  0.
        -11    1    3    3    0    0  0.44694717913E+02  0.27535219201E+02  0.12292526243E+02  0.53915789037E+02  0.51100000000E-03 0. -1.
         23    2    1    0    0    0  0.43461525890E+01  0.29076472304E+02  0.23072867894E+01  0.95510105862E+02  0.90843417293E+02 0.  0.
         11    1    3    3    0    0 -0.40348565324E+02  0.15412531024E+01 -0.99852394534E+01  0.41594316824E+02  0.51100000000E-03 0.  1.
         22    1    1    0    0    0 -0.43461525890E+01 -0.29076472304E+02 -0.23072867894E+01  0.29489894138E+02  0.00000000000E+00 0. -1.
</event>
<event>
 5    1  0.1691145E-003  0.9118800E+02  0.7818608E-02  0.1130116E+00
         25   -1    0    0    0    0  0.00000000000E+00  0.00000000000E+00  0.99999998245E-14  0.12500000000E+03  0.12500000000E+03 0.  0.
        -11    1    3    3    0    0  0.16050936975E+02  0.13802761607E+02  0.26187224078E+02  0.33673721370E+02  0.51100000000E-03 0. -1.
         23    2    1    0    0    0 -0.19978077347E+02  0.17500425642E+02 -0.19554918343E+02  0.92018439947E+02  0.85904656374E+02 0.  0.
         11    1    3    3    0    0 -0.36029014322E+02  0.36976640352E+01 -0.45742142421E+02  0.58344718577E+02  0.51100000000E-03 0.  1.
         22    1    1    0    0    0  0.19978077347E+02 -0.17500425642E+02  0.19554918343E+02  0.32981560053E+02  0.00000000000E+00 0.  1.
</event>
<event>
 5    1  0.1691145E-003  0.9118800E+02  0.7818608E-02  0.1130116E+00
         25   -1    0    0    0    0  0.00000000000E+00  0.00000000000E+00  0.99999998245E-14  0.12500000000E+03  0.12500000000E+03 0.  0.
        -11    1    3    3    0    0  0.23815369819E+02  0.13827659299E+02  0.33925005875E+02  0.43695331847E+02  0.51100000000E-03 0. -1.
         23    2    1    0    0    0  0.13812755392E+02  0.18408268137E+02 -0.17376070583E+02  0.96162795277E+02  0.91737118002E+02 0.  0.
         11    1    3    3    0    0 -0.10002614427E+02  0.45806088380E+01 -0.51301076459E+02  0.52467463430E+02  0.51100000000E-03 0.  1.
         22    1    1    0    0    0 -0.13812755392E+02 -0.18408268137E+02  0.17376070583E+02  0.28837204723E+02  0.00000000000E+00 0.  1.
</event>
<event>
 5    1  0.1691145E-003  0.9118800E+02  0.7818608E-02  0.1130116E+00
         25   -1    0    0    0    0  0.00000000000E+00  0.00000000000E+00  0.99999998245E-14  0.12500000000E+03  0.12500000000E+03 0.  0.
        -11    1    3    3    0    0  0.43149840548E+02  0.31639424326E+02 -0.13572544629E+02  0.55201230774E+02  0.51100000000E-03 0.  1.
         23    2    1    0    0    0  0.15759714976E+02  0.25509139453E+02  0.11547649040E+02  0.92868504391E+02  0.87132807241E+02 0.  0.
         11    1    3    3    0    0 -0.27390125572E+02 -0.61302848738E+01  0.25120193669E+02  0.37667273617E+02  0.51100000000E-03 0. -1.
         22    1    1    0    0    0 -0.15759714976E+02 -0.25509139453E+02 -0.11547649040E+02  0.32131495609E+02  0.00000000000E+00 0. -1.
</event>
<event>
 4    1  0.1691145E-003  0.9118800E+02  0.7818608E-02  0.1130116E+00
         25   -1    0    0    0    0  0.00000000000E+00  0.00000000000E+00  0.99999998245E-14  0.12500000000E+03  0.12500000000E+03 0.  0.
        -11    1    1    0    0    0 -0.37193129474E+02 -0.16239809645E+02  0.35126870882E+02  0.53674550353E+02  0.51100000000E-03 0.  1.
         11    1    1    0    0    0  0.99536936248E+00  0.13772084136E+02  0.72034205753E+01  0.15574027413E+02  0.51100000000E-03 0. -1.
         22    1    1    0    0    0  0.36197760112E+02  0.24677255087E+01 -0.42330291457E+02  0.55751422234E+02  0.00000000000E+00 0.  1.
</event>
<event>
 5    1  0.1691145E-003  0.9118800E+02  0.7818608E-02  0.1130116E+00
         25   -1    0    0    0    0  0.00000000000E+00  0.00000000000E+00  0.99999998245E-14  0.12500000000E+03  0.12500000000E+03 0.  0.
        -11    1    3    3    0    0 -0.22552006987E+02 -0.23185001309E+02 -0.83842608577E+01  0.33413068330E+02  0.51100000000E-03 0.  1.
         23    2    1    0    0    0  0.10545807333E+02  0.22280583679E+02  0.16941273147E+02  0.95089379860E+02  0.90262644349E+02 0.  0.
         11    1    3    3    0    0  0.33097814319E+02  0.45465584988E+02  0.25325534004E+02  0.61676311529E+02  0.51100000000E-03 0. -1.
         22    1    1    0    0    0 -0.10545807333E+02 -0.22280583679E+02 -0.16941273147E+02  0.29910620140E+02  0.00000000000E+00 0. -1.
</event>
<event>
 5    1  0.1691145E-003  0.9118800E+02  0.7818608E-02  0.1130116E+00
         25   -1    0    0    0    0  0.00000000000E+00  0.00000000000E+00  0.99999998245E-14  0.12500000000E+03  0.12500000000E+03 0.  0.
        -11    1    3    3    0    0 -0.58540204489E+02  0.26968790446E+01  0.96464204631E+01  0.59390926295E+02  0.51100000000E-03 0. -1.
         23    2    1    0    0    0 -0.22680357521E+02  0.41397707629E+00  0.17715111594E+02  0.96218145072E+02  0.91812506054E+02 0.  0.
         11    1    3    3    0    0  0.35859846968E+02 -0.22829019683E+01  0.80686911314E+01  0.36827218776E+02  0.51100000000E-03 0.  1.
         22    1    1    0    0    0  0.22680357521E+02 -0.41397707629E+00 -0.17715111594E+02  0.28781854928E+02  0.00000000000E+00 0. -1.
</event>
<event>
 5    1  0.1691145E-003  0.9118800E+02  0.7818608E-02  0.1130116E+00
         25   -1    0    0    0    0  0.00000000000E+00  0.00000000000E+00  0.99999998245E-14  0.12500000000E+03  0.12500000000E+03 0.  0.
        -11    1    3    3    0    0 -0.16100727483E+02  0.21105491649E+01  0.47064629968E+02  0.49787219621E+02  0.51100000000E-03 0. -1.
         23    2    1    0    0    0 -0.23642255495E+02 -0.15941315389E+02  0.51757534718E+01  0.96019485767E+02  0.91541637749E+02 0.  0.
         11    1    3    3    0    0 -0.75415280116E+01 -0.18051864554E+02 -0.41888876496E+02  0.46232266146E+02  0.51100000000E-03 0.  1.
         22    1    1    0    0    0  0.23642255495E+02  0.15941315389E+02 -0.51757534718E+01  0.28980514233E+02  0.00000000000E+00 0.  1.
</event>
<event>
 5    1  0.1691145E-003  0.9118800E+02  0.7818608E-02  0.1130116E+00
         25   -1    0    0    0    0  0.00000000000E+00  0.00000000000E+00  0.99999998245E-14  0.12500000000E+03  0.12500000000E+03 0.  0.
        -11    1    3    3    0    0 -0.27202028859E+02 -0.23769273680E+02  0.46872753142E+02  0.59177561057E+02  0.51100000000E-03 0. -1.
         23    2    1    0    0    0 -0.80301681387E+01 -0.23655487670E+02  0.16615271016E+02  0.94997784612E+02  0.90135709644E+02 0.  0.
         11    1    3    3    0    0  0.19171860720E+02  0.11378600988E+00 -0.30257482126E+02  0.35820223555E+02  0.51100000000E-03 0.  1.
         22    1    1    0    0    0  0.80301681387E+01  0.23655487670E+02 -0.16615271016E+02  0.30002215388E+02  0.00000000000E+00 0. -1.
</event>
<event>
 5    1  0.1691145E-003  0.9118800E+02  0.7818608E-02  0.1130116E+00
         25   -1    0    0    0    0  0.00000000000E+00  0.00000000000E+00  0.99999998245E-14  0.12500000000E+03  0.12500000000E+03 0.  0.
        -11    1    3    3    0    0 -0.23131368314E+02 -0.20832516594E+01 -0.52268732824E+02  0.57196333526E+02  0.51100000000E-03 0.  1.
         23    2    1    0    0    0 -0.18986883165E+02 -0.14182128461E+02 -0.14161539605E+02  0.97392325270E+02  0.93397437425E+02 0.  0.
         11    1    3    3    0    0  0.41444851485E+01 -0.12098876802E+02  0.38107193219E+02  0.40195991744E+02  0.51100000000E-03 0. -1.
         22    1    1    0    0    0  0.18986883165E+02  0.14182128461E+02  0.14161539605E+02  0.27607674730E+02  0.00000000000E+00 0.  1.
</event>
<event>
 5    1  0.1691145E-003  0.9118800E+02  0.7818608E-02  0.1130116E+00
         25   -1    0    0    0    0  0.00000000000E+00  0.00000000000E+00  0.99999998245E-14  0.12500000000E+03  0.12500000000E+03 0.  0.
        -11    1    3    3    0    0  0.24176582297E+02  0.22051763731E+02 -0.89329416879E+01  0.33920272150E+02  0.51100000000E-03 0.  1.
         23    2    1    0    0    0 -0.14335405373E+02 -0.24841869656E+02  0.42183235620E+01  0.96010060557E+02  0.91528766731E+02 0.  0.
         11    1    3    3    0    0 -0.38511987670E+02 -0.46893633387E+02  0.13151265250E+02  0.62089788408E+02  0.51100000000E-03 0. -1.
         22    1    1    0    0    0  0.14335405373E+02  0.24841869656E+02 -0.42183235620E+01  0.28989939443E+02  0.00000000000E+00 0. -1.
</event>
<event>
 5    1  0.1691145E-003  0.9118800E+02  0.7818608E-02  0.1130116E+00
         25   -1    0    0    0    0  0.00000000000E+00  0.00000000000E+00  0.99999998245E-14  0.12500000000E+03  0.12500000000E+03 0.  0.
        -11    1    3    3    0    0 -0.23906610731E+02  0.31467482171E+02  0.18121830823E+02  0.43475616424E+02  0.51100000000E-03 0.  1.
         23    2    1    0    0    0 -0.14871642670E+02 -0.20419133470E+02  0.13533118864E+02  0.96342504059E+02  0.91981661296E+02 0.  0.
         11    1    3    3    0    0  0.90349680606E+01 -0.51886615641E+02 -0.45887119586E+01  0.52866887635E+02  0.51100000000E-03 0. -1.
         22    1    1    0    0    0  0.14871642670E+02  0.20419133470E+02 -0.13533118864E+02  0.28657495941E+02  0.00000000000E+00 0.  1.
</event>
<event>
 5    1  0.1691145E-003  0.9118800E+02  0.7818608E-02  0.1130116E+00
         25   -1    0    0    0    0  0.00000000000E+00  0.00000000000E+00  0.99999998245E-14  0.12500000000E+03  0.12500000000E+03 0.  0.
        -11    1    3    3    0    0  0.27511141903E+02 -0.27537073839E+02 -0.33568392726E+02  0.51400295281E+02  0.51100000000E-03 0. -1.
         23    2    1    0    0    0  0.20492904331E+02  0.12888676057E+02 -0.15651852676E+02  0.96171930508E+02  0.91749564724E+02 0.  0.
         11    1    3    3    0    0 -0.70182375723E+01  0.40425749896E+02  0.17916540050E+02  0.44771635227E+02  0.51100000000E-03 0.  1.
         22    1    1    0    0    0 -0.20492904331E+02 -0.12888676057E+02  0.15651852676E+02  0.28828069492E+02  0.00000000000E+00 0. -1.
</event>
<event>
 5    1  0.1691145E-003  0.9118800E+02  0.7818608E-02  0.1130116E+00
         25   -1    0    0    0    0  0.00000000000E+00  0.00000000000E+00  0.99999998245E-14  0.12500000000E+03  0.12500000000E+03 0.  0.
        -11    1    3    3    0    0  0.30306927355E+02  0.13142101128E+02  0.51214749900E+01  0.33428343873E+02  0.51100000000E-03 0. -1.
         23    2    1    0    0    0 -0.28336037425E+02 -0.71992095042E+01 -0.55898908532E+00  0.95758384053E+02  0.91184406634E+02 0.  0.
         11    1    3    3    0    0 -0.58642964780E+02 -0.20341310632E+02 -0.56804640753E+01  0.62330040179E+02  0.51100000000E-03 0.  1.
         22    1    1    0    0    0  0.28336037425E+02  0.71992095042E+01  0.55898908532E+00  0.29241615947E+02  0.00000000000E+00 0.  1.
</event>
<event>
 5    1  0.1691145E-003  0.9118800E+02  0.7818608E-02  0.1130116E+00
         25   -1    0    0    0    0  0.00000000000E+00  0.00000000000E+00  0.99999998245E-14  0.12500000000E+03  0.12500000000E+03 0.  0.
        -11    1    3    3    0    0  0.22144001585E+02  0.25007960528E+02 -0.59087882464E+01  0.33921507555E+02  0.51100000000E-03 0.  1.
         23    2    1    0    0    0 -0.25063146101E+02 -0.13954474551E+02  0.43544601656E+01  0.95985348946E+02  0.91495012085E+02 0.  0.
         11    1    3    3    0    0 -0.47207147686E+02 -0.38962435079E+02  0.10263248412E+02  0.62063841391E+02  0.51100000000E-03 0. -1.
         22    1    1    0    0    0  0.25063146101E+02  0.13954474551E+02 -0.43544601656E+01  0.29014651054E+02  0.00000000000E+00 0. -1.
</event>
<event>
 5    1  0.1691145E-003  0.9118800E+02  0.7818608E-02  0.1130116E+00
         25   -1    0    0    0    0  0.00000000000E+00  0.00000000000E+00  0.99999998245E-14  0.12500000000E+03  0.12500000000E+03 0.  0.
        -11    1    3    3    0    0 -0.29531030145E+02  0.10249510690E+02  0.53733614846E+02  0.62164584576E+02  0.51100000000E-03 0. -1.
         23    2    1    0    0    0 -0.15305737068E+02  0.82537007976E+01  0.22328869268E+02  0.96698629594E+02  0.92464357449E+02 0.  0.
         11    1    3    3    0    0  0.14225293077E+02 -0.19958098923E+01 -0.31404745578E+02  0.34534045018E+02  0.51100000000E-03 0.  1.
         22    1    1    0    0    0  0.15305737068E+02 -0.82537007976E+01 -0.22328869268E+02  0.28301370406E+02  0.00000000000E+00 0. -1.
</event>
<event>
 5    1  0.1691145E-003  0.9118800E+02  0.7818608E-02  0.1130116E+00
         25   -1    0    0    0    0  0.00000000000E+00  0.00000000000E+00  0.99999998245E-14  0.12500000000E+03  0.12500000000E+03 0.  0.
        -11    1    3    3    0    0 -0.13249705316E+02  0.15098185873E+02  0.29201110538E+02  0.35443120129E+02  0.51100000000E-03 0.  1.
         23    2    1    0    0    0  0.50037051253E+01  0.11075797400E+02 -0.27386531325E+02  0.95037816317E+02  0.90191208436E+02 0.  0.
         11    1    3    3    0    0  0.18253410441E+02 -0.40223884721E+01 -0.56587641863E+02  0.59594696187E+02  0.51100000000E-03 0. -1.
         22    1    1    0    0    0 -0.50037051253E+01 -0.11075797400E+02  0.27386531325E+02  0.29962183683E+02  0.00000000000E+00 0. -1.
</event>
<event>
 5    1  0.1691145E-003  0.9118800E+02  0.7818608E-02  0.1130116E+00
         25   -1    0    0    0    0  0.00000000000E+00  0.00000000000E+00  0.99999998245E-14  0.12500000000E+03  0.12500000000E+03 0.  0.
        -11    1    3    3    0    0  0.13597944693E+02 -0.34276990147E+02 -0.18830681852E+02  0.41405443273E+02  0.51100000000E-03 0.  1.
         23    2    1    0    0    0 -0.17916460486E+02 -0.62657235059E+01  0.19065908734E+02  0.98097068501E+02  0.94335927012E+02 0.  0.
         11    1    3    3    0    0 -0.31514405179E+02  0.28011266641E+02  0.37896590586E+02  0.56691625227E+02  0.51100000000E-03 0. -1.
         22    1    1    0    0    0  0.17916460486E+02  0.62657235059E+01 -0.19065908734E+02  0.26902931499E+02  0.00000000000E+00 0. -1.
</event>
<event>
 5    1  0.1691145E-003  0.9118800E+02  0.7818608E-02  0.1130116E+00
         25   -1    0    0    0    0  0.00000000000E+00  0.00000000000E+00  0.99999998245E-14  0.12500000000E+03  0.12500000000E+03 0.  0.
        -11    1    3    3    0    0  0.31005118537E+02 -0.27251751294E+02 -0.62356742954E+01  0.41747562303E+02  0.51100000000E-03 0. -1.
         23    2    1    0    0    0  0.19223421836E+02  0.22882300376E+02  0.56110063253E+01  0.94592385664E+02  0.89571738936E+02 0.  0.
         11    1    3    3    0    0 -0.11781696701E+02  0.50134051671E+02  0.11846680621E+02  0.52844823361E+02  0.51100000000E-03 0.  1.
         22    1    1    0    0    0 -0.19223421836E+02 -0.22882300376E+02 -0.56110063253E+01  0.30407614336E+02  0.00000000000E+00 0.  1.
</event>
<event>
 5    1  0.1691145E-003  0.9118800E+02  0.7818608E-02  0.1130116E+00
         25   -1    0    0    0    0  0.00000000000E+00  0.00000000000E+00  0.99999998245E-14  0.12500000000E+03  0.12500000000E+03 0.  0.
        -11    1    3    3    0    0 -0.35122766649E+02  0.14550625702E+02 -0.27924955740E+02  0.47171311183E+02  0.51100000000E-03 0.  1.
         23    2    1    0    0    0  0.10306104301E+02  0.36163724842E+01 -0.29105697516E+02  0.93912453238E+02  0.88617793413E+02 0.  0.
         11    1    3    3    0    0  0.45428870950E+02 -0.10934253218E+02 -0.11807417759E+01  0.46741142055E+02  0.51100000000E-03 0. -1.
         22    1    1    0    0    0 -0.10306104301E+02 -0.36163724842E+01  0.29105697516E+02  0.31087546762E+02  0.00000000000E+00 0. -1.
</event>
<event>
 5    1  0.1691145E-003  0.9118800E+02  0.7818608E-02  0.1130116E+00
         25   -1    0    0    0    0  0.00000000000E+00  0.00000000000E+00  0.99999998245E-14  0.12500000000E+03  0.12500000000E+03 0.  0.
        -11    1    3    3    0    0  0.23994117942E+02 -0.10256337751E+02  0.31188995610E+02  0.40665262907E+02  0.51100000000E-03 0.  1.
         23    2    1    0    0    0  0.52507705254E+01 -0.13015350637E+02 -0.22991973984E+02  0.98063021495E+02  0.94290802169E+02 0.  0.
         11    1    3    3    0    0 -0.18743347416E+02 -0.27590128862E+01 -0.54180969594E+02  0.57397758588E+02  0.51100000000E-03 0. -1.
         22    1    1    0    0    0 -0.52507705254E+01  0.13015350637E+02  0.22991973984E+02  0.26936978505E+02  0.00000000000E+00 0. -1.
</event>
<event>
 5    1  0.1691145E-003  0.9118800E+02  0.7818608E-02  0.1130116E+00
         25   -1    0    0    0    0  0.00000000000E+00  0.00000000000E+00  0.99999998245E-14  0.12500000000E+03  0.12500000000E+03 0.  0.
        -11    1    3    3    0    0  0.24492897642E+02  0.25378884364E+02  0.36501140629E+01  0.35458611640E+02  0.51100000000E-03 0.  1.
         23    2    1    0    0    0  0.46192754570E+00 -0.29524789149E+02  0.71368094917E+00  0.95462974221E+02  0.90778541271E+02 0.  0.
         11    1    3    3    0    0 -0.24030970097E+02 -0.54903673514E+02 -0.29364331137E+01  0.60004362581E+02  0.51100000000E-03 0. -1.
         22    1    1    0    0    0 -0.46192754570E+00  0.29524789149E+02 -0.71368094917E+00  0.29537025779E+02  0.00000000000E+00 0. -1.
</event>
<event>
 5    1  0.1691145E-003  0.9118800E+02  0.7818608E-02  0.1130116E+00
         25   -1    0    0    0    0  0.00000000000E+00  0.00000000000E+00  0.99999998245E-14  0.12500000000E+03  0.12500000000E+03 0.  0.
        -11    1    3    3    0    0  0.34386939182E+02  0.25172273427E+02  0.29801140187E+02  0.52002047003E+02  0.51100000000E-03 0. -1.
         23    2    1    0    0    0 -0.16561517836E+01 -0.12386086810E+01  0.28210166513E+02  0.96714129236E+02  0.92485308611E+02 0.  0.
         11    1    3    3    0    0 -0.36043090966E+02 -0.26410882108E+02 -0.15909736741E+01  0.44712082233E+02  0.51100000000E-03 0.  1.
         22    1    1    0    0    0  0.16561517836E+01  0.12386086810E+01 -0.28210166513E+02  0.28285870764E+02  0.00000000000E+00 0.  1.
</event>
<event>
 5    1  0.1691145E-003  0.9118800E+02  0.7818608E-02  0.1130116E+00
         25   -1    0    0    0    0  0.00000000000E+00  0.00000000000E+00  0.99999998245E-14  0.12500000000E+03  0.12500000000E+03 0.  0.
        -11    1    3    3    0    0 -0.34377274261E+02  0.50568186208E+02 -0.10428422332E+00  0.61146948554E+02  0.51100000000E-03 0.  1.
         23    2    1    0    0    0 -0.15665615437E+02  0.20090684616E+02 -0.89664216960E+01  0.97991782114E+02  0.94196313774E+02 0.  0.
         11    1    3    3    0    0  0.18711658824E+02 -0.30477501592E+02 -0.88621374727E+01  0.36844833561E+02  0.51100000000E-03 0. -1.
         22    1    1    0    0    0  0.15665615437E+02 -0.20090684616E+02  0.89664216960E+01  0.27008217886E+02  0.00000000000E+00 0.  1.
</event>
<event>
 5    1  0.1691145E-003  0.9118800E+02  0.7818608E-02  0.1130116E+00
         25   -1    0    0    0    0  0.00000000000E+00  0.00000000000E+00  0.99999998245E-14  0.12500000000E+03  0.12500000000E+03 0.  0.
        -11    1    3    3    0    0  0.11034372519E+02 -0.34196284746E+01  0.32840729886E+02  0.34813284469E+02  0.51100000000E-03 0. -1.
         23    2    1    0    0    0  0.61631205040E+01  0.48044689132E+01 -0.27758896727E+02  0.96162119991E+02  0.91736197860E+02 0.  0.
         11    1    3    3    0    0 -0.48712520151E+01  0.82240973878E+01 -0.60599626613E+02  0.61348835523E+02  0.51100000000E-03 0.  1.
         22    1    1    0    0    0 -0.61631205040E+01 -0.48044689132E+01  0.27758896727E+02  0.28837880009E+02  0.00000000000E+00 0.  1.
</event>
<event>
 5    1  0.1691145E-003  0.9118800E+02  0.7818608E-02  0.1130116E+00
         25   -1    0    0    0    0  0.00000000000E+00  0.00000000000E+00  0.99999998245E-14  0.12500000000E+03  0.12500000000E+03 0.  0.
        -11    1    3    3    0    0 -0.73146054670E+01 -0.11594862433E+02 -0.52785154575E+02  0.54536380809E+02  0.51100000000E-03 0.  1.
         23    2    1    0    0    0  0.97731633573E+01  0.12920597972E+02 -0.24113773009E+02  0.95949515965E+02  0.91446044153E+02 0.  0.
         11    1    3    3    0    0  0.17087768824E+02  0.24515460404E+02  0.28671381566E+02  0.41413135156E+02  0.51100000000E-03 0. -1.
         22    1    1    0    0    0 -0.97731633573E+01 -0.12920597972E+02  0.24113773009E+02  0.29050484035E+02  0.00000000000E+00 0. -1.
</event>
<event>
 5    1  0.1691145E-003  0.9118800E+02  0.7818608E-02  0.1130116E+00
         25   -1    0    0    0    0  0.00000000000E+00  0.00000000000E+00  0.99999998245E-14  0.12500000000E+03  0.12500000000E+03 0.  0.
        -11    1    3    3    0    0  0.75635057595E+01  0.43697197354E+02  0.97408759525E+01  0.45404144531E+02  0.51100000000E-03 0.  1.
         23    2    1    0    0    0  0.28752616776E+02 -0.53742032610E+00 -0.30186293632E+01  0.96084365556E+02  0.91630188197E+02 0.  0.
         11    1    3    3    0    0  0.21189111017E+02 -0.44234617680E+02 -0.12759505316E+02  0.50680221025E+02  0.51100000000E-03 0. -1.
         22    1    1    0    0    0 -0.28752616776E+02  0.53742032610E+00  0.30186293632E+01  0.28915634444E+02  0.00000000000E+00 0. -1.
</event>
<event>
 5    1  0.1691145E-003  0.9118800E+02  0.7818608E-02  0.1130116E+00
         25   -1    0    0    0    0  0.00000000000E+00  0.00000000000E+00  0.99999998245E-14  0.12500000000E+03  0.12500000000E+03 0.  0.
        -11    1    3    3    0    0  0.10056346901E+01 -0.99720221664E+01  0.58598423872E+02  0.59449371803E+02  0.51100000000E-03 0. -1.
         23    2    1    0    0    0  0.58325981573E+01 -0.16485777135E+02  0.22199951888E+02  0.96739817537E+02  0.92520021532E+02 0.  0.
         11    1    3    3    0    0  0.48269634672E+01 -0.65137549681E+01 -0.36398471984E+02  0.37290445735E+02  0.51100000000E-03 0.  1.
         22    1    1    0    0    0 -0.58325981573E+01  0.16485777135E+02 -0.22199951888E+02  0.28260182463E+02  0.00000000000E+00 0. -1.
</event>
<event>
 5    1  0.1691145E-003  0.9118800E+02  0.7818608E-02  0.1130116E+00
         25   -1    0    0    0    0  0.00000000000E+00  0.00000000000E+00  0.99999998245E-14  0.12500000000E+03  0.12500000000E+03 0.  0.
        -11    1    3    3    0    0 -0.22528489015E+02 -0.18716274609E+02  0.25997234288E+02  0.39162328116E+02  0.51100000000E-03 0. -1.
         23    2    1    0    0    0 -0.41160049904E+02 -0.24887712895E+02 -0.58236643483E+01  0.76549375364E+02  0.59265030507E+02 0.  0.
         11    1    3    3    0    0 -0.18631560888E+02 -0.61714382856E+01 -0.31820898636E+02  0.37387047248E+02  0.51100000000E-03 0.  1.
         22    1    1    0    0    0  0.41160049904E+02  0.24887712895E+02  0.58236643483E+01  0.48450624636E+02  0.00000000000E+00 0. -1.
</event>
<event>
 5    1  0.1691145E-003  0.9118800E+02  0.7818608E-02  0.1130116E+00
         25   -1    0    0    0    0  0.00000000000E+00  0.00000000000E+00  0.99999998245E-14  0.12500000000E+03  0.12500000000E+03 0.  0.
        -11    1    3    3    0    0  0.37758402177E+02  0.20253789583E+02  0.16724580311E+02  0.45995918453E+02  0.51100000000E-03 0. -1.
         23    2    1    0    0    0  0.23017594060E+02 -0.16039959837E+02 -0.11912801052E+02  0.94520420331E+02  0.89471252829E+02 0.  0.
         11    1    3    3    0    0 -0.14740808117E+02 -0.36293749420E+02 -0.28637381364E+02  0.48524501878E+02  0.51100000000E-03 0.  1.
         22    1    1    0    0    0 -0.23017594060E+02  0.16039959837E+02  0.11912801052E+02  0.30479579669E+02  0.00000000000E+00 0. -1.
</event>
<event>
 5    1  0.1691145E-003  0.9118800E+02  0.7818608E-02  0.1130116E+00
         25   -1    0    0    0    0  0.00000000000E+00  0.00000000000E+00  0.99999998245E-14  0.12500000000E+03  0.12500000000E+03 0.  0.
        -11    1    3    3    0    0 -0.21441760547E+02 -0.55777158039E+02 -0.16176647867E+02  0.61907385591E+02  0.51100000000E-03 0.  1.
         23    2    1    0    0    0 -0.93168889857E+01 -0.25180731914E+02 -0.13555798164E+02  0.94922876734E+02  0.90031767635E+02 0.  0.
         11    1    3    3    0    0  0.12124871561E+02  0.30596426125E+02  0.26208497028E+01  0.33015491143E+02  0.51100000000E-03 0. -1.
         22    1    1    0    0    0  0.93168889857E+01  0.25180731914E+02  0.13555798164E+02  0.30077123266E+02  0.00000000000E+00 0.  1.
</event>
<event>
 5    1  0.1691145E-003  0.9118800E+02  0.7818608E-02  0.1130116E+00
         25   -1    0    0    0    0  0.00000000000E+00  0.00000000000E+00  0.99999998245E-14  0.12500000000E+03  0.12500000000E+03 0.  0.
        -11    1    3    3    0    0  0.22208944470E+02  0.12134589860E+02  0.55072579431E+02  0.60609194773E+02  0.51100000000E-03 0.  1.
         23    2    1    0    0    0  0.94807378978E+01 -0.17656301521E+01  0.37153588109E+02  0.86615225020E+02  0.77645387854E+02 0.  0.
         11    1    3    3    0    0 -0.12728206572E+02 -0.13900220012E+02 -0.17918991323E+02  0.26006030247E+02  0.51100000000E-03 0. -1.
         22    1    1    0    0    0 -0.94807378978E+01  0.17656301521E+01 -0.37153588109E+02  0.38384774980E+02  0.00000000000E+00 0.  1.
</event>
<event>
 5    1  0.1691145E-003  0.9118800E+02  0.7818608E-02  0.1130116E+00
         25   -1    0    0    0    0  0.00000000000E+00  0.00000000000E+00  0.99999998245E-14  0.12500000000E+03  0.12500000000E+03 0.  0.
        -11    1    3    3    0    0 -0.28605508940E+02 -0.20511961762E+02  0.87292654248E+01  0.36265903989E+02  0.51100000000E-03 0.  1.
         23    2    1    0    0    0  0.77621442127E+01  0.60764254967E+01 -0.28585040629E+02  0.94762963483E+02  0.89809469828E+02 0.  0.
         11    1    3    3    0    0  0.36367653153E+02  0.26588387259E+02 -0.37314306054E+02  0.58497059493E+02  0.51100000000E-03 0. -1.
         22    1    1    0    0    0 -0.77621442127E+01 -0.60764254967E+01  0.28585040629E+02  0.30237036517E+02  0.00000000000E+00 0. -1.
</event>
<event>
 5    1  0.1691145E-003  0.9118800E+02  0.7818608E-02  0.1130116E+00
         25   -1    0    0    0    0  0.00000000000E+00  0.00000000000E+00  0.99999998245E-14  0.12500000000E+03  0.12500000000E+03 0.  0.
        -11    1    3    3    0    0 -0.35772818095E+02 -0.47376629970E+02 -0.24989135395E+01  0.59417877368E+02  0.51100000000E-03 0.  1.
         23    2    1    0    0    0 -0.24933557601E+02 -0.12753247642E+02  0.52238318019E+01  0.96511124298E+02  0.92210525833E+02 0.  0.
         11    1    3    3    0    0  0.10839260494E+02  0.34623382328E+02  0.77227453414E+01  0.37093246930E+02  0.51100000000E-03 0. -1.
         22    1    1    0    0    0  0.24933557601E+02  0.12753247642E+02 -0.52238318019E+01  0.28488875702E+02  0.00000000000E+00 0.  1.
</event>
<event>
 5    1  0.1691145E-003  0.9118800E+02  0.7818608E-02  0.1130116E+00
         25   -1    0    0    0    0  0.00000000000E+00  0.00000000000E+00  0.99999998245E-14  0.12500000000E+03  0.12500000000E+03 0.  0.
        -11    1    3    3    0    0  0.10694249235E+02  0.37704469487E+02 -0.18068686371E+02  0.43156360058E+02  0.51100000000E-03 0. -1.
         23    2    1    0    0    0 -0.16340478710E+02 -0.10499674269E+02 -0.18139048601E+02  0.98424080668E+02  0.94768244507E+02 0.  0.
         11    1    3    3    0    0 -0.27034727945E+02 -0.48204143756E+02 -0.70362230254E-01  0.55267720610E+02  0.51100000000E-03 0.  1.
         22    1    1    0    0    0  0.16340478710E+02  0.10499674269E+02  0.18139048601E+02  0.26575919332E+02  0.00000000000E+00 0.  1.
</event>
<event>
 5    1  0.1691145E-003  0.9118800E+02  0.7818608E-02  0.1130116E+00
         25   -1    0    0    0    0  0.00000000000E+00  0.00000000000E+00  0.99999998245E-14  0.12500000000E+03  0.12500000000E+03 0.  0.
        -11    1    3    3    0    0 -0.92663901157E+00  0.12364661375E+02  0.43329520740E+02  0.45068735046E+02  0.51100000000E-03 0.  1.
         23    2    1    0    0    0  0.25324633066E+02 -0.13071470958E+02  0.92682900123E+01  0.95031656825E+02  0.90182671319E+02 0.  0.
         11    1    3    3    0    0  0.26251272077E+02 -0.25436132333E+02 -0.34061230728E+02  0.49962921779E+02  0.51100000000E-03 0. -1.
         22    1    1    0    0    0 -0.25324633066E+02  0.13071470958E+02 -0.92682900123E+01  0.29968343175E+02  0.00000000000E+00 0. -1.
</event>
<event>
 5    1  0.1691145E-003  0.9118800E+02  0.7818608E-02  0.1130116E+00
         25   -1    0    0    0    0  0.00000000000E+00  0.00000000000E+00  0.99999998245E-14  0.12500000000E+03  0.12500000000E+03 0.  0.
        -11    1    3    3    0    0 -0.19597058684E+02 -0.41038083214E+02 -0.80741613259E+01  0.46188321731E+02  0.51100000000E-03 0.  1.
         23    2    1    0    0    0 -0.19052309525E+02  0.78416950864E+01  0.14271999238E+02  0.99936627476E+02  0.96742735484E+02 0.  0.
         11    1    3    3    0    0  0.54474915948E+00  0.48879778300E+02  0.22346160564E+02  0.53748305745E+02  0.51100000000E-03 0. -1.
         22    1    1    0    0    0  0.19052309525E+02 -0.78416950864E+01 -0.14271999238E+02  0.25063372524E+02  0.00000000000E+00 0. -1.
</event>
<event>
 5    1  0.1691145E-003  0.9118800E+02  0.7818608E-02  0.1130116E+00
         25   -1    0    0    0    0  0.00000000000E+00  0.00000000000E+00  0.99999998245E-14  0.12500000000E+03  0.12500000000E+03 0.  0.
        -11    1    3    3    0    0 -0.93682400821E+00 -0.19191116522E+02 -0.27849843185E+02  0.33834750749E+02  0.51100000000E-03 0.  1.
         23    2    1    0    0    0  0.44653225644E+01  0.61300749332E+01  0.28318694123E+02  0.95683360337E+02  0.91081502426E+02 0.  0.
         11    1    3    3    0    0  0.54021465726E+01  0.25321191455E+02  0.56168537308E+02  0.61848609587E+02  0.51100000000E-03 0. -1.
         22    1    1    0    0    0 -0.44653225644E+01 -0.61300749332E+01 -0.28318694123E+02  0.29316639663E+02  0.00000000000E+00 0. -1.
</event>
<event>
 5    1  0.1691145E-003  0.9118800E+02  0.7818608E-02  0.1130116E+00
         25   -1    0    0    0    0  0.00000000000E+00  0.00000000000E+00  0.99999998245E-14  0.12500000000E+03  0.12500000000E+03 0.  0.
        -11    1    3    3    0    0  0.29240948044E+02 -0.20109622360E+02  0.93838940002E+01  0.36708138346E+02  0.51100000000E-03 0.  1.
         23    2    1    0    0    0 -0.44873412828E+01  0.10511226779E+02 -0.27433640603E+02  0.95280868839E+02  0.90527438988E+02 0.  0.
         11    1    3    3    0    0 -0.33728289327E+02  0.30620849139E+02 -0.36817534604E+02  0.58572730493E+02  0.51100000000E-03 0. -1.
         22    1    1    0    0    0  0.44873412828E+01 -0.10511226779E+02  0.27433640603E+02  0.29719131161E+02  0.00000000000E+00 0. -1.
</event>
<event>
 5    1  0.1691145E-003  0.9118800E+02  0.7818608E-02  0.1130116E+00
         25   -1    0    0    0    0  0.00000000000E+00  0.00000000000E+00  0.99999998245E-14  0.12500000000E+03  0.12500000000E+03 0.  0.
        -11    1    3    3    0    0  0.73577415001E+01 -0.10662166810E+02 -0.50262862201E+02  0.51905428213E+02  0.51100000000E-03 0.  1.
         23    2    1    0    0    0 -0.18881355793E+02  0.83656989180E+01 -0.19004856859E+02  0.96934449957E+02  0.92782608765E+02 0.  0.
         11    1    3    3    0    0 -0.26239097294E+02  0.19027865728E+02  0.31258005343E+02  0.45029021744E+02  0.51100000000E-03 0. -1.
         22    1    1    0    0    0  0.18881355793E+02 -0.83656989180E+01  0.19004856859E+02  0.28065550043E+02  0.00000000000E+00 0.  1.
</event>
<event>
 5    1  0.1691145E-003  0.9118800E+02  0.7818608E-02  0.1130116E+00
         25   -1    0    0    0    0  0.00000000000E+00  0.00000000000E+00  0.99999998245E-14  0.12500000000E+03  0.12500000000E+03 0.  0.
        -11    1    3    3    0    0  0.51184316569E+02  0.26976550069E+02  0.50038648823E+01  0.58074152429E+02  0.51100000000E-03 0.  1.
         23    2    1    0    0    0  0.15718929663E+02  0.11563579291E+02  0.17577244592E+02  0.98736705401E+02  0.95179705558E+02 0.  0.
         11    1    3    3    0    0 -0.35465386906E+02 -0.15412970778E+02  0.12573379710E+02  0.40662552972E+02  0.51100000000E-03 0. -1.
         22    1    1    0    0    0 -0.15718929663E+02 -0.11563579291E+02 -0.17577244592E+02  0.26263294599E+02  0.00000000000E+00 0.  1.
</event>
<event>
 5    1  0.1691145E-003  0.9118800E+02  0.7818608E-02  0.1130116E+00
         25   -1    0    0    0    0  0.00000000000E+00  0.00000000000E+00  0.99999998245E-14  0.12500000000E+03  0.12500000000E+03 0.  0.
        -11    1    3    3    0    0 -0.36012421346E+02  0.33740644905E+02  0.21191027159E+02  0.53706473001E+02  0.51100000000E-03 0.  1.
         23    2    1    0    0    0 -0.29329443681E+02 -0.11330011808E+01 -0.10936585114E+01  0.95628312148E+02  0.91005923088E+02 0.  0.
         11    1    3    3    0    0  0.66829776654E+01 -0.34873646086E+02 -0.22284685671E+02  0.41921839148E+02  0.51100000000E-03 0. -1.
         22    1    1    0    0    0  0.29329443681E+02  0.11330011808E+01  0.10936585114E+01  0.29371687852E+02  0.00000000000E+00 0.  1.
</event>
<event>
 5    1  0.1691145E-003  0.9118800E+02  0.7818608E-02  0.1130116E+00
         25   -1    0    0    0    0  0.00000000000E+00  0.00000000000E+00  0.99999998245E-14  0.12500000000E+03  0.12500000000E+03 0.  0.
        -11    1    3    3    0    0  0.19958078438E+02  0.37534180263E+02 -0.21951976191E+02  0.47843796274E+02  0.51100000000E-03 0.  1.
         23    2    1    0    0    0  0.27611307495E+02  0.31743256185E+01  0.10077299263E+02  0.95436295815E+02  0.90741798273E+02 0.  0.
         11    1    3    3    0    0  0.76532290568E+01 -0.34359854645E+02  0.32029275454E+02  0.47592499541E+02  0.51100000000E-03 0. -1.
         22    1    1    0    0    0 -0.27611307495E+02 -0.31743256185E+01 -0.10077299263E+02  0.29563704185E+02  0.00000000000E+00 0. -1.
</event>
<event>
 5    1  0.1691145E-003  0.9118800E+02  0.7818608E-02  0.1130116E+00
         25   -1    0    0    0    0  0.00000000000E+00  0.00000000000E+00  0.99999998245E-14  0.12500000000E+03  0.12500000000E+03 0.  0.
        -11    1    3    3    0    0  0.21297229544E+02 -0.12907058525E+02 -0.26779442376E+02  0.36569149296E+02  0.51100000000E-03 0.  1.
         23    2    1    0    0    0 -0.29005909942E+02 -0.94322804969E+01  0.16498413611E+01  0.94454415975E+02  0.89378990785E+02 0.  0.
         11    1    3    3    0    0 -0.50303139485E+02  0.34747780278E+01  0.28429283737E+02  0.57885266679E+02  0.51100000000E-03 0. -1.
         22    1    1    0    0    0  0.29005909942E+02  0.94322804969E+01 -0.16498413611E+01  0.30545584025E+02  0.00000000000E+00 0. -1.
</event>
<event>
 5    1  0.1691145E-003  0.9118800E+02  0.7818608E-02  0.1130116E+00
         25   -1    0    0    0    0  0.00000000000E+00  0.00000000000E+00  0.99999998245E-14  0.12500000000E+03  0.12500000000E+03 0.  0.
        -11    1    3    3    0    0  0.20224710366E+02  0.46721464607E+02 -0.22890216827E+02  0.55820213105E+02  0.51100000000E-03 0.  1.
         23    2    1    0    0    0 -0.10692017868E+02  0.25848103155E+02 -0.92898125216E+01  0.95525531396E+02  0.90864640257E+02 0.  0.
         11    1    3    3    0    0 -0.30916728235E+02 -0.20873361452E+02  0.13600404306E+02  0.39705318291E+02  0.51100000000E-03 0. -1.
         22    1    1    0    0    0  0.10692017868E+02 -0.25848103155E+02  0.92898125216E+01  0.29474468604E+02  0.00000000000E+00 0.  1.
</event>
<event>
 5    1  0.1691145E-003  0.9118800E+02  0.7818608E-02  0.1130116E+00
         25   -1    0    0    0    0  0.00000000000E+00  0.00000000000E+00  0.99999998245E-14  0.12500000000E+03  0.12500000000E+03 0.  0.
        -11    1    3    3    0    0  0.28878470078E+02  0.31354543473E+02 -0.22536029203E+02  0.48217694293E+02  0.51100000000E-03 0.  1.
         23    2    1    0    0    0 -0.85369277483E+01  0.25766456679E+02  0.78538181876E+01  0.96742755172E+02  0.92523990364E+02 0.  0.
         11    1    3    3    0    0 -0.37415397827E+02 -0.55880867943E+01  0.30389847391E+02  0.48525060878E+02  0.51100000000E-03 0. -1.
         22    1    1    0    0    0  0.85369277483E+01 -0.25766456679E+02 -0.78538181876E+01  0.28257244828E+02  0.00000000000E+00 0.  1.
</event>
<event>
 5    1  0.1691145E-003  0.9118800E+02  0.7818608E-02  0.1130116E+00
         25   -1    0    0    0    0  0.00000000000E+00  0.00000000000E+00  0.99999998245E-14  0.12500000000E+03  0.12500000000E+03 0.  0.
        -11    1    3    3    0    0  0.41899630509E+02  0.28292868170E+02  0.35558614223E+01  0.50682438544E+02  0.51100000000E-03 0.  1.
         23    2    1    0    0    0  0.17819592098E+02  0.19820694697E+02  0.28223348426E+02  0.86180479174E+02  0.76942314713E+02 0.  0.
         11    1    3    3    0    0 -0.24080038411E+02 -0.84721734732E+01  0.24667487004E+02  0.35498040630E+02  0.51100000000E-03 0. -1.
         22    1    1    0    0    0 -0.17819592098E+02 -0.19820694697E+02 -0.28223348426E+02  0.38819520826E+02  0.00000000000E+00 0.  1.
</event>
<event>
 5    1  0.1691145E-003  0.9118800E+02  0.7818608E-02  0.1130116E+00
         25   -1    0    0    0    0  0.00000000000E+00  0.00000000000E+00  0.99999998245E-14  0.12500000000E+03  0.12500000000E+03 0.  0.
        -11    1    3    3    0    0  0.63292398188E+01  0.27881755501E+02  0.28202379865E+02  0.40160002450E+02  0.51100000000E-03 0.  1.
         23    2    1    0    0    0 -0.49157072567E+01  0.18167264003E+02 -0.24036803818E+02  0.94471626362E+02  0.89403056942E+02 0.  0.
         11    1    3    3    0    0 -0.11244947076E+02 -0.97144914981E+01 -0.52239183683E+02  0.54311623912E+02  0.51100000000E-03 0. -1.
         22    1    1    0    0    0  0.49157072567E+01 -0.18167264003E+02  0.24036803818E+02  0.30528373638E+02  0.00000000000E+00 0. -1.
</event>
<event>
 5    1  0.1691145E-003  0.9118800E+02  0.7818608E-02  0.1130116E+00
         25   -1    0    0    0    0  0.00000000000E+00  0.00000000000E+00  0.99999998245E-14  0.12500000000E+03  0.12500000000E+03 0.  0.
        -11    1    3    3    0    0 -0.14775605086E+02  0.56760333601E+02 -0.71614107415E+01  0.59087560283E+02  0.51100000000E-03 0. -1.
         23    2    1    0    0    0 -0.21325648656E+02  0.24065413799E+02 -0.26442238254E+01  0.92736718215E+02  0.86943542335E+02 0.  0.
         11    1    3    3    0    0 -0.65500435699E+01 -0.32694919802E+02  0.45171869162E+01  0.33649157932E+02  0.51100000000E-03 0.  1.
         22    1    1    0    0    0  0.21325648656E+02 -0.24065413799E+02  0.26442238254E+01  0.32263281785E+02  0.00000000000E+00 0. -1.
</event>
<event>
 5    1  0.1691145E-003  0.9118800E+02  0.7818608E-02  0.1130116E+00
         25   -1    0    0    0    0  0.00000000000E+00  0.00000000000E+00  0.99999998245E-14  0.12500000000E+03  0.12500000000E+03 0.  0.
        -11    1    3    3    0    0 -0.23461466684E+02 -0.24743525674E+02 -0.40097943625E+02  0.52635801171E+02  0.51100000000E-03 0.  1.
         23    2    1    0    0    0  0.10266696583E+02 -0.90934990834E+00 -0.27215860750E+02  0.95897851414E+02  0.91375395230E+02 0.  0.
         11    1    3    3    0    0  0.33728163267E+02  0.23834175766E+02  0.12882082875E+02  0.43262050243E+02  0.51100000000E-03 0. -1.
         22    1    1    0    0    0 -0.10266696583E+02  0.90934990834E+00  0.27215860750E+02  0.29102148586E+02  0.00000000000E+00 0.  1.
</event>
<event>
 5    1  0.1691145E-003  0.9118800E+02  0.7818608E-02  0.1130116E+00
         25   -1    0    0    0    0  0.00000000000E+00  0.00000000000E+00  0.99999998245E-14  0.12500000000E+03  0.12500000000E+03 0.  0.
        -11    1    3    3    0    0 -0.19574759648E+02 -0.12388791496E+02  0.21761704820E+02  0.31784039500E+02  0.51100000000E-03 0. -1.
         23    2    1    0    0    0  0.30810935365E+02  0.80549615694E+01 -0.56152370045E+01  0.92662297073E+02  0.86836480055E+02 0.  0.
         11    1    3    3    0    0  0.50385695013E+02  0.20443753065E+02 -0.27376941825E+02  0.60878257574E+02  0.51100000000E-03 0.  1.
         22    1    1    0    0    0 -0.30810935365E+02 -0.80549615694E+01  0.56152370045E+01  0.32337702927E+02  0.00000000000E+00 0.  1.
</event>
<event>
 5    1  0.1691145E-003  0.9118800E+02  0.7818608E-02  0.1130116E+00
         25   -1    0    0    0    0  0.00000000000E+00  0.00000000000E+00  0.99999998245E-14  0.12500000000E+03  0.12500000000E+03 0.  0.
        -11    1    3    3    0    0  0.32177314593E+02 -0.18838236527E+02 -0.12176094732E+02  0.39223921439E+02  0.51100000000E-03 0.  1.
         23    2    1    0    0    0 -0.23211871718E+02 -0.91574181546E+00 -0.14724879130E+02  0.97496334115E+02  0.93536535796E+02 0.  0.
         11    1    3    3    0    0 -0.55389186311E+02  0.17922494711E+02 -0.25487843979E+01  0.58272412676E+02  0.51100000000E-03 0. -1.
         22    1    1    0    0    0  0.23211871718E+02  0.91574181546E+00  0.14724879130E+02  0.27503665885E+02  0.00000000000E+00 0. -1.
</event>
<event>
 5    1  0.1691145E-003  0.9118800E+02  0.7818608E-02  0.1130116E+00
         25   -1    0    0    0    0  0.00000000000E+00  0.00000000000E+00  0.99999998245E-14  0.12500000000E+03  0.12500000000E+03 0.  0.
        -11    1    3    3    0    0  0.25734462905E+02 -0.20101697551E+02  0.42714050297E+02  0.53766447888E+02  0.51100000000E-03 0.  1.
         23    2    1    0    0    0 -0.10910709659E+02 -0.86237836466E+01  0.25722895622E+02  0.95758238958E+02  0.91184207731E+02 0.  0.
         11    1    3    3    0    0 -0.36645172564E+02  0.11477913905E+02 -0.16991154675E+02  0.41991791070E+02  0.51100000000E-03 0. -1.
         22    1    1    0    0    0  0.10910709659E+02  0.86237836466E+01 -0.25722895622E+02  0.29241761042E+02  0.00000000000E+00 0.  1.
</event>
<event>
 5    1  0.1691145E-003  0.9118800E+02  0.7818608E-02  0.1130116E+00
         25   -1    0    0    0    0  0.00000000000E+00  0.00000000000E+00  0.99999998245E-14  0.12500000000E+03  0.12500000000E+03 0.  0.
        -11    1    3    3    0    0  0.13284950662E+02  0.49750623144E+02  0.33553157848E+02  0.61460790909E+02  0.51100000000E-03 0.  1.
         23    2    1    0    0    0  0.22665961648E+01  0.27406785419E+02  0.10020343330E+02  0.95730961314E+02  0.91146806463E+02 0.  0.
         11    1    3    3    0    0 -0.11018354497E+02 -0.22343837725E+02 -0.23532814518E+02  0.34270170404E+02  0.51100000000E-03 0. -1.
         22    1    1    0    0    0 -0.22665961648E+01 -0.27406785419E+02 -0.10020343330E+02  0.29269038686E+02  0.00000000000E+00 0.  1.
</event>
<event>
 5    1  0.1691145E-003  0.9118800E+02  0.7818608E-02  0.1130116E+00
         25   -1    0    0    0    0  0.00000000000E+00  0.00000000000E+00  0.99999998245E-14  0.12500000000E+03  0.12500000000E+03 0.  0.
        -11    1    3    3    0    0  0.11600681487E+02  0.24597027711E+02 -0.28732755836E+02  0.39562113712E+02  0.51100000000E-03 0. -1.
         23    2    1    0    0    0 -0.98537552088E+00 -0.27161466688E+02 -0.89180046407E+01  0.96394982183E+02  0.92052949685E+02 0.  0.
         11    1    3    3    0    0 -0.12586057007E+02 -0.51758494399E+02  0.19814751195E+02  0.56832868471E+02  0.51100000000E-03 0.  1.
         22    1    1    0    0    0  0.98537552088E+00  0.27161466688E+02  0.89180046407E+01  0.28605017817E+02  0.00000000000E+00 0.  1.
</event>
<event>
 5    1  0.1691145E-003  0.9118800E+02  0.7818608E-02  0.1130116E+00
         25   -1    0    0    0    0  0.00000000000E+00  0.00000000000E+00  0.99999998245E-14  0.12500000000E+03  0.12500000000E+03 0.  0.
        -11    1    3    3    0    0 -0.82524627988E+01  0.34310560512E+02  0.12960598751E+02  0.37593813655E+02  0.51100000000E-03 0.  1.
         23    2    1    0    0    0  0.17711506720E+02 -0.60124001445E+01 -0.21389984287E+02  0.96585604817E+02  0.92311435935E+02 0.  0.
         11    1    3    3    0    0  0.25963969519E+02 -0.40322960656E+02 -0.34350583038E+02  0.58991791163E+02  0.51100000000E-03 0. -1.
         22    1    1    0    0    0 -0.17711506720E+02  0.60124001445E+01  0.21389984287E+02  0.28414395183E+02  0.00000000000E+00 0. -1.
</event>
<event>
 5    1  0.1691145E-003  0.9118800E+02  0.7818608E-02  0.1130116E+00
         25   -1    0    0    0    0  0.00000000000E+00  0.00000000000E+00  0.99999998245E-14  0.12500000000E+03  0.12500000000E+03 0.  0.
        -11    1    3    3    0    0  0.17795147150E+02 -0.42646244204E+02 -0.96664090157E+01  0.47210262341E+02  0.51100000000E-03 0. -1.
         23    2    1    0    0    0 -0.27985863016E+01 -0.14972653279E+02  0.24750101997E+02  0.95938341748E+02  0.91430768547E+02 0.  0.
         11    1    3    3    0    0 -0.20593733451E+02  0.27673590925E+02  0.34416511012E+02  0.48728079407E+02  0.51100000000E-03 0.  1.
         22    1    1    0    0    0  0.27985863016E+01  0.14972653279E+02 -0.24750101997E+02  0.29061658252E+02  0.00000000000E+00 0.  1.
</event>
<event>
 5    1  0.1691145E-003  0.9118800E+02  0.7818608E-02  0.1130116E+00
         25   -1    0    0    0    0  0.00000000000E+00  0.00000000000E+00  0.99999998245E-14  0.12500000000E+03  0.12500000000E+03 0.  0.
        -11    1    3    3    0    0 -0.31951981298E+02 -0.34592251767E+02  0.21581786898E+02  0.51800835101E+02  0.51100000000E-03 0. -1.
         23    2    1    0    0    0 -0.35451556904E+01 -0.28040320668E+02 -0.10222457271E+02  0.94944612052E+02  0.90061939870E+02 0.  0.
         11    1    3    3    0    0  0.28406825608E+02  0.65519310988E+01 -0.31804244169E+02  0.43143776952E+02  0.51100000000E-03 0.  1.
         22    1    1    0    0    0  0.35451556904E+01  0.28040320668E+02  0.10222457271E+02  0.30055387948E+02  0.00000000000E+00 0.  1.
</event>
<event>
 5    1  0.1691145E-003  0.9118800E+02  0.7818608E-02  0.1130116E+00
         25   -1    0    0    0    0  0.00000000000E+00  0.00000000000E+00  0.99999998245E-14  0.12500000000E+03  0.12500000000E+03 0.  0.
        -11    1    3    3    0    0 -0.19720415865E+02 -0.10965597986E+02  0.28047002533E+02  0.35996853925E+02  0.51100000000E-03 0. -1.
         23    2    1    0    0    0  0.22272003675E+02  0.73218679464E+00 -0.15689303017E+02  0.97746881383E+02  0.93870764063E+02 0.  0.
         11    1    3    3    0    0  0.41992419541E+02  0.11697784781E+02 -0.43736305550E+02  0.61750027458E+02  0.51100000000E-03 0.  1.
         22    1    1    0    0    0 -0.22272003675E+02 -0.73218679464E+00  0.15689303017E+02  0.27253118617E+02  0.00000000000E+00 0.  1.
</event>
<event>
 5    1  0.1691145E-003  0.9118800E+02  0.7818608E-02  0.1130116E+00
         25   -1    0    0    0    0  0.00000000000E+00  0.00000000000E+00  0.99999998245E-14  0.12500000000E+03  0.12500000000E+03 0.  0.
        -11    1    3    3    0    0  0.32102201114E+02  0.11491417566E+02 -0.31580525391E+02  0.46475085565E+02  0.51100000000E-03 0.  1.
         23    2    1    0    0    0 -0.14228405576E+02  0.18671050574E+02 -0.18392415948E+02  0.95178252580E+02  0.90385635723E+02 0.  0.
         11    1    3    3    0    0 -0.46330606690E+02  0.71796330074E+01  0.13188109443E+02  0.48703167015E+02  0.51100000000E-03 0. -1.
         22    1    1    0    0    0  0.14228405576E+02 -0.18671050574E+02  0.18392415948E+02  0.29821747420E+02  0.00000000000E+00 0.  1.
</event>
<event>
 5    1  0.1691145E-003  0.9118800E+02  0.7818608E-02  0.1130116E+00
         25   -1    0    0    0    0  0.00000000000E+00  0.00000000000E+00  0.99999998245E-14  0.12500000000E+03  0.12500000000E+03 0.  0.
        -11    1    3    3    0    0  0.35100039640E+02  0.90775995193E+01 -0.18332604294E+02  0.40626345839E+02  0.51100000000E-03 0.  1.
         23    2    1    0    0    0 -0.15021219354E+02  0.25124631884E+02 -0.23213128072E+01  0.95635520585E+02  0.91015823603E+02 0.  0.
         11    1    3    3    0    0 -0.50121258994E+02  0.16047032365E+02  0.16011291487E+02  0.55009174746E+02  0.51100000000E-03 0. -1.
         22    1    1    0    0    0  0.15021219354E+02 -0.25124631884E+02  0.23213128072E+01  0.29364479415E+02  0.00000000000E+00 0. -1.
</event>
<event>
 5    1  0.1691145E-003  0.9118800E+02  0.7818608E-02  0.1130116E+00
         25   -1    0    0    0    0  0.00000000000E+00  0.00000000000E+00  0.99999998245E-14  0.12500000000E+03  0.12500000000E+03 0.  0.
        -11    1    3    3    0    0  0.14076662113E+02  0.58286882666E+02 -0.42191466966E+01  0.60110850154E+02  0.51100000000E-03 0. -1.
         23    2    1    0    0    0  0.16066426345E+02  0.17670401898E+02 -0.40509534675E+01  0.10077638791E+03  0.97821761266E+02 0.  0.
         11    1    3    3    0    0  0.19897642326E+01 -0.40616480768E+02  0.16819322913E+00  0.40665537755E+02  0.51100000000E-03 0.  1.
         22    1    1    0    0    0 -0.16066426345E+02 -0.17670401898E+02  0.40509534675E+01  0.24223612091E+02  0.00000000000E+00 0. -1.
</event>
<event>
 5    1  0.1691145E-003  0.9118800E+02  0.7818608E-02  0.1130116E+00
         25   -1    0    0    0    0  0.00000000000E+00  0.00000000000E+00  0.99999998245E-14  0.12500000000E+03  0.12500000000E+03 0.  0.
        -11    1    3    3    0    0  0.38403106351E+02  0.12334739351E+01  0.16353321735E+02  0.41758246699E+02  0.51100000000E-03 0. -1.
         23    2    1    0    0    0 -0.15974368080E+02  0.81528912090E+01  0.21715643802E+02  0.96835851577E+02  0.92649678328E+02 0.  0.
         11    1    3    3    0    0 -0.54377474431E+02  0.69194172739E+01  0.53623220670E+01  0.55077604878E+02  0.51100000000E-03 0.  1.
         22    1    1    0    0    0  0.15974368080E+02 -0.81528912090E+01 -0.21715643802E+02  0.28164148423E+02  0.00000000000E+00 0. -1.
</event>
<event>
 5    1  0.1691145E-003  0.9118800E+02  0.7818608E-02  0.1130116E+00
         25   -1    0    0    0    0  0.00000000000E+00  0.00000000000E+00  0.99999998245E-14  0.12500000000E+03  0.12500000000E+03 0.  0.
        -11    1    3    3    0    0  0.55563706525E+02 -0.29666174346E+01  0.27155755758E+02  0.61915760294E+02  0.51100000000E-03 0. -1.
         23    2    1    0    0    0  0.26744105450E+02 -0.70415155454E+01  0.15726979234E+02  0.93185412256E+02  0.87586260703E+02 0.  0.
         11    1    3    3    0    0 -0.28819601074E+02 -0.40748981108E+01 -0.11428776525E+02  0.31269651962E+02  0.51100000000E-03 0.  1.
         22    1    1    0    0    0 -0.26744105450E+02  0.70415155454E+01 -0.15726979234E+02  0.31814587744E+02  0.00000000000E+00 0. -1.
</event>
<event>
 5    1  0.1691145E-003  0.9118800E+02  0.7818608E-02  0.1130116E+00
         25   -1    0    0    0    0  0.00000000000E+00  0.00000000000E+00  0.99999998245E-14  0.12500000000E+03  0.12500000000E+03 0.  0.
        -11    1    3    3    0    0 -0.47537414016E+02 -0.33269240978E+01  0.26099580368E+02  0.54332883698E+02  0.51100000000E-03 0. -1.
         23    2    1    0    0    0 -0.44108033898E+02 -0.98186730115E+01  0.17356275882E+01  0.79779015964E+02  0.65724835419E+02 0.  0.
         11    1    3    3    0    0  0.34293801174E+01 -0.64917489137E+01 -0.24363952780E+02  0.25446132266E+02  0.51100000000E-03 0.  1.
         22    1    1    0    0    0  0.44108033898E+02  0.98186730115E+01 -0.17356275882E+01  0.45220984036E+02  0.00000000000E+00 0. -1.
</event>
<event>
 5    1  0.1691145E-003  0.9118800E+02  0.7818608E-02  0.1130116E+00
         25   -1    0    0    0    0  0.00000000000E+00  0.00000000000E+00  0.99999998245E-14  0.12500000000E+03  0.12500000000E+03 0.  0.
        -11    1    3    3    0    0  0.52441034325E+02  0.39454696507E+01 -0.25529916550E+02  0.58458578936E+02  0.51100000000E-03 0.  1.
         23    2    1    0    0    0  0.30427388755E+02  0.41812467235E+01  0.25974937606E+01  0.94177025055E+02  0.88990203190E+02 0.  0.
         11    1    3    3    0    0 -0.22013645570E+02  0.23577707276E+00  0.28127410311E+02  0.35718446119E+02  0.51100000000E-03 0. -1.
         22    1    1    0    0    0 -0.30427388755E+02 -0.41812467235E+01 -0.25974937606E+01  0.30822974945E+02  0.00000000000E+00 0.  1.
</event>
<event>
 5    1  0.1691145E-003  0.9118800E+02  0.7818608E-02  0.1130116E+00
         25   -1    0    0    0    0  0.00000000000E+00  0.00000000000E+00  0.99999998245E-14  0.12500000000E+03  0.12500000000E+03 0.  0.
        -11    1    3    3    0    0  0.22856555330E+02  0.66667541759E+01  0.27332421259E+02  0.36248158366E+02  0.51100000000E-03 0. -1.
         23    2    1    0    0    0 -0.27874864582E+02 -0.10535571983E+02  0.31098026238E+01  0.95038737930E+02  0.90192485731E+02 0.  0.
         11    1    3    3    0    0 -0.50731419912E+02 -0.17202326159E+02 -0.24222618635E+02  0.58790579563E+02  0.51100000000E-03 0.  1.
         22    1    1    0    0    0  0.27874864582E+02  0.10535571983E+02 -0.31098026238E+01  0.29961262070E+02  0.00000000000E+00 0.  1.
</event>
<event>
 5    1  0.1691145E-003  0.9118800E+02  0.7818608E-02  0.1130116E+00
         25   -1    0    0    0    0  0.00000000000E+00  0.00000000000E+00  0.99999998245E-14  0.12500000000E+03  0.12500000000E+03 0.  0.
        -11    1    3    3    0    0  0.41523737729E+01 -0.37280023180E+02 -0.14429571593E+01  0.37538306593E+02  0.51100000000E-03 0.  1.
         23    2    1    0    0    0  0.15706559024E+02  0.15145842177E+02  0.20052295993E+02  0.95365778124E+02  0.90644605636E+02 0.  0.
         11    1    3    3    0    0  0.11554185251E+02  0.52425865357E+02  0.21495253152E+02  0.57827471531E+02  0.51100000000E-03 0. -1.
         22    1    1    0    0    0 -0.15706559024E+02 -0.15145842177E+02 -0.20052295993E+02  0.29634221876E+02  0.00000000000E+00 0. -1.
</event>
<event>
 5    1  0.1691145E-003  0.9118800E+02  0.7818608E-02  0.1130116E+00
         25   -1    0    0    0    0  0.00000000000E+00  0.00000000000E+00  0.99999998245E-14  0.12500000000E+03  0.12500000000E+03 0.  0.
        -11    1    3    3    0    0 -0.23850614309E+02  0.56718247732E+02 -0.22589671034E+01  0.61570401666E+02  0.51100000000E-03 0.  1.
         23    2    1    0    0    0 -0.39278317806E+01  0.27930391536E+02 -0.33482139633E+01  0.96596740141E+02  0.92326513176E+02 0.  0.
         11    1    3    3    0    0  0.19922782528E+02 -0.28787856196E+02 -0.10892468599E+01  0.35026338475E+02  0.51100000000E-03 0. -1.
         22    1    1    0    0    0  0.39278317806E+01 -0.27930391536E+02  0.33482139633E+01  0.28403259859E+02  0.00000000000E+00 0.  1.
</event>
<event>
 5    1  0.1691145E-003  0.9118800E+02  0.7818608E-02  0.1130116E+00
         25   -1    0    0    0    0  0.00000000000E+00  0.00000000000E+00  0.99999998245E-14  0.12500000000E+03  0.12500000000E+03 0.  0.
        -11    1    3    3    0    0 -0.29630057127E+02  0.12916653914E+02 -0.10011143255E+02  0.33837896258E+02  0.51100000000E-03 0.  1.
         23    2    1    0    0    0  0.59876680560E+01 -0.16075637276E+02  0.27129234711E+02  0.92902123768E+02  0.87181023979E+02 0.  0.
         11    1    3    3    0    0  0.35617725183E+02 -0.28992291190E+02  0.37140377966E+02  0.59064227510E+02  0.51100000000E-03 0. -1.
         22    1    1    0    0    0 -0.59876680560E+01  0.16075637276E+02 -0.27129234711E+02  0.32097876232E+02  0.00000000000E+00 0. -1.
</event>
<event>
 5    1  0.1691145E-003  0.9118800E+02  0.7818608E-02  0.1130116E+00
         25   -1    0    0    0    0  0.00000000000E+00  0.00000000000E+00  0.99999998245E-14  0.12500000000E+03  0.12500000000E+03 0.  0.
        -11    1    3    3    0    0  0.19447836494E+02  0.27203272049E+02 -0.94265593771E+01  0.34743292539E+02  0.51100000000E-03 0.  1.
         23    2    1    0    0    0 -0.27054188928E+02 -0.10286256007E+02 -0.96948058452E+01  0.94475821689E+02  0.89408922498E+02 0.  0.
         11    1    3    3    0    0 -0.46502025422E+02 -0.37489528056E+02 -0.26824646812E+00  0.59732529150E+02  0.51100000000E-03 0. -1.
         22    1    1    0    0    0  0.27054188928E+02  0.10286256007E+02  0.96948058452E+01  0.30524178311E+02  0.00000000000E+00 0. -1.
</event>
<event>
 5    1  0.1691145E-003  0.9118800E+02  0.7818608E-02  0.1130116E+00
         25   -1    0    0    0    0  0.00000000000E+00  0.00000000000E+00  0.99999998245E-14  0.12500000000E+03  0.12500000000E+03 0.  0.
        -11    1    3    3    0    0  0.20573544664E+02  0.17948936133E+02 -0.14613443760E+02  0.30967527947E+02  0.51100000000E-03 0. -1.
         23    2    1    0    0    0 -0.17063014577E+02 -0.14609086012E+02  0.22621576077E+02  0.93120420881E+02  0.87493458157E+02 0.  0.
         11    1    3    3    0    0 -0.37636559241E+02 -0.32558022145E+02  0.37235019838E+02  0.62152892934E+02  0.51100000000E-03 0.  1.
         22    1    1    0    0    0  0.17063014577E+02  0.14609086012E+02 -0.22621576077E+02  0.31879579119E+02  0.00000000000E+00 0.  1.
</event>
<event>
 5    1  0.1691145E-003  0.9118800E+02  0.7818608E-02  0.1130116E+00
         25   -1    0    0    0    0  0.00000000000E+00  0.00000000000E+00  0.99999998245E-14  0.12500000000E+03  0.12500000000E+03 0.  0.
        -11    1    3    3    0    0 -0.32387474061E+02 -0.18368536426E+02  0.19508300206E+01  0.37284813859E+02  0.51100000000E-03 0. -1.
         23    2    1    0    0    0  0.17591639356E+02 -0.12156399320E+02 -0.23089396226E+02  0.93529950147E+02  0.88076600393E+02 0.  0.
         11    1    3    3    0    0  0.49979113417E+02  0.62121371053E+01 -0.25040226247E+02  0.56245136288E+02  0.51100000000E-03 0.  1.
         22    1    1    0    0    0 -0.17591639356E+02  0.12156399320E+02  0.23089396226E+02  0.31470049853E+02  0.00000000000E+00 0.  1.
</event>
<event>
 4    1  0.1691145E-003  0.9118800E+02  0.7818608E-02  0.1130116E+00
         25   -1    0    0    0    0  0.00000000000E+00  0.00000000000E+00  0.99999998245E-14  0.12500000000E+03  0.12500000000E+03 0.  0.
        -11    1    1    0    0    0  0.43863206077E+01  0.63439200546E+01  0.98903730685E+01  0.12542113451E+02  0.51100000000E-03 0. -1.
         11    1    1    0    0    0  0.71142227297E+01  0.25972103866E+02 -0.51751314196E+02  0.58338331015E+02  0.51100000000E-03 0.  1.
         22    1    1    0    0    0 -0.11500543337E+02 -0.32316023921E+02  0.41860941127E+02  0.54119555534E+02  0.00000000000E+00 0.  1.
</event>
<event>
 5    1  0.1691145E-003  0.9118800E+02  0.7818608E-02  0.1130116E+00
         25   -1    0    0    0    0  0.00000000000E+00  0.00000000000E+00  0.99999998245E-14  0.12500000000E+03  0.12500000000E+03 0.  0.
        -11    1    3    3    0    0 -0.14878578438E+02 -0.46779759076E+02 -0.11222552842E+02  0.50355373577E+02  0.51100000000E-03 0.  1.
         23    2    1    0    0    0  0.19914216767E+02 -0.26500998798E+02 -0.13289949573E+01  0.91824026852E+02  0.85621298244E+02 0.  0.
         11    1    3    3    0    0  0.34792795205E+02  0.20278760278E+02  0.98935578848E+01  0.41468653275E+02  0.51100000000E-03 0. -1.
         22    1    1    0    0    0 -0.19914216767E+02  0.26500998798E+02  0.13289949573E+01  0.33175973148E+02  0.00000000000E+00 0.  1.
</event>
<event>
 5    1  0.1691145E-003  0.9118800E+02  0.7818608E-02  0.1130116E+00
         25   -1    0    0    0    0  0.00000000000E+00  0.00000000000E+00  0.99999998245E-14  0.12500000000E+03  0.12500000000E+03 0.  0.
        -11    1    3    3    0    0 -0.10600454961E+02 -0.56010537410E+02  0.58883569888E+01  0.57308138119E+02  0.51100000000E-03 0. -1.
         23    2    1    0    0    0 -0.69698690580E+01 -0.29641649239E+02  0.21088775106E+02  0.87960252704E+02  0.79781346040E+02 0.  0.
         11    1    3    3    0    0  0.36305859034E+01  0.26368888170E+02  0.15200418117E+02  0.30652114585E+02  0.51100000000E-03 0.  1.
         22    1    1    0    0    0  0.69698690580E+01  0.29641649239E+02 -0.21088775106E+02  0.37039747296E+02  0.00000000000E+00 0. -1.
</event>
<event>
 5    1  0.1691145E-003  0.9118800E+02  0.7818608E-02  0.1130116E+00
         25   -1    0    0    0    0  0.00000000000E+00  0.00000000000E+00  0.99999998245E-14  0.12500000000E+03  0.12500000000E+03 0.  0.
        -11    1    3    3    0    0  0.27784315393E+02 -0.41800757207E+01 -0.20516105774E+02  0.34790110826E+02  0.51100000000E-03 0.  1.
         23    2    1    0    0    0  0.58763706016E+01  0.11264491582E+02  0.30245563530E+02  0.92194289898E+02  0.86160155957E+02 0.  0.
         11    1    3    3    0    0 -0.21907944791E+02  0.15444567302E+02  0.50761669304E+02  0.57404179072E+02  0.51100000000E-03 0. -1.
         22    1    1    0    0    0 -0.58763706016E+01 -0.11264491582E+02 -0.30245563530E+02  0.32805710102E+02  0.00000000000E+00 0. -1.
</event>
<event>
 5    1  0.1691145E-003  0.9118800E+02  0.7818608E-02  0.1130116E+00
         25   -1    0    0    0    0  0.00000000000E+00  0.00000000000E+00  0.99999998245E-14  0.12500000000E+03  0.12500000000E+03 0.  0.
        -11    1    3    3    0    0 -0.24407571571E+02  0.50253071669E+02  0.78247494429E+01  0.56412121625E+02  0.51100000000E-03 0.  1.
         23    2    1    0    0    0 -0.24593783563E+02  0.11565915640E+02 -0.53873446071E+01  0.97293537280E+02  0.93265129175E+02 0.  0.
         11    1    3    3    0    0 -0.18621199233E+00 -0.38687156029E+02 -0.13212094050E+02  0.40881415655E+02  0.51100000000E-03 0. -1.
         22    1    1    0    0    0  0.24593783563E+02 -0.11565915640E+02  0.53873446071E+01  0.27706462720E+02  0.00000000000E+00 0.  1.
</event>
<event>
 5    1  0.1691145E-003  0.9118800E+02  0.7818608E-02  0.1130116E+00
         25   -1    0    0    0    0  0.00000000000E+00  0.00000000000E+00  0.99999998245E-14  0.12500000000E+03  0.12500000000E+03 0.  0.
        -11    1    3    3    0    0  0.20139843493E+02 -0.57648081812E+01 -0.28593889397E+02  0.35446534674E+02  0.51100000000E-03 0.  1.
         23    2    1    0    0    0 -0.67542311828E+01  0.22140885127E+02  0.17728107227E+02  0.95843110266E+02  0.91300479553E+02 0.  0.
         11    1    3    3    0    0 -0.26894074676E+02  0.27905693309E+02  0.46321996624E+02  0.60396575592E+02  0.51100000000E-03 0. -1.
         22    1    1    0    0    0  0.67542311828E+01 -0.22140885127E+02 -0.17728107227E+02  0.29156889734E+02  0.00000000000E+00 0. -1.
</event>
<event>
 5    1  0.1691145E-003  0.9118800E+02  0.7818608E-02  0.1130116E+00
         25   -1    0    0    0    0  0.00000000000E+00  0.00000000000E+00  0.99999998245E-14  0.12500000000E+03  0.12500000000E+03 0.  0.
        -11    1    3    3    0    0 -0.30760782390E+02 -0.19346040936E+02 -0.14172837997E+02  0.39004671134E+02  0.51100000000E-03 0. -1.
         23    2    1    0    0    0  0.22600878398E+02 -0.25423054026E+01 -0.19282714320E+02  0.95182453275E+02  0.90391444943E+02 0.  0.
         11    1    3    3    0    0  0.53361660788E+02  0.16803735534E+02 -0.51098763234E+01  0.56177782141E+02  0.51100000000E-03 0.  1.
         22    1    1    0    0    0 -0.22600878398E+02  0.25423054026E+01  0.19282714320E+02  0.29817546725E+02  0.00000000000E+00 0.  1.
</event>
<event>
 5    1  0.1691145E-003  0.9118800E+02  0.7818608E-02  0.1130116E+00
         25   -1    0    0    0    0  0.00000000000E+00  0.00000000000E+00  0.99999998245E-14  0.12500000000E+03  0.12500000000E+03 0.  0.
        -11    1    3    3    0    0  0.23089626063E+02  0.16439498843E+01  0.33311349461E+02  0.40564509193E+02  0.51100000000E-03 0.  1.
         23    2    1    0    0    0  0.42161174084E+01 -0.27977484987E+02 -0.87708937186E+01  0.95378320628E+02  0.90661900251E+02 0.  0.
         11    1    3    3    0    0 -0.18873508654E+02 -0.29621434871E+02 -0.42082243180E+02  0.54813811435E+02  0.51100000000E-03 0. -1.
         22    1    1    0    0    0 -0.42161174084E+01  0.27977484987E+02  0.87708937186E+01  0.29621679372E+02  0.00000000000E+00 0. -1.
</event>
<event>
 5    1  0.1691145E-003  0.9118800E+02  0.7818608E-02  0.1130116E+00
         25   -1    0    0    0    0  0.00000000000E+00  0.00000000000E+00  0.99999998245E-14  0.12500000000E+03  0.12500000000E+03 0.  0.
        -11    1    3    3    0    0  0.45557638947E+02 -0.70530411877E+01 -0.34369345688E+02  0.57502137175E+02  0.51100000000E-03 0. -1.
         23    2    1    0    0    0  0.26912826211E+02 -0.10387804511E+02 -0.68806581805E+00  0.96143802541E+02  0.91711235055E+02 0.  0.
         11    1    3    3    0    0 -0.18644812736E+02 -0.33347633234E+01  0.33681279870E+02  0.38641665366E+02  0.51100000000E-03 0.  1.
         22    1    1    0    0    0 -0.26912826211E+02  0.10387804511E+02  0.68806581805E+00  0.28856197459E+02  0.00000000000E+00 0. -1.
</event>
<event>
 5    1  0.1691145E-003  0.9118800E+02  0.7818608E-02  0.1130116E+00
         25   -1    0    0    0    0  0.00000000000E+00  0.00000000000E+00  0.99999998245E-14  0.12500000000E+03  0.12500000000E+03 0.  0.
        -11    1    3    3    0    0  0.18871357754E+02 -0.14465172389E+02  0.35797403418E+02  0.42974683797E+02  0.51100000000E-03 0. -1.
         23    2    1    0    0    0 -0.21794981212E+02  0.12228608620E+02  0.14777885528E+02  0.95966468085E+02  0.91469213516E+02 0.  0.
         11    1    3    3    0    0 -0.40666338965E+02  0.26693781009E+02 -0.21019517891E+02  0.52991784288E+02  0.51100000000E-03 0.  1.
         22    1    1    0    0    0  0.21794981212E+02 -0.12228608620E+02 -0.14777885528E+02  0.29033531915E+02  0.00000000000E+00 0.  1.
</event>
<event>
 5    1  0.1691145E-003  0.9118800E+02  0.7818608E-02  0.1130116E+00
         25   -1    0    0    0    0  0.00000000000E+00  0.00000000000E+00  0.99999998245E-14  0.12500000000E+03  0.12500000000E+03 0.  0.
        -11    1    3    3    0    0 -0.11003403318E+02 -0.92954799505E+01 -0.38512876216E+02  0.41118395722E+02  0.51100000000E-03 0.  1.
         23    2    1    0    0    0 -0.46337375907E+01  0.22927175534E+02  0.98822461477E+01  0.99607369357E+02  0.96316365895E+02 0.  0.
         11    1    3    3    0    0  0.63696657277E+01  0.32222655485E+02  0.48395122364E+02  0.58488973635E+02  0.51100000000E-03 0. -1.
         22    1    1    0    0    0  0.46337375907E+01 -0.22927175534E+02 -0.98822461477E+01  0.25392630643E+02  0.00000000000E+00 0. -1.
</event>
<event>
 5    1  0.1691145E-003  0.9118800E+02  0.7818608E-02  0.1130116E+00
         25   -1    0    0    0    0  0.00000000000E+00  0.00000000000E+00  0.99999998245E-14  0.12500000000E+03  0.12500000000E+03 0.  0.
        -11    1    3    3    0    0  0.28031377601E+02 -0.22540268476E+02 -0.50020149933E+02  0.61610366277E+02  0.51100000000E-03 0.  1.
         23    2    1    0    0    0  0.12538668061E+02 -0.17487851247E+02 -0.20773648931E+02  0.95090342230E+02  0.90263977076E+02 0.  0.
         11    1    3    3    0    0 -0.15492709540E+02  0.50524172281E+01  0.29246501002E+02  0.33479975954E+02  0.51100000000E-03 0. -1.
         22    1    1    0    0    0 -0.12538668061E+02  0.17487851247E+02  0.20773648931E+02  0.29909657770E+02  0.00000000000E+00 0.  1.
</event>
<event>
 5    1  0.1691145E-003  0.9118800E+02  0.7818608E-02  0.1130116E+00
         25   -1    0    0    0    0  0.00000000000E+00  0.00000000000E+00  0.99999998245E-14  0.12500000000E+03  0.12500000000E+03 0.  0.
        -11    1    3    3    0    0  0.15035435680E+02 -0.29098536126E+01 -0.48507965619E+02  0.50868008638E+02  0.51100000000E-03 0. -1.
         23    2    1    0    0    0  0.25180160360E+02  0.12112280747E+02 -0.69506784845E+01  0.96206602284E+02  0.91796789546E+02 0.  0.
         11    1    3    3    0    0  0.10144724680E+02  0.15022134359E+02  0.41557287134E+02  0.45338593646E+02  0.51100000000E-03 0.  1.
         22    1    1    0    0    0 -0.25180160360E+02 -0.12112280747E+02  0.69506784845E+01  0.28793397716E+02  0.00000000000E+00 0. -1.
</event>
<event>
 5    1  0.1691145E-003  0.9118800E+02  0.7818608E-02  0.1130116E+00
         25   -1    0    0    0    0  0.00000000000E+00  0.00000000000E+00  0.99999998245E-14  0.12500000000E+03  0.12500000000E+03 0.  0.
        -11    1    3    3    0    0 -0.47225770318E+02  0.25610078164E+02  0.10079137625E+02  0.54660209487E+02  0.51100000000E-03 0.  1.
         23    2    1    0    0    0 -0.21371561672E+02 -0.19064748329E+01 -0.13942889053E+02  0.99411282765E+02  0.96061546371E+02 0.  0.
         11    1    3    3    0    0  0.25854208646E+02 -0.27516552997E+02 -0.24022026678E+02  0.44751073278E+02  0.51100000000E-03 0. -1.
         22    1    1    0    0    0  0.21371561672E+02  0.19064748329E+01  0.13942889053E+02  0.25588717235E+02  0.00000000000E+00 0.  1.
</event>
<event>
 5    1  0.1691145E-003  0.9118800E+02  0.7818608E-02  0.1130116E+00
         25   -1    0    0    0    0  0.00000000000E+00  0.00000000000E+00  0.99999998245E-14  0.12500000000E+03  0.12500000000E+03 0.  0.
        -11    1    3    3    0    0 -0.30522684853E+02 -0.29301462045E+02 -0.19762197064E+02  0.46698548175E+02  0.51100000000E-03 0. -1.
         23    2    1    0    0    0 -0.14994266441E+02  0.18770031738E+02 -0.13052084514E+02  0.97659571552E+02  0.93754428631E+02 0.  0.
         11    1    3    3    0    0  0.15528418412E+02  0.48071493783E+02  0.67101125498E+01  0.50961023377E+02  0.51100000000E-03 0.  1.
         22    1    1    0    0    0  0.14994266441E+02 -0.18770031738E+02  0.13052084514E+02  0.27340428448E+02  0.00000000000E+00 0.  1.
</event>
<event>
 5    1  0.1691145E-003  0.9118800E+02  0.7818608E-02  0.1130116E+00
         25   -1    0    0    0    0  0.00000000000E+00  0.00000000000E+00  0.99999998245E-14  0.12500000000E+03  0.12500000000E+03 0.  0.
        -11    1    3    3    0    0  0.25186239272E+02 -0.17737057098E+02 -0.12687617779E+02  0.33315544245E+02  0.51100000000E-03 0. -1.
         23    2    1    0    0    0 -0.13690695031E+02  0.22867583632E+02  0.13260941204E+02  0.95230652120E+02  0.90458073326E+02 0.  0.
         11    1    3    3    0    0 -0.38876934303E+02  0.40604640730E+02  0.25948558983E+02  0.61915107875E+02  0.51100000000E-03 0.  1.
         22    1    1    0    0    0  0.13690695031E+02 -0.22867583632E+02 -0.13260941204E+02  0.29769347880E+02  0.00000000000E+00 0.  1.
</event>
<event>
 5    1  0.1691145E-003  0.9118800E+02  0.7818608E-02  0.1130116E+00
         25   -1    0    0    0    0  0.00000000000E+00  0.00000000000E+00  0.99999998245E-14  0.12500000000E+03  0.12500000000E+03 0.  0.
        -11    1    3    3    0    0 -0.22424329720E+02  0.34301672241E+00 -0.26272992599E+02  0.34543282477E+02  0.51100000000E-03 0.  1.
         23    2    1    0    0    0  0.16205688280E+02 -0.15787114587E+02  0.18453461208E+02  0.95804323091E+02  0.91247360361E+02 0.  0.
         11    1    3    3    0    0  0.38630018000E+02 -0.16130131310E+02  0.44726453807E+02  0.61261040615E+02  0.51100000000E-03 0. -1.
         22    1    1    0    0    0 -0.16205688280E+02  0.15787114587E+02 -0.18453461208E+02  0.29195676909E+02  0.00000000000E+00 0. -1.
</event>
<event>
 5    1  0.1691145E-003  0.9118800E+02  0.7818608E-02  0.1130116E+00
         25   -1    0    0    0    0  0.00000000000E+00  0.00000000000E+00  0.99999998245E-14  0.12500000000E+03  0.12500000000E+03 0.  0.
        -11    1    3    3    0    0 -0.17712744535E+02 -0.32804398888E+02 -0.44000276814E+01  0.37539714294E+02  0.51100000000E-03 0. -1.
         23    2    1    0    0    0  0.39147662068E+01  0.13544149047E+02 -0.27834147483E+02  0.93798892103E+02  0.88457464500E+02 0.  0.
         11    1    3    3    0    0  0.21627510742E+02  0.46348547936E+02 -0.23434119802E+02  0.56259177809E+02  0.51100000000E-03 0.  1.
         22    1    1    0    0    0 -0.39147662068E+01 -0.13544149047E+02  0.27834147483E+02  0.31201107897E+02  0.00000000000E+00 0.  1.
</event>
<event>
 5    1  0.1691145E-003  0.9118800E+02  0.7818608E-02  0.1130116E+00
         25   -1    0    0    0    0  0.00000000000E+00  0.00000000000E+00  0.99999998245E-14  0.12500000000E+03  0.12500000000E+03 0.  0.
        -11    1    3    3    0    0  0.53314661889E+02  0.28794414582E+01 -0.20109607882E+01  0.53430219156E+02  0.51100000000E-03 0. -1.
         23    2    1    0    0    0  0.21675358058E+02 -0.83660798684E+01 -0.22410333866E+02  0.92719425295E+02  0.86918676496E+02 0.  0.
         11    1    3    3    0    0 -0.31639303831E+02 -0.11245521327E+02 -0.20399373078E+02  0.39289206139E+02  0.51100000000E-03 0.  1.
         22    1    1    0    0    0 -0.21675358058E+02  0.83660798684E+01  0.22410333866E+02  0.32280574705E+02  0.00000000000E+00 0. -1.
</event>
<event>
 5    1  0.1691145E-003  0.9118800E+02  0.7818608E-02  0.1130116E+00
         25   -1    0    0    0    0  0.00000000000E+00  0.00000000000E+00  0.99999998245E-14  0.12500000000E+03  0.12500000000E+03 0.  0.
        -11    1    3    3    0    0  0.45505421342E+02 -0.29351384090E+02 -0.24456868464E+02  0.59417047510E+02  0.51100000000E-03 0.  1.
         23    2    1    0    0    0  0.26585658341E+02 -0.11751050535E+01 -0.13999606228E+02  0.94930628941E+02  0.90042530147E+02 0.  0.
         11    1    3    3    0    0 -0.18919763000E+02  0.28176279037E+02  0.10457262235E+02  0.35513581431E+02  0.51100000000E-03 0. -1.
         22    1    1    0    0    0 -0.26585658341E+02  0.11751050535E+01  0.13999606228E+02  0.30069371059E+02  0.00000000000E+00 0.  1.
</event>
<event>
 5    1  0.1691145E-003  0.9118800E+02  0.7818608E-02  0.1130116E+00
         25   -1    0    0    0    0  0.00000000000E+00  0.00000000000E+00  0.99999998245E-14  0.12500000000E+03  0.12500000000E+03 0.  0.
        -11    1    3    3    0    0  0.37426486489E+02 -0.95663932036E+01 -0.40622294441E+02  0.56057368613E+02  0.51100000000E-03 0.  1.
         23    2    1    0    0    0  0.21451839122E+01 -0.53848492911E+00 -0.31263043545E+02  0.93658818278E+02  0.88259303019E+02 0.  0.
         11    1    3    3    0    0 -0.35281302577E+02  0.90279082745E+01  0.93592508961E+01  0.37601449665E+02  0.51100000000E-03 0. -1.
         22    1    1    0    0    0 -0.21451839122E+01  0.53848492911E+00  0.31263043545E+02  0.31341181722E+02  0.00000000000E+00 0.  1.
</event>
<event>
 5    1  0.1691145E-003  0.9118800E+02  0.7818608E-02  0.1130116E+00
         25   -1    0    0    0    0  0.00000000000E+00  0.00000000000E+00  0.99999998245E-14  0.12500000000E+03  0.12500000000E+03 0.  0.
        -11    1    3    3    0    0  0.32781828185E+02  0.17246783974E+02 -0.57996482071E+01  0.37493142522E+02  0.51100000000E-03 0. -1.
         23    2    1    0    0    0 -0.82768521330E+01 -0.23669091840E+02  0.10665935020E+02  0.97751250311E+02  0.93876581626E+02 0.  0.
         11    1    3    3    0    0 -0.41058680318E+02 -0.40915875814E+02  0.16465583227E+02  0.60258107789E+02  0.51100000000E-03 0.  1.
         22    1    1    0    0    0  0.82768521330E+01  0.23669091840E+02 -0.10665935020E+02  0.27248749689E+02  0.00000000000E+00 0.  1.
</event>
<event>
 5    1  0.1691145E-003  0.9118800E+02  0.7818608E-02  0.1130116E+00
         25   -1    0    0    0    0  0.00000000000E+00  0.00000000000E+00  0.99999998245E-14  0.12500000000E+03  0.12500000000E+03 0.  0.
        -11    1    3    3    0    0 -0.26877509715E+02  0.38213225485E+02  0.24209281211E+02  0.52618821988E+02  0.51100000000E-03 0.  1.
         23    2    1    0    0    0  0.41463154103E+01  0.90408489991E+01  0.27915915303E+02  0.95365101496E+02  0.90643672554E+02 0.  0.
         11    1    3    3    0    0  0.31023825126E+02 -0.29172376486E+02  0.37066340925E+01  0.42746279508E+02  0.51100000000E-03 0. -1.
         22    1    1    0    0    0 -0.41463154103E+01 -0.90408489991E+01 -0.27915915303E+02  0.29634898504E+02  0.00000000000E+00 0. -1.
</event>
<event>
 5    1  0.1691145E-003  0.9118800E+02  0.7818608E-02  0.1130116E+00
         25   -1    0    0    0    0  0.00000000000E+00  0.00000000000E+00  0.99999998245E-14  0.12500000000E+03  0.12500000000E+03 0.  0.
        -11    1    3    3    0    0  0.42044571369E+02  0.39864493094E+01  0.18223444289E+01  0.42272434271E+02  0.51100000000E-03 0. -1.
         23    2    1    0    0    0 -0.44148325582E+01 -0.10955447396E+01  0.28535289036E+02  0.96104434853E+02  0.91657562226E+02 0.  0.
         11    1    3    3    0    0 -0.46459403927E+02 -0.50819940490E+01  0.26712944607E+02  0.53832000582E+02  0.51100000000E-03 0.  1.
         22    1    1    0    0    0  0.44148325582E+01  0.10955447396E+01 -0.28535289036E+02  0.28895565147E+02  0.00000000000E+00 0. -1.
</event>
<event>
 5    1  0.1691145E-003  0.9118800E+02  0.7818608E-02  0.1130116E+00
         25   -1    0    0    0    0  0.00000000000E+00  0.00000000000E+00  0.99999998245E-14  0.12500000000E+03  0.12500000000E+03 0.  0.
        -11    1    3    3    0    0  0.23287267510E+02  0.30955588198E+02 -0.10908833002E+02  0.40243607026E+02  0.51100000000E-03 0. -1.
         23    2    1    0    0    0 -0.10159590092E+02 -0.15546820390E+02 -0.19391167955E+02  0.98149705966E+02  0.94405648621E+02 0.  0.
         11    1    3    3    0    0 -0.33446857602E+02 -0.46502408588E+02 -0.84823349526E+01  0.57906098940E+02  0.51100000000E-03 0.  1.
         22    1    1    0    0    0  0.10159590092E+02  0.15546820390E+02  0.19391167955E+02  0.26850294034E+02  0.00000000000E+00 0.  1.
</event>
<event>
 5    1  0.1691145E-003  0.9118800E+02  0.7818608E-02  0.1130116E+00
         25   -1    0    0    0    0  0.00000000000E+00  0.00000000000E+00  0.99999998245E-14  0.12500000000E+03  0.12500000000E+03 0.  0.
        -11    1    3    3    0    0 -0.78182426167E+01 -0.24496347725E+02  0.34145793947E+02  0.42744955421E+02  0.51100000000E-03 0. -1.
         23    2    1    0    0    0 -0.28148419143E+02  0.12332512654E+02  0.51435698333E+01  0.93841041750E+02  0.88517006488E+02 0.  0.
         11    1    3    3    0    0 -0.20330176526E+02  0.36828860378E+02 -0.29002224113E+02  0.51096086329E+02  0.51100000000E-03 0.  1.
         22    1    1    0    0    0  0.28148419143E+02 -0.12332512654E+02 -0.51435698333E+01  0.31158958250E+02  0.00000000000E+00 0.  1.
</event>
<event>
 5    1  0.1691145E-003  0.9118800E+02  0.7818608E-02  0.1130116E+00
         25   -1    0    0    0    0  0.00000000000E+00  0.00000000000E+00  0.99999998245E-14  0.12500000000E+03  0.12500000000E+03 0.  0.
        -11    1    3    3    0    0 -0.91889575855E+00  0.58161142025E+02  0.11545532318E+01  0.58179857378E+02  0.51100000000E-03 0. -1.
         23    2    1    0    0    0  0.38756835352E+01  0.25502295572E+02 -0.15243504759E+02  0.95037482755E+02  0.90190746136E+02 0.  0.
         11    1    3    3    0    0  0.47945792938E+01 -0.32658846453E+02 -0.16398057991E+02  0.36857625376E+02  0.51100000000E-03 0.  1.
         22    1    1    0    0    0 -0.38756835352E+01 -0.25502295572E+02  0.15243504759E+02  0.29962517245E+02  0.00000000000E+00 0. -1.
</event>
<event>
 5    1  0.1691145E-003  0.9118800E+02  0.7818608E-02  0.1130116E+00
         25   -1    0    0    0    0  0.00000000000E+00  0.00000000000E+00  0.99999998245E-14  0.12500000000E+03  0.12500000000E+03 0.  0.
        -11    1    3    3    0    0  0.19883320928E+02 -0.22423541297E+02  0.45572302703E+02  0.54543527841E+02  0.51100000000E-03 0. -1.
         23    2    1    0    0    0  0.26597793699E+02 -0.25788773634E+01  0.87983514787E+01  0.96866315085E+02  0.92690769613E+02 0.  0.
         11    1    3    3    0    0  0.67144727718E+01  0.19844663934E+02 -0.36773951224E+02  0.42322787245E+02  0.51100000000E-03 0.  1.
         22    1    1    0    0    0 -0.26597793699E+02  0.25788773634E+01 -0.87983514787E+01  0.28133684915E+02  0.00000000000E+00 0. -1.
</event>
<event>
 5    1  0.1691145E-003  0.9118800E+02  0.7818608E-02  0.1130116E+00
         25   -1    0    0    0    0  0.00000000000E+00  0.00000000000E+00  0.99999998245E-14  0.12500000000E+03  0.12500000000E+03 0.  0.
        -11    1    3    3    0    0  0.55959402223E+02 -0.11547540873E+02  0.24597219527E+02  0.62207906299E+02  0.51100000000E-03 0.  1.
         23    2    1    0    0    0  0.25971675432E+02 -0.23651044394E+01  0.14530747915E+02  0.95145950380E+02  0.90340951926E+02 0.  0.
         11    1    3    3    0    0 -0.29987726790E+02  0.91824364331E+01 -0.10066471612E+02  0.32938044081E+02  0.51100000000E-03 0. -1.
         22    1    1    0    0    0 -0.25971675432E+02  0.23651044394E+01 -0.14530747915E+02  0.29854049620E+02  0.00000000000E+00 0.  1.
</event>
<event>
 5    1  0.1691145E-003  0.9118800E+02  0.7818608E-02  0.1130116E+00
         25   -1    0    0    0    0  0.00000000000E+00  0.00000000000E+00  0.99999998245E-14  0.12500000000E+03  0.12500000000E+03 0.  0.
        -11    1    3    3    0    0  0.23431683211E+01  0.21351512489E+01  0.59921842266E+02  0.60005637148E+02  0.51100000000E-03 0.  1.
         23    2    1    0    0    0  0.15556104389E+01 -0.11453200067E+02  0.27044277553E+02  0.95589310379E+02  0.90952336939E+02 0.  0.
         11    1    3    3    0    0 -0.78755788220E+00 -0.13588351316E+02 -0.32877564713E+02  0.35583673231E+02  0.51100000000E-03 0. -1.
         22    1    1    0    0    0 -0.15556104389E+01  0.11453200067E+02 -0.27044277553E+02  0.29410689621E+02  0.00000000000E+00 0.  1.
</event>
<event>
 5    1  0.1691145E-003  0.9118800E+02  0.7818608E-02  0.1130116E+00
         25   -1    0    0    0    0  0.00000000000E+00  0.00000000000E+00  0.99999998245E-14  0.12500000000E+03  0.12500000000E+03 0.  0.
        -11    1    3    3    0    0  0.11674894533E+02  0.33245137299E+02 -0.35672423684E+01  0.35415639691E+02  0.51100000000E-03 0. -1.
         23    2    1    0    0    0 -0.19091496970E+02 -0.17957788498E+02 -0.12751090575E+02  0.95852826293E+02  0.91313780851E+02 0.  0.
         11    1    3    3    0    0 -0.30766391503E+02 -0.51202925796E+02 -0.91838482063E+01  0.60437186602E+02  0.51100000000E-03 0.  1.
         22    1    1    0    0    0  0.19091496970E+02  0.17957788498E+02  0.12751090575E+02  0.29147173707E+02  0.00000000000E+00 0.  1.
</event>
<event>
 5    1  0.1691145E-003  0.9118800E+02  0.7818608E-02  0.1130116E+00
         25   -1    0    0    0    0  0.00000000000E+00  0.00000000000E+00  0.99999998245E-14  0.12500000000E+03  0.12500000000E+03 0.  0.
        -11    1    3    3    0    0 -0.33953528828E+02  0.29243451501E+02  0.11381482192E+02  0.46233750797E+02  0.51100000000E-03 0.  1.
         23    2    1    0    0    0 -0.25199946699E+01  0.13395727284E+02 -0.24791429297E+02  0.96708466828E+02  0.92477655177E+02 0.  0.
         11    1    3    3    0    0  0.31433534158E+02 -0.15847724217E+02 -0.36172911490E+02  0.50474716031E+02  0.51100000000E-03 0. -1.
         22    1    1    0    0    0  0.25199946699E+01 -0.13395727284E+02  0.24791429297E+02  0.28291533172E+02  0.00000000000E+00 0. -1.
</event>
<event>
 5    1  0.1691145E-003  0.9118800E+02  0.7818608E-02  0.1130116E+00
         25   -1    0    0    0    0  0.00000000000E+00  0.00000000000E+00  0.99999998245E-14  0.12500000000E+03  0.12500000000E+03 0.  0.
        -11    1    3    3    0    0 -0.23275969030E+02  0.20958123383E+02 -0.13090724829E+02  0.33946733965E+02  0.51100000000E-03 0. -1.
         23    2    1    0    0    0  0.27170330056E+02  0.73046264376E+00  0.13723316036E+02  0.94551850401E+02  0.89515152908E+02 0.  0.
         11    1    3    3    0    0  0.50446299086E+02 -0.20227660740E+02  0.26814040865E+02  0.60605116436E+02  0.51100000000E-03 0.  1.
         22    1    1    0    0    0 -0.27170330056E+02 -0.73046264376E+00 -0.13723316036E+02  0.30448149599E+02  0.00000000000E+00 0.  1.
</event>
<event>
 5    1  0.1691145E-003  0.9118800E+02  0.7818608E-02  0.1130116E+00
         25   -1    0    0    0    0  0.00000000000E+00  0.00000000000E+00  0.99999998245E-14  0.12500000000E+03  0.12500000000E+03 0.  0.
        -11    1    3    3    0    0  0.41108260905E+02 -0.27376830699E+02 -0.20129692637E+02  0.53334646335E+02  0.51100000000E-03 0. -1.
         23    2    1    0    0    0  0.95419769851E+01 -0.26508603650E+02  0.80932164290E+01  0.95686939013E+02  0.91086413659E+02 0.  0.
         11    1    3    3    0    0 -0.31566283920E+02  0.86822704884E+00  0.28222909066E+02  0.42352292679E+02  0.51100000000E-03 0.  1.
         22    1    1    0    0    0 -0.95419769851E+01  0.26508603650E+02 -0.80932164290E+01  0.29313060987E+02  0.00000000000E+00 0. -1.
</event>
<event>
 5    1  0.1691145E-003  0.9118800E+02  0.7818608E-02  0.1130116E+00
         25   -1    0    0    0    0  0.00000000000E+00  0.00000000000E+00  0.99999998245E-14  0.12500000000E+03  0.12500000000E+03 0.  0.
        -11    1    3    3    0    0  0.18089863621E+02 -0.19604371956E+01 -0.54418676981E+02  0.57380126215E+02  0.51100000000E-03 0.  1.
         23    2    1    0    0    0  0.27439016258E+02  0.14730714649E+01 -0.27318661961E+02  0.86252369826E+02  0.77059019307E+02 0.  0.
         11    1    3    3    0    0  0.93491526374E+01  0.34335086605E+01  0.27100015020E+02  0.28872243611E+02  0.51100000000E-03 0. -1.
         22    1    1    0    0    0 -0.27439016258E+02 -0.14730714649E+01  0.27318661961E+02  0.38747630174E+02  0.00000000000E+00 0.  1.
</event>
<event>
 5    1  0.1691145E-003  0.9118800E+02  0.7818608E-02  0.1130116E+00
         25   -1    0    0    0    0  0.00000000000E+00  0.00000000000E+00  0.99999998245E-14  0.12500000000E+03  0.12500000000E+03 0.  0.
        -11    1    3    3    0    0 -0.20960960213E+02 -0.25189655855E+02 -0.21271678213E+02  0.39068720345E+02  0.51100000000E-03 0.  1.
         23    2    1    0    0    0  0.26128676175E+02  0.58998139582E+01 -0.81491934314E+01  0.97001341514E+02  0.92872683705E+02 0.  0.
         11    1    3    3    0    0  0.47089636388E+02  0.31089469813E+02  0.13122484781E+02  0.57932621169E+02  0.51100000000E-03 0. -1.
         22    1    1    0    0    0 -0.26128676175E+02 -0.58998139582E+01  0.81491934314E+01  0.27998658486E+02  0.00000000000E+00 0. -1.
</event>
<event>
 5    1  0.1691145E-003  0.9118800E+02  0.7818608E-02  0.1130116E+00
         25   -1    0    0    0    0  0.00000000000E+00  0.00000000000E+00  0.99999998245E-14  0.12500000000E+03  0.12500000000E+03 0.  0.
        -11    1    3    3    0    0  0.13631171130E+02  0.46616931128E+02  0.37017670568E+02  0.61067626683E+02  0.51100000000E-03 0.  1.
         23    2    1    0    0    0  0.14998011327E+02  0.17968630553E+02  0.17866407343E+02  0.95554787502E+02  0.90904878172E+02 0.  0.
         11    1    3    3    0    0  0.13668401964E+01 -0.28648300575E+02 -0.19151263225E+02  0.34487160819E+02  0.51100000000E-03 0. -1.
         22    1    1    0    0    0 -0.14998011327E+02 -0.17968630553E+02 -0.17866407343E+02  0.29445212498E+02  0.00000000000E+00 0.  1.
</event>
<event>
 5    1  0.1691145E-003  0.9118800E+02  0.7818608E-02  0.1130116E+00
         25   -1    0    0    0    0  0.00000000000E+00  0.00000000000E+00  0.99999998245E-14  0.12500000000E+03  0.12500000000E+03 0.  0.
        -11    1    3    3    0    0 -0.10483479939E+02  0.59743977152E+02 -0.46203544241E+01  0.60832506383E+02  0.51100000000E-03 0.  1.
         23    2    1    0    0    0 -0.10953392050E+02  0.27511541043E+02 -0.10463865679E+02  0.93593723988E+02  0.88167062995E+02 0.  0.
         11    1    3    3    0    0 -0.46991211093E+00 -0.32232436109E+02 -0.58435112544E+01  0.32761217605E+02  0.51100000000E-03 0. -1.
         22    1    1    0    0    0  0.10953392050E+02 -0.27511541043E+02  0.10463865679E+02  0.31406276012E+02  0.00000000000E+00 0.  1.
</event>
<event>
 5    1  0.1691145E-003  0.9118800E+02  0.7818608E-02  0.1130116E+00
         25   -1    0    0    0    0  0.00000000000E+00  0.00000000000E+00  0.99999998245E-14  0.12500000000E+03  0.12500000000E+03 0.  0.
        -11    1    3    3    0    0  0.25453113851E+02 -0.38469814783E+02  0.33548490456E+02  0.57037609227E+02  0.51100000000E-03 0. -1.
         23    2    1    0    0    0 -0.17530037860E+01 -0.14279808423E+02  0.27530768771E+02  0.93936690775E+02  0.88651975127E+02 0.  0.
         11    1    3    3    0    0 -0.27206117637E+02  0.24190006360E+02 -0.60177216853E+01  0.36899081549E+02  0.51100000000E-03 0.  1.
         22    1    1    0    0    0  0.17530037860E+01  0.14279808423E+02 -0.27530768771E+02  0.31063309225E+02  0.00000000000E+00 0. -1.
</event>
<event>
 5    1  0.1691145E-003  0.9118800E+02  0.7818608E-02  0.1130116E+00
         25   -1    0    0    0    0  0.00000000000E+00  0.00000000000E+00  0.99999998245E-14  0.12500000000E+03  0.12500000000E+03 0.  0.
        -11    1    3    3    0    0  0.39343692898E+02  0.16448913023E+02 -0.76632698816E+01  0.43326880987E+02  0.51100000000E-03 0. -1.
         23    2    1    0    0    0  0.10950592956E+02 -0.21078225007E+02  0.16355955671E+02  0.96160368563E+02  0.91733811327E+02 0.  0.
         11    1    3    3    0    0 -0.28393099942E+02 -0.37527138030E+02  0.24019225553E+02  0.52833487576E+02  0.51100000000E-03 0.  1.
         22    1    1    0    0    0 -0.10950592956E+02  0.21078225007E+02 -0.16355955671E+02  0.28839631437E+02  0.00000000000E+00 0.  1.
</event>
<event>
 5    1  0.1691145E-003  0.9118800E+02  0.7818608E-02  0.1130116E+00
         25   -1    0    0    0    0  0.00000000000E+00  0.00000000000E+00  0.99999998245E-14  0.12500000000E+03  0.12500000000E+03 0.  0.
        -11    1    3    3    0    0  0.31863255083E+02 -0.18503936852E+02 -0.11633985462E+02  0.38639517615E+02  0.51100000000E-03 0.  1.
         23    2    1    0    0    0 -0.22112688920E+02 -0.21362127912E+01 -0.19313345651E+02  0.95562952992E+02  0.90916105548E+02 0.  0.
         11    1    3    3    0    0 -0.53975944003E+02  0.16367724061E+02 -0.76793601882E+01  0.56923435377E+02  0.51100000000E-03 0. -1.
         22    1    1    0    0    0  0.22112688920E+02  0.21362127912E+01  0.19313345651E+02  0.29437047008E+02  0.00000000000E+00 0. -1.
</event>
<event>
 5    1  0.1691145E-003  0.9118800E+02  0.7818608E-02  0.1130116E+00
         25   -1    0    0    0    0  0.00000000000E+00  0.00000000000E+00  0.99999998245E-14  0.12500000000E+03  0.12500000000E+03 0.  0.
        -11    1    3    3    0    0 -0.24947941251E+02  0.16649066882E+02  0.37939219304E+02  0.48362956509E+02  0.51100000000E-03 0. -1.
         23    2    1    0    0    0  0.10914747195E+02 -0.11009773277E+02  0.25205139538E+02  0.95408685851E+02  0.90703756608E+02 0.  0.
         11    1    3    3    0    0  0.35862688446E+02 -0.27658840159E+02 -0.12734079766E+02  0.47045729341E+02  0.51100000000E-03 0.  1.
         22    1    1    0    0    0 -0.10914747195E+02  0.11009773277E+02 -0.25205139538E+02  0.29591314149E+02  0.00000000000E+00 0.  1.
</event>
<event>
 5    1  0.1691145E-003  0.9118800E+02  0.7818608E-02  0.1130116E+00
         25   -1    0    0    0    0  0.00000000000E+00  0.00000000000E+00  0.99999998245E-14  0.12500000000E+03  0.12500000000E+03 0.  0.
        -11    1    3    3    0    0  0.10865861630E+02  0.31908535483E+02  0.19320271312E+02  0.38852213186E+02  0.51100000000E-03 0.  1.
         23    2    1    0    0    0 -0.35192548838E+01 -0.18105078722E+02  0.27858552485E+02  0.91589253570E+02  0.85277859920E+02 0.  0.
         11    1    3    3    0    0 -0.14385116513E+02 -0.50013614204E+02  0.85382811730E+01  0.52737040385E+02  0.51100000000E-03 0. -1.
         22    1    1    0    0    0  0.35192548838E+01  0.18105078722E+02 -0.27858552485E+02  0.33410746430E+02  0.00000000000E+00 0. -1.
</event>
<event>
 5    1  0.1691145E-003  0.9118800E+02  0.7818608E-02  0.1130116E+00
         25   -1    0    0    0    0  0.00000000000E+00  0.00000000000E+00  0.99999998245E-14  0.12500000000E+03  0.12500000000E+03 0.  0.
        -11    1    3    3    0    0  0.17465903390E+01 -0.31974600764E+02 -0.35533887691E+02  0.47833908961E+02  0.51100000000E-03 0. -1.
         23    2    1    0    0    0 -0.27237771210E+02 -0.74126257621E+01 -0.55529714177E+01  0.96230594501E+02  0.91829454018E+02 0.  0.
         11    1    3    3    0    0 -0.28984361549E+02  0.24561975001E+02  0.29980916273E+02  0.48396685540E+02  0.51100000000E-03 0.  1.
         22    1    1    0    0    0  0.27237771210E+02  0.74126257621E+01  0.55529714177E+01  0.28769405499E+02  0.00000000000E+00 0. -1.
</event>
<event>
 5    1  0.1691145E-003  0.9118800E+02  0.7818608E-02  0.1130116E+00
         25   -1    0    0    0    0  0.00000000000E+00  0.00000000000E+00  0.99999998245E-14  0.12500000000E+03  0.12500000000E+03 0.  0.
        -11    1    3    3    0    0 -0.85750761753E+01  0.79440965605E+01  0.40235200669E+02  0.41898830230E+02  0.51100000000E-03 0. -1.
         23    2    1    0    0    0 -0.10037336184E+02 -0.26103666420E+02 -0.29126686237E+01  0.96881800258E+02  0.92711650101E+02 0.  0.
         11    1    3    3    0    0 -0.14622600090E+01 -0.34047762980E+02 -0.43147869292E+02  0.54982970027E+02  0.51100000000E-03 0.  1.
         22    1    1    0    0    0  0.10037336184E+02  0.26103666420E+02  0.29126686237E+01  0.28118199742E+02  0.00000000000E+00 0.  1.
</event>
<event>
 5    1  0.1691145E-003  0.9118800E+02  0.7818608E-02  0.1130116E+00
         25   -1    0    0    0    0  0.00000000000E+00  0.00000000000E+00  0.99999998245E-14  0.12500000000E+03  0.12500000000E+03 0.  0.
        -11    1    3    3    0    0 -0.55339568082E+02  0.12395913905E+02 -0.10101241208E+02  0.57603485582E+02  0.51100000000E-03 0.  1.
         23    2    1    0    0    0 -0.25225257969E+02  0.31209969507E+01  0.12785091257E+02  0.96548061226E+02  0.92260583710E+02 0.  0.
         11    1    3    3    0    0  0.30114310113E+02 -0.92749169539E+01  0.22886332465E+02  0.38944575644E+02  0.51100000000E-03 0. -1.
         22    1    1    0    0    0  0.25225257969E+02 -0.31209969507E+01 -0.12785091257E+02  0.28451938774E+02  0.00000000000E+00 0.  1.
</event>
<event>
 5    1  0.1691145E-003  0.9118800E+02  0.7818608E-02  0.1130116E+00
         25   -1    0    0    0    0  0.00000000000E+00  0.00000000000E+00  0.99999998245E-14  0.12500000000E+03  0.12500000000E+03 0.  0.
        -11    1    3    3    0    0  0.51581691794E+01 -0.58239467636E+02  0.16673554630E+02  0.60798435210E+02  0.51100000000E-03 0. -1.
         23    2    1    0    0    0  0.87688556735E+01 -0.29034414248E+02 -0.99065987136E-01  0.94670149116E+02  0.89680194464E+02 0.  0.
         11    1    3    3    0    0  0.36106864940E+01  0.29205053387E+02 -0.16772620617E+02  0.33871713906E+02  0.51100000000E-03 0.  1.
         22    1    1    0    0    0 -0.87688556735E+01  0.29034414248E+02  0.99065987136E-01  0.30329850884E+02  0.00000000000E+00 0. -1.
</event>
<event>
 5    1  0.1691145E-003  0.9118800E+02  0.7818608E-02  0.1130116E+00
         25   -1    0    0    0    0  0.00000000000E+00  0.00000000000E+00  0.99999998245E-14  0.12500000000E+03  0.12500000000E+03 0.  0.
        -11    1    3    3    0    0  0.39178259402E+02 -0.36573023305E+02  0.22551280940E+02  0.58147074868E+02  0.51100000000E-03 0.  1.
         23    2    1    0    0    0  0.35646606953E+01 -0.22226426204E+02  0.16668876809E+02  0.96989782548E+02  0.92857124858E+02 0.  0.
         11    1    3    3    0    0 -0.35613598707E+02  0.14346597101E+02 -0.58824041316E+01  0.38842707679E+02  0.51100000000E-03 0. -1.
         22    1    1    0    0    0 -0.35646606953E+01  0.22226426204E+02 -0.16668876809E+02  0.28010217452E+02  0.00000000000E+00 0.  1.
</event>
<event>
 5    1  0.1691145E-003  0.9118800E+02  0.7818608E-02  0.1130116E+00
         25   -1    0    0    0    0  0.00000000000E+00  0.00000000000E+00  0.99999998245E-14  0.12500000000E+03  0.12500000000E+03 0.  0.
        -11    1    3    3    0    0 -0.44222631750E+02 -0.26826478875E+02  0.34891344013E+02  0.62391562050E+02  0.51100000000E-03 0.  1.
         23    2    1    0    0    0 -0.19137224792E+02 -0.14225899010E+02  0.17611557015E+02  0.95355835046E+02  0.90630892975E+02 0.  0.
         11    1    3    3    0    0  0.25085406958E+02  0.12600579865E+02 -0.17279786998E+02  0.32964272996E+02  0.51100000000E-03 0. -1.
         22    1    1    0    0    0  0.19137224792E+02  0.14225899010E+02 -0.17611557015E+02  0.29644164954E+02  0.00000000000E+00 0.  1.
</event>
<event>
 5    1  0.1691145E-003  0.9118800E+02  0.7818608E-02  0.1130116E+00
         25   -1    0    0    0    0  0.00000000000E+00  0.00000000000E+00  0.99999998245E-14  0.12500000000E+03  0.12500000000E+03 0.  0.
        -11    1    3    3    0    0  0.41547415424E+02 -0.74021152469E+01 -0.10978569252E+02  0.43606284199E+02  0.51100000000E-03 0. -1.
         23    2    1    0    0    0  0.40948835258E+01  0.28192589532E+02 -0.82227744686E+01  0.95348622366E+02  0.90620944553E+02 0.  0.
         11    1    3    3    0    0 -0.37452531898E+02  0.35594704779E+02  0.27557947833E+01  0.51742338167E+02  0.51100000000E-03 0.  1.
         22    1    1    0    0    0 -0.40948835258E+01 -0.28192589532E+02  0.82227744686E+01  0.29651377634E+02  0.00000000000E+00 0.  1.
</event>
<event>
 5    1  0.1691145E-003  0.9118800E+02  0.7818608E-02  0.1130116E+00
         25   -1    0    0    0    0  0.00000000000E+00  0.00000000000E+00  0.99999998245E-14  0.12500000000E+03  0.12500000000E+03 0.  0.
        -11    1    3    3    0    0  0.12482339148E+02 -0.47139540825E+02  0.36611834113E+01  0.48901424969E+02  0.51100000000E-03 0.  1.
         23    2    1    0    0    0 -0.16473735575E+02 -0.17652747994E+02 -0.17354274707E+02  0.95264931038E+02  0.90505429448E+02 0.  0.
         11    1    3    3    0    0 -0.28956074723E+02  0.29486792831E+02 -0.21015458119E+02  0.46363506069E+02  0.51100000000E-03 0. -1.
         22    1    1    0    0    0  0.16473735575E+02  0.17652747994E+02  0.17354274707E+02  0.29735068962E+02  0.00000000000E+00 0. -1.
</event>
<event>
 5    1  0.1691145E-003  0.9118800E+02  0.7818608E-02  0.1130116E+00
         25   -1    0    0    0    0  0.00000000000E+00  0.00000000000E+00  0.99999998245E-14  0.12500000000E+03  0.12500000000E+03 0.  0.
        -11    1    3    3    0    0 -0.14426592149E+02  0.10017587338E+02  0.37144641290E+02  0.41087747491E+02  0.51100000000E-03 0. -1.
         23    2    1    0    0    0  0.13797868265E+02 -0.24403145824E+02  0.37895320125E+01  0.96711216929E+02  0.92481372352E+02 0.  0.
         11    1    3    3    0    0  0.28224460414E+02 -0.34420733162E+02 -0.33355109277E+02  0.55623469437E+02  0.51100000000E-03 0.  1.
         22    1    1    0    0    0 -0.13797868265E+02  0.24403145824E+02 -0.37895320125E+01  0.28288783071E+02  0.00000000000E+00 0.  1.
</event>
<event>
 5    1  0.1691145E-003  0.9118800E+02  0.7818608E-02  0.1130116E+00
         25   -1    0    0    0    0  0.00000000000E+00  0.00000000000E+00  0.99999998245E-14  0.12500000000E+03  0.12500000000E+03 0.  0.
        -11    1    3    3    0    0 -0.65985975549E+01 -0.22906437854E+02  0.33205153109E+02  0.40875770061E+02  0.51100000000E-03 0. -1.
         23    2    1    0    0    0 -0.15090007794E+02 -0.14680786070E+02 -0.20349447593E+02  0.95719736473E+02  0.91131411260E+02 0.  0.
         11    1    3    3    0    0 -0.84914102391E+01  0.82256517837E+01 -0.53554600702E+02  0.54843966412E+02  0.51100000000E-03 0.  1.
         22    1    1    0    0    0  0.15090007794E+02  0.14680786070E+02  0.20349447593E+02  0.29280263527E+02  0.00000000000E+00 0.  1.
</event>
<event>
 5    1  0.1691145E-003  0.9118800E+02  0.7818608E-02  0.1130116E+00
         25   -1    0    0    0    0  0.00000000000E+00  0.00000000000E+00  0.99999998245E-14  0.12500000000E+03  0.12500000000E+03 0.  0.
        -11    1    3    3    0    0 -0.84968078862E+01  0.27689424479E+02  0.47207190511E+02  0.55384283045E+02  0.51100000000E-03 0.  1.
         23    2    1    0    0    0  0.15924205988E+02  0.18236992761E+02  0.16704816820E+02  0.95585392297E+02  0.90946951979E+02 0.  0.
         11    1    3    3    0    0  0.24421013875E+02 -0.94524317173E+01 -0.30502373691E+02  0.40201109252E+02  0.51100000000E-03 0. -1.
         22    1    1    0    0    0 -0.15924205988E+02 -0.18236992761E+02 -0.16704816820E+02  0.29414607703E+02  0.00000000000E+00 0. -1.
</event>
<event>
 5    1  0.1691145E-003  0.9118800E+02  0.7818608E-02  0.1130116E+00
         25   -1    0    0    0    0  0.00000000000E+00  0.00000000000E+00  0.99999998245E-14  0.12500000000E+03  0.12500000000E+03 0.  0.
        -11    1    3    3    0    0 -0.35997924029E+02  0.20873812057E+02  0.18833858261E+02  0.45675822723E+02  0.51100000000E-03 0. -1.
         23    2    1    0    0    0 -0.17787346482E+02 -0.23208950573E+02  0.50287318101E+01  0.95329590074E+02  0.90594688136E+02 0.  0.
         11    1    3    3    0    0  0.18210577547E+02 -0.44082762629E+02 -0.13805126451E+02  0.49653767351E+02  0.51100000000E-03 0.  1.
         22    1    1    0    0    0  0.17787346482E+02  0.23208950573E+02 -0.50287318101E+01  0.29670409926E+02  0.00000000000E+00 0.  1.
</event>
<event>
 5    1  0.1691145E-003  0.9118800E+02  0.7818608E-02  0.1130116E+00
         25   -1    0    0    0    0  0.00000000000E+00  0.00000000000E+00  0.99999998245E-14  0.12500000000E+03  0.12500000000E+03 0.  0.
        -11    1    3    3    0    0  0.33003797790E+02 -0.24867092742E+02  0.27986058561E+02  0.49908340426E+02  0.51100000000E-03 0.  1.
         23    2    1    0    0    0  0.20800176056E+02  0.16429318471E+02  0.12757484586E+02  0.95583622889E+02  0.90944520023E+02 0.  0.
         11    1    3    3    0    0 -0.12203621735E+02  0.41296411213E+02 -0.15228573975E+02  0.45675282463E+02  0.51100000000E-03 0. -1.
         22    1    1    0    0    0 -0.20800176056E+02 -0.16429318471E+02 -0.12757484586E+02  0.29416377111E+02  0.00000000000E+00 0.  1.
</event>
<event>
 5    1  0.1691145E-003  0.9118800E+02  0.7818608E-02  0.1130116E+00
         25   -1    0    0    0    0  0.00000000000E+00  0.00000000000E+00  0.99999998245E-14  0.12500000000E+03  0.12500000000E+03 0.  0.
        -11    1    3    3    0    0 -0.12879145565E+02  0.86373647351E+01 -0.34875529841E+02  0.38167774916E+02  0.51100000000E-03 0. -1.
         23    2    1    0    0    0  0.56917168573E+01  0.22997564281E+02  0.17488324157E+02  0.95553012285E+02  0.90902437103E+02 0.  0.
         11    1    3    3    0    0  0.18570862423E+02  0.14360199546E+02  0.52363853998E+02  0.57385237369E+02  0.51100000000E-03 0.  1.
         22    1    1    0    0    0 -0.56917168573E+01 -0.22997564281E+02 -0.17488324157E+02  0.29446987715E+02  0.00000000000E+00 0.  1.
</event>
<event>
 5    1  0.1691145E-003  0.9118800E+02  0.7818608E-02  0.1130116E+00
         25   -1    0    0    0    0  0.00000000000E+00  0.00000000000E+00  0.99999998245E-14  0.12500000000E+03  0.12500000000E+03 0.  0.
        -11    1    3    3    0    0  0.16448199990E+02 -0.10969078200E+02  0.28708599662E+02  0.34857533680E+02  0.51100000000E-03 0.  1.
         23    2    1    0    0    0 -0.17482023607E+02  0.10395058828E+02 -0.18992614308E+02  0.97171996197E+02  0.93102089392E+02 0.  0.
         11    1    3    3    0    0 -0.33930223597E+02  0.21364137028E+02 -0.47701213969E+02  0.62314462516E+02  0.51100000000E-03 0. -1.
         22    1    1    0    0    0  0.17482023607E+02 -0.10395058828E+02  0.18992614308E+02  0.27828003803E+02  0.00000000000E+00 0. -1.
</event>
<event>
 5    1  0.1691145E-003  0.9118800E+02  0.7818608E-02  0.1130116E+00
         25   -1    0    0    0    0  0.00000000000E+00  0.00000000000E+00  0.99999998245E-14  0.12500000000E+03  0.12500000000E+03 0.  0.
        -11    1    3    3    0    0 -0.32299393267E+02 -0.14348029427E+01  0.27165644562E+02  0.42228920299E+02  0.51100000000E-03 0.  1.
         23    2    1    0    0    0 -0.10689586313E+02  0.20578506842E+02 -0.17103449667E+02  0.96185590586E+02  0.91768173385E+02 0.  0.
         11    1    3    3    0    0  0.21609806955E+02  0.22013309785E+02 -0.44269094229E+02  0.53956670286E+02  0.51100000000E-03 0. -1.
         22    1    1    0    0    0  0.10689586313E+02 -0.20578506842E+02  0.17103449667E+02  0.28814409414E+02  0.00000000000E+00 0. -1.
</event>
<event>
 5    1  0.1691145E-003  0.9118800E+02  0.7818608E-02  0.1130116E+00
         25   -1    0    0    0    0  0.00000000000E+00  0.00000000000E+00  0.99999998245E-14  0.12500000000E+03  0.12500000000E+03 0.  0.
        -11    1    3    3    0    0  0.44983411932E+02  0.26920278275E+02  0.21994502393E+02  0.56850390211E+02  0.51100000000E-03 0. -1.
         23    2    1    0    0    0  0.95603754967E+01  0.11172274097E+02  0.25279249966E+02  0.95755154865E+02  0.91179979800E+02 0.  0.
         11    1    3    3    0    0 -0.35423036435E+02 -0.15748004178E+02  0.32847475729E+01  0.38904764654E+02  0.51100000000E-03 0.  1.
         22    1    1    0    0    0 -0.95603754967E+01 -0.11172274097E+02 -0.25279249966E+02  0.29244845135E+02  0.00000000000E+00 0. -1.
</event>
<event>
 5    1  0.1691145E-003  0.9118800E+02  0.7818608E-02  0.1130116E+00
         25   -1    0    0    0    0  0.00000000000E+00  0.00000000000E+00  0.99999998245E-14  0.12500000000E+03  0.12500000000E+03 0.  0.
        -11    1    3    3    0    0  0.10445358641E+02  0.19385795544E+02  0.31709564242E+02  0.38605842183E+02  0.51100000000E-03 0.  1.
         23    2    1    0    0    0 -0.16094251796E+01  0.16005799967E+02 -0.24222753823E+02  0.95922213207E+02  0.91408715678E+02 0.  0.
         11    1    3    3    0    0 -0.12054783820E+02 -0.33799955765E+01 -0.55932318065E+02  0.57316371024E+02  0.51100000000E-03 0. -1.
         22    1    1    0    0    0  0.16094251796E+01 -0.16005799967E+02  0.24222753823E+02  0.29077786793E+02  0.00000000000E+00 0. -1.
</event>
<event>
 5    1  0.1691145E-003  0.9118800E+02  0.7818608E-02  0.1130116E+00
         25   -1    0    0    0    0  0.00000000000E+00  0.00000000000E+00  0.99999998245E-14  0.12500000000E+03  0.12500000000E+03 0.  0.
        -11    1    3    3    0    0  0.16833439180E+02  0.36016280657E+02 -0.28155922494E+02  0.48716456344E+02  0.51100000000E-03 0.  1.
         23    2    1    0    0    0 -0.97486733982E+01  0.26549276398E+02  0.89521536164E+01  0.95334502117E+02  0.90601465381E+02 0.  0.
         11    1    3    3    0    0 -0.26582112578E+02 -0.94670042587E+01  0.37108076110E+02  0.46618045772E+02  0.51100000000E-03 0. -1.
         22    1    1    0    0    0  0.97486733982E+01 -0.26549276398E+02 -0.89521536164E+01  0.29665497883E+02  0.00000000000E+00 0.  1.
</event>
<event>
 5    1  0.1691145E-003  0.9118800E+02  0.7818608E-02  0.1130116E+00
         25   -1    0    0    0    0  0.00000000000E+00  0.00000000000E+00  0.99999998245E-14  0.12500000000E+03  0.12500000000E+03 0.  0.
        -11    1    3    3    0    0 -0.55084390117E+02 -0.21375427710E+02 -0.14338319165E+02  0.60801203451E+02  0.51100000000E-03 0. -1.
         23    2    1    0    0    0 -0.27381771348E+02 -0.10134602613E+02  0.34665386885E+01  0.95597815341E+02  0.90964024951E+02 0.  0.
         11    1    3    3    0    0  0.27702618770E+02  0.11240825097E+02  0.17804857854E+02  0.34796611890E+02  0.51100000000E-03 0.  1.
         22    1    1    0    0    0  0.27381771348E+02  0.10134602613E+02 -0.34665386885E+01  0.29402184659E+02  0.00000000000E+00 0. -1.
</event>
<event>
 5    1  0.1691145E-003  0.9118800E+02  0.7818608E-02  0.1130116E+00
         25   -1    0    0    0    0  0.00000000000E+00  0.00000000000E+00  0.99999998245E-14  0.12500000000E+03  0.12500000000E+03 0.  0.
        -11    1    3    3    0    0 -0.13518710541E+02  0.19020574037E+02 -0.37799526181E+02  0.44422313663E+02  0.51100000000E-03 0. -1.
         23    2    1    0    0    0 -0.18052445240E+02 -0.22258426546E+02 -0.89905750043E+01  0.94964042043E+02  0.90088903372E+02 0.  0.
         11    1    3    3    0    0 -0.45337346990E+01 -0.41279000583E+02  0.28808951177E+02  0.50541728380E+02  0.51100000000E-03 0.  1.
         22    1    1    0    0    0  0.18052445240E+02  0.22258426546E+02  0.89905750043E+01  0.30035957957E+02  0.00000000000E+00 0.  1.
</event>
<event>
 5    1  0.1691145E-003  0.9118800E+02  0.7818608E-02  0.1130116E+00
         25   -1    0    0    0    0  0.00000000000E+00  0.00000000000E+00  0.99999998245E-14  0.12500000000E+03  0.12500000000E+03 0.  0.
        -11    1    3    3    0    0 -0.77088982035E+01 -0.36621387683E+02 -0.42902101977E+02  0.56931041635E+02  0.51100000000E-03 0.  1.
         23    2    1    0    0    0 -0.74253164273E+01 -0.28582443028E+02 -0.57878797618E+01  0.94906962173E+02  0.90009669165E+02 0.  0.
         11    1    3    3    0    0  0.28358177612E+00  0.80389446547E+01  0.37114222215E+02  0.37975920538E+02  0.51100000000E-03 0. -1.
         22    1    1    0    0    0  0.74253164273E+01  0.28582443028E+02  0.57878797618E+01  0.30093037827E+02  0.00000000000E+00 0.  1.
</event>
<event>
 5    1  0.1691145E-003  0.9118800E+02  0.7818608E-02  0.1130116E+00
         25   -1    0    0    0    0  0.00000000000E+00  0.00000000000E+00  0.99999998245E-14  0.12500000000E+03  0.12500000000E+03 0.  0.
        -11    1    3    3    0    0 -0.11131141380E+01  0.55218200840E+02  0.18456498134E+02  0.58231701423E+02  0.51100000000E-03 0.  1.
         23    2    1    0    0    0  0.10332235934E+02  0.19286438928E+02  0.19112760306E+02  0.95947987463E+02  0.91443954780E+02 0.  0.
         11    1    3    3    0    0  0.11445350072E+02 -0.35931761911E+02  0.65626217220E+00  0.37716286040E+02  0.51100000000E-03 0. -1.
         22    1    1    0    0    0 -0.10332235934E+02 -0.19286438928E+02 -0.19112760306E+02  0.29052012537E+02  0.00000000000E+00 0.  1.
</event>
<event>
 5    1  0.1691145E-003  0.9118800E+02  0.7818608E-02  0.1130116E+00
         25   -1    0    0    0    0  0.00000000000E+00  0.00000000000E+00  0.99999998245E-14  0.12500000000E+03  0.12500000000E+03 0.  0.
        -11    1    3    3    0    0  0.13839483316E+02  0.23559746275E+02 -0.20923358543E+02  0.34414820586E+02  0.51100000000E-03 0. -1.
         23    2    1    0    0    0 -0.65461331480E+01 -0.11128971774E+02  0.25845267600E+02  0.96109106465E+02  0.91663933018E+02 0.  0.
         11    1    3    3    0    0 -0.20385616464E+02 -0.34688718049E+02  0.46768626143E+02  0.61694285879E+02  0.51100000000E-03 0.  1.
         22    1    1    0    0    0  0.65461331480E+01  0.11128971774E+02 -0.25845267600E+02  0.28890893535E+02  0.00000000000E+00 0.  1.
</event>
<event>
 5    1  0.1691145E-003  0.9118800E+02  0.7818608E-02  0.1130116E+00
         25   -1    0    0    0    0  0.00000000000E+00  0.00000000000E+00  0.99999998245E-14  0.12500000000E+03  0.12500000000E+03 0.  0.
        -11    1    3    3    0    0  0.55722719225E+01 -0.15489276138E+02  0.31502829119E+02  0.35544284103E+02  0.51100000000E-03 0. -1.
         23    2    1    0    0    0 -0.25216279258E+00 -0.57749562361E+01 -0.28149857044E+02  0.96262774017E+02  0.91873246946E+02 0.  0.
         11    1    3    3    0    0 -0.58244347151E+01  0.97143199016E+01 -0.59652686162E+02  0.60718489915E+02  0.51100000000E-03 0.  1.
         22    1    1    0    0    0  0.25216279258E+00  0.57749562361E+01  0.28149857044E+02  0.28737225983E+02  0.00000000000E+00 0.  1.
</event>
<event>
 5    1  0.1691145E-003  0.9118800E+02  0.7818608E-02  0.1130116E+00
         25   -1    0    0    0    0  0.00000000000E+00  0.00000000000E+00  0.99999998245E-14  0.12500000000E+03  0.12500000000E+03 0.  0.
        -11    1    3    3    0    0 -0.20679905786E+02  0.22412357615E+02  0.15366187366E+02  0.34148089136E+02  0.51100000000E-03 0.  1.
         23    2    1    0    0    0  0.14954226815E+02 -0.14190992327E+02 -0.19997662690E+02  0.96278585064E+02  0.91894756467E+02 0.  0.
         11    1    3    3    0    0  0.35634132602E+02 -0.36603349942E+02 -0.35363850056E+02  0.62130495928E+02  0.51100000000E-03 0. -1.
         22    1    1    0    0    0 -0.14954226815E+02  0.14190992327E+02  0.19997662690E+02  0.28721414936E+02  0.00000000000E+00 0. -1.
</event>
<event>
 5    1  0.1691145E-003  0.9118800E+02  0.7818608E-02  0.1130116E+00
         25   -1    0    0    0    0  0.00000000000E+00  0.00000000000E+00  0.99999998245E-14  0.12500000000E+03  0.12500000000E+03 0.  0.
        -11    1    3    3    0    0  0.27193435077E+02  0.72735945137E+01 -0.18195463358E+02  0.33518099222E+02  0.51100000000E-03 0. -1.
         23    2    1    0    0    0 -0.20165185813E+02 -0.17442571910E+02  0.12954699035E+02  0.95357087512E+02  0.90632620385E+02 0.  0.
         11    1    3    3    0    0 -0.47358620890E+02 -0.24716166424E+02  0.31150162392E+02  0.61838988289E+02  0.51100000000E-03 0.  1.
         22    1    1    0    0    0  0.20165185813E+02  0.17442571910E+02 -0.12954699035E+02  0.29642912488E+02  0.00000000000E+00 0.  1.
</event>
<event>
 5    1  0.1691145E-003  0.9118800E+02  0.7818608E-02  0.1130116E+00
         25   -1    0    0    0    0  0.00000000000E+00  0.00000000000E+00  0.99999998245E-14  0.12500000000E+03  0.12500000000E+03 0.  0.
        -11    1    3    3    0    0 -0.30501810662E+02 -0.75286535044E+01  0.17999453218E+02  0.36208029408E+02  0.51100000000E-03 0. -1.
         23    2    1    0    0    0  0.10152118618E+02 -0.13643447496E+02 -0.24394976161E+02  0.95262413785E+02  0.90501952720E+02 0.  0.
         11    1    3    3    0    0  0.40653929279E+02 -0.61147939917E+01 -0.42394429379E+02  0.59054384376E+02  0.51100000000E-03 0.  1.
         22    1    1    0    0    0 -0.10152118618E+02  0.13643447496E+02  0.24394976161E+02  0.29737586215E+02  0.00000000000E+00 0.  1.
</event>
<event>
 5    1  0.1691145E-003  0.9118800E+02  0.7818608E-02  0.1130116E+00
         25   -1    0    0    0    0  0.00000000000E+00  0.00000000000E+00  0.99999998245E-14  0.12500000000E+03  0.12500000000E+03 0.  0.
        -11    1    3    3    0    0  0.31226426600E+02  0.10823467074E+02  0.39900657560E+02  0.51810227095E+02  0.51100000000E-03 0. -1.
         23    2    1    0    0    0  0.14458455169E+02 -0.20935671926E+02  0.16585718700E+02  0.94628379206E+02  0.89621954908E+02 0.  0.
         11    1    3    3    0    0 -0.16767971430E+02 -0.31759138999E+02 -0.23314938860E+02  0.42818152111E+02  0.51100000000E-03 0.  1.
         22    1    1    0    0    0 -0.14458455169E+02  0.20935671926E+02 -0.16585718700E+02  0.30371620794E+02  0.00000000000E+00 0. -1.
</event>
<event>
 5    1  0.1691145E-003  0.9118800E+02  0.7818608E-02  0.1130116E+00
         25   -1    0    0    0    0  0.00000000000E+00  0.00000000000E+00  0.99999998245E-14  0.12500000000E+03  0.12500000000E+03 0.  0.
        -11    1    3    3    0    0  0.23586493981E+02  0.24790606791E+02  0.45114286311E+02  0.56623278896E+02  0.51100000000E-03 0.  1.
         23    2    1    0    0    0  0.19012391928E+02 -0.60651243530E+01  0.20815751668E+02  0.96163351482E+02  0.91737875878E+02 0.  0.
         11    1    3    3    0    0 -0.45741020532E+01 -0.30855731144E+02 -0.24298534643E+02  0.39540072586E+02  0.51100000000E-03 0. -1.
         22    1    1    0    0    0 -0.19012391928E+02  0.60651243530E+01 -0.20815751668E+02  0.28836648518E+02  0.00000000000E+00 0.  1.
</event>
<event>
 5    1  0.1691145E-003  0.9118800E+02  0.7818608E-02  0.1130116E+00
         25   -1    0    0    0    0  0.00000000000E+00  0.00000000000E+00  0.99999998245E-14  0.12500000000E+03  0.12500000000E+03 0.  0.
        -11    1    3    3    0    0 -0.16299285550E+02  0.38199779077E+02  0.16382183094E+01  0.41564090156E+02  0.51100000000E-03 0.  1.
         23    2    1    0    0    0 -0.15974991341E+02 -0.11928898708E+02 -0.20534903353E+02  0.96378657816E+02  0.92030779927E+02 0.  0.
         11    1    3    3    0    0  0.32429420902E+00 -0.50128677785E+02 -0.22173121662E+02  0.54814567660E+02  0.51100000000E-03 0. -1.
         22    1    1    0    0    0  0.15974991341E+02  0.11928898708E+02  0.20534903353E+02  0.28621342184E+02  0.00000000000E+00 0. -1.
</event>
<event>
 5    1  0.1691145E-003  0.9118800E+02  0.7818608E-02  0.1130116E+00
         25   -1    0    0    0    0  0.00000000000E+00  0.00000000000E+00  0.99999998245E-14  0.12500000000E+03  0.12500000000E+03 0.  0.
        -11    1    3    3    0    0 -0.12809305917E+02  0.32158775321E+02 -0.36442429597E+01  0.34807264403E+02  0.51100000000E-03 0.  1.
         23    2    1    0    0    0 -0.75042199767E+01 -0.23540232586E+02 -0.20123267377E+02  0.93134630747E+02  0.87513757129E+02 0.  0.
         11    1    3    3    0    0  0.53050859400E+01 -0.55699007907E+02 -0.16479024417E+02  0.58327366344E+02  0.51100000000E-03 0. -1.
         22    1    1    0    0    0  0.75042199767E+01  0.23540232586E+02  0.20123267377E+02  0.31865369253E+02  0.00000000000E+00 0. -1.
</event>
<event>
 5    1  0.1691145E-003  0.9118800E+02  0.7818608E-02  0.1130116E+00
         25   -1    0    0    0    0  0.00000000000E+00  0.00000000000E+00  0.99999998245E-14  0.12500000000E+03  0.12500000000E+03 0.  0.
        -11    1    3    3    0    0 -0.47519100766E+01  0.13399865160E+02 -0.30943559210E+02  0.34053500445E+02  0.51100000000E-03 0.  1.
         23    2    1    0    0    0  0.85582135753E+01 -0.18734771947E+02  0.20361579040E+02  0.96037462119E+02  0.91566181146E+02 0.  0.
         11    1    3    3    0    0  0.13310123652E+02 -0.32134637107E+02  0.51305138251E+02  0.61983961674E+02  0.51100000000E-03 0. -1.
         22    1    1    0    0    0 -0.85582135753E+01  0.18734771947E+02 -0.20361579040E+02  0.28962537881E+02  0.00000000000E+00 0. -1.
</event>
<event>
 5    1  0.1691145E-003  0.9118800E+02  0.7818608E-02  0.1130116E+00
         25   -1    0    0    0    0  0.00000000000E+00  0.00000000000E+00  0.99999998245E-14  0.12500000000E+03  0.12500000000E+03 0.  0.
        -11    1    3    3    0    0 -0.18058571634E+02 -0.27885029513E+02 -0.28493121314E+02  0.43766937782E+02  0.51100000000E-03 0.  1.
         23    2    1    0    0    0  0.24174943778E+02 -0.56824649547E-01 -0.16451839306E+02  0.95758007040E+02  0.91183889806E+02 0.  0.
         11    1    3    3    0    0  0.42233515412E+02  0.27828204863E+02  0.12041282008E+02  0.51991069258E+02  0.51100000000E-03 0. -1.
         22    1    1    0    0    0 -0.24174943778E+02  0.56824649547E-01  0.16451839306E+02  0.29241992960E+02  0.00000000000E+00 0. -1.
</event>
<event>
 5    1  0.1691145E-003  0.9118800E+02  0.7818608E-02  0.1130116E+00
         25   -1    0    0    0    0  0.00000000000E+00  0.00000000000E+00  0.99999998245E-14  0.12500000000E+03  0.12500000000E+03 0.  0.
        -11    1    3    3    0    0 -0.30960251277E+02  0.48104528336E+02  0.66637751966E+01  0.57593304348E+02  0.51100000000E-03 0. -1.
         23    2    1    0    0    0 -0.46760933386E+01  0.23252747499E+02  0.17692286908E+02  0.95409914985E+02  0.90705450478E+02 0.  0.
         11    1    3    3    0    0  0.26284157939E+02 -0.24851780837E+02  0.11028511711E+02  0.37816610638E+02  0.51100000000E-03 0.  1.
         22    1    1    0    0    0  0.46760933386E+01 -0.23252747499E+02 -0.17692286908E+02  0.29590085015E+02  0.00000000000E+00 0. -1.
</event>
<event>
 5    1  0.1691145E-003  0.9118800E+02  0.7818608E-02  0.1130116E+00
         25   -1    0    0    0    0  0.00000000000E+00  0.00000000000E+00  0.99999998245E-14  0.12500000000E+03  0.12500000000E+03 0.  0.
        -11    1    3    3    0    0  0.34924741773E+01  0.33376466830E+02  0.20995510186E+02  0.39585317507E+02  0.51100000000E-03 0. -1.
         23    2    1    0    0    0 -0.30399722994E+02 -0.57488798007E+01  0.98071312478E+01  0.92544297875E+02  0.86666455269E+02 0.  0.
         11    1    3    3    0    0 -0.33892197172E+02 -0.39125346630E+02 -0.11188378939E+02  0.52958980368E+02  0.51100000000E-03 0.  1.
         22    1    1    0    0    0  0.30399722994E+02  0.57488798007E+01 -0.98071312478E+01  0.32455702125E+02  0.00000000000E+00 0.  1.
</event>
<event>
 5    1  0.1691145E-003  0.9118800E+02  0.7818608E-02  0.1130116E+00
         25   -1    0    0    0    0  0.00000000000E+00  0.00000000000E+00  0.99999998245E-14  0.12500000000E+03  0.12500000000E+03 0.  0.
        -11    1    3    3    0    0  0.29817869281E+02  0.25607736249E+02 -0.11230795355E+02  0.40877772063E+02  0.51100000000E-03 0.  1.
         23    2    1    0    0    0 -0.12816975864E+02 -0.68507563901E+01 -0.24891907198E+02  0.96176142219E+02  0.91755302598E+02 0.  0.
         11    1    3    3    0    0 -0.42634845145E+02 -0.32458492640E+02 -0.13661111843E+02  0.55298370157E+02  0.51100000000E-03 0. -1.
         22    1    1    0    0    0  0.12816975864E+02  0.68507563901E+01  0.24891907198E+02  0.28823857781E+02  0.00000000000E+00 0. -1.
</event>
<event>
 5    1  0.1691145E-003  0.9118800E+02  0.7818608E-02  0.1130116E+00
         25   -1    0    0    0    0  0.00000000000E+00  0.00000000000E+00  0.99999998245E-14  0.12500000000E+03  0.12500000000E+03 0.  0.
        -11    1    3    3    0    0 -0.52784546005E+01 -0.34737852776E+02 -0.47113175768E+02  0.58772713308E+02  0.51100000000E-03 0. -1.
         23    2    1    0    0    0 -0.17425775556E+02 -0.14042839906E+02 -0.19931536318E+02  0.95031263851E+02  0.90182126626E+02 0.  0.
         11    1    3    3    0    0 -0.12147320956E+02  0.20695012869E+02  0.27181639449E+02  0.36258550543E+02  0.51100000000E-03 0.  1.
         22    1    1    0    0    0  0.17425775556E+02  0.14042839906E+02  0.19931536318E+02  0.29968736149E+02  0.00000000000E+00 0. -1.
</event>
<event>
 5    1  0.1691145E-003  0.9118800E+02  0.7818608E-02  0.1130116E+00
         25   -1    0    0    0    0  0.00000000000E+00  0.00000000000E+00  0.99999998245E-14  0.12500000000E+03  0.12500000000E+03 0.  0.
        -11    1    3    3    0    0  0.18074437828E+02  0.13232818683E+02  0.25142591066E+02  0.33674065375E+02  0.51100000000E-03 0. -1.
         23    2    1    0    0    0 -0.91895552971E+01 -0.13665943831E+02 -0.23947008916E+02  0.95936875884E+02  0.91428764462E+02 0.  0.
         11    1    3    3    0    0 -0.27263993125E+02 -0.26898762514E+02 -0.49089599982E+02  0.62262810509E+02  0.51100000000E-03 0.  1.
         22    1    1    0    0    0  0.91895552971E+01  0.13665943831E+02  0.23947008916E+02  0.29063124116E+02  0.00000000000E+00 0.  1.
</event>
<event>
 5    1  0.1691145E-003  0.9118800E+02  0.7818608E-02  0.1130116E+00
         25   -1    0    0    0    0  0.00000000000E+00  0.00000000000E+00  0.99999998245E-14  0.12500000000E+03  0.12500000000E+03 0.  0.
        -11    1    3    3    0    0 -0.11053297997E+02 -0.38944818506E+02  0.42027001562E+02  0.58353604393E+02  0.51100000000E-03 0.  1.
         23    2    1    0    0    0 -0.13284356172E+02 -0.24318617894E+02  0.69381918227E+01  0.96434149742E+02  0.92106120511E+02 0.  0.
         11    1    3    3    0    0 -0.22310581744E+01  0.14626200612E+02 -0.35088809739E+02  0.38080545349E+02  0.51100000000E-03 0. -1.
         22    1    1    0    0    0  0.13284356172E+02  0.24318617894E+02 -0.69381918227E+01  0.28565850258E+02  0.00000000000E+00 0.  1.
</event>
<event>
 5    1  0.1691145E-003  0.9118800E+02  0.7818608E-02  0.1130116E+00
         25   -1    0    0    0    0  0.00000000000E+00  0.00000000000E+00  0.99999998245E-14  0.12500000000E+03  0.12500000000E+03 0.  0.
        -11    1    3    3    0    0 -0.45476066383E+02 -0.32937527578E+02 -0.24942585697E+02  0.61441727825E+02  0.51100000000E-03 0. -1.
         23    2    1    0    0    0 -0.22795574424E+02 -0.84164650106E+01 -0.15593332095E+02  0.96127398759E+02  0.91688874406E+02 0.  0.
         11    1    3    3    0    0  0.22680491959E+02  0.24521062568E+02  0.93492536019E+01  0.34685670934E+02  0.51100000000E-03 0.  1.
         22    1    1    0    0    0  0.22795574424E+02  0.84164650106E+01  0.15593332095E+02  0.28872601241E+02  0.00000000000E+00 0. -1.
</event>
<event>
 5    1  0.1691145E-003  0.9118800E+02  0.7818608E-02  0.1130116E+00
         25   -1    0    0    0    0  0.00000000000E+00  0.00000000000E+00  0.99999998245E-14  0.12500000000E+03  0.12500000000E+03 0.  0.
        -11    1    3    3    0    0 -0.39215348128E+02 -0.27630651858E+02 -0.19457963202E+02  0.51767835411E+02  0.51100000000E-03 0.  1.
         23    2    1    0    0    0 -0.40932830585E+01 -0.30529638464E+02  0.37575684501E+01  0.93968836445E+02  0.88697289198E+02 0.  0.
         11    1    3    3    0    0  0.35122065070E+02 -0.28989866059E+01  0.23215531652E+02  0.42201001034E+02  0.51100000000E-03 0. -1.
         22    1    1    0    0    0  0.40932830585E+01  0.30529638464E+02 -0.37575684501E+01  0.31031163555E+02  0.00000000000E+00 0.  1.
</event>
<event>
 5    1  0.1691145E-003  0.9118800E+02  0.7818608E-02  0.1130116E+00
         25   -1    0    0    0    0  0.00000000000E+00  0.00000000000E+00  0.99999998245E-14  0.12500000000E+03  0.12500000000E+03 0.  0.
        -11    1    3    3    0    0  0.27745954843E+02 -0.25536948474E+02 -0.22499360449E+01  0.37776129500E+02  0.51100000000E-03 0. -1.
         23    2    1    0    0    0 -0.13301915087E+02 -0.97248599658E+00  0.27728867435E+02  0.94230262218E+02  0.89064951324E+02 0.  0.
         11    1    3    3    0    0 -0.41047869930E+02  0.24564462477E+02  0.29978803480E+02  0.56454132718E+02  0.51100000000E-03 0.  1.
         22    1    1    0    0    0  0.13301915087E+02  0.97248599658E+00 -0.27728867435E+02  0.30769737782E+02  0.00000000000E+00 0.  1.
</event>
<event>
 5    1  0.1691145E-003  0.9118800E+02  0.7818608E-02  0.1130116E+00
         25   -1    0    0    0    0  0.00000000000E+00  0.00000000000E+00  0.99999998245E-14  0.12500000000E+03  0.12500000000E+03 0.  0.
        -11    1    3    3    0    0  0.22602448181E+02  0.20380545568E+02 -0.18299102249E+02  0.35511891598E+02  0.51100000000E-03 0.  1.
         23    2    1    0    0    0 -0.58390920372E+01 -0.82747657527E+01  0.26982918213E+02  0.96179094058E+02  0.91759323855E+02 0.  0.
         11    1    3    3    0    0 -0.28441540219E+02 -0.28655311321E+02  0.45282020462E+02  0.60667202460E+02  0.51100000000E-03 0. -1.
         22    1    1    0    0    0  0.58390920372E+01  0.82747657527E+01 -0.26982918213E+02  0.28820905942E+02  0.00000000000E+00 0. -1.
</event>
<event>
 5    1  0.1691145E-003  0.9118800E+02  0.7818608E-02  0.1130116E+00
         25   -1    0    0    0    0  0.00000000000E+00  0.00000000000E+00  0.99999998245E-14  0.12500000000E+03  0.12500000000E+03 0.  0.
        -11    1    3    3    0    0 -0.61956526968E+01 -0.48246788262E+01  0.39460231529E+02  0.40233984524E+02  0.51100000000E-03 0.  1.
         23    2    1    0    0    0  0.16318900541E+02  0.23293682253E+02 -0.35524433512E+01  0.96337794894E+02  0.91975261475E+02 0.  0.
         11    1    3    3    0    0  0.22514553238E+02  0.28118361080E+02 -0.43012674880E+02  0.56103810369E+02  0.51100000000E-03 0. -1.
         22    1    1    0    0    0 -0.16318900541E+02 -0.23293682253E+02  0.35524433512E+01  0.28662205106E+02  0.00000000000E+00 0. -1.
</event>
<event>
 5    1  0.1691145E-003  0.9118800E+02  0.7818608E-02  0.1130116E+00
         25   -1    0    0    0    0  0.00000000000E+00  0.00000000000E+00  0.99999998245E-14  0.12500000000E+03  0.12500000000E+03 0.  0.
        -11    1    3    3    0    0  0.46469704802E+01 -0.46103745471E+02 -0.11313348961E+02  0.47698443854E+02  0.51100000000E-03 0.  1.
         23    2    1    0    0    0  0.10654300637E+02 -0.18450107476E+01 -0.27692343606E+02  0.95271493796E+02  0.90514493033E+02 0.  0.
         11    1    3    3    0    0  0.60073301563E+01  0.44258734724E+02 -0.16378994644E+02  0.47573049942E+02  0.51100000000E-03 0. -1.
         22    1    1    0    0    0 -0.10654300637E+02  0.18450107476E+01  0.27692343606E+02  0.29728506204E+02  0.00000000000E+00 0.  1.
</event>
<event>
 5    1  0.1691145E-003  0.9118800E+02  0.7818608E-02  0.1130116E+00
         25   -1    0    0    0    0  0.00000000000E+00  0.00000000000E+00  0.99999998245E-14  0.12500000000E+03  0.12500000000E+03 0.  0.
        -11    1    3    3    0    0  0.21606980790E+02 -0.45702728554E+02 -0.51526948356E+01  0.50814872630E+02  0.51100000000E-03 0. -1.
         23    2    1    0    0    0  0.81814293861E+01 -0.16816745998E+02  0.24394208340E+02  0.94262138439E+02  0.89109677420E+02 0.  0.
         11    1    3    3    0    0 -0.13425551403E+02  0.28885982556E+02  0.29546903176E+02  0.43447265809E+02  0.51100000000E-03 0.  1.
         22    1    1    0    0    0 -0.81814293861E+01  0.16816745998E+02 -0.24394208340E+02  0.30737861561E+02  0.00000000000E+00 0. -1.
</event>
<event>
 5    1  0.1691145E-003  0.9118800E+02  0.7818608E-02  0.1130116E+00
         25   -1    0    0    0    0  0.00000000000E+00  0.00000000000E+00  0.99999998245E-14  0.12500000000E+03  0.12500000000E+03 0.  0.
        -11    1    3    3    0    0  0.98902557856E+01  0.18981503499E+02  0.49260690929E+02  0.53709685398E+02  0.51100000000E-03 0.  1.
         23    2    1    0    0    0  0.25813138098E+02  0.39067128746E+01  0.13623845838E+02  0.95551915523E+02  0.90900928932E+02 0.  0.
         11    1    3    3    0    0  0.15922882313E+02 -0.15074790624E+02 -0.35636845091E+02  0.41842230125E+02  0.51100000000E-03 0. -1.
         22    1    1    0    0    0 -0.25813138098E+02 -0.39067128746E+01 -0.13623845838E+02  0.29448084477E+02  0.00000000000E+00 0.  1.
</event>
<event>
 5    1  0.1691145E-003  0.9118800E+02  0.7818608E-02  0.1130116E+00
         25   -1    0    0    0    0  0.00000000000E+00  0.00000000000E+00  0.99999998245E-14  0.12500000000E+03  0.12500000000E+03 0.  0.
        -11    1    3    3    0    0 -0.61521418991E+01  0.56022755258E+02  0.67766378319E+00  0.56363615792E+02  0.51100000000E-03 0. -1.
         23    2    1    0    0    0  0.12774498895E+01  0.21498535957E+02  0.19117346215E+02  0.96202572115E+02  0.91791301487E+02 0.  0.
         11    1    3    3    0    0  0.74295917886E+01 -0.34524219301E+02  0.18439682431E+02  0.39838956323E+02  0.51100000000E-03 0.  1.
         22    1    1    0    0    0 -0.12774498895E+01 -0.21498535957E+02 -0.19117346215E+02  0.28797427885E+02  0.00000000000E+00 0. -1.
</event>
<event>
 5    1  0.1691145E-003  0.9118800E+02  0.7818608E-02  0.1130116E+00
         25   -1    0    0    0    0  0.00000000000E+00  0.00000000000E+00  0.99999998245E-14  0.12500000000E+03  0.12500000000E+03 0.  0.
        -11    1    3    3    0    0 -0.28741712527E+02 -0.36262256482E+01  0.38792275931E+02  0.48415660933E+02  0.51100000000E-03 0. -1.
         23    2    1    0    0    0 -0.34166740742E+01 -0.28424679727E+02  0.82454818851E+01  0.95206979830E+02  0.90425355722E+02 0.  0.
         11    1    3    3    0    0  0.25325038453E+02 -0.24798454079E+02 -0.30546794046E+02  0.46791318897E+02  0.51100000000E-03 0.  1.
         22    1    1    0    0    0  0.34166740742E+01  0.28424679727E+02 -0.82454818851E+01  0.29793020170E+02  0.00000000000E+00 0. -1.
</event>
<event>
 5    1  0.1691145E-003  0.9118800E+02  0.7818608E-02  0.1130116E+00
         25   -1    0    0    0    0  0.00000000000E+00  0.00000000000E+00  0.99999998245E-14  0.12500000000E+03  0.12500000000E+03 0.  0.
        -11    1    3    3    0    0  0.39116886847E+02 -0.18510510147E+02  0.18882936492E+02  0.47215835409E+02  0.51100000000E-03 0.  1.
         23    2    1    0    0    0  0.19940699065E+02 -0.58705477104E+01 -0.22389701968E+02  0.94448509630E+02  0.89370730149E+02 0.  0.
         11    1    3    3    0    0 -0.19176187782E+02  0.12639962437E+02 -0.41272638461E+02  0.47232674220E+02  0.51100000000E-03 0. -1.
         22    1    1    0    0    0 -0.19940699065E+02  0.58705477104E+01  0.22389701968E+02  0.30551490370E+02  0.00000000000E+00 0.  1.
</event>
<event>
 5    1  0.1691145E-003  0.9118800E+02  0.7818608E-02  0.1130116E+00
         25   -1    0    0    0    0  0.00000000000E+00  0.00000000000E+00  0.99999998245E-14  0.12500000000E+03  0.12500000000E+03 0.  0.
        -11    1    3    3    0    0 -0.27617341163E+02 -0.34599603980E+00  0.32859265527E+02  0.42925150873E+02  0.51100000000E-03 0. -1.
         23    2    1    0    0    0 -0.19946715183E+02  0.11829572103E+02 -0.17912555371E+02  0.95696930832E+02  0.91100124633E+02 0.  0.
         11    1    3    3    0    0  0.76706259805E+01  0.12175568143E+02 -0.50771820898E+02  0.52771779960E+02  0.51100000000E-03 0.  1.
         22    1    1    0    0    0  0.19946715183E+02 -0.11829572103E+02  0.17912555371E+02  0.29303069168E+02  0.00000000000E+00 0.  1.
</event>
<event>
 5    1  0.1691145E-003  0.9118800E+02  0.7818608E-02  0.1130116E+00
         25   -1    0    0    0    0  0.00000000000E+00  0.00000000000E+00  0.99999998245E-14  0.12500000000E+03  0.12500000000E+03 0.  0.
        -11    1    3    3    0    0 -0.52102301087E+02  0.23855571857E+02  0.82764449801E+01  0.57898511458E+02  0.51100000000E-03 0.  1.
         23    2    1    0    0    0 -0.25636822305E+02  0.13316282489E+02 -0.12867702845E+02  0.93374886344E+02  0.87856255247E+02 0.  0.
         11    1    3    3    0    0  0.26465478782E+02 -0.10539289368E+02 -0.21144147826E+02  0.35476374886E+02  0.51100000000E-03 0. -1.
         22    1    1    0    0    0  0.25636822305E+02 -0.13316282489E+02  0.12867702845E+02  0.31625113656E+02  0.00000000000E+00 0.  1.
</event>
<event>
 5    1  0.1691145E-003  0.9118800E+02  0.7818608E-02  0.1130116E+00
         25   -1    0    0    0    0  0.00000000000E+00  0.00000000000E+00  0.99999998245E-14  0.12500000000E+03  0.12500000000E+03 0.  0.
        -11    1    3    3    0    0 -0.26436591598E+02 -0.43571843579E+02  0.44770923627E+01  0.51160954686E+02  0.51100000000E-03 0.  1.
         23    2    1    0    0    0 -0.30373732089E+02 -0.43091462464E+00  0.23164600598E+01  0.94535015581E+02  0.89491641482E+02 0.  0.
         11    1    3    3    0    0 -0.39371404915E+01  0.43140928954E+02 -0.21606323030E+01  0.43374060894E+02  0.51100000000E-03 0. -1.
         22    1    1    0    0    0  0.30373732089E+02  0.43091462464E+00 -0.23164600598E+01  0.30464984419E+02  0.00000000000E+00 0.  1.
</event>
<event>
 5    1  0.1691145E-003  0.9118800E+02  0.7818608E-02  0.1130116E+00
         25   -1    0    0    0    0  0.00000000000E+00  0.00000000000E+00  0.99999998245E-14  0.12500000000E+03  0.12500000000E+03 0.  0.
        -11    1    3    3    0    0  0.31622899191E+02 -0.41000950252E+02  0.20936006217E+02  0.55851607241E+02  0.51100000000E-03 0.  1.
         23    2    1    0    0    0  0.20328091258E+02 -0.58477362311E+01  0.24128367962E+02  0.92912534320E+02  0.87195949333E+02 0.  0.
         11    1    3    3    0    0 -0.11294807933E+02  0.35153214021E+02  0.31923617450E+01  0.37060927080E+02  0.51100000000E-03 0. -1.
         22    1    1    0    0    0 -0.20328091258E+02  0.58477362311E+01 -0.24128367962E+02  0.32087465680E+02  0.00000000000E+00 0.  1.
</event>
<event>
 5    1  0.1691145E-003  0.9118800E+02  0.7818608E-02  0.1130116E+00
         25   -1    0    0    0    0  0.00000000000E+00  0.00000000000E+00  0.99999998245E-14  0.12500000000E+03  0.12500000000E+03 0.  0.
        -11    1    3    3    0    0  0.95860245863E+01  0.66277389503E+01 -0.31861047008E+02  0.33925581906E+02  0.51100000000E-03 0. -1.
         23    2    1    0    0    0 -0.87930654179E+01 -0.12522286220E+02  0.24437531731E+02  0.96167403712E+02  0.91743397190E+02 0.  0.
         11    1    3    3    0    0 -0.18379090004E+02 -0.19150025170E+02  0.56298578739E+02  0.62241821806E+02  0.51100000000E-03 0.  1.
         22    1    1    0    0    0  0.87930654179E+01  0.12522286220E+02 -0.24437531731E+02  0.28832596288E+02  0.00000000000E+00 0.  1.
</event>
<event>
 5    1  0.1691145E-003  0.9118800E+02  0.7818608E-02  0.1130116E+00
         25   -1    0    0    0    0  0.00000000000E+00  0.00000000000E+00  0.99999998245E-14  0.12500000000E+03  0.12500000000E+03 0.  0.
        -11    1    3    3    0    0 -0.38047276206E+02 -0.31744362914E+01  0.31738328018E+02  0.49648703287E+02  0.51100000000E-03 0.  1.
         23    2    1    0    0    0 -0.13834774888E+02 -0.25849147428E+02 -0.17677421987E+00  0.95680882209E+02  0.91078101387E+02 0.  0.
         11    1    3    3    0    0  0.24212501318E+02 -0.22674711136E+02 -0.31915102237E+02  0.46032178922E+02  0.51100000000E-03 0. -1.
         22    1    1    0    0    0  0.13834774888E+02  0.25849147428E+02  0.17677421987E+00  0.29319117791E+02  0.00000000000E+00 0. -1.
</event>
<event>
 5    1  0.1691145E-003  0.9118800E+02  0.7818608E-02  0.1130116E+00
         25   -1    0    0    0    0  0.00000000000E+00  0.00000000000E+00  0.99999998245E-14  0.12500000000E+03  0.12500000000E+03 0.  0.
        -11    1    3    3    0    0 -0.15325144793E+02 -0.19417382543E+02 -0.26675107192E+02  0.36379336878E+02  0.51100000000E-03 0.  1.
         23    2    1    0    0    0 -0.11358243320E+02  0.20308461303E+02  0.17472372389E+02  0.95901424628E+02  0.91380283196E+02 0.  0.
         11    1    3    3    0    0  0.39669014726E+01  0.39725843846E+02  0.44147479580E+02  0.59522087750E+02  0.51100000000E-03 0. -1.
         22    1    1    0    0    0  0.11358243320E+02 -0.20308461303E+02 -0.17472372389E+02  0.29098575372E+02  0.00000000000E+00 0. -1.
</event>
<event>
 5    1  0.1691145E-003  0.9118800E+02  0.7818608E-02  0.1130116E+00
         25   -1    0    0    0    0  0.00000000000E+00  0.00000000000E+00  0.99999998245E-14  0.12500000000E+03  0.12500000000E+03 0.  0.
        -11    1    3    3    0    0 -0.12926351756E+02 -0.28930995281E+02  0.19278136804E+02  0.37090964083E+02  0.51100000000E-03 0.  1.
         23    2    1    0    0    0  0.11873067172E+02  0.12319222592E+01 -0.25705045860E+02  0.96658568505E+02  0.92410184104E+02 0.  0.
         11    1    3    3    0    0  0.24799418929E+02  0.30162917541E+02 -0.44983182664E+02  0.59567604422E+02  0.51100000000E-03 0. -1.
         22    1    1    0    0    0 -0.11873067172E+02 -0.12319222592E+01  0.25705045860E+02  0.28341431495E+02  0.00000000000E+00 0. -1.
</event>
<event>
 5    1  0.1691145E-003  0.9118800E+02  0.7818608E-02  0.1130116E+00
         25   -1    0    0    0    0  0.00000000000E+00  0.00000000000E+00  0.99999998245E-14  0.12500000000E+03  0.12500000000E+03 0.  0.
        -11    1    3    3    0    0  0.27148456992E+02  0.24690733742E+01  0.22966809347E+02  0.35645608036E+02  0.51100000000E-03 0.  1.
         23    2    1    0    0    0 -0.29029488713E+02 -0.39091752099E+01  0.32274517066E+01  0.95531214645E+02  0.90872458211E+02 0.  0.
         11    1    3    3    0    0 -0.56177945706E+02 -0.63782485840E+01 -0.19739357640E+02  0.59885606610E+02  0.51100000000E-03 0. -1.
         22    1    1    0    0    0  0.29029488713E+02  0.39091752099E+01 -0.32274517066E+01  0.29468785355E+02  0.00000000000E+00 0. -1.
</event>
<event>
 5    1  0.1691145E-003  0.9118800E+02  0.7818608E-02  0.1130116E+00
         25   -1    0    0    0    0  0.00000000000E+00  0.00000000000E+00  0.99999998245E-14  0.12500000000E+03  0.12500000000E+03 0.  0.
        -11    1    3    3    0    0  0.34346614095E+02 -0.22530476024E+02  0.97667731230E+00  0.41088516017E+02  0.51100000000E-03 0. -1.
         23    2    1    0    0    0  0.11529157625E+02 -0.21779733354E+02  0.35080894801E+02  0.82128710767E+02  0.70051250465E+02 0.  0.
         11    1    3    3    0    0 -0.22817456470E+02  0.75074267030E+00  0.34104217488E+02  0.41040194750E+02  0.51100000000E-03 0.  1.
         22    1    1    0    0    0 -0.11529157625E+02  0.21779733354E+02 -0.35080894801E+02  0.42871289233E+02  0.00000000000E+00 0. -1.
</event>
<event>
 5    1  0.1691145E-003  0.9118800E+02  0.7818608E-02  0.1130116E+00
         25   -1    0    0    0    0  0.00000000000E+00  0.00000000000E+00  0.99999998245E-14  0.12500000000E+03  0.12500000000E+03 0.  0.
        -11    1    3    3    0    0 -0.28024145221E+02 -0.22040184713E+02  0.28278257716E+02  0.45505849265E+02  0.51100000000E-03 0.  1.
         23    2    1    0    0    0  0.18529231293E+02 -0.61968938440E+01  0.22781887461E+02  0.94987530892E+02  0.90121488687E+02 0.  0.
         11    1    3    3    0    0  0.46553376515E+02  0.15843290869E+02 -0.54963702551E+01  0.49481681628E+02  0.51100000000E-03 0. -1.
         22    1    1    0    0    0 -0.18529231293E+02  0.61968938440E+01 -0.22781887461E+02  0.30012469108E+02  0.00000000000E+00 0.  1.
</event>
<event>
 5    1  0.1691145E-003  0.9118800E+02  0.7818608E-02  0.1130116E+00
         25   -1    0    0    0    0  0.00000000000E+00  0.00000000000E+00  0.99999998245E-14  0.12500000000E+03  0.12500000000E+03 0.  0.
        -11    1    3    3    0    0 -0.29824710455E+02  0.14260020437E+02 -0.41109444765E+01  0.33313081534E+02  0.51100000000E-03 0.  1.
         23    2    1    0    0    0  0.25499424394E+02 -0.13433003728E+02 -0.73177059491E+01  0.95264246201E+02  0.90504483593E+02 0.  0.
         11    1    3    3    0    0  0.55324134849E+02 -0.27693024165E+02 -0.32067614726E+01  0.61951164667E+02  0.51100000000E-03 0. -1.
         22    1    1    0    0    0 -0.25499424394E+02  0.13433003728E+02  0.73177059491E+01  0.29735753799E+02  0.00000000000E+00 0. -1.
</event>
<event>
 5    1  0.1691145E-003  0.9118800E+02  0.7818608E-02  0.1130116E+00
         25   -1    0    0    0    0  0.00000000000E+00  0.00000000000E+00  0.99999998245E-14  0.12500000000E+03  0.12500000000E+03 0.  0.
        -11    1    3    3    0    0 -0.68221650840E+01 -0.23601843436E+02 -0.41851526841E+02  0.48529776933E+02  0.51100000000E-03 0.  1.
         23    2    1    0    0    0  0.13288592147E+02 -0.31308428109E+02 -0.58394308867E+01  0.90490533110E+02  0.83651857586E+02 0.  0.
         11    1    3    3    0    0  0.20110757231E+02 -0.77065846738E+01  0.36012095954E+02  0.41960756178E+02  0.51100000000E-03 0. -1.
         22    1    1    0    0    0 -0.13288592147E+02  0.31308428109E+02  0.58394308867E+01  0.34509466890E+02  0.00000000000E+00 0.  1.
</event>
<event>
 5    1  0.1691145E-003  0.9118800E+02  0.7818608E-02  0.1130116E+00
         25   -1    0    0    0    0  0.00000000000E+00  0.00000000000E+00  0.99999998245E-14  0.12500000000E+03  0.12500000000E+03 0.  0.
        -11    1    3    3    0    0 -0.23544151692E+02  0.14735953813E+02 -0.23067065124E+02  0.36104915280E+02  0.51100000000E-03 0.  1.
         23    2    1    0    0    0 -0.24366747500E+01 -0.37861323269E+01  0.29208937829E+02  0.95446079263E+02  0.90755274314E+02 0.  0.
         11    1    3    3    0    0  0.21107476942E+02 -0.18522086140E+02  0.52276002953E+02  0.59341163983E+02  0.51100000000E-03 0. -1.
         22    1    1    0    0    0  0.24366747500E+01  0.37861323269E+01 -0.29208937829E+02  0.29553920737E+02  0.00000000000E+00 0. -1.
</event>
<event>
 5    1  0.1691145E-003  0.9118800E+02  0.7818608E-02  0.1130116E+00
         25   -1    0    0    0    0  0.00000000000E+00  0.00000000000E+00  0.99999998245E-14  0.12500000000E+03  0.12500000000E+03 0.  0.
        -11    1    3    3    0    0 -0.87261102277E+01  0.54118182498E+02  0.23067844767E+02  0.59473087519E+02  0.51100000000E-03 0.  1.
         23    2    1    0    0    0  0.61380473143E+01  0.32024894395E+02  0.21072341726E+02  0.86175869982E+02  0.76934826285E+02 0.  0.
         11    1    3    3    0    0  0.14864157542E+02 -0.22093288103E+02 -0.19955030413E+01  0.26702782463E+02  0.51100000000E-03 0. -1.
         22    1    1    0    0    0 -0.61380473143E+01 -0.32024894395E+02 -0.21072341726E+02  0.38824130018E+02  0.00000000000E+00 0.  1.
</event>
<event>
 5    1  0.1691145E-003  0.9118800E+02  0.7818608E-02  0.1130116E+00
         25   -1    0    0    0    0  0.00000000000E+00  0.00000000000E+00  0.99999998245E-14  0.12500000000E+03  0.12500000000E+03 0.  0.
        -11    1    3    3    0    0 -0.36481898546E+02  0.41573201189E+02 -0.30518398349E+01  0.55394708278E+02  0.51100000000E-03 0.  1.
         23    2    1    0    0    0 -0.26958145130E+02  0.51576805703E+01  0.10802305841E+02  0.95503677022E+02  0.90834570817E+02 0.  0.
         11    1    3    3    0    0  0.95237534158E+01 -0.36415520618E+02  0.13854145676E+02  0.40108968744E+02  0.51100000000E-03 0. -1.
         22    1    1    0    0    0  0.26958145130E+02 -0.51576805703E+01 -0.10802305841E+02  0.29496322978E+02  0.00000000000E+00 0.  1.
</event>
<event>
 5    1  0.1691145E-003  0.9118800E+02  0.7818608E-02  0.1130116E+00
         25   -1    0    0    0    0  0.00000000000E+00  0.00000000000E+00  0.99999998245E-14  0.12500000000E+03  0.12500000000E+03 0.  0.
        -11    1    3    3    0    0  0.54753662770E+01  0.11384121438E+02 -0.29404529246E+02  0.32003190423E+02  0.51100000000E-03 0.  1.
         23    2    1    0    0    0  0.26441253550E+02  0.30526829766E+02  0.12592805468E+02  0.82696265243E+02  0.71056782299E+02 0.  0.
         11    1    3    3    0    0  0.20965887273E+02  0.19142708328E+02  0.41997334715E+02  0.50693074820E+02  0.51100000000E-03 0. -1.
         22    1    1    0    0    0 -0.26441253550E+02 -0.30526829766E+02 -0.12592805468E+02  0.42303734757E+02  0.00000000000E+00 0. -1.
</event>
<event>
 5    1  0.1691145E-003  0.9118800E+02  0.7818608E-02  0.1130116E+00
         25   -1    0    0    0    0  0.00000000000E+00  0.00000000000E+00  0.99999998245E-14  0.12500000000E+03  0.12500000000E+03 0.  0.
        -11    1    3    3    0    0 -0.66520806668E+01 -0.12320421122E+02  0.52342273731E+02  0.54182622430E+02  0.51100000000E-03 0.  1.
         23    2    1    0    0    0 -0.12353385578E+02 -0.23268011587E+02  0.12599474483E+02  0.95798060754E+02  0.91238781166E+02 0.  0.
         11    1    3    3    0    0 -0.57013049113E+01 -0.10947590465E+02 -0.39742799247E+02  0.41615438325E+02  0.51100000000E-03 0. -1.
         22    1    1    0    0    0  0.12353385578E+02  0.23268011587E+02 -0.12599474483E+02  0.29201939246E+02  0.00000000000E+00 0.  1.
</event>
<event>
 5    1  0.1691145E-003  0.9118800E+02  0.7818608E-02  0.1130116E+00
         25   -1    0    0    0    0  0.00000000000E+00  0.00000000000E+00  0.99999998245E-14  0.12500000000E+03  0.12500000000E+03 0.  0.
        -11    1    3    3    0    0 -0.21388978311E+02 -0.59608353639E+01 -0.32253203895E+02  0.39157235771E+02  0.51100000000E-03 0. -1.
         23    2    1    0    0    0  0.55147236938E+01  0.28277303197E+02  0.41235608011E+01  0.95896360929E+02  0.91373356249E+02 0.  0.
         11    1    3    3    0    0  0.26903702005E+02  0.34238138561E+02  0.36376764696E+02  0.56739125158E+02  0.51100000000E-03 0.  1.
         22    1    1    0    0    0 -0.55147236938E+01 -0.28277303197E+02 -0.41235608011E+01  0.29103639071E+02  0.00000000000E+00 0.  1.
</event>
<event>
 5    1  0.1691145E-003  0.9118800E+02  0.7818608E-02  0.1130116E+00
         25   -1    0    0    0    0  0.00000000000E+00  0.00000000000E+00  0.99999998245E-14  0.12500000000E+03  0.12500000000E+03 0.  0.
        -11    1    3    3    0    0  0.54804050868E+00 -0.23434862514E+02  0.24615256523E+02  0.33991233920E+02  0.51100000000E-03 0.  1.
         23    2    1    0    0    0 -0.78782183346E+01  0.18762484728E+02 -0.20344805390E+02  0.96224867269E+02  0.91821657671E+02 0.  0.
         11    1    3    3    0    0 -0.84262588433E+01  0.42197347242E+02 -0.44960061913E+02  0.62233633349E+02  0.51100000000E-03 0. -1.
         22    1    1    0    0    0  0.78782183346E+01 -0.18762484728E+02  0.20344805390E+02  0.28775132731E+02  0.00000000000E+00 0. -1.
</event>
<event>
 5    1  0.1691145E-003  0.9118800E+02  0.7818608E-02  0.1130116E+00
         25   -1    0    0    0    0  0.00000000000E+00  0.00000000000E+00  0.99999998245E-14  0.12500000000E+03  0.12500000000E+03 0.  0.
        -11    1    3    3    0    0 -0.31105191278E+02  0.44661721211E+02 -0.26696294547E+01  0.54491551525E+02  0.51100000000E-03 0.  1.
         23    2    1    0    0    0  0.18206428747E+01  0.25459836903E+02  0.13765566999E+02  0.95999847062E+02  0.91514817191E+02 0.  0.
         11    1    3    3    0    0  0.32925834153E+02 -0.19201884307E+02  0.16435196454E+02  0.41508295537E+02  0.51100000000E-03 0. -1.
         22    1    1    0    0    0 -0.18206428747E+01 -0.25459836903E+02 -0.13765566999E+02  0.29000152938E+02  0.00000000000E+00 0.  1.
</event>
<event>
 5    1  0.1691145E-003  0.9118800E+02  0.7818608E-02  0.1130116E+00
         25   -1    0    0    0    0  0.00000000000E+00  0.00000000000E+00  0.99999998245E-14  0.12500000000E+03  0.12500000000E+03 0.  0.
        -11    1    3    3    0    0 -0.49380341628E+02  0.14240077311E+02 -0.82647704880E+01  0.52052899752E+02  0.51100000000E-03 0.  1.
         23    2    1    0    0    0 -0.98386508223E+01  0.23885286018E+02 -0.17512254549E+02  0.93791267287E+02  0.88446689151E+02 0.  0.
         11    1    3    3    0    0  0.39541690805E+02  0.96452087072E+01 -0.92474840613E+01  0.41738367535E+02  0.51100000000E-03 0. -1.
         22    1    1    0    0    0  0.98386508223E+01 -0.23885286018E+02  0.17512254549E+02  0.31208732713E+02  0.00000000000E+00 0.  1.
</event>
<event>
 5    1  0.1691145E-003  0.9118800E+02  0.7818608E-02  0.1130116E+00
         25   -1    0    0    0    0  0.00000000000E+00  0.00000000000E+00  0.99999998245E-14  0.12500000000E+03  0.12500000000E+03 0.  0.
        -11    1    3    3    0    0 -0.14292215231E+02 -0.78794114459E+01 -0.36988207418E+02  0.40428703036E+02  0.51100000000E-03 0. -1.
         23    2    1    0    0    0  0.27703004952E+02 -0.15709250521E+02 -0.76645272574E+01  0.92243595842E+02  0.86231658691E+02 0.  0.
         11    1    3    3    0    0  0.41995220182E+02 -0.78298390746E+01  0.29323680160E+02  0.51814892806E+02  0.51100000000E-03 0.  1.
         22    1    1    0    0    0 -0.27703004952E+02  0.15709250521E+02  0.76645272574E+01  0.32756404158E+02  0.00000000000E+00 0.  1.
</event>
<event>
 5    1  0.1691145E-003  0.9118800E+02  0.7818608E-02  0.1130116E+00
         25   -1    0    0    0    0  0.00000000000E+00  0.00000000000E+00  0.99999998245E-14  0.12500000000E+03  0.12500000000E+03 0.  0.
        -11    1    3    3    0    0 -0.99157848975E+01 -0.36088858887E+02  0.33467916975E+02  0.50207867838E+02  0.51100000000E-03 0.  1.
         23    2    1    0    0    0 -0.19949918925E+02  0.65726466976E+01  0.19848157847E+02  0.96101067154E+02  0.91652969337E+02 0.  0.
         11    1    3    3    0    0 -0.10034134028E+02  0.42661505585E+02 -0.13619759128E+02  0.45893199315E+02  0.51100000000E-03 0. -1.
         22    1    1    0    0    0  0.19949918925E+02 -0.65726466976E+01 -0.19848157847E+02  0.28898932846E+02  0.00000000000E+00 0. -1.
</event>
<event>
 5    1  0.1691145E-003  0.9118800E+02  0.7818608E-02  0.1130116E+00
         25   -1    0    0    0    0  0.00000000000E+00  0.00000000000E+00  0.99999998245E-14  0.12500000000E+03  0.12500000000E+03 0.  0.
        -11    1    3    3    0    0 -0.24048838304E+02  0.54455664793E+02  0.17684434130E+02  0.62100767004E+02  0.51100000000E-03 0.  1.
         23    2    1    0    0    0 -0.15688186111E+02  0.23585008695E+02  0.69908097468E+01  0.95823926935E+02  0.91274211767E+02 0.  0.
         11    1    3    3    0    0  0.83606521935E+01 -0.30870656097E+02 -0.10693624383E+02  0.33723159930E+02  0.51100000000E-03 0. -1.
         22    1    1    0    0    0  0.15688186111E+02 -0.23585008695E+02 -0.69908097468E+01  0.29176073065E+02  0.00000000000E+00 0.  1.
</event>
<event>
 5    1  0.1691145E-003  0.9118800E+02  0.7818608E-02  0.1130116E+00
         25   -1    0    0    0    0  0.00000000000E+00  0.00000000000E+00  0.99999998245E-14  0.12500000000E+03  0.12500000000E+03 0.  0.
        -11    1    3    3    0    0 -0.19697440165E+02 -0.30939189728E+02  0.50850772959E+01  0.37028105831E+02  0.51100000000E-03 0. -1.
         23    2    1    0    0    0 -0.13679352545E+02  0.25519897246E+02 -0.72932094125E+01  0.95140650626E+02  0.90333618640E+02 0.  0.
         11    1    3    3    0    0  0.60180876200E+01  0.56459086973E+02 -0.12378286708E+02  0.58112544795E+02  0.51100000000E-03 0.  1.
         22    1    1    0    0    0  0.13679352545E+02 -0.25519897246E+02  0.72932094125E+01  0.29859349374E+02  0.00000000000E+00 0.  1.
</event>
<event>
 5    1  0.1691145E-003  0.9118800E+02  0.7818608E-02  0.1130116E+00
         25   -1    0    0    0    0  0.00000000000E+00  0.00000000000E+00  0.99999998245E-14  0.12500000000E+03  0.12500000000E+03 0.  0.
        -11    1    3    3    0    0  0.23994023426E+02 -0.29514706191E+02 -0.27459744322E+02  0.46913415994E+02  0.51100000000E-03 0.  1.
         23    2    1    0    0    0 -0.20589195478E+02 -0.13396750960E+02 -0.15995337996E+02  0.95687225578E+02  0.91086806918E+02 0.  0.
         11    1    3    3    0    0 -0.44583218904E+02  0.16117955231E+02  0.11464406326E+02  0.48773809584E+02  0.51100000000E-03 0. -1.
         22    1    1    0    0    0  0.20589195478E+02  0.13396750960E+02  0.15995337996E+02  0.29312774422E+02  0.00000000000E+00 0. -1.
</event>
<event>
 5    1  0.1691145E-003  0.9118800E+02  0.7818608E-02  0.1130116E+00
         25   -1    0    0    0    0  0.00000000000E+00  0.00000000000E+00  0.99999998245E-14  0.12500000000E+03  0.12500000000E+03 0.  0.
        -11    1    3    3    0    0  0.20967224976E+02  0.51157968943E+02 -0.28051144172E+01  0.55359109247E+02  0.51100000000E-03 0. -1.
         23    2    1    0    0    0 -0.53220612443E+01  0.24966328490E+02  0.13762498143E+02  0.95999168128E+02  0.91513889831E+02 0.  0.
         11    1    3    3    0    0 -0.26289286220E+02 -0.26191640453E+02  0.16567612560E+02  0.40640058880E+02  0.51100000000E-03 0.  1.
         22    1    1    0    0    0  0.53220612443E+01 -0.24966328490E+02 -0.13762498143E+02  0.29000831872E+02  0.00000000000E+00 0.  1.
</event>
<event>
 5    1  0.1691145E-003  0.9118800E+02  0.7818608E-02  0.1130116E+00
         25   -1    0    0    0    0  0.00000000000E+00  0.00000000000E+00  0.99999998245E-14  0.12500000000E+03  0.12500000000E+03 0.  0.
        -11    1    3    3    0    0 -0.15438615501E+02  0.22791191546E+02  0.32465453871E+02  0.42565184787E+02  0.51100000000E-03 0.  1.
         23    2    1    0    0    0  0.10766058587E+02  0.22661000529E+02 -0.14263546984E+02  0.96140378814E+02  0.91706568485E+02 0.  0.
         11    1    3    3    0    0  0.26204674088E+02 -0.13019101704E+00 -0.46729000855E+02  0.53575194026E+02  0.51100000000E-03 0. -1.
         22    1    1    0    0    0 -0.10766058587E+02 -0.22661000529E+02  0.14263546984E+02  0.28859621186E+02  0.00000000000E+00 0. -1.
</event>
<event>
 5    1  0.1691145E-003  0.9118800E+02  0.7818608E-02  0.1130116E+00
         25   -1    0    0    0    0  0.00000000000E+00  0.00000000000E+00  0.99999998245E-14  0.12500000000E+03  0.12500000000E+03 0.  0.
        -11    1    3    3    0    0 -0.35284997277E+02 -0.13961026207E+01  0.21534412542E+01  0.35378205790E+02  0.51100000000E-03 0. -1.
         23    2    1    0    0    0  0.22143460786E+02  0.69188053130E+01 -0.16726519907E+02  0.96399664500E+02  0.92059307650E+02 0.  0.
         11    1    3    3    0    0  0.57428458063E+02  0.83149079336E+01 -0.18879961161E+02  0.61021458710E+02  0.51100000000E-03 0.  1.
         22    1    1    0    0    0 -0.22143460786E+02 -0.69188053130E+01  0.16726519907E+02  0.28600335500E+02  0.00000000000E+00 0.  1.
</event>
<event>
 5    1  0.1691145E-003  0.9118800E+02  0.7818608E-02  0.1130116E+00
         25   -1    0    0    0    0  0.00000000000E+00  0.00000000000E+00  0.99999998245E-14  0.12500000000E+03  0.12500000000E+03 0.  0.
        -11    1    3    3    0    0 -0.32962415321E+02  0.16620232321E+02 -0.24771432591E+02  0.44456459813E+02  0.51100000000E-03 0. -1.
         23    2    1    0    0    0  0.17971144927E+02  0.94878542335E+01 -0.20611527170E+02  0.96054940314E+02  0.91590038097E+02 0.  0.
         11    1    3    3    0    0  0.50933560248E+02 -0.71323780878E+01  0.41599054214E+01  0.51598480502E+02  0.51100000000E-03 0.  1.
         22    1    1    0    0    0 -0.17971144927E+02 -0.94878542335E+01  0.20611527170E+02  0.28945059686E+02  0.00000000000E+00 0. -1.
</event>
<event>
 5    1  0.1691145E-003  0.9118800E+02  0.7818608E-02  0.1130116E+00
         25   -1    0    0    0    0  0.00000000000E+00  0.00000000000E+00  0.99999998245E-14  0.12500000000E+03  0.12500000000E+03 0.  0.
        -11    1    3    3    0    0  0.40324385674E+02 -0.18262856986E+02  0.10647926022E+01  0.44280038492E+02  0.51100000000E-03 0.  1.
         23    2    1    0    0    0 -0.14128635334E+02 -0.14666537050E+02 -0.13257788826E+02  0.10069990514E+03  0.97723980097E+02 0.  0.
         11    1    3    3    0    0 -0.54453021008E+02  0.35963199357E+01 -0.14322581428E+02  0.56419866652E+02  0.51100000000E-03 0. -1.
         22    1    1    0    0    0  0.14128635334E+02  0.14666537050E+02  0.13257788826E+02  0.24300094856E+02  0.00000000000E+00 0. -1.
</event>
<event>
 5    1  0.1691145E-003  0.9118800E+02  0.7818608E-02  0.1130116E+00
         25   -1    0    0    0    0  0.00000000000E+00  0.00000000000E+00  0.99999998245E-14  0.12500000000E+03  0.12500000000E+03 0.  0.
        -11    1    3    3    0    0 -0.33726824000E+02  0.36202473230E+02  0.30904130314E+02  0.58336806528E+02  0.51100000000E-03 0.  1.
         23    2    1    0    0    0 -0.27835298205E+01  0.15709359445E+02  0.24143221296E+02  0.96061666478E+02  0.91599217353E+02 0.  0.
         11    1    3    3    0    0  0.30943294180E+02 -0.20493113785E+02 -0.67609090179E+01  0.37724859951E+02  0.51100000000E-03 0. -1.
         22    1    1    0    0    0  0.27835298205E+01 -0.15709359445E+02 -0.24143221296E+02  0.28938333522E+02  0.00000000000E+00 0.  1.
</event>
<event>
 5    1  0.1691145E-003  0.9118800E+02  0.7818608E-02  0.1130116E+00
         25   -1    0    0    0    0  0.00000000000E+00  0.00000000000E+00  0.99999998245E-14  0.12500000000E+03  0.12500000000E+03 0.  0.
        -11    1    3    3    0    0  0.26714851864E+02  0.15442117772E+02 -0.40476794443E+02  0.50897084396E+02  0.51100000000E-03 0.  1.
         23    2    1    0    0    0  0.15039367867E+02 -0.19840097863E+02 -0.16942184873E+02  0.94886054770E+02  0.89980629540E+02 0.  0.
         11    1    3    3    0    0 -0.11675483997E+02 -0.35282215634E+02  0.23534609570E+02  0.43988970373E+02  0.51100000000E-03 0. -1.
         22    1    1    0    0    0 -0.15039367867E+02  0.19840097863E+02  0.16942184873E+02  0.30113945230E+02  0.00000000000E+00 0.  1.
</event>
<event>
 5    1  0.1691145E-003  0.9118800E+02  0.7818608E-02  0.1130116E+00
         25   -1    0    0    0    0  0.00000000000E+00  0.00000000000E+00  0.99999998245E-14  0.12500000000E+03  0.12500000000E+03 0.  0.
        -11    1    3    3    0    0 -0.23018063104E+02  0.37189280378E+02 -0.15474817796E+02  0.46393359332E+02  0.51100000000E-03 0. -1.
         23    2    1    0    0    0  0.21666652159E+02  0.18965282953E+02 -0.65536056665E+01  0.95469075184E+02  0.90786941770E+02 0.  0.
         11    1    3    3    0    0  0.44684715263E+02 -0.18223997425E+02  0.89212121292E+01  0.49075715852E+02  0.51100000000E-03 0.  1.
         22    1    1    0    0    0 -0.21666652159E+02 -0.18965282953E+02  0.65536056665E+01  0.29530924816E+02  0.00000000000E+00 0.  1.
</event>
<event>
 5    1  0.1691145E-003  0.9118800E+02  0.7818608E-02  0.1130116E+00
         25   -1    0    0    0    0  0.00000000000E+00  0.00000000000E+00  0.99999998245E-14  0.12500000000E+03  0.12500000000E+03 0.  0.
        -11    1    3    3    0    0  0.13628774642E+02  0.21876328917E+02  0.29352541158E+02  0.39062628404E+02  0.51100000000E-03 0.  1.
         23    2    1    0    0    0  0.10901622698E+02 -0.27852987670E+02  0.44006203763E+01  0.94767571066E+02  0.89815882595E+02 0.  0.
         11    1    3    3    0    0 -0.27271519440E+01 -0.49729316587E+02 -0.24951920782E+02  0.55704942662E+02  0.51100000000E-03 0. -1.
         22    1    1    0    0    0 -0.10901622698E+02  0.27852987670E+02 -0.44006203763E+01  0.30232428934E+02  0.00000000000E+00 0. -1.
</event>
<event>
 5    1  0.1691145E-003  0.9118800E+02  0.7818608E-02  0.1130116E+00
         25   -1    0    0    0    0  0.00000000000E+00  0.00000000000E+00  0.99999998245E-14  0.12500000000E+03  0.12500000000E+03 0.  0.
        -11    1    3    3    0    0  0.52392436435E+02  0.13065379900E+02 -0.24307090420E+02  0.59215759663E+02  0.51100000000E-03 0.  1.
         23    2    1    0    0    0  0.19410171802E+02  0.17526446220E+02 -0.31376061348E+01  0.98660378539E+02  0.95079412254E+02 0.  0.
         11    1    3    3    0    0 -0.32982264633E+02  0.44610663192E+01  0.21169484285E+02  0.39444618875E+02  0.51100000000E-03 0. -1.
         22    1    1    0    0    0 -0.19410171802E+02 -0.17526446220E+02  0.31376061348E+01  0.26339621461E+02  0.00000000000E+00 0.  1.
</event>
<event>
 5    1  0.1691145E-003  0.9118800E+02  0.7818608E-02  0.1130116E+00
         25   -1    0    0    0    0  0.00000000000E+00  0.00000000000E+00  0.99999998245E-14  0.12500000000E+03  0.12500000000E+03 0.  0.
        -11    1    3    3    0    0 -0.31559361619E+02  0.41671882934E+02 -0.31451899802E+02  0.61006238488E+02  0.51100000000E-03 0.  1.
         23    2    1    0    0    0 -0.21738987270E+02  0.12783395345E+02 -0.14329949869E+02  0.95994031178E+02  0.91506872935E+02 0.  0.
         11    1    3    3    0    0  0.98203743490E+01 -0.28888487588E+02  0.17121949934E+02  0.34987792690E+02  0.51100000000E-03 0. -1.
         22    1    1    0    0    0  0.21738987270E+02 -0.12783395345E+02  0.14329949869E+02  0.29005968822E+02  0.00000000000E+00 0.  1.
</event>
<event>
 5    1  0.1691145E-003  0.9118800E+02  0.7818608E-02  0.1130116E+00
         25   -1    0    0    0    0  0.00000000000E+00  0.00000000000E+00  0.99999998245E-14  0.12500000000E+03  0.12500000000E+03 0.  0.
        -11    1    3    3    0    0  0.51486526590E+02  0.70533560037E+01  0.20368300846E+02  0.55816484401E+02  0.51100000000E-03 0.  1.
         23    2    1    0    0    0  0.16713075476E+02 -0.13316201416E+02  0.19415011344E+02  0.96128027821E+02  0.91689732006E+02 0.  0.
         11    1    3    3    0    0 -0.34773451114E+02 -0.20369557419E+02 -0.95328950221E+00  0.40311543421E+02  0.51100000000E-03 0. -1.
         22    1    1    0    0    0 -0.16713075476E+02  0.13316201416E+02 -0.19415011344E+02  0.28871972179E+02  0.00000000000E+00 0.  1.
</event>
<event>
 5    1  0.1691145E-003  0.9118800E+02  0.7818608E-02  0.1130116E+00
         25   -1    0    0    0    0  0.00000000000E+00  0.00000000000E+00  0.99999998245E-14  0.12500000000E+03  0.12500000000E+03 0.  0.
        -11    1    3    3    0    0 -0.51144383054E+02  0.31414787811E+02  0.11927693460E+02  0.61195642678E+02  0.51100000000E-03 0.  1.
         23    2    1    0    0    0 -0.22895744106E+02  0.12279241190E+02  0.14201910254E+02  0.95391063558E+02  0.90679467850E+02 0.  0.
         11    1    3    3    0    0  0.28248638949E+02 -0.19135546621E+02  0.22742167943E+01  0.34195420881E+02  0.51100000000E-03 0. -1.
         22    1    1    0    0    0  0.22895744106E+02 -0.12279241190E+02 -0.14201910254E+02  0.29608936442E+02  0.00000000000E+00 0.  1.
</event>
<event>
 5    1  0.1691145E-003  0.9118800E+02  0.7818608E-02  0.1130116E+00
         25   -1    0    0    0    0  0.00000000000E+00  0.00000000000E+00  0.99999998245E-14  0.12500000000E+03  0.12500000000E+03 0.  0.
        -11    1    3    3    0    0 -0.56438794133E+02  0.11962179621E+02  0.20557535877E+02  0.61245763169E+02  0.51100000000E-03 0. -1.
         23    2    1    0    0    0 -0.26719764198E+02 -0.72069851987E+00  0.15919166975E+02  0.93889148480E+02  0.88584914742E+02 0.  0.
         11    1    3    3    0    0  0.29719029935E+02 -0.12682878141E+02 -0.46383689020E+01  0.32643385311E+02  0.51100000000E-03 0.  1.
         22    1    1    0    0    0  0.26719764198E+02  0.72069851987E+00 -0.15919166975E+02  0.31110851520E+02  0.00000000000E+00 0. -1.
</event>
<event>
 5    1  0.1691145E-003  0.9118800E+02  0.7818608E-02  0.1130116E+00
         25   -1    0    0    0    0  0.00000000000E+00  0.00000000000E+00  0.99999998245E-14  0.12500000000E+03  0.12500000000E+03 0.  0.
        -11    1    3    3    0    0  0.31803759359E+02  0.40659147087E+01  0.53601870362E+02  0.62459357012E+02  0.51100000000E-03 0.  1.
         23    2    1    0    0    0  0.14649346165E+02  0.34381086072E+01  0.25707069740E+02  0.95212798579E+02  0.90433398945E+02 0.  0.
         11    1    3    3    0    0 -0.17154413193E+02 -0.62780610152E+00 -0.27894800622E+02  0.32753441567E+02  0.51100000000E-03 0. -1.
         22    1    1    0    0    0 -0.14649346165E+02 -0.34381086072E+01 -0.25707069740E+02  0.29787201421E+02  0.00000000000E+00 0.  1.
</event>
<event>
 5    1  0.1691145E-003  0.9118800E+02  0.7818608E-02  0.1130116E+00
         25   -1    0    0    0    0  0.00000000000E+00  0.00000000000E+00  0.99999998245E-14  0.12500000000E+03  0.12500000000E+03 0.  0.
        -11    1    3    3    0    0  0.25532067835E+02  0.37963971155E+02 -0.32497284711E+02  0.56117939268E+02  0.51100000000E-03 0. -1.
         23    2    1    0    0    0  0.26828357256E+02  0.85091588528E+01 -0.50393211971E+01  0.96406971207E+02  0.92069228311E+02 0.  0.
         11    1    3    3    0    0  0.12962894211E+01 -0.29454812302E+02  0.27457963514E+02  0.40289031939E+02  0.51100000000E-03 0.  1.
         22    1    1    0    0    0 -0.26828357256E+02 -0.85091588528E+01  0.50393211971E+01  0.28593028793E+02  0.00000000000E+00 0. -1.
</event>
<event>
 5    1  0.1691145E-003  0.9118800E+02  0.7818608E-02  0.1130116E+00
         25   -1    0    0    0    0  0.00000000000E+00  0.00000000000E+00  0.99999998245E-14  0.12500000000E+03  0.12500000000E+03 0.  0.
        -11    1    3    3    0    0 -0.10076624596E+02  0.50177070188E+02  0.34401217137E+02  0.61666202061E+02  0.51100000000E-03 0.  1.
         23    2    1    0    0    0  0.22940431013E+01  0.22722328992E+02  0.17742975475E+02  0.96079764052E+02  0.91623910706E+02 0.  0.
         11    1    3    3    0    0  0.12370667697E+02 -0.27454741195E+02 -0.16658241662E+02  0.34413561991E+02  0.51100000000E-03 0. -1.
         22    1    1    0    0    0 -0.22940431013E+01 -0.22722328992E+02 -0.17742975475E+02  0.28920235948E+02  0.00000000000E+00 0.  1.
</event>
<event>
 5    1  0.1691145E-003  0.9118800E+02  0.7818608E-02  0.1130116E+00
         25   -1    0    0    0    0  0.00000000000E+00  0.00000000000E+00  0.99999998245E-14  0.12500000000E+03  0.12500000000E+03 0.  0.
        -11    1    3    3    0    0  0.18575032313E+01 -0.10643182543E+02  0.38019899118E+02  0.39525186681E+02  0.51100000000E-03 0. -1.
         23    2    1    0    0    0  0.26392609369E+02 -0.43802754106E+01 -0.12068392918E+02  0.95650336465E+02  0.91036169275E+02 0.  0.
         11    1    3    3    0    0  0.24535106138E+02  0.62629071321E+01 -0.50088292036E+02  0.56125149785E+02  0.51100000000E-03 0.  1.
         22    1    1    0    0    0 -0.26392609369E+02  0.43802754106E+01  0.12068392918E+02  0.29349663535E+02  0.00000000000E+00 0.  1.
</event>
<event>
 5    1  0.1691145E-003  0.9118800E+02  0.7818608E-02  0.1130116E+00
         25   -1    0    0    0    0  0.00000000000E+00  0.00000000000E+00  0.99999998245E-14  0.12500000000E+03  0.12500000000E+03 0.  0.
        -11    1    3    3    0    0  0.14060510597E+02 -0.17728437423E+02  0.27173833149E+02  0.35361174472E+02  0.51100000000E-03 0.  1.
         23    2    1    0    0    0  0.10739428470E+02  0.15917498077E+02 -0.22481874940E+02  0.95434195940E+02  0.90738905575E+02 0.  0.
         11    1    3    3    0    0 -0.33210821272E+01  0.33645935500E+02 -0.49655708090E+02  0.60073021468E+02  0.51100000000E-03 0. -1.
         22    1    1    0    0    0 -0.10739428470E+02 -0.15917498077E+02  0.22481874940E+02  0.29565804060E+02  0.00000000000E+00 0. -1.
</event>
<event>
 5    1  0.1691145E-003  0.9118800E+02  0.7818608E-02  0.1130116E+00
         25   -1    0    0    0    0  0.00000000000E+00  0.00000000000E+00  0.99999998245E-14  0.12500000000E+03  0.12500000000E+03 0.  0.
        -11    1    3    3    0    0 -0.67841387390E+01  0.90235963619E+01 -0.44187687274E+02  0.45607033850E+02  0.51100000000E-03 0. -1.
         23    2    1    0    0    0  0.22881535643E+02  0.17048424358E+02 -0.40182597031E+01  0.96184034677E+02  0.91766054013E+02 0.  0.
         11    1    3    3    0    0  0.29665674382E+02  0.80248279957E+01  0.40169427571E+02  0.50577000826E+02  0.51100000000E-03 0.  1.
         22    1    1    0    0    0 -0.22881535643E+02 -0.17048424358E+02  0.40182597031E+01  0.28815965323E+02  0.00000000000E+00 0. -1.
</event>
<event>
 5    1  0.1691145E-003  0.9118800E+02  0.7818608E-02  0.1130116E+00
         25   -1    0    0    0    0  0.00000000000E+00  0.00000000000E+00  0.99999998245E-14  0.12500000000E+03  0.12500000000E+03 0.  0.
        -11    1    3    3    0    0  0.23550205076E+02  0.25269901199E+02  0.10361522394E+01  0.34557975599E+02  0.51100000000E-03 0. -1.
         23    2    1    0    0    0 -0.19341719915E+02 -0.16037091132E+02  0.15021693830E+02  0.95726433310E+02  0.91140596484E+02 0.  0.
         11    1    3    3    0    0 -0.42891924991E+02 -0.41306992331E+02  0.13985541591E+02  0.61168457711E+02  0.51100000000E-03 0.  1.
         22    1    1    0    0    0  0.19341719915E+02  0.16037091132E+02 -0.15021693830E+02  0.29273566690E+02  0.00000000000E+00 0.  1.
</event>
<event>
 5    1  0.1691145E-003  0.9118800E+02  0.7818608E-02  0.1130116E+00
         25   -1    0    0    0    0  0.00000000000E+00  0.00000000000E+00  0.99999998245E-14  0.12500000000E+03  0.12500000000E+03 0.  0.
        -11    1    3    3    0    0 -0.35151811892E+02 -0.44064973273E+02  0.43844671241E+01  0.56538440915E+02  0.51100000000E-03 0. -1.
         23    2    1    0    0    0 -0.11915975524E+02 -0.11764455537E+02  0.19674067950E+02  0.99164717217E+02  0.95740165574E+02 0.  0.
         11    1    3    3    0    0  0.23235836368E+02  0.32300517736E+02  0.15289600826E+02  0.42626276302E+02  0.51100000000E-03 0.  1.
         22    1    1    0    0    0  0.11915975524E+02  0.11764455537E+02 -0.19674067950E+02  0.25835282783E+02  0.00000000000E+00 0. -1.
</event>
<event>
 5    1  0.1691145E-003  0.9118800E+02  0.7818608E-02  0.1130116E+00
         25   -1    0    0    0    0  0.00000000000E+00  0.00000000000E+00  0.99999998245E-14  0.12500000000E+03  0.12500000000E+03 0.  0.
        -11    1    3    3    0    0  0.12302781499E+02 -0.15549934130E+02 -0.54256387819E+02  0.57766032437E+02  0.51100000000E-03 0.  1.
         23    2    1    0    0    0 -0.10793215311E+02 -0.11321349212E+02 -0.27489844721E+02  0.93371563309E+02  0.87851527176E+02 0.  0.
         11    1    3    3    0    0 -0.23095996809E+02  0.42285849180E+01  0.26766543097E+02  0.35605530872E+02  0.51100000000E-03 0. -1.
         22    1    1    0    0    0  0.10793215311E+02  0.11321349212E+02  0.27489844721E+02  0.31628436691E+02  0.00000000000E+00 0.  1.
</event>
<event>
 5    1  0.1691145E-003  0.9118800E+02  0.7818608E-02  0.1130116E+00
         25   -1    0    0    0    0  0.00000000000E+00  0.00000000000E+00  0.99999998245E-14  0.12500000000E+03  0.12500000000E+03 0.  0.
        -11    1    3    3    0    0  0.48348853891E+01  0.42903651219E+02  0.17017689808E+02  0.46407986073E+02  0.51100000000E-03 0.  1.
         23    2    1    0    0    0 -0.25471010613E+02  0.12115224982E+02 -0.71395330737E+01  0.95904914668E+02  0.91385057131E+02 0.  0.
         11    1    3    3    0    0 -0.30305896002E+02 -0.30788426238E+02 -0.24157222882E+02  0.49496928595E+02  0.51100000000E-03 0. -1.
         22    1    1    0    0    0  0.25471010613E+02 -0.12115224982E+02  0.71395330737E+01  0.29095085332E+02  0.00000000000E+00 0. -1.
</event>
<event>
 5    1  0.1691145E-003  0.9118800E+02  0.7818608E-02  0.1130116E+00
         25   -1    0    0    0    0  0.00000000000E+00  0.00000000000E+00  0.99999998245E-14  0.12500000000E+03  0.12500000000E+03 0.  0.
        -11    1    3    3    0    0  0.19185885745E+02 -0.34052639876E+02  0.40489390670E+01  0.39294712140E+02  0.51100000000E-03 0. -1.
         23    2    1    0    0    0 -0.28402260180E+02 -0.67895571231E+01 -0.63470173406E+01  0.95115704820E+02  0.90299093046E+02 0.  0.
         11    1    3    3    0    0 -0.47588145926E+02  0.27263082753E+02 -0.10395956408E+02  0.55820992680E+02  0.51100000000E-03 0.  1.
         22    1    1    0    0    0  0.28402260180E+02  0.67895571231E+01  0.63470173406E+01  0.29884295180E+02  0.00000000000E+00 0.  1.
</event>
<event>
 5    1  0.1691145E-003  0.9118800E+02  0.7818608E-02  0.1130116E+00
         25   -1    0    0    0    0  0.00000000000E+00  0.00000000000E+00  0.99999998245E-14  0.12500000000E+03  0.12500000000E+03 0.  0.
        -11    1    3    3    0    0  0.53552612486E+00  0.16587074889E+02  0.37641208156E+02  0.41137311450E+02  0.51100000000E-03 0.  1.
         23    2    1    0    0    0 -0.47660768096E+01  0.24054192054E+02 -0.16107827331E+02  0.95660917791E+02  0.91050697129E+02 0.  0.
         11    1    3    3    0    0 -0.53016029345E+01  0.74671171648E+01 -0.53749035487E+02  0.54523606341E+02  0.51100000000E-03 0. -1.
         22    1    1    0    0    0  0.47660768096E+01 -0.24054192054E+02  0.16107827331E+02  0.29339082209E+02  0.00000000000E+00 0. -1.
</event>
<event>
 5    1  0.1691145E-003  0.9118800E+02  0.7818608E-02  0.1130116E+00
         25   -1    0    0    0    0  0.00000000000E+00  0.00000000000E+00  0.99999998245E-14  0.12500000000E+03  0.12500000000E+03 0.  0.
        -11    1    3    3    0    0  0.47835717366E+02  0.26867311864E+02 -0.26332973252E+02  0.60856665890E+02  0.51100000000E-03 0. -1.
         23    2    1    0    0    0  0.18396563355E+02  0.95936612143E+01 -0.21135352405E+02  0.95382859691E+02  0.90668158263E+02 0.  0.
         11    1    3    3    0    0 -0.29439154011E+02 -0.17273650650E+02  0.51976208473E+01  0.34526193801E+02  0.51100000000E-03 0.  1.
         22    1    1    0    0    0 -0.18396563355E+02 -0.95936612143E+01  0.21135352405E+02  0.29617140309E+02  0.00000000000E+00 0. -1.
</event>
<event>
 5    1  0.1691145E-003  0.9118800E+02  0.7818608E-02  0.1130116E+00
         25   -1    0    0    0    0  0.00000000000E+00  0.00000000000E+00  0.99999998245E-14  0.12500000000E+03  0.12500000000E+03 0.  0.
        -11    1    3    3    0    0  0.15139677943E+02 -0.11655911335E+02  0.37650711642E+02  0.42221395106E+02  0.51100000000E-03 0. -1.
         23    2    1    0    0    0  0.14302201896E+00 -0.26230037232E+02 -0.12043896136E+02  0.96136688641E+02  0.91701538483E+02 0.  0.
         11    1    3    3    0    0 -0.14996655924E+02 -0.14574125897E+02 -0.49694607777E+02  0.53915293535E+02  0.51100000000E-03 0.  1.
         22    1    1    0    0    0 -0.14302201896E+00  0.26230037232E+02  0.12043896136E+02  0.28863311359E+02  0.00000000000E+00 0. -1.
</event>
<event>
 5    1  0.1691145E-003  0.9118800E+02  0.7818608E-02  0.1130116E+00
         25   -1    0    0    0    0  0.00000000000E+00  0.00000000000E+00  0.99999998245E-14  0.12500000000E+03  0.12500000000E+03 0.  0.
        -11    1    3    3    0    0  0.61860433071E+01  0.16426684331E+02  0.35602966043E+02  0.39694763902E+02  0.51100000000E-03 0.  1.
         23    2    1    0    0    0 -0.17835505429E+02 -0.22916518273E+02  0.37649594551E+01  0.95717804328E+02  0.91128761003E+02 0.  0.
         11    1    3    3    0    0 -0.24021548736E+02 -0.39343202604E+02 -0.31838006588E+02  0.56023040426E+02  0.51100000000E-03 0. -1.
         22    1    1    0    0    0  0.17835505429E+02  0.22916518273E+02 -0.37649594551E+01  0.29282195672E+02  0.00000000000E+00 0. -1.
</event>
<event>
 5    1  0.1691145E-003  0.9118800E+02  0.7818608E-02  0.1130116E+00
         25   -1    0    0    0    0  0.00000000000E+00  0.00000000000E+00  0.99999998245E-14  0.12500000000E+03  0.12500000000E+03 0.  0.
        -11    1    3    3    0    0 -0.15537758370E+02 -0.25581633032E+02  0.26167637840E+02  0.39756598876E+02  0.51100000000E-03 0. -1.
         23    2    1    0    0    0  0.26733832255E+02 -0.12977559371E+02 -0.64175723321E+01  0.94597696322E+02  0.89579149809E+02 0.  0.
         11    1    3    3    0    0  0.42271590626E+02  0.12604073661E+02 -0.32585210172E+02  0.54841097446E+02  0.51100000000E-03 0.  1.
         22    1    1    0    0    0 -0.26733832255E+02  0.12977559371E+02  0.64175723321E+01  0.30402303678E+02  0.00000000000E+00 0.  1.
</event>
<event>
 5    1  0.1691145E-003  0.9118800E+02  0.7818608E-02  0.1130116E+00
         25   -1    0    0    0    0  0.00000000000E+00  0.00000000000E+00  0.99999998245E-14  0.12500000000E+03  0.12500000000E+03 0.  0.
        -11    1    3    3    0    0  0.30178524673E+02  0.37729357498E+02  0.32586189725E+02  0.58276131733E+02  0.51100000000E-03 0.  1.
         23    2    1    0    0    0  0.97988413978E+01  0.80783680344E+01  0.27624806738E+02  0.94595933329E+02  0.89576689669E+02 0.  0.
         11    1    3    3    0    0 -0.20379683275E+02 -0.29650989464E+02 -0.49613829868E+01  0.36319801596E+02  0.51100000000E-03 0. -1.
         22    1    1    0    0    0 -0.97988413978E+01 -0.80783680344E+01 -0.27624806738E+02  0.30404066671E+02  0.00000000000E+00 0.  1.
</event>
<event>
 5    1  0.1691145E-003  0.9118800E+02  0.7818608E-02  0.1130116E+00
         25   -1    0    0    0    0  0.00000000000E+00  0.00000000000E+00  0.99999998245E-14  0.12500000000E+03  0.12500000000E+03 0.  0.
        -11    1    3    3    0    0 -0.40397620124E+02 -0.83706722094E+01 -0.81610376256E+01  0.42055182800E+02  0.51100000000E-03 0.  1.
         23    2    1    0    0    0  0.62859823251E+01  0.12025755405E+02 -0.25702516042E+02  0.95935387535E+02  0.91426729592E+02 0.  0.
         11    1    3    3    0    0  0.46683602449E+02  0.20396427615E+02 -0.17541478416E+02  0.53880204736E+02  0.51100000000E-03 0. -1.
         22    1    1    0    0    0 -0.62859823251E+01 -0.12025755405E+02  0.25702516042E+02  0.29064612465E+02  0.00000000000E+00 0. -1.
</event>
<event>
 5    1  0.1691145E-003  0.9118800E+02  0.7818608E-02  0.1130116E+00
         25   -1    0    0    0    0  0.00000000000E+00  0.00000000000E+00  0.99999998245E-14  0.12500000000E+03  0.12500000000E+03 0.  0.
        -11    1    3    3    0    0 -0.19893478932E+02  0.12719726553E+02 -0.29170150326E+02  0.37529183549E+02  0.51100000000E-03 0.  1.
         23    2    1    0    0    0 -0.13952214673E+02  0.27745668367E+02  0.19173727980E+02  0.88501804811E+02  0.80625375675E+02 0.  0.
         11    1    3    3    0    0  0.59412642592E+01  0.15025941814E+02  0.48343878305E+02  0.50972621262E+02  0.51100000000E-03 0. -1.
         22    1    1    0    0    0  0.13952214673E+02 -0.27745668367E+02 -0.19173727980E+02  0.36498195189E+02  0.00000000000E+00 0.  1.
</event>
<event>
 5    1  0.1691145E-003  0.9118800E+02  0.7818608E-02  0.1130116E+00
         25   -1    0    0    0    0  0.00000000000E+00  0.00000000000E+00  0.99999998245E-14  0.12500000000E+03  0.12500000000E+03 0.  0.
        -11    1    3    3    0    0 -0.12099167926E+02 -0.50664572189E+02  0.20269313970E+02  0.55893951629E+02  0.51100000000E-03 0. -1.
         23    2    1    0    0    0  0.14867158789E+02 -0.20806931384E+02  0.10888769457E+02  0.97205646179E+02  0.93147257312E+02 0.  0.
         11    1    3    3    0    0  0.26966326715E+02  0.29857640805E+02 -0.93805445132E+01  0.41311694550E+02  0.51100000000E-03 0.  1.
         22    1    1    0    0    0 -0.14867158789E+02  0.20806931384E+02 -0.10888769457E+02  0.27794353821E+02  0.00000000000E+00 0. -1.
</event>
<event>
 5    1  0.1691145E-003  0.9118800E+02  0.7818608E-02  0.1130116E+00
         25   -1    0    0    0    0  0.00000000000E+00  0.00000000000E+00  0.99999998245E-14  0.12500000000E+03  0.12500000000E+03 0.  0.
        -11    1    3    3    0    0 -0.42182316759E+00 -0.26974417251E+02  0.45919684629E+02  0.53257999939E+02  0.51100000000E-03 0.  1.
         23    2    1    0    0    0 -0.13486259684E+02 -0.25834691686E+02  0.60411019261E+01  0.95237516783E+02  0.90467558803E+02 0.  0.
         11    1    3    3    0    0 -0.13064436516E+02  0.11397255648E+01 -0.39878582703E+02  0.41979516844E+02  0.51100000000E-03 0. -1.
         22    1    1    0    0    0  0.13486259684E+02  0.25834691686E+02 -0.60411019261E+01  0.29762483217E+02  0.00000000000E+00 0.  1.
</event>
<event>
 5    1  0.1691145E-003  0.9118800E+02  0.7818608E-02  0.1130116E+00
         25   -1    0    0    0    0  0.00000000000E+00  0.00000000000E+00  0.99999998245E-14  0.12500000000E+03  0.12500000000E+03 0.  0.
        -11    1    3    3    0    0 -0.24055783321E+02 -0.19957139311E+02  0.35445134551E+02  0.47258075334E+02  0.51100000000E-03 0.  1.
         23    2    1    0    0    0 -0.23497717464E+02 -0.10733085843E+02 -0.12652198684E+02  0.96235091009E+02  0.91835574546E+02 0.  0.
         11    1    3    3    0    0  0.55806585706E+00  0.92240534677E+01 -0.48097333235E+02  0.48977015675E+02  0.51100000000E-03 0. -1.
         22    1    1    0    0    0  0.23497717464E+02  0.10733085843E+02  0.12652198684E+02  0.28764908991E+02  0.00000000000E+00 0. -1.
</event>
<event>
 5    1  0.1691145E-003  0.9118800E+02  0.7818608E-02  0.1130116E+00
         25   -1    0    0    0    0  0.00000000000E+00  0.00000000000E+00  0.99999998245E-14  0.12500000000E+03  0.12500000000E+03 0.  0.
        -11    1    3    3    0    0  0.13526132741E+02 -0.29572223517E+02  0.16984332652E+02  0.36687058026E+02  0.51100000000E-03 0.  1.
         23    2    1    0    0    0 -0.23817842254E+02  0.15282293258E+02  0.55125017058E+01  0.96169013685E+02  0.91745590745E+02 0.  0.
         11    1    3    3    0    0 -0.37343974994E+02  0.44854516775E+02 -0.11471830946E+02  0.59481955659E+02  0.51100000000E-03 0. -1.
         22    1    1    0    0    0  0.23817842254E+02 -0.15282293258E+02 -0.55125017058E+01  0.28830986315E+02  0.00000000000E+00 0. -1.
</event>
<event>
 5    1  0.1691145E-003  0.9118800E+02  0.7818608E-02  0.1130116E+00
         25   -1    0    0    0    0  0.00000000000E+00  0.00000000000E+00  0.99999998245E-14  0.12500000000E+03  0.12500000000E+03 0.  0.
        -11    1    3    3    0    0 -0.22830969196E+02  0.97125178589E+01  0.46197792514E+02  0.52438747039E+02  0.51100000000E-03 0. -1.
         23    2    1    0    0    0  0.65418379437E+01 -0.13419026015E+02  0.26217028794E+02  0.94830503788E+02  0.89903425670E+02 0.  0.
         11    1    3    3    0    0  0.29372807140E+02 -0.23131543874E+02 -0.19980763720E+02  0.42391756750E+02  0.51100000000E-03 0.  1.
         22    1    1    0    0    0 -0.65418379437E+01  0.13419026015E+02 -0.26217028794E+02  0.30169496212E+02  0.00000000000E+00 0.  1.
</event>
<event>
 5    1  0.1691145E-003  0.9118800E+02  0.7818608E-02  0.1130116E+00
         25   -1    0    0    0    0  0.00000000000E+00  0.00000000000E+00  0.99999998245E-14  0.12500000000E+03  0.12500000000E+03 0.  0.
        -11    1    3    3    0    0  0.10408072577E+02  0.50435727292E+02  0.31830732980E+02  0.60541606557E+02  0.51100000000E-03 0.  1.
         23    2    1    0    0    0 -0.33854497296E+01  0.28348405247E+02  0.93076426334E+01  0.94971254417E+02  0.90098910117E+02 0.  0.
         11    1    3    3    0    0 -0.13793522307E+02 -0.22087322045E+02 -0.22523090347E+02  0.34429647860E+02  0.51100000000E-03 0. -1.
         22    1    1    0    0    0  0.33854497296E+01 -0.28348405247E+02 -0.93076426334E+01  0.30028745583E+02  0.00000000000E+00 0.  1.
</event>
<event>
 5    1  0.1691145E-003  0.9118800E+02  0.7818608E-02  0.1130116E+00
         25   -1    0    0    0    0  0.00000000000E+00  0.00000000000E+00  0.99999998245E-14  0.12500000000E+03  0.12500000000E+03 0.  0.
        -11    1    3    3    0    0  0.27168853635E+02  0.28750387659E+02 -0.22331980368E+02  0.45425199458E+02  0.51100000000E-03 0.  1.
         23    2    1    0    0    0 -0.13828677790E+02  0.24248276939E+02  0.72241183348E+01  0.96166007046E+02  0.91741494219E+02 0.  0.
         11    1    3    3    0    0 -0.40997531425E+02 -0.45021107199E+01  0.29556098703E+02  0.50740807588E+02  0.51100000000E-03 0. -1.
         22    1    1    0    0    0  0.13828677790E+02 -0.24248276939E+02 -0.72241183348E+01  0.28833992954E+02  0.00000000000E+00 0.  1.
</event>
<event>
 5    1  0.1691145E-003  0.9118800E+02  0.7818608E-02  0.1130116E+00
         25   -1    0    0    0    0  0.00000000000E+00  0.00000000000E+00  0.99999998245E-14  0.12500000000E+03  0.12500000000E+03 0.  0.
        -11    1    3    3    0    0  0.13122573408E+02  0.25152639755E+02  0.33599287095E+02  0.43974643978E+02  0.51100000000E-03 0. -1.
         23    2    1    0    0    0 -0.10975769169E+01 -0.21688869949E+02  0.21587478118E+02  0.94379239620E+02  0.89273791815E+02 0.  0.
         11    1    3    3    0    0 -0.14220150324E+02 -0.46841509704E+02 -0.12011808977E+02  0.50404595642E+02  0.51100000000E-03 0.  1.
         22    1    1    0    0    0  0.10975769169E+01  0.21688869949E+02 -0.21587478118E+02  0.30620760380E+02  0.00000000000E+00 0.  1.
</event>
<event>
 5    1  0.1691145E-003  0.9118800E+02  0.7818608E-02  0.1130116E+00
         25   -1    0    0    0    0  0.00000000000E+00  0.00000000000E+00  0.99999998245E-14  0.12500000000E+03  0.12500000000E+03 0.  0.
        -11    1    3    3    0    0  0.15026840567E+01  0.49731635785E+02 -0.14079547969E+02  0.51708097320E+02  0.51100000000E-03 0.  1.
         23    2    1    0    0    0  0.42884652891E+01  0.93477328567E+01 -0.28516695216E+02  0.94685433367E+02  0.89701495761E+02 0.  0.
         11    1    3    3    0    0  0.27857812325E+01 -0.40383902928E+02 -0.14437147247E+02  0.42977336047E+02  0.51100000000E-03 0. -1.
         22    1    1    0    0    0 -0.42884652891E+01 -0.93477328567E+01  0.28516695216E+02  0.30314566633E+02  0.00000000000E+00 0. -1.
</event>
<event>
 5    1  0.1691145E-003  0.9118800E+02  0.7818608E-02  0.1130116E+00
         25   -1    0    0    0    0  0.00000000000E+00  0.00000000000E+00  0.99999998245E-14  0.12500000000E+03  0.12500000000E+03 0.  0.
        -11    1    3    3    0    0 -0.10345723942E+02  0.28913866734E+02  0.46705026924E+02  0.55896379432E+02  0.51100000000E-03 0. -1.
         23    2    1    0    0    0  0.13098796958E+02  0.45509887410E+01  0.25971501030E+02  0.95558382415E+02  0.90909821272E+02 0.  0.
         11    1    3    3    0    0  0.23444520900E+02 -0.24362877993E+02 -0.20733525894E+02  0.39662002983E+02  0.51100000000E-03 0.  1.
         22    1    1    0    0    0 -0.13098796958E+02 -0.45509887410E+01 -0.25971501030E+02  0.29441617585E+02  0.00000000000E+00 0. -1.
</event>
<event>
 5    1  0.1691145E-003  0.9118800E+02  0.7818608E-02  0.1130116E+00
         25   -1    0    0    0    0  0.00000000000E+00  0.00000000000E+00  0.99999998245E-14  0.12500000000E+03  0.12500000000E+03 0.  0.
        -11    1    3    3    0    0  0.14501127693E+02 -0.24888108917E+02  0.30394173584E+02  0.41874890542E+02  0.51100000000E-03 0. -1.
         23    2    1    0    0    0  0.23766574241E+02 -0.29684788407E+02 -0.11677209059E+02  0.85220684705E+02  0.75366910354E+02 0.  0.
         11    1    3    3    0    0  0.92654465482E+01 -0.47966794894E+01 -0.42071382643E+02  0.43345794163E+02  0.51100000000E-03 0.  1.
         22    1    1    0    0    0 -0.23766574241E+02  0.29684788407E+02  0.11677209059E+02  0.39779315295E+02  0.00000000000E+00 0. -1.
</event>
<event>
 5    1  0.1691145E-003  0.9118800E+02  0.7818608E-02  0.1130116E+00
         25   -1    0    0    0    0  0.00000000000E+00  0.00000000000E+00  0.99999998245E-14  0.12500000000E+03  0.12500000000E+03 0.  0.
        -11    1    3    3    0    0 -0.49373684402E+01 -0.38062225187E+02 -0.24239372269E+02  0.45394468402E+02  0.51100000000E-03 0. -1.
         23    2    1    0    0    0 -0.27557453816E+02  0.42025129810E+01 -0.96007581655E+01  0.95516972110E+02  0.90852864718E+02 0.  0.
         11    1    3    3    0    0 -0.22620085376E+02  0.42264738168E+02  0.14638614103E+02  0.50122503708E+02  0.51100000000E-03 0.  1.
         22    1    1    0    0    0  0.27557453816E+02 -0.42025129810E+01  0.96007581655E+01  0.29483027890E+02  0.00000000000E+00 0. -1.
</event>
<event>
 5    1  0.1691145E-003  0.9118800E+02  0.7818608E-02  0.1130116E+00
         25   -1    0    0    0    0  0.00000000000E+00  0.00000000000E+00  0.99999998245E-14  0.12500000000E+03  0.12500000000E+03 0.  0.
        -11    1    3    3    0    0 -0.95570870308E+01  0.30080369368E+02  0.20455243000E+02  0.37610949207E+02  0.51100000000E-03 0.  1.
         23    2    1    0    0    0  0.22447291582E+02  0.29611593695E+01 -0.19182537432E+02  0.95324772848E+02  0.90588041220E+02 0.  0.
         11    1    3    3    0    0  0.32004378613E+02 -0.27119209998E+02 -0.39637780432E+02  0.57713823641E+02  0.51100000000E-03 0. -1.
         22    1    1    0    0    0 -0.22447291582E+02 -0.29611593695E+01  0.19182537432E+02  0.29675227152E+02  0.00000000000E+00 0. -1.
</event>
<event>
 5    1  0.1691145E-003  0.9118800E+02  0.7818608E-02  0.1130116E+00
         25   -1    0    0    0    0  0.00000000000E+00  0.00000000000E+00  0.99999998245E-14  0.12500000000E+03  0.12500000000E+03 0.  0.
        -11    1    3    3    0    0  0.15000158495E+02 -0.27607028700E+02  0.22694807222E+02  0.38758316058E+02  0.51100000000E-03 0.  1.
         23    2    1    0    0    0  0.67150219050E+01  0.27073251944E+02  0.80091259026E+01  0.95979342052E+02  0.91486805130E+02 0.  0.
         11    1    3    3    0    0 -0.82851365899E+01  0.54680280645E+02 -0.14685681319E+02  0.57221025994E+02  0.51100000000E-03 0. -1.
         22    1    1    0    0    0 -0.67150219050E+01 -0.27073251944E+02 -0.80091259026E+01  0.29020657948E+02  0.00000000000E+00 0. -1.
</event>
<event>
 5    1  0.1691145E-003  0.9118800E+02  0.7818608E-02  0.1130116E+00
         25   -1    0    0    0    0  0.00000000000E+00  0.00000000000E+00  0.99999998245E-14  0.12500000000E+03  0.12500000000E+03 0.  0.
        -11    1    3    3    0    0 -0.40230134148E+02 -0.69042533743E+01 -0.10996583935E+02  0.42273600116E+02  0.51100000000E-03 0. -1.
         23    2    1    0    0    0  0.61064412634E+01 -0.28816509318E+02 -0.11075790244E+02  0.93530126094E+02  0.88076850099E+02 0.  0.
         11    1    3    3    0    0  0.46336575412E+02 -0.21912255944E+02 -0.79206308663E-01  0.51256525978E+02  0.51100000000E-03 0.  1.
         22    1    1    0    0    0 -0.61064412634E+01  0.28816509318E+02  0.11075790244E+02  0.31469873906E+02  0.00000000000E+00 0.  1.
</event>
<event>
 5    1  0.1691145E-003  0.9118800E+02  0.7818608E-02  0.1130116E+00
         25   -1    0    0    0    0  0.00000000000E+00  0.00000000000E+00  0.99999998245E-14  0.12500000000E+03  0.12500000000E+03 0.  0.
        -11    1    3    3    0    0  0.53830090828E+02  0.15716654942E+02  0.30085608183E+00  0.56078359781E+02  0.51100000000E-03 0. -1.
         23    2    1    0    0    0  0.21932869099E+02  0.44307887867E+01  0.19792830090E+02  0.95126286485E+02  0.90313739937E+02 0.  0.
         11    1    3    3    0    0 -0.31897221729E+02 -0.11285866156E+02  0.19491974008E+02  0.39047926704E+02  0.51100000000E-03 0.  1.
         22    1    1    0    0    0 -0.21932869099E+02 -0.44307887867E+01 -0.19792830090E+02  0.29873713515E+02  0.00000000000E+00 0. -1.
</event>
<event>
 5    1  0.1691145E-003  0.9118800E+02  0.7818608E-02  0.1130116E+00
         25   -1    0    0    0    0  0.00000000000E+00  0.00000000000E+00  0.99999998245E-14  0.12500000000E+03  0.12500000000E+03 0.  0.
        -11    1    3    3    0    0 -0.24801534798E+02 -0.20687927405E+02  0.13489252104E+02  0.35000948434E+02  0.51100000000E-03 0. -1.
         23    2    1    0    0    0  0.75629057745E+01  0.28836576324E+02  0.51123879646E+01  0.94752980502E+02  0.89795574086E+02 0.  0.
         11    1    3    3    0    0  0.32364440573E+02  0.49524503729E+02 -0.83768641399E+01  0.59752032068E+02  0.51100000000E-03 0.  1.
         22    1    1    0    0    0 -0.75629057745E+01 -0.28836576324E+02 -0.51123879646E+01  0.30247019498E+02  0.00000000000E+00 0.  1.
</event>
<event>
 5    1  0.1691145E-003  0.9118800E+02  0.7818608E-02  0.1130116E+00
         25   -1    0    0    0    0  0.00000000000E+00  0.00000000000E+00  0.99999998245E-14  0.12500000000E+03  0.12500000000E+03 0.  0.
        -11    1    3    3    0    0  0.42236008257E+00 -0.27272062212E+02  0.37113428424E+02  0.46058119100E+02  0.51100000000E-03 0.  1.
         23    2    1    0    0    0 -0.18626725663E+02  0.14167089565E+02  0.17850387457E+02  0.95567064910E+02  0.90921758823E+02 0.  0.
         11    1    3    3    0    0 -0.19049085745E+02  0.41439151777E+02 -0.19263040967E+02  0.49508945810E+02  0.51100000000E-03 0. -1.
         22    1    1    0    0    0  0.18626725663E+02 -0.14167089565E+02 -0.17850387457E+02  0.29432935090E+02  0.00000000000E+00 0. -1.
</event>
<event>
 5    1  0.1691145E-003  0.9118800E+02  0.7818608E-02  0.1130116E+00
         25   -1    0    0    0    0  0.00000000000E+00  0.00000000000E+00  0.99999998245E-14  0.12500000000E+03  0.12500000000E+03 0.  0.
        -11    1    3    3    0    0 -0.27133346510E+02  0.15609286460E+02  0.93276247890E+01  0.32663020392E+02  0.51100000000E-03 0.  1.
         23    2    1    0    0    0  0.26928515916E+02 -0.79448094744E+01 -0.10718879577E+02  0.94947390356E+02  0.90065795888E+02 0.  0.
         11    1    3    3    0    0  0.54061862426E+02 -0.23554095935E+02 -0.20046504366E+02  0.62284369964E+02  0.51100000000E-03 0. -1.
         22    1    1    0    0    0 -0.26928515916E+02  0.79448094744E+01  0.10718879577E+02  0.30052609644E+02  0.00000000000E+00 0. -1.
</event>
<event>
 5    1  0.1691145E-003  0.9118800E+02  0.7818608E-02  0.1130116E+00
         25   -1    0    0    0    0  0.00000000000E+00  0.00000000000E+00  0.99999998245E-14  0.12500000000E+03  0.12500000000E+03 0.  0.
        -11    1    3    3    0    0  0.77927211117E+01 -0.36084615409E+02  0.20027359931E+02  0.41999060913E+02  0.51100000000E-03 0.  1.
         23    2    1    0    0    0 -0.23065533942E+02  0.67058556393E+01 -0.51156853501E+01  0.10044073306E+03  0.97391905546E+02 0.  0.
         11    1    3    3    0    0 -0.30858255053E+02  0.42790471048E+02 -0.25143045281E+02  0.58441672150E+02  0.51100000000E-03 0. -1.
         22    1    1    0    0    0  0.23065533942E+02 -0.67058556393E+01  0.51156853501E+01  0.24559266937E+02  0.00000000000E+00 0. -1.
</event>
<event>
 5    1  0.1691145E-003  0.9118800E+02  0.7818608E-02  0.1130116E+00
         25   -1    0    0    0    0  0.00000000000E+00  0.00000000000E+00  0.99999998245E-14  0.12500000000E+03  0.12500000000E+03 0.  0.
        -11    1    3    3    0    0  0.36754148577E+01 -0.29382724857E+02 -0.12112910427E+02  0.31993371089E+02  0.51100000000E-03 0.  1.
         23    2    1    0    0    0  0.89274426689E+01  0.16767034607E+02  0.26500125541E+02  0.92394949228E+02  0.86450779679E+02 0.  0.
         11    1    3    3    0    0  0.52520278112E+01  0.46149759464E+02  0.38613035968E+02  0.60401578139E+02  0.51100000000E-03 0. -1.
         22    1    1    0    0    0 -0.89274426689E+01 -0.16767034607E+02 -0.26500125541E+02  0.32605050772E+02  0.00000000000E+00 0. -1.
</event>
<event>
 5    1  0.1691145E-003  0.9118800E+02  0.7818608E-02  0.1130116E+00
         25   -1    0    0    0    0  0.00000000000E+00  0.00000000000E+00  0.99999998245E-14  0.12500000000E+03  0.12500000000E+03 0.  0.
        -11    1    3    3    0    0  0.46447917172E+01 -0.38212945982E+02  0.17737633088E+01  0.38535043366E+02  0.51100000000E-03 0. -1.
         23    2    1    0    0    0  0.10387518166E+02  0.12734429690E+02 -0.23995240699E+02  0.95916709103E+02  0.91401188591E+02 0.  0.
         11    1    3    3    0    0  0.57427264487E+01  0.50947375672E+02 -0.25769004008E+02  0.57381665737E+02  0.51100000000E-03 0.  1.
         22    1    1    0    0    0 -0.10387518166E+02 -0.12734429690E+02  0.23995240699E+02  0.29083290897E+02  0.00000000000E+00 0.  1.
</event>
<event>
 5    1  0.1691145E-003  0.9118800E+02  0.7818608E-02  0.1130116E+00
         25   -1    0    0    0    0  0.00000000000E+00  0.00000000000E+00  0.99999998245E-14  0.12500000000E+03  0.12500000000E+03 0.  0.
        -11    1    3    3    0    0 -0.78892448122E+01  0.11148246018E+02  0.35053360049E+02  0.37619963104E+02  0.51100000000E-03 0. -1.
         23    2    1    0    0    0 -0.16130414404E+02 -0.22649626560E+02 -0.10794373602E+02  0.95171920048E+02  0.90376877641E+02 0.  0.
         11    1    3    3    0    0 -0.82411695919E+01 -0.33797872577E+02 -0.45847733651E+02  0.57551956945E+02  0.51100000000E-03 0.  1.
         22    1    1    0    0    0  0.16130414404E+02  0.22649626560E+02  0.10794373602E+02  0.29828079952E+02  0.00000000000E+00 0.  1.
</event>
<event>
 5    1  0.1691145E-003  0.9118800E+02  0.7818608E-02  0.1130116E+00
         25   -1    0    0    0    0  0.00000000000E+00  0.00000000000E+00  0.99999998245E-14  0.12500000000E+03  0.12500000000E+03 0.  0.
        -11    1    3    3    0    0  0.59619931623E+02 -0.50439629906E+01 -0.17094729312E+02  0.62227064689E+02  0.51100000000E-03 0.  1.
         23    2    1    0    0    0  0.25939375226E+02 -0.44184640845E+01 -0.11094818371E+02  0.96443582041E+02  0.92118920479E+02 0.  0.
         11    1    3    3    0    0 -0.33680556397E+02  0.62549890612E+00  0.59999109407E+01  0.34216517351E+02  0.51100000000E-03 0. -1.
         22    1    1    0    0    0 -0.25939375226E+02  0.44184640845E+01  0.11094818371E+02  0.28556417959E+02  0.00000000000E+00 0.  1.
</event>
<event>
 5    1  0.1691145E-003  0.9118800E+02  0.7818608E-02  0.1130116E+00
         25   -1    0    0    0    0  0.00000000000E+00  0.00000000000E+00  0.99999998245E-14  0.12500000000E+03  0.12500000000E+03 0.  0.
        -11    1    3    3    0    0  0.21468767400E+02 -0.19792295148E+02 -0.26303809350E+02  0.39300550982E+02  0.51100000000E-03 0.  1.
         23    2    1    0    0    0 -0.56893156831E+01 -0.15323775545E+02  0.23600576688E+02  0.96291575628E+02  0.91912425205E+02 0.  0.
         11    1    3    3    0    0 -0.27158083083E+02  0.44685196024E+01  0.49904386038E+02  0.56991024647E+02  0.51100000000E-03 0. -1.
         22    1    1    0    0    0  0.56893156831E+01  0.15323775545E+02 -0.23600576688E+02  0.28708424372E+02  0.00000000000E+00 0. -1.
</event>
<event>
 5    1  0.1691145E-003  0.9118800E+02  0.7818608E-02  0.1130116E+00
         25   -1    0    0    0    0  0.00000000000E+00  0.00000000000E+00  0.99999998245E-14  0.12500000000E+03  0.12500000000E+03 0.  0.
        -11    1    3    3    0    0 -0.14070920029E+02  0.24009044624E+02 -0.19103022600E+02  0.33754266204E+02  0.51100000000E-03 0. -1.
         23    2    1    0    0    0  0.23249873840E+01 -0.29283924805E+02  0.61866413913E+01  0.94979534480E+02  0.90110396848E+02 0.  0.
         11    1    3    3    0    0  0.16395907413E+02 -0.53292969429E+02  0.25289663991E+02  0.61225268277E+02  0.51100000000E-03 0.  1.
         22    1    1    0    0    0 -0.23249873840E+01  0.29283924805E+02 -0.61866413913E+01  0.30020465520E+02  0.00000000000E+00 0.  1.
</event>
<event>
 5    1  0.1691145E-003  0.9118800E+02  0.7818608E-02  0.1130116E+00
         25   -1    0    0    0    0  0.00000000000E+00  0.00000000000E+00  0.99999998245E-14  0.12500000000E+03  0.12500000000E+03 0.  0.
        -11    1    3    3    0    0  0.17552711632E+01  0.30439900343E+02  0.17205158418E+02  0.35009798431E+02  0.51100000000E-03 0.  1.
         23    2    1    0    0    0 -0.10279855316E+02 -0.25966377976E+02 -0.46512612708E+01  0.96688121893E+02  0.92450151289E+02 0.  0.
         11    1    3    3    0    0 -0.12035126480E+02 -0.56406278319E+02 -0.21856419689E+02  0.61678323462E+02  0.51100000000E-03 0. -1.
         22    1    1    0    0    0  0.10279855316E+02  0.25966377976E+02  0.46512612708E+01  0.28311878107E+02  0.00000000000E+00 0. -1.
</event>
<event>
 5    1  0.1691145E-003  0.9118800E+02  0.7818608E-02  0.1130116E+00
         25   -1    0    0    0    0  0.00000000000E+00  0.00000000000E+00  0.99999998245E-14  0.12500000000E+03  0.12500000000E+03 0.  0.
        -11    1    3    3    0    0  0.40214146864E+02  0.29778782664E+02 -0.62409535252E+01  0.50427205020E+02  0.51100000000E-03 0. -1.
         23    2    1    0    0    0 -0.10427616895E+02  0.19604185406E+02  0.18807014578E+01  0.10271555885E+03  0.10026908652E+03 0.  0.
         11    1    3    3    0    0 -0.50641763759E+02 -0.10174597259E+02  0.81216549830E+01  0.52288353827E+02  0.51100000000E-03 0.  1.
         22    1    1    0    0    0  0.10427616895E+02 -0.19604185406E+02 -0.18807014578E+01  0.22284441153E+02  0.00000000000E+00 0.  1.
</event>
<event>
 5    1  0.1691145E-003  0.9118800E+02  0.7818608E-02  0.1130116E+00
         25   -1    0    0    0    0  0.00000000000E+00  0.00000000000E+00  0.99999998245E-14  0.12500000000E+03  0.12500000000E+03 0.  0.
        -11    1    3    3    0    0 -0.36212202174E+02  0.50650831254E+00  0.10074289702E+02  0.37590842638E+02  0.51100000000E-03 0.  1.
         23    2    1    0    0    0  0.19867787044E+02 -0.10390520675E+02  0.19246547539E+02  0.95451371028E+02  0.90762562531E+02 0.  0.
         11    1    3    3    0    0  0.56079989218E+02 -0.10897028987E+02  0.91722578370E+01  0.57860528390E+02  0.51100000000E-03 0. -1.
         22    1    1    0    0    0 -0.19867787044E+02  0.10390520675E+02 -0.19246547539E+02  0.29548628972E+02  0.00000000000E+00 0. -1.
</event>
<event>
 5    1  0.1691145E-003  0.9118800E+02  0.7818608E-02  0.1130116E+00
         25   -1    0    0    0    0  0.00000000000E+00  0.00000000000E+00  0.99999998245E-14  0.12500000000E+03  0.12500000000E+03 0.  0.
        -11    1    3    3    0    0 -0.23202263745E+02  0.12733013794E+02 -0.44658930817E+02  0.51912376031E+02  0.51100000000E-03 0. -1.
         23    2    1    0    0    0 -0.29822042375E+02  0.35458450081E+01 -0.33073876176E+01  0.94786326918E+02  0.89841982000E+02 0.  0.
         11    1    3    3    0    0 -0.66197786298E+01 -0.91871687861E+01  0.41351543200E+02  0.42873950887E+02  0.51100000000E-03 0.  1.
         22    1    1    0    0    0  0.29822042375E+02 -0.35458450081E+01  0.33073876176E+01  0.30213673082E+02  0.00000000000E+00 0.  1.
</event>
<event>
 5    1  0.1691145E-003  0.9118800E+02  0.7818608E-02  0.1130116E+00
         25   -1    0    0    0    0  0.00000000000E+00  0.00000000000E+00  0.99999998245E-14  0.12500000000E+03  0.12500000000E+03 0.  0.
        -11    1    3    3    0    0  0.27130507703E+02  0.19583489238E+02  0.11125565954E+02  0.35261249510E+02  0.51100000000E-03 0. -1.
         23    2    1    0    0    0 -0.14001759156E+02  0.12550732658E+02 -0.27209083687E+02  0.91925774615E+02  0.85769712916E+02 0.  0.
         11    1    3    3    0    0 -0.41132266859E+02 -0.70327565796E+01 -0.38334649641E+02  0.56664525105E+02  0.51100000000E-03 0.  1.
         22    1    1    0    0    0  0.14001759156E+02 -0.12550732658E+02  0.27209083687E+02  0.33074225385E+02  0.00000000000E+00 0.  1.
</event>
<event>
 5    1  0.1691145E-003  0.9118800E+02  0.7818608E-02  0.1130116E+00
         25   -1    0    0    0    0  0.00000000000E+00  0.00000000000E+00  0.99999998245E-14  0.12500000000E+03  0.12500000000E+03 0.  0.
        -11    1    3    3    0    0  0.96096359069E+01 -0.33086888286E+02  0.41208370662E+00  0.34456597219E+02  0.51100000000E-03 0. -1.
         23    2    1    0    0    0 -0.27477233006E+02  0.54225494138E+01 -0.18800273840E+02  0.91267928135E+02  0.84805554263E+02 0.  0.
         11    1    3    3    0    0 -0.37086868913E+02  0.38509437700E+02 -0.19212357547E+02  0.56811330916E+02  0.51100000000E-03 0.  1.
         22    1    1    0    0    0  0.27477233006E+02 -0.54225494138E+01  0.18800273840E+02  0.33732071865E+02  0.00000000000E+00 0.  1.
</event>
<event>
 5    1  0.1691145E-003  0.9118800E+02  0.7818608E-02  0.1130116E+00
         25   -1    0    0    0    0  0.00000000000E+00  0.00000000000E+00  0.99999998245E-14  0.12500000000E+03  0.12500000000E+03 0.  0.
        -11    1    3    3    0    0  0.40204482856E+01  0.46374021849E+02 -0.18140958345E+02  0.49958065183E+02  0.51100000000E-03 0. -1.
         23    2    1    0    0    0  0.19085661058E+02  0.36766472356E+01 -0.22291142460E+02  0.95425091292E+02  0.90726362338E+02 0.  0.
         11    1    3    3    0    0  0.15065212772E+02 -0.42697374614E+02 -0.41501841150E+01  0.45467026109E+02  0.51100000000E-03 0.  1.
         22    1    1    0    0    0 -0.19085661058E+02 -0.36766472356E+01  0.22291142460E+02  0.29574908708E+02  0.00000000000E+00 0.  1.
</event>
<event>
 5    1  0.1691145E-003  0.9118800E+02  0.7818608E-02  0.1130116E+00
         25   -1    0    0    0    0  0.00000000000E+00  0.00000000000E+00  0.99999998245E-14  0.12500000000E+03  0.12500000000E+03 0.  0.
        -11    1    3    3    0    0 -0.55143324741E+02 -0.30768829647E+01 -0.24056243929E+01  0.55281466164E+02  0.51100000000E-03 0. -1.
         23    2    1    0    0    0 -0.24348875833E+02 -0.10355642123E+02 -0.20315120052E+02  0.91641175368E+02  0.85353932785E+02 0.  0.
         11    1    3    3    0    0  0.30794448907E+02 -0.72787591586E+01 -0.17909495659E+02  0.36359709204E+02  0.51100000000E-03 0.  1.
         22    1    1    0    0    0  0.24348875833E+02  0.10355642123E+02  0.20315120052E+02  0.33358824632E+02  0.00000000000E+00 0. -1.
</event>
<event>
 5    1  0.1691145E-003  0.9118800E+02  0.7818608E-02  0.1130116E+00
         25   -1    0    0    0    0  0.00000000000E+00  0.00000000000E+00  0.99999998245E-14  0.12500000000E+03  0.12500000000E+03 0.  0.
        -11    1    3    3    0    0 -0.20052157646E+01 -0.95880520780E+01  0.37443767896E+02  0.38703842024E+02  0.51100000000E-03 0. -1.
         23    2    1    0    0    0 -0.15357287628E+02  0.15371358290E+02 -0.15205181297E+02  0.98479772300E+02  0.94841673726E+02 0.  0.
         11    1    3    3    0    0 -0.13352071863E+02  0.24959410368E+02 -0.52648949193E+02  0.59775930276E+02  0.51100000000E-03 0.  1.
         22    1    1    0    0    0  0.15357287628E+02 -0.15371358290E+02  0.15205181297E+02  0.26520227700E+02  0.00000000000E+00 0.  1.
</event>
<event>
 5    1  0.1691145E-003  0.9118800E+02  0.7818608E-02  0.1130116E+00
         25   -1    0    0    0    0  0.00000000000E+00  0.00000000000E+00  0.99999998245E-14  0.12500000000E+03  0.12500000000E+03 0.  0.
        -11    1    3    3    0    0 -0.43346903226E+02  0.22955310870E+02  0.32639155859E+02  0.58917016318E+02  0.51100000000E-03 0.  1.
         23    2    1    0    0    0 -0.96833900258E+01  0.88403334516E+01  0.25806020252E+02  0.96054012036E+02  0.91588771195E+02 0.  0.
         11    1    3    3    0    0  0.33663513200E+02 -0.14114977418E+02 -0.68331356068E+01  0.37136995718E+02  0.51100000000E-03 0. -1.
         22    1    1    0    0    0  0.96833900258E+01 -0.88403334516E+01 -0.25806020252E+02  0.28945987964E+02  0.00000000000E+00 0.  1.
</event>
<event>
 5    1  0.1691145E-003  0.9118800E+02  0.7818608E-02  0.1130116E+00
         25   -1    0    0    0    0  0.00000000000E+00  0.00000000000E+00  0.99999998245E-14  0.12500000000E+03  0.12500000000E+03 0.  0.
        -11    1    3    3    0    0  0.11818048018E+02  0.74686776736E+01 -0.27101875134E+02  0.30495229810E+02  0.51100000000E-03 0.  1.
         23    2    1    0    0    0 -0.18324769188E+02 -0.20423348341E+02  0.18533105586E+02  0.91888275099E+02  0.85715044040E+02 0.  0.
         11    1    3    3    0    0 -0.30142817205E+02 -0.27892026014E+02  0.45634980720E+02  0.61393045289E+02  0.51100000000E-03 0. -1.
         22    1    1    0    0    0  0.18324769188E+02  0.20423348341E+02 -0.18533105586E+02  0.33111724901E+02  0.00000000000E+00 0. -1.
</event>
<event>
 5    1  0.1691145E-003  0.9118800E+02  0.7818608E-02  0.1130116E+00
         25   -1    0    0    0    0  0.00000000000E+00  0.00000000000E+00  0.99999998245E-14  0.12500000000E+03  0.12500000000E+03 0.  0.
        -11    1    3    3    0    0  0.31024935444E+01 -0.41676367845E+02 -0.58804976419E+01  0.42203380857E+02  0.51100000000E-03 0. -1.
         23    2    1    0    0    0 -0.27819626352E+02  0.15189869559E+01  0.56714297871E+01  0.96567552909E+02  0.92286988396E+02 0.  0.
         11    1    3    3    0    0 -0.30922119897E+02  0.43195354801E+02  0.11551927429E+02  0.54364172052E+02  0.51100000000E-03 0.  1.
         22    1    1    0    0    0  0.27819626352E+02 -0.15189869559E+01 -0.56714297871E+01  0.28432447091E+02  0.00000000000E+00 0.  1.
</event>
<event>
 5    1  0.1691145E-003  0.9118800E+02  0.7818608E-02  0.1130116E+00
         25   -1    0    0    0    0  0.00000000000E+00  0.00000000000E+00  0.99999998245E-14  0.12500000000E+03  0.12500000000E+03 0.  0.
        -11    1    3    3    0    0 -0.88883501280E+00 -0.26924378302E+02  0.38283057946E+02  0.46811373624E+02  0.51100000000E-03 0.  1.
         23    2    1    0    0    0 -0.27741383643E+02 -0.91258425470E+01  0.14287577256E+01  0.95761212111E+02  0.91188283390E+02 0.  0.
         11    1    3    3    0    0 -0.26852548630E+02  0.17798535755E+02 -0.36854300220E+02  0.48949838487E+02  0.51100000000E-03 0. -1.
         22    1    1    0    0    0  0.27741383643E+02  0.91258425470E+01 -0.14287577256E+01  0.29238787889E+02  0.00000000000E+00 0.  1.
</event>
<event>
 5    1  0.1691145E-003  0.9118800E+02  0.7818608E-02  0.1130116E+00
         25   -1    0    0    0    0  0.00000000000E+00  0.00000000000E+00  0.99999998245E-14  0.12500000000E+03  0.12500000000E+03 0.  0.
        -11    1    3    3    0    0 -0.51992687114E+02  0.23692299909E+00 -0.12786354039E+02  0.53542380370E+02  0.51100000000E-03 0.  1.
         23    2    1    0    0    0 -0.16332985766E+02  0.22732063341E+02 -0.73989740858E+01  0.96047315404E+02  0.91579631201E+02 0.  0.
         11    1    3    3    0    0  0.35659701347E+02  0.22495140342E+02  0.53873799533E+01  0.42504935034E+02  0.51100000000E-03 0. -1.
         22    1    1    0    0    0  0.16332985766E+02 -0.22732063341E+02  0.73989740858E+01  0.28952684596E+02  0.00000000000E+00 0.  1.
</event>
<event>
 5    1  0.1691145E-003  0.9118800E+02  0.7818608E-02  0.1130116E+00
         25   -1    0    0    0    0  0.00000000000E+00  0.00000000000E+00  0.99999998245E-14  0.12500000000E+03  0.12500000000E+03 0.  0.
        -11    1    3    3    0    0 -0.11645740302E+01  0.51256905150E+02 -0.25035943594E+02  0.57056332078E+02  0.51100000000E-03 0. -1.
         23    2    1    0    0    0  0.12545752629E+02  0.16523571702E+02 -0.22366325142E+02  0.94493003570E+02  0.89432940758E+02 0.  0.
         11    1    3    3    0    0  0.13710326659E+02 -0.34733333448E+02  0.26696184519E+01  0.37436671493E+02  0.51100000000E-03 0.  1.
         22    1    1    0    0    0 -0.12545752629E+02 -0.16523571702E+02  0.22366325142E+02  0.30506996430E+02  0.00000000000E+00 0. -1.
</event>
<event>
 5    1  0.1691145E-003  0.9118800E+02  0.7818608E-02  0.1130116E+00
         25   -1    0    0    0    0  0.00000000000E+00  0.00000000000E+00  0.99999998245E-14  0.12500000000E+03  0.12500000000E+03 0.  0.
        -11    1    3    3    0    0  0.34817511538E+01  0.30102444812E+02  0.24161828884E+02  0.38756596213E+02  0.51100000000E-03 0.  1.
         23    2    1    0    0    0  0.21074309863E+02 -0.92166415457E+01 -0.15461891156E+02  0.97284605439E+02  0.93253157371E+02 0.  0.
         11    1    3    3    0    0  0.17592558709E+02 -0.39319086357E+02 -0.39623720040E+02  0.58528009226E+02  0.51100000000E-03 0. -1.
         22    1    1    0    0    0 -0.21074309863E+02  0.92166415457E+01  0.15461891156E+02  0.27715394561E+02  0.00000000000E+00 0. -1.
</event>
<event>
 5    1  0.1691145E-003  0.9118800E+02  0.7818608E-02  0.1130116E+00
         25   -1    0    0    0    0  0.00000000000E+00  0.00000000000E+00  0.99999998245E-14  0.12500000000E+03  0.12500000000E+03 0.  0.
        -11    1    3    3    0    0 -0.47210683478E+02 -0.12793994356E+02 -0.27025431504E+02  0.55882992710E+02  0.51100000000E-03 0.  1.
         23    2    1    0    0    0 -0.17774972282E+02  0.13267878104E+02 -0.18511539289E+02  0.96109459751E+02  0.91664414784E+02 0.  0.
         11    1    3    3    0    0  0.29435711195E+02  0.26061872460E+02  0.85138922145E+01  0.40226467041E+02  0.51100000000E-03 0. -1.
         22    1    1    0    0    0  0.17774972282E+02 -0.13267878104E+02  0.18511539289E+02  0.28890540249E+02  0.00000000000E+00 0.  1.
</event>
<event>
 5    1  0.1691145E-003  0.9118800E+02  0.7818608E-02  0.1130116E+00
         25   -1    0    0    0    0  0.00000000000E+00  0.00000000000E+00  0.99999998245E-14  0.12500000000E+03  0.12500000000E+03 0.  0.
        -11    1    3    3    0    0 -0.23014117921E+02 -0.31138986334E+02 -0.48204663753E+02  0.61830216734E+02  0.51100000000E-03 0.  1.
         23    2    1    0    0    0 -0.81957498524E+01 -0.20012320832E+02 -0.20219660987E+02  0.95394291240E+02  0.90683917042E+02 0.  0.
         11    1    3    3    0    0  0.14818368069E+02  0.11126665501E+02  0.27985002766E+02  0.33564074506E+02  0.51100000000E-03 0. -1.
         22    1    1    0    0    0  0.81957498524E+01  0.20012320832E+02  0.20219660987E+02  0.29605708760E+02  0.00000000000E+00 0.  1.
</event>
<event>
 5    1  0.1691145E-003  0.9118800E+02  0.7818608E-02  0.1130116E+00
         25   -1    0    0    0    0  0.00000000000E+00  0.00000000000E+00  0.99999998245E-14  0.12500000000E+03  0.12500000000E+03 0.  0.
        -11    1    3    3    0    0  0.33241009098E+02  0.76082831394E+01 -0.41907311664E+02  0.54028450184E+02  0.51100000000E-03 0. -1.
         23    2    1    0    0    0  0.29743014132E+02  0.64395028423E+01 -0.15769988483E+01  0.94527044583E+02  0.89480507071E+02 0.  0.
         11    1    3    3    0    0 -0.34979949657E+01 -0.11687802971E+01  0.40330312816E+02  0.40498594398E+02  0.51100000000E-03 0.  1.
         22    1    1    0    0    0 -0.29743014132E+02 -0.64395028423E+01  0.15769988483E+01  0.30472955417E+02  0.00000000000E+00 0. -1.
</event>
<event>
 5    1  0.1691145E-003  0.9118800E+02  0.7818608E-02  0.1130116E+00
         25   -1    0    0    0    0  0.00000000000E+00  0.00000000000E+00  0.99999998245E-14  0.12500000000E+03  0.12500000000E+03 0.  0.
        -11    1    3    3    0    0  0.26426270288E+02 -0.50463557956E+02  0.11853579611E+02  0.58184411940E+02  0.51100000000E-03 0.  1.
         23    2    1    0    0    0 -0.28883690301E+01 -0.27300062827E+02 -0.52263749170E+00  0.97542591966E+02  0.93598333273E+02 0.  0.
         11    1    3    3    0    0 -0.29314639318E+02  0.23163495129E+02 -0.12376217103E+02  0.39358180026E+02  0.51100000000E-03 0. -1.
         22    1    1    0    0    0  0.28883690301E+01  0.27300062827E+02  0.52263749170E+00  0.27457408034E+02  0.00000000000E+00 0.  1.
</event>
<event>
 5    1  0.1691145E-003  0.9118800E+02  0.7818608E-02  0.1130116E+00
         25   -1    0    0    0    0  0.00000000000E+00  0.00000000000E+00  0.99999998245E-14  0.12500000000E+03  0.12500000000E+03 0.  0.
        -11    1    3    3    0    0  0.43366369877E+01 -0.44090263081E+01  0.33893056490E+02  0.34452651739E+02  0.51100000000E-03 0.  1.
         23    2    1    0    0    0  0.48872044592E+01 -0.65151496787E+01 -0.27722116952E+02  0.96106268655E+02  0.91660063079E+02 0.  0.
         11    1    3    3    0    0  0.55056747152E+00 -0.21061233706E+01 -0.61615173442E+02  0.61653616915E+02  0.51100000000E-03 0. -1.
         22    1    1    0    0    0 -0.48872044592E+01  0.65151496787E+01  0.27722116952E+02  0.28893731345E+02  0.00000000000E+00 0. -1.
</event>
<event>
 5    1  0.1691145E-003  0.9118800E+02  0.7818608E-02  0.1130116E+00
         25   -1    0    0    0    0  0.00000000000E+00  0.00000000000E+00  0.99999998245E-14  0.12500000000E+03  0.12500000000E+03 0.  0.
        -11    1    3    3    0    0  0.25105062359E+02 -0.26990380797E+02  0.13686849098E+02  0.39320155774E+02  0.51100000000E-03 0.  1.
         23    2    1    0    0    0 -0.27489497093E+02 -0.77714763767E+01  0.54287568053E+01  0.95921834722E+02  0.91408198103E+02 0.  0.
         11    1    3    3    0    0 -0.52594559452E+02  0.19218904420E+02 -0.82580922928E+01  0.56601678947E+02  0.51100000000E-03 0. -1.
         22    1    1    0    0    0  0.27489497093E+02  0.77714763767E+01 -0.54287568053E+01  0.29078165278E+02  0.00000000000E+00 0. -1.
</event>
<event>
 5    1  0.1691145E-003  0.9118800E+02  0.7818608E-02  0.1130116E+00
         25   -1    0    0    0    0  0.00000000000E+00  0.00000000000E+00  0.99999998245E-14  0.12500000000E+03  0.12500000000E+03 0.  0.
        -11    1    3    3    0    0 -0.32928615130E+02 -0.38677176074E+02 -0.15888204571E+02  0.53222670811E+02  0.51100000000E-03 0. -1.
         23    2    1    0    0    0 -0.28180319356E+02 -0.22632474344E+01  0.61740214799E+01  0.96062632649E+02  0.91600535819E+02 0.  0.
         11    1    3    3    0    0  0.47482957739E+01  0.36413928640E+02  0.22062226050E+02  0.42839961838E+02  0.51100000000E-03 0.  1.
         22    1    1    0    0    0  0.28180319356E+02  0.22632474344E+01 -0.61740214799E+01  0.28937367351E+02  0.00000000000E+00 0. -1.
</event>
<event>
 5    1  0.1691145E-003  0.9118800E+02  0.7818608E-02  0.1130116E+00
         25   -1    0    0    0    0  0.00000000000E+00  0.00000000000E+00  0.99999998245E-14  0.12500000000E+03  0.12500000000E+03 0.  0.
        -11    1    3    3    0    0 -0.27984307729E+02  0.22055020688E+02  0.28441013018E+02  0.45589874297E+02  0.51100000000E-03 0.  1.
         23    2    1    0    0    0 -0.23134496721E+02  0.36762059879E+01 -0.17796343987E+02  0.95581820445E+02  0.90942042595E+02 0.  0.
         11    1    3    3    0    0  0.48498110079E+01 -0.18378814700E+02 -0.46237357005E+02  0.49991946148E+02  0.51100000000E-03 0. -1.
         22    1    1    0    0    0  0.23134496721E+02 -0.36762059879E+01  0.17796343987E+02  0.29418179555E+02  0.00000000000E+00 0.  1.
</event>
<event>
 5    1  0.1691145E-003  0.9118800E+02  0.7818608E-02  0.1130116E+00
         25   -1    0    0    0    0  0.00000000000E+00  0.00000000000E+00  0.99999998245E-14  0.12500000000E+03  0.12500000000E+03 0.  0.
        -11    1    3    3    0    0  0.36339639813E+02  0.31955278310E+02  0.22490998718E+02  0.53362479864E+02  0.51100000000E-03 0.  1.
         23    2    1    0    0    0  0.17321490512E+02  0.28588808148E+02 -0.90703470827E+01  0.90364394317E+02  0.83463157016E+02 0.  0.
         11    1    3    3    0    0 -0.19018149301E+02 -0.33664701624E+01 -0.31561345801E+02  0.37001914453E+02  0.51100000000E-03 0. -1.
         22    1    1    0    0    0 -0.17321490512E+02 -0.28588808148E+02  0.90703470827E+01  0.34635605683E+02  0.00000000000E+00 0.  1.
</event>
<event>
 5    1  0.1691145E-003  0.9118800E+02  0.7818608E-02  0.1130116E+00
         25   -1    0    0    0    0  0.00000000000E+00  0.00000000000E+00  0.99999998245E-14  0.12500000000E+03  0.12500000000E+03 0.  0.
        -11    1    3    3    0    0  0.32634936390E+01 -0.39859863145E+02 -0.10769245529E+02  0.41417818994E+02  0.51100000000E-03 0.  1.
         23    2    1    0    0    0 -0.22594338000E+02  0.11090730618E+02 -0.78731434579E+01  0.98627764539E+02  0.95036525267E+02 0.  0.
         11    1    3    3    0    0 -0.25857831639E+02  0.50950593763E+02  0.28961020707E+01  0.57209945546E+02  0.51100000000E-03 0. -1.
         22    1    1    0    0    0  0.22594338000E+02 -0.11090730618E+02  0.78731434579E+01  0.26372235461E+02  0.00000000000E+00 0. -1.
</event>
<event>
 5    1  0.1691145E-003  0.9118800E+02  0.7818608E-02  0.1130116E+00
         25   -1    0    0    0    0  0.00000000000E+00  0.00000000000E+00  0.99999998245E-14  0.12500000000E+03  0.12500000000E+03 0.  0.
        -11    1    3    3    0    0 -0.12398721060E+02  0.33904456752E+02  0.19576910943E+02  0.41066968648E+02  0.51100000000E-03 0.  1.
         23    2    1    0    0    0  0.63454960310E+01 -0.19023444356E+02 -0.77349844717E+01  0.10350612320E+03  0.10124984346E+03 0.  0.
         11    1    3    3    0    0  0.18744217091E+02 -0.52927901108E+02 -0.27311895415E+02  0.62439154554E+02  0.51100000000E-03 0. -1.
         22    1    1    0    0    0 -0.63454960310E+01  0.19023444356E+02  0.77349844717E+01  0.21493876798E+02  0.00000000000E+00 0. -1.
</event>
<event>
 5    1  0.1691145E-003  0.9118800E+02  0.7818608E-02  0.1130116E+00
         25   -1    0    0    0    0  0.00000000000E+00  0.00000000000E+00  0.99999998245E-14  0.12500000000E+03  0.12500000000E+03 0.  0.
        -11    1    3    3    0    0 -0.82481292364E+00 -0.27889744074E+02  0.25334346964E+02  0.37687494971E+02  0.51100000000E-03 0.  1.
         23    2    1    0    0    0  0.39083521796E+01  0.27512012327E+02  0.58773551671E+01  0.96597018770E+02  0.92326890408E+02 0.  0.
         11    1    3    3    0    0  0.47331651032E+01  0.55401756400E+02 -0.19456991796E+02  0.58909523799E+02  0.51100000000E-03 0. -1.
         22    1    1    0    0    0 -0.39083521796E+01 -0.27512012327E+02 -0.58773551671E+01  0.28402981230E+02  0.00000000000E+00 0.  1.
</event>
<event>
 5    1  0.1691145E-003  0.9118800E+02  0.7818608E-02  0.1130116E+00
         25   -1    0    0    0    0  0.00000000000E+00  0.00000000000E+00  0.99999998245E-14  0.12500000000E+03  0.12500000000E+03 0.  0.
        -11    1    3    3    0    0 -0.66938548454E+01  0.40500667892E+02 -0.12512729119E+02  0.42914801441E+02  0.51100000000E-03 0. -1.
         23    2    1    0    0    0  0.12681377587E+01  0.10601765451E+02  0.28658927738E+02  0.94416675407E+02  0.89326193537E+02 0.  0.
         11    1    3    3    0    0  0.79619926041E+01 -0.29898902441E+02  0.41171656857E+02  0.51501873966E+02  0.51100000000E-03 0.  1.
         22    1    1    0    0    0 -0.12681377587E+01 -0.10601765451E+02 -0.28658927738E+02  0.30583324593E+02  0.00000000000E+00 0. -1.
</event>
<event>
 5    1  0.1691145E-003  0.9118800E+02  0.7818608E-02  0.1130116E+00
         25   -1    0    0    0    0  0.00000000000E+00  0.00000000000E+00  0.99999998245E-14  0.12500000000E+03  0.12500000000E+03 0.  0.
        -11    1    3    3    0    0 -0.27623873371E+02 -0.12542282544E+02 -0.33163521857E+02  0.44946706372E+02  0.51100000000E-03 0.  1.
         23    2    1    0    0    0  0.38939660769E+01  0.23629479781E+02 -0.17220832607E+02  0.95503010964E+02  0.90833654231E+02 0.  0.
         11    1    3    3    0    0  0.31517839448E+02  0.36171762326E+02  0.15942689250E+02  0.50556304592E+02  0.51100000000E-03 0. -1.
         22    1    1    0    0    0 -0.38939660769E+01 -0.23629479781E+02  0.17220832607E+02  0.29496989036E+02  0.00000000000E+00 0. -1.
</event>
<event>
 5    1  0.1691145E-003  0.9118800E+02  0.7818608E-02  0.1130116E+00
         25   -1    0    0    0    0  0.00000000000E+00  0.00000000000E+00  0.99999998245E-14  0.12500000000E+03  0.12500000000E+03 0.  0.
        -11    1    3    3    0    0 -0.10601410748E+02  0.19433706896E+02  0.28468689481E+02  0.36062794603E+02  0.51100000000E-03 0.  1.
         23    2    1    0    0    0  0.13125993410E+02  0.62978154950E+01 -0.25030394940E+02  0.96043569732E+02  0.91574518470E+02 0.  0.
         11    1    3    3    0    0  0.23727404158E+02 -0.13135891401E+02 -0.53499084421E+02  0.59980775129E+02  0.51100000000E-03 0. -1.
         22    1    1    0    0    0 -0.13125993410E+02 -0.62978154950E+01  0.25030394940E+02  0.28956430268E+02  0.00000000000E+00 0. -1.
</event>
<event>
 5    1  0.1691145E-003  0.9118800E+02  0.7818608E-02  0.1130116E+00
         25   -1    0    0    0    0  0.00000000000E+00  0.00000000000E+00  0.99999998245E-14  0.12500000000E+03  0.12500000000E+03 0.  0.
        -11    1    3    3    0    0  0.39208874413E+02 -0.37300717396E+02  0.14301769803E+02  0.55975172807E+02  0.51100000000E-03 0.  1.
         23    2    1    0    0    0  0.17003062553E+02 -0.60032545128E+01  0.23443598764E+02  0.95423902828E+02  0.90724724893E+02 0.  0.
         11    1    3    3    0    0 -0.22205811860E+02  0.31297462883E+02  0.91418289614E+01  0.39448730021E+02  0.51100000000E-03 0. -1.
         22    1    1    0    0    0 -0.17003062553E+02  0.60032545128E+01 -0.23443598764E+02  0.29576097172E+02  0.00000000000E+00 0.  1.
</event>
<event>
 5    1  0.1691145E-003  0.9118800E+02  0.7818608E-02  0.1130116E+00
         25   -1    0    0    0    0  0.00000000000E+00  0.00000000000E+00  0.99999998245E-14  0.12500000000E+03  0.12500000000E+03 0.  0.
        -11    1    3    3    0    0 -0.10086263365E+02 -0.54002657314E+02  0.20358966913E+02  0.58587603122E+02  0.51100000000E-03 0.  1.
         23    2    1    0    0    0  0.10818046628E+02 -0.26171621748E+02  0.10879609519E+02  0.94662732143E+02  0.89669855780E+02 0.  0.
         11    1    3    3    0    0  0.20904309993E+02  0.27831035566E+02 -0.94793573941E+01  0.36075129020E+02  0.51100000000E-03 0. -1.
         22    1    1    0    0    0 -0.10818046628E+02  0.26171621748E+02 -0.10879609519E+02  0.30337267857E+02  0.00000000000E+00 0.  1.
</event>
<event>
 5    1  0.1691145E-003  0.9118800E+02  0.7818608E-02  0.1130116E+00
         25   -1    0    0    0    0  0.00000000000E+00  0.00000000000E+00  0.99999998245E-14  0.12500000000E+03  0.12500000000E+03 0.  0.
        -11    1    3    3    0    0 -0.60897282831E+01 -0.43421814136E+01 -0.34364657629E+02  0.35169148756E+02  0.51100000000E-03 0. -1.
         23    2    1    0    0    0 -0.39101531761E+01  0.15392163902E+02  0.23664349445E+02  0.96500711551E+02  0.92196409300E+02 0.  0.
         11    1    3    3    0    0  0.21795751070E+01  0.19734345315E+02  0.58029007074E+02  0.61331562795E+02  0.51100000000E-03 0.  1.
         22    1    1    0    0    0  0.39101531761E+01 -0.15392163902E+02 -0.23664349445E+02  0.28499288449E+02  0.00000000000E+00 0.  1.
</event>
<event>
 5    1  0.1691145E-003  0.9118800E+02  0.7818608E-02  0.1130116E+00
         25   -1    0    0    0    0  0.00000000000E+00  0.00000000000E+00  0.99999998245E-14  0.12500000000E+03  0.12500000000E+03 0.  0.
        -11    1    3    3    0    0  0.13924841969E+02  0.58131821253E+01 -0.33118639906E+02  0.36394211350E+02  0.51100000000E-03 0. -1.
         23    2    1    0    0    0 -0.16094810214E+02  0.19892380181E+02  0.15381185368E+02  0.95144840171E+02  0.90339415776E+02 0.  0.
         11    1    3    3    0    0 -0.30019652183E+02  0.14079198056E+02  0.48499825274E+02  0.58750628821E+02  0.51100000000E-03 0.  1.
         22    1    1    0    0    0  0.16094810214E+02 -0.19892380181E+02 -0.15381185368E+02  0.29855159829E+02  0.00000000000E+00 0.  1.
</event>
<event>
 5    1  0.1691145E-003  0.9118800E+02  0.7818608E-02  0.1130116E+00
         25   -1    0    0    0    0  0.00000000000E+00  0.00000000000E+00  0.99999998245E-14  0.12500000000E+03  0.12500000000E+03 0.  0.
        -11    1    3    3    0    0 -0.54525971687E+01 -0.21305066547E+02 -0.37897726229E+02  0.43816370571E+02  0.51100000000E-03 0. -1.
         23    2    1    0    0    0 -0.13002083141E+02 -0.40880663680E+02 -0.64518765395E+01  0.81619018686E+02  0.69135769841E+02 0.  0.
         11    1    3    3    0    0 -0.75494859720E+01 -0.19575597132E+02  0.31445849689E+02  0.37802648114E+02  0.51100000000E-03 0.  1.
         22    1    1    0    0    0  0.13002083141E+02  0.40880663680E+02  0.64518765395E+01  0.43380981314E+02  0.00000000000E+00 0. -1.
</event>
<event>
 5    1  0.1691145E-003  0.9118800E+02  0.7818608E-02  0.1130116E+00
         25   -1    0    0    0    0  0.00000000000E+00  0.00000000000E+00  0.99999998245E-14  0.12500000000E+03  0.12500000000E+03 0.  0.
        -11    1    3    3    0    0 -0.21848463794E+02  0.47096906328E+02  0.25865414305E+02  0.58004255130E+02  0.51100000000E-03 0.  1.
         23    2    1    0    0    0 -0.10396577918E+02  0.11464499427E+02  0.25187241387E+02  0.95437850075E+02  0.90743939294E+02 0.  0.
         11    1    3    3    0    0  0.11451885877E+02 -0.35632406901E+02 -0.67817291718E+00  0.37433594944E+02  0.51100000000E-03 0. -1.
         22    1    1    0    0    0  0.10396577918E+02 -0.11464499427E+02 -0.25187241387E+02  0.29562149925E+02  0.00000000000E+00 0.  1.
</event>
<event>
 5    1  0.1691145E-003  0.9118800E+02  0.7818608E-02  0.1130116E+00
         25   -1    0    0    0    0  0.00000000000E+00  0.00000000000E+00  0.99999998245E-14  0.12500000000E+03  0.12500000000E+03 0.  0.
        -11    1    3    3    0    0  0.15690592884E+02  0.50688550468E+01 -0.58421180660E+02  0.60703561234E+02  0.51100000000E-03 0. -1.
         23    2    1    0    0    0  0.18183040472E+02 -0.57571848436E-02 -0.28220436051E+02  0.91428940963E+02  0.85042549589E+02 0.  0.
         11    1    3    3    0    0  0.24924475879E+01 -0.50746122317E+01  0.30200744609E+02  0.30725379728E+02  0.51100000000E-03 0.  1.
         22    1    1    0    0    0 -0.18183040472E+02  0.57571848436E-02  0.28220436051E+02  0.33571059037E+02  0.00000000000E+00 0. -1.
</event>
<event>
 5    1  0.1691145E-003  0.9118800E+02  0.7818608E-02  0.1130116E+00
         25   -1    0    0    0    0  0.00000000000E+00  0.00000000000E+00  0.99999998245E-14  0.12500000000E+03  0.12500000000E+03 0.  0.
        -11    1    3    3    0    0  0.21689309095E+02 -0.58789368731E+00  0.39053467488E+02  0.44676001064E+02  0.51100000000E-03 0. -1.
         23    2    1    0    0    0  0.15897531742E+02 -0.28233928941E+02  0.34299093547E+00  0.92596236303E+02  0.86741334298E+02 0.  0.
         11    1    3    3    0    0 -0.57917773536E+01 -0.27646035254E+02 -0.38710476552E+02  0.47920235239E+02  0.51100000000E-03 0.  1.
         22    1    1    0    0    0 -0.15897531742E+02  0.28233928941E+02 -0.34299093547E+00  0.32403763697E+02  0.00000000000E+00 0. -1.
</event>
<event>
 5    1  0.1691145E-003  0.9118800E+02  0.7818608E-02  0.1130116E+00
         25   -1    0    0    0    0  0.00000000000E+00  0.00000000000E+00  0.99999998245E-14  0.12500000000E+03  0.12500000000E+03 0.  0.
        -11    1    3    3    0    0 -0.19832275191E+02 -0.11454079235E+02  0.25777808560E+02  0.34482031332E+02  0.51100000000E-03 0. -1.
         23    2    1    0    0    0 -0.39793330402E-01  0.16317086802E+02 -0.24698230958E+02  0.95398454134E+02  0.90689655052E+02 0.  0.
         11    1    3    3    0    0  0.19792481860E+02  0.27771166037E+02 -0.50476039518E+02  0.60916422802E+02  0.51100000000E-03 0.  1.
         22    1    1    0    0    0  0.39793330402E-01 -0.16317086802E+02  0.24698230958E+02  0.29601545866E+02  0.00000000000E+00 0.  1.
</event>
<event>
 5    1  0.1691145E-003  0.9118800E+02  0.7818608E-02  0.1130116E+00
         25   -1    0    0    0    0  0.00000000000E+00  0.00000000000E+00  0.99999998245E-14  0.12500000000E+03  0.12500000000E+03 0.  0.
        -11    1    3    3    0    0  0.18212875987E+02 -0.51037055230E+02 -0.16322762036E+02  0.56594367379E+02  0.51100000000E-03 0.  1.
         23    2    1    0    0    0  0.21153325738E+01 -0.27943403082E+02  0.10109107898E+02  0.95209020322E+02  0.90428176363E+02 0.  0.
         11    1    3    3    0    0 -0.16097543413E+02  0.23093652148E+02  0.26431869933E+02  0.38614652943E+02  0.51100000000E-03 0. -1.
         22    1    1    0    0    0 -0.21153325738E+01  0.27943403082E+02 -0.10109107898E+02  0.29790979678E+02  0.00000000000E+00 0.  1.
</event>
<event>
 5    1  0.1691145E-003  0.9118800E+02  0.7818608E-02  0.1130116E+00
         25   -1    0    0    0    0  0.00000000000E+00  0.00000000000E+00  0.99999998245E-14  0.12500000000E+03  0.12500000000E+03 0.  0.
        -11    1    3    3    0    0 -0.55275117142E+02 -0.74715393773E+01  0.16517022213E+02  0.58171939101E+02  0.51100000000E-03 0.  1.
         23    2    1    0    0    0 -0.18869556860E+02 -0.11402124448E+02  0.20359811260E+02  0.94990159404E+02  0.90125134402E+02 0.  0.
         11    1    3    3    0    0  0.36405560281E+02 -0.39305850709E+01  0.38427890474E+01  0.36818220303E+02  0.51100000000E-03 0. -1.
         22    1    1    0    0    0  0.18869556860E+02  0.11402124448E+02 -0.20359811260E+02  0.30009840596E+02  0.00000000000E+00 0.  1.
</event>
<event>
 5    1  0.1691145E-003  0.9118800E+02  0.7818608E-02  0.1130116E+00
         25   -1    0    0    0    0  0.00000000000E+00  0.00000000000E+00  0.99999998245E-14  0.12500000000E+03  0.12500000000E+03 0.  0.
        -11    1    3    3    0    0  0.13275242863E+02  0.34145429921E+01  0.36631474531E+02  0.39112096639E+02  0.51100000000E-03 0.  1.
         23    2    1    0    0    0 -0.22083039922E+02  0.22586941521E+02  0.15408290496E+00  0.93411167781E+02  0.87907860543E+02 0.  0.
         11    1    3    3    0    0 -0.35358282785E+02  0.19172398529E+02 -0.36477391626E+02  0.54299071142E+02  0.51100000000E-03 0. -1.
         22    1    1    0    0    0  0.22083039922E+02 -0.22586941521E+02 -0.15408290496E+00  0.31588832219E+02  0.00000000000E+00 0. -1.
</event>
<event>
 5    1  0.1691145E-003  0.9118800E+02  0.7818608E-02  0.1130116E+00
         25   -1    0    0    0    0  0.00000000000E+00  0.00000000000E+00  0.99999998245E-14  0.12500000000E+03  0.12500000000E+03 0.  0.
        -11    1    3    3    0    0 -0.21190657510E+02 -0.19749168881E+02  0.98403476322E+01  0.30592582091E+02  0.51100000000E-03 0.  1.
         23    2    1    0    0    0  0.23489579204E+02  0.11584617762E+02 -0.19307929989E+02  0.92461409675E+02  0.86546822119E+02 0.  0.
         11    1    3    3    0    0  0.44680236713E+02  0.31333786643E+02 -0.29148277622E+02  0.61868827585E+02  0.51100000000E-03 0. -1.
         22    1    1    0    0    0 -0.23489579204E+02 -0.11584617762E+02  0.19307929989E+02  0.32538590325E+02  0.00000000000E+00 0. -1.
</event>
<event>
 5    1  0.1691145E-003  0.9118800E+02  0.7818608E-02  0.1130116E+00
         25   -1    0    0    0    0  0.00000000000E+00  0.00000000000E+00  0.99999998245E-14  0.12500000000E+03  0.12500000000E+03 0.  0.
        -11    1    3    3    0    0  0.34471413063E+01 -0.34552376558E+02  0.70813892431E+01  0.35438617113E+02  0.51100000000E-03 0. -1.
         23    2    1    0    0    0 -0.13746617426E+02  0.18437810206E+02 -0.17271258635E+02  0.96238589905E+02  0.91840336869E+02 0.  0.
         11    1    3    3    0    0 -0.17193758732E+02  0.52990186764E+02 -0.24352647878E+02  0.60799972792E+02  0.51100000000E-03 0.  1.
         22    1    1    0    0    0  0.13746617426E+02 -0.18437810206E+02  0.17271258635E+02  0.28761410095E+02  0.00000000000E+00 0.  1.
</event>
<event>
 5    1  0.1691145E-003  0.9118800E+02  0.7818608E-02  0.1130116E+00
         25   -1    0    0    0    0  0.00000000000E+00  0.00000000000E+00  0.99999998245E-14  0.12500000000E+03  0.12500000000E+03 0.  0.
        -11    1    3    3    0    0  0.35433531334E+02  0.11662840889E+02 -0.21171770195E+02  0.42892899807E+02  0.51100000000E-03 0.  1.
         23    2    1    0    0    0  0.12146900509E+02  0.67214970780E+01  0.25884396563E+02  0.95627773317E+02  0.91005182980E+02 0.  0.
         11    1    3    3    0    0 -0.23286630825E+02 -0.49413438106E+01  0.47056166758E+02  0.52734873510E+02  0.51100000000E-03 0. -1.
         22    1    1    0    0    0 -0.12146900509E+02 -0.67214970780E+01 -0.25884396563E+02  0.29372226683E+02  0.00000000000E+00 0.  1.
</event>
<event>
 5    1  0.1691145E-003  0.9118800E+02  0.7818608E-02  0.1130116E+00
         25   -1    0    0    0    0  0.00000000000E+00  0.00000000000E+00  0.99999998245E-14  0.12500000000E+03  0.12500000000E+03 0.  0.
        -11    1    3    3    0    0 -0.11173904415E+01 -0.24465545713E+02 -0.41806923702E+02  0.48452351420E+02  0.51100000000E-03 0.  1.
         23    2    1    0    0    0  0.24182449241E+02 -0.15556578004E+02 -0.23673196434E+01  0.96148619222E+02  0.91717799829E+02 0.  0.
         11    1    3    3    0    0  0.25299839683E+02  0.89089677091E+01  0.39439604059E+02  0.47696267802E+02  0.51100000000E-03 0. -1.
         22    1    1    0    0    0 -0.24182449241E+02  0.15556578004E+02  0.23673196434E+01  0.28851380778E+02  0.00000000000E+00 0.  1.
</event>
<event>
 5    1  0.1691145E-003  0.9118800E+02  0.7818608E-02  0.1130116E+00
         25   -1    0    0    0    0  0.00000000000E+00  0.00000000000E+00  0.99999998245E-14  0.12500000000E+03  0.12500000000E+03 0.  0.
        -11    1    3    3    0    0  0.15584385752E+02 -0.34493291684E+02 -0.68817968312E+01  0.38471019981E+02  0.51100000000E-03 0. -1.
         23    2    1    0    0    0 -0.17351154630E+02  0.54260442551E+01 -0.25683961482E+02  0.93533026827E+02  0.88080966768E+02 0.  0.
         11    1    3    3    0    0 -0.32935540383E+02  0.39919335939E+02 -0.18802164651E+02  0.55062006846E+02  0.51100000000E-03 0.  1.
         22    1    1    0    0    0  0.17351154630E+02 -0.54260442551E+01  0.25683961482E+02  0.31466973173E+02  0.00000000000E+00 0.  1.
</event>
<event>
 5    1  0.1691145E-003  0.9118800E+02  0.7818608E-02  0.1130116E+00
         25   -1    0    0    0    0  0.00000000000E+00  0.00000000000E+00  0.99999998245E-14  0.12500000000E+03  0.12500000000E+03 0.  0.
        -11    1    3    3    0    0 -0.26046324348E+02  0.42109873293E+02  0.11328900506E-01  0.49514165340E+02  0.51100000000E-03 0.  1.
         23    2    1    0    0    0 -0.23949924498E+02 -0.24017145431E+01 -0.15121085825E+02  0.96574406730E+02  0.92296271228E+02 0.  0.
         11    1    3    3    0    0  0.20963998499E+01 -0.44511587836E+02 -0.15132414725E+02  0.47060241390E+02  0.51100000000E-03 0. -1.
         22    1    1    0    0    0  0.23949924498E+02  0.24017145431E+01  0.15121085825E+02  0.28425593270E+02  0.00000000000E+00 0. -1.
</event>
<event>
 5    1  0.1691145E-003  0.9118800E+02  0.7818608E-02  0.1130116E+00
         25   -1    0    0    0    0  0.00000000000E+00  0.00000000000E+00  0.99999998245E-14  0.12500000000E+03  0.12500000000E+03 0.  0.
        -11    1    3    3    0    0 -0.50622219902E+02 -0.21120440583E+02 -0.13852802922E+02  0.56573689179E+02  0.51100000000E-03 0. -1.
         23    2    1    0    0    0 -0.11080316033E+02 -0.23265438140E+02 -0.12893002583E+02  0.96185359089E+02  0.91767858057E+02 0.  0.
         11    1    3    3    0    0  0.39541903869E+02 -0.21449975565E+01  0.95980033924E+00  0.39611669910E+02  0.51100000000E-03 0.  1.
         22    1    1    0    0    0  0.11080316033E+02  0.23265438140E+02  0.12893002583E+02  0.28814640911E+02  0.00000000000E+00 0. -1.
</event>
<event>
 5    1  0.1691145E-003  0.9118800E+02  0.7818608E-02  0.1130116E+00
         25   -1    0    0    0    0  0.00000000000E+00  0.00000000000E+00  0.99999998245E-14  0.12500000000E+03  0.12500000000E+03 0.  0.
        -11    1    3    3    0    0 -0.36998600063E+02  0.24758916978E+02  0.29903055310E+01  0.44618855924E+02  0.51100000000E-03 0. -1.
         23    2    1    0    0    0  0.12201972671E+02  0.21782113555E+02  0.15681227878E+02  0.95516962237E+02  0.90852851134E+02 0.  0.
         11    1    3    3    0    0  0.49200572734E+02 -0.29768034237E+01  0.12690922347E+02  0.50898106313E+02  0.51100000000E-03 0.  1.
         22    1    1    0    0    0 -0.12201972671E+02 -0.21782113555E+02 -0.15681227878E+02  0.29483037763E+02  0.00000000000E+00 0.  1.
</event>
<event>
 5    1  0.1691145E-003  0.9118800E+02  0.7818608E-02  0.1130116E+00
         25   -1    0    0    0    0  0.00000000000E+00  0.00000000000E+00  0.99999998245E-14  0.12500000000E+03  0.12500000000E+03 0.  0.
        -11    1    3    3    0    0  0.19121622476E+02  0.10422009130E+02 -0.31041248781E+02  0.37918515881E+02  0.51100000000E-03 0.  1.
         23    2    1    0    0    0 -0.25665187957E+02  0.59829258033E+01  0.79583005015E+01  0.97471254643E+02  0.93503014180E+02 0.  0.
         11    1    3    3    0    0 -0.44786810434E+02 -0.44390833265E+01  0.38999549283E+02  0.59552738763E+02  0.51100000000E-03 0. -1.
         22    1    1    0    0    0  0.25665187957E+02 -0.59829258033E+01 -0.79583005015E+01  0.27528745357E+02  0.00000000000E+00 0. -1.
</event>
<event>
 5    1  0.1691145E-003  0.9118800E+02  0.7818608E-02  0.1130116E+00
         25   -1    0    0    0    0  0.00000000000E+00  0.00000000000E+00  0.99999998245E-14  0.12500000000E+03  0.12500000000E+03 0.  0.
        -11    1    3    3    0    0 -0.23381309618E+02  0.19263197824E+02  0.50517537951E+02  0.58904822135E+02  0.51100000000E-03 0.  1.
         23    2    1    0    0    0 -0.70371484266E+01  0.23311084908E+02  0.21196911501E+02  0.92716301408E+02  0.86914183837E+02 0.  0.
         11    1    3    3    0    0  0.16344161191E+02  0.40478870849E+01 -0.29320626451E+02  0.33811479273E+02  0.51100000000E-03 0. -1.
         22    1    1    0    0    0  0.70371484266E+01 -0.23311084908E+02 -0.21196911501E+02  0.32283698592E+02  0.00000000000E+00 0.  1.
</event>
<event>
 5    1  0.1691145E-003  0.9118800E+02  0.7818608E-02  0.1130116E+00
         25   -1    0    0    0    0  0.00000000000E+00  0.00000000000E+00  0.99999998245E-14  0.12500000000E+03  0.12500000000E+03 0.  0.
        -11    1    3    3    0    0 -0.45132151936E+02 -0.32627511161E+02  0.16020083037E+02  0.57949190535E+02  0.51100000000E-03 0.  1.
         23    2    1    0    0    0 -0.15699393883E+02 -0.24720538776E+02 -0.54288277953E+01  0.95216645977E+02  0.90438716787E+02 0.  0.
         11    1    3    3    0    0  0.29432758053E+02  0.79069723855E+01 -0.21448910832E+02  0.37267455441E+02  0.51100000000E-03 0. -1.
         22    1    1    0    0    0  0.15699393883E+02  0.24720538776E+02  0.54288277953E+01  0.29783354023E+02  0.00000000000E+00 0.  1.
</event>
<event>
 5    1  0.1691145E-003  0.9118800E+02  0.7818608E-02  0.1130116E+00
         25   -1    0    0    0    0  0.00000000000E+00  0.00000000000E+00  0.99999998245E-14  0.12500000000E+03  0.12500000000E+03 0.  0.
        -11    1    3    3    0    0 -0.60196727026E+01  0.48873470916E+01 -0.51547301541E+02  0.52127218586E+02  0.51100000000E-03 0.  1.
         23    2    1    0    0    0 -0.18785312188E+02 -0.16183017041E+02 -0.15600762912E+02  0.95705601253E+02  0.91112020684E+02 0.  0.
         11    1    3    3    0    0 -0.12765639485E+02 -0.21070364133E+02  0.35946538630E+02  0.43578382667E+02  0.51100000000E-03 0. -1.
         22    1    1    0    0    0  0.18785312188E+02  0.16183017041E+02  0.15600762912E+02  0.29294398747E+02  0.00000000000E+00 0.  1.
</event>
<event>
 5    1  0.1691145E-003  0.9118800E+02  0.7818608E-02  0.1130116E+00
         25   -1    0    0    0    0  0.00000000000E+00  0.00000000000E+00  0.99999998245E-14  0.12500000000E+03  0.12500000000E+03 0.  0.
        -11    1    3    3    0    0 -0.41936510788E+02  0.30781884512E+01  0.13976076321E+02  0.44311137322E+02  0.51100000000E-03 0.  1.
         23    2    1    0    0    0  0.85436787449E+01  0.13109498133E+02  0.23613022960E+02  0.96672835633E+02  0.92429480731E+02 0.  0.
         11    1    3    3    0    0  0.50480189533E+02  0.10031309682E+02  0.96369466383E+01  0.52361698310E+02  0.51100000000E-03 0. -1.
         22    1    1    0    0    0 -0.85436787449E+01 -0.13109498133E+02 -0.23613022960E+02  0.28327164367E+02  0.00000000000E+00 0. -1.
</event>
<event>
 5    1  0.1691145E-003  0.9118800E+02  0.7818608E-02  0.1130116E+00
         25   -1    0    0    0    0  0.00000000000E+00  0.00000000000E+00  0.99999998245E-14  0.12500000000E+03  0.12500000000E+03 0.  0.
        -11    1    3    3    0    0 -0.71734527660E+01 -0.14939348953E+00 -0.45026094652E+02  0.45594187600E+02  0.51100000000E-03 0. -1.
         23    2    1    0    0    0  0.26988803868E+02  0.81053320213E+01 -0.10313160809E+02  0.94992447163E+02  0.90128307378E+02 0.  0.
         11    1    3    3    0    0  0.34162256634E+02  0.82547255108E+01  0.34712933844E+02  0.49398259563E+02  0.51100000000E-03 0.  1.
         22    1    1    0    0    0 -0.26988803868E+02 -0.81053320213E+01  0.10313160809E+02  0.30007552837E+02  0.00000000000E+00 0. -1.
</event>
<event>
 5    1  0.1691145E-003  0.9118800E+02  0.7818608E-02  0.1130116E+00
         25   -1    0    0    0    0  0.00000000000E+00  0.00000000000E+00  0.99999998245E-14  0.12500000000E+03  0.12500000000E+03 0.  0.
        -11    1    3    3    0    0 -0.81659335544E+01  0.25218005768E+02 -0.26067325377E+02  0.37177086200E+02  0.51100000000E-03 0.  1.
         23    2    1    0    0    0 -0.28465829059E+01  0.56367129093E+01  0.28716244800E+02  0.95597648359E+02  0.90963795488E+02 0.  0.
         11    1    3    3    0    0  0.53193506485E+01 -0.19581292859E+02  0.54783570177E+02  0.58420562158E+02  0.51100000000E-03 0. -1.
         22    1    1    0    0    0  0.28465829059E+01 -0.56367129093E+01 -0.28716244800E+02  0.29402351641E+02  0.00000000000E+00 0. -1.
</event>
<event>
 5    1  0.1691145E-003  0.9118800E+02  0.7818608E-02  0.1130116E+00
         25   -1    0    0    0    0  0.00000000000E+00  0.00000000000E+00  0.99999998245E-14  0.12500000000E+03  0.12500000000E+03 0.  0.
        -11    1    3    3    0    0  0.26221378531E+02  0.52311761209E+02  0.39254056841E+01  0.58647164151E+02  0.51100000000E-03 0. -1.
         23    2    1    0    0    0 -0.21997569373E+01  0.28747519105E+02 -0.22558009383E+01  0.96080328094E+02  0.91624680209E+02 0.  0.
         11    1    3    3    0    0 -0.28421135468E+02 -0.23564242104E+02 -0.61812066223E+01  0.37433163943E+02  0.51100000000E-03 0.  1.
         22    1    1    0    0    0  0.21997569373E+01 -0.28747519105E+02  0.22558009383E+01  0.28919671906E+02  0.00000000000E+00 0. -1.
</event>
<event>
 5    1  0.1691145E-003  0.9118800E+02  0.7818608E-02  0.1130116E+00
         25   -1    0    0    0    0  0.00000000000E+00  0.00000000000E+00  0.99999998245E-14  0.12500000000E+03  0.12500000000E+03 0.  0.
        -11    1    3    3    0    0 -0.14775908219E+02 -0.29609163717E+02  0.25991310035E+02  0.42078239475E+02  0.51100000000E-03 0.  1.
         23    2    1    0    0    0 -0.24610869626E+02  0.15512329854E+02 -0.15834128012E+01  0.95865235931E+02  0.91330766901E+02 0.  0.
         11    1    3    3    0    0 -0.98349614072E+01  0.45121493571E+02 -0.27574722836E+02  0.53786996456E+02  0.51100000000E-03 0. -1.
         22    1    1    0    0    0  0.24610869626E+02 -0.15512329854E+02  0.15834128012E+01  0.29134764069E+02  0.00000000000E+00 0. -1.
</event>
<event>
 5    1  0.1691145E-003  0.9118800E+02  0.7818608E-02  0.1130116E+00
         25   -1    0    0    0    0  0.00000000000E+00  0.00000000000E+00  0.99999998245E-14  0.12500000000E+03  0.12500000000E+03 0.  0.
        -11    1    3    3    0    0  0.13202437591E+02  0.29740848892E+02 -0.19703813028E+02  0.38040277329E+02  0.51100000000E-03 0.  1.
         23    2    1    0    0    0 -0.21380344974E+02  0.15474697465E+02  0.19466374421E+02  0.92204799956E+02  0.86175402460E+02 0.  0.
         11    1    3    3    0    0 -0.34582782565E+02 -0.14266151427E+02  0.39170187449E+02  0.54164522628E+02  0.51100000000E-03 0. -1.
         22    1    1    0    0    0  0.21380344974E+02 -0.15474697465E+02 -0.19466374421E+02  0.32795200044E+02  0.00000000000E+00 0. -1.
</event>
<event>
 5    1  0.1691145E-003  0.9118800E+02  0.7818608E-02  0.1130116E+00
         25   -1    0    0    0    0  0.00000000000E+00  0.00000000000E+00  0.99999998245E-14  0.12500000000E+03  0.12500000000E+03 0.  0.
        -11    1    3    3    0    0 -0.16071805534E+02  0.49439542146E+02  0.11077253114E+01  0.51998060698E+02  0.51100000000E-03 0. -1.
         23    2    1    0    0    0  0.75437243623E+01  0.16795829467E+02  0.21116959682E+02  0.96983332622E+02  0.92848441858E+02 0.  0.
         11    1    3    3    0    0  0.23615529897E+02 -0.32643712678E+02  0.20009234371E+02  0.44985271924E+02  0.51100000000E-03 0.  1.
         22    1    1    0    0    0 -0.75437243623E+01 -0.16795829467E+02 -0.21116959682E+02  0.28016667378E+02  0.00000000000E+00 0.  1.
</event>
<event>
 5    1  0.1691145E-003  0.9118800E+02  0.7818608E-02  0.1130116E+00
         25   -1    0    0    0    0  0.00000000000E+00  0.00000000000E+00  0.99999998245E-14  0.12500000000E+03  0.12500000000E+03 0.  0.
        -11    1    3    3    0    0  0.41766714254E+02 -0.36142151985E+00 -0.35298235456E+02  0.54685962291E+02  0.51100000000E-03 0. -1.
         23    2    1    0    0    0  0.25698098237E+02 -0.99628818010E+01  0.29617377157E+01  0.97279553447E+02  0.93246385248E+02 0.  0.
         11    1    3    3    0    0 -0.16068616017E+02 -0.96014602812E+01  0.38259973172E+02  0.42593591156E+02  0.51100000000E-03 0.  1.
         22    1    1    0    0    0 -0.25698098237E+02  0.99628818010E+01 -0.29617377157E+01  0.27720446553E+02  0.00000000000E+00 0. -1.
</event>
<event>
 5    1  0.1691145E-003  0.9118800E+02  0.7818608E-02  0.1130116E+00
         25   -1    0    0    0    0  0.00000000000E+00  0.00000000000E+00  0.99999998245E-14  0.12500000000E+03  0.12500000000E+03 0.  0.
        -11    1    3    3    0    0  0.14241454634E+02 -0.56607724514E+01 -0.52938128585E+02  0.55111784885E+02  0.51100000000E-03 0. -1.
         23    2    1    0    0    0 -0.15036470231E+02 -0.18985683876E+01 -0.25056494971E+02  0.95716422023E+02  0.91126864896E+02 0.  0.
         11    1    3    3    0    0 -0.29277924866E+02  0.37622040638E+01  0.27881633614E+02  0.40604637138E+02  0.51100000000E-03 0.  1.
         22    1    1    0    0    0  0.15036470231E+02  0.18985683876E+01  0.25056494971E+02  0.29283577977E+02  0.00000000000E+00 0.  1.
</event>
<event>
 5    1  0.1691145E-003  0.9118800E+02  0.7818608E-02  0.1130116E+00
         25   -1    0    0    0    0  0.00000000000E+00  0.00000000000E+00  0.99999998245E-14  0.12500000000E+03  0.12500000000E+03 0.  0.
        -11    1    3    3    0    0  0.45435744667E+02 -0.18536011229E+02  0.26970896486E+02  0.55994819968E+02  0.51100000000E-03 0.  1.
         23    2    1    0    0    0  0.72281334639E+01 -0.23659653054E+02  0.13410090128E+02  0.96860070838E+02  0.92682348425E+02 0.  0.
         11    1    3    3    0    0 -0.38207611203E+02 -0.51236418249E+01 -0.13560806358E+02  0.40865250871E+02  0.51100000000E-03 0. -1.
         22    1    1    0    0    0 -0.72281334639E+01  0.23659653054E+02 -0.13410090128E+02  0.28139929162E+02  0.00000000000E+00 0.  1.
</event>
<event>
 5    1  0.1691145E-003  0.9118800E+02  0.7818608E-02  0.1130116E+00
         25   -1    0    0    0    0  0.00000000000E+00  0.00000000000E+00  0.99999998245E-14  0.12500000000E+03  0.12500000000E+03 0.  0.
        -11    1    3    3    0    0 -0.24245340536E+02  0.19737298751E+02 -0.20430617969E+02  0.37347123726E+02  0.51100000000E-03 0.  1.
         23    2    1    0    0    0 -0.11078058183E+02 -0.22765571434E+02  0.16167398503E+02  0.94960369673E+02  0.90083807747E+02 0.  0.
         11    1    3    3    0    0  0.13167282353E+02 -0.42502870185E+02  0.36598016472E+02  0.57613245947E+02  0.51100000000E-03 0. -1.
         22    1    1    0    0    0  0.11078058183E+02  0.22765571434E+02 -0.16167398503E+02  0.30039630327E+02  0.00000000000E+00 0. -1.
</event>
<event>
 5    1  0.1691145E-003  0.9118800E+02  0.7818608E-02  0.1130116E+00
         25   -1    0    0    0    0  0.00000000000E+00  0.00000000000E+00  0.99999998245E-14  0.12500000000E+03  0.12500000000E+03 0.  0.
        -11    1    3    3    0    0 -0.22956644358E+02 -0.35841862438E+01 -0.28560607916E+02  0.36817960780E+02  0.51100000000E-03 0. -1.
         23    2    1    0    0    0  0.20795579459E+02  0.21171976411E+02  0.13117231261E+01  0.95294287961E+02  0.90545966173E+02 0.  0.
         11    1    3    3    0    0  0.43752223817E+02  0.24756162655E+02  0.29872331043E+02  0.58476327180E+02  0.51100000000E-03 0.  1.
         22    1    1    0    0    0 -0.20795579459E+02 -0.21171976411E+02 -0.13117231261E+01  0.29705712039E+02  0.00000000000E+00 0.  1.
</event>
<event>
 5    1  0.1691145E-003  0.9118800E+02  0.7818608E-02  0.1130116E+00
         25   -1    0    0    0    0  0.00000000000E+00  0.00000000000E+00  0.99999998245E-14  0.12500000000E+03  0.12500000000E+03 0.  0.
        -11    1    3    3    0    0 -0.16803007172E+02  0.12392644464E+00 -0.26775359202E+02  0.31611331330E+02  0.51100000000E-03 0. -1.
         23    2    1    0    0    0  0.73718783219E+01 -0.61339322434E+01  0.29929704155E+02  0.93571399879E+02  0.88135407016E+02 0.  0.
         11    1    3    3    0    0  0.24174885494E+02 -0.62578586880E+01  0.56705063357E+02  0.61960068549E+02  0.51100000000E-03 0.  1.
         22    1    1    0    0    0 -0.73718783219E+01  0.61339322434E+01 -0.29929704155E+02  0.31428600121E+02  0.00000000000E+00 0.  1.
</event>
<event>
 5    1  0.1691145E-003  0.9118800E+02  0.7818608E-02  0.1130116E+00
         25   -1    0    0    0    0  0.00000000000E+00  0.00000000000E+00  0.99999998245E-14  0.12500000000E+03  0.12500000000E+03 0.  0.
        -11    1    3    3    0    0 -0.43928752067E+02  0.32667007668E+02  0.21508378266E+02  0.58817335744E+02  0.51100000000E-03 0.  1.
         23    2    1    0    0    0 -0.26683744682E+02  0.24159486769E+01  0.36230005325E+01  0.97963262565E+02  0.94158460274E+02 0.  0.
         11    1    3    3    0    0  0.17245007384E+02 -0.30251058991E+02 -0.17885377733E+02  0.39145926821E+02  0.51100000000E-03 0. -1.
         22    1    1    0    0    0  0.26683744682E+02 -0.24159486769E+01 -0.36230005325E+01  0.27036737435E+02  0.00000000000E+00 0.  1.
</event>
<event>
 5    1  0.1691145E-003  0.9118800E+02  0.7818608E-02  0.1130116E+00
         25   -1    0    0    0    0  0.00000000000E+00  0.00000000000E+00  0.99999998245E-14  0.12500000000E+03  0.12500000000E+03 0.  0.
        -11    1    3    3    0    0 -0.24184216070E+02 -0.33486331364E+02  0.18394639846E+02  0.45216959987E+02  0.51100000000E-03 0.  1.
         23    2    1    0    0    0 -0.16643525678E+01  0.10062582740E+02  0.28021328614E+02  0.95180199562E+02  0.90388328286E+02 0.  0.
         11    1    3    3    0    0  0.22519863502E+02  0.43548914105E+02  0.96266887687E+01  0.49963239574E+02  0.51100000000E-03 0. -1.
         22    1    1    0    0    0  0.16643525678E+01 -0.10062582740E+02 -0.28021328614E+02  0.29819800438E+02  0.00000000000E+00 0.  1.
</event>
<event>
 5    1  0.1691145E-003  0.9118800E+02  0.7818608E-02  0.1130116E+00
         25   -1    0    0    0    0  0.00000000000E+00  0.00000000000E+00  0.99999998245E-14  0.12500000000E+03  0.12500000000E+03 0.  0.
        -11    1    3    3    0    0  0.12179497056E+02  0.15489215018E+02 -0.30787504653E+02  0.36553062436E+02  0.51100000000E-03 0.  1.
         23    2    1    0    0    0  0.47211394504E+01  0.10051878132E+02  0.27382726862E+02  0.95451004381E+02  0.90762057575E+02 0.  0.
         11    1    3    3    0    0 -0.74583576054E+01 -0.54373368866E+01  0.58170231515E+02  0.58897941945E+02  0.51100000000E-03 0. -1.
         22    1    1    0    0    0 -0.47211394504E+01 -0.10051878132E+02 -0.27382726862E+02  0.29548995619E+02  0.00000000000E+00 0. -1.
</event>
<event>
 5    1  0.1691145E-003  0.9118800E+02  0.7818608E-02  0.1130116E+00
         25   -1    0    0    0    0  0.00000000000E+00  0.00000000000E+00  0.99999998245E-14  0.12500000000E+03  0.12500000000E+03 0.  0.
        -11    1    3    3    0    0 -0.22195084701E+02 -0.31912371854E+02  0.13602049718E+02  0.41182970012E+02  0.51100000000E-03 0. -1.
         23    2    1    0    0    0  0.23379061791E+02  0.38622344877E+00  0.15281488561E+02  0.97066980267E+02  0.92960986799E+02 0.  0.
         11    1    3    3    0    0  0.45574146492E+02  0.32298595303E+02  0.16794388434E+01  0.55884010254E+02  0.51100000000E-03 0.  1.
         22    1    1    0    0    0 -0.23379061791E+02 -0.38622344877E+00 -0.15281488561E+02  0.27933019733E+02  0.00000000000E+00 0.  1.
</event>
<event>
 5    1  0.1691145E-003  0.9118800E+02  0.7818608E-02  0.1130116E+00
         25   -1    0    0    0    0  0.00000000000E+00  0.00000000000E+00  0.99999998245E-14  0.12500000000E+03  0.12500000000E+03 0.  0.
        -11    1    3    3    0    0  0.20221497526E+02 -0.40242525131E+02 -0.37485225333E+02  0.58596176579E+02  0.51100000000E-03 0.  1.
         23    2    1    0    0    0  0.10348058821E+02 -0.31243471752E+02 -0.77605748959E+01  0.91184864762E+02  0.84683033664E+02 0.  0.
         11    1    3    3    0    0 -0.98734387048E+01  0.89990533797E+01  0.29724650437E+02  0.32588688183E+02  0.51100000000E-03 0. -1.
         22    1    1    0    0    0 -0.10348058821E+02  0.31243471752E+02  0.77605748959E+01  0.33815135238E+02  0.00000000000E+00 0.  1.
</event>
<event>
 5    1  0.1691145E-003  0.9118800E+02  0.7818608E-02  0.1130116E+00
         25   -1    0    0    0    0  0.00000000000E+00  0.00000000000E+00  0.99999998245E-14  0.12500000000E+03  0.12500000000E+03 0.  0.
        -11    1    3    3    0    0 -0.35257952368E+02 -0.11576313805E+02  0.28761858885E+02  0.46950812275E+02  0.51100000000E-03 0. -1.
         23    2    1    0    0    0  0.10512275543E+02  0.24864985024E+01  0.28162893349E+02  0.94836459531E+02  0.89911706038E+02 0.  0.
         11    1    3    3    0    0  0.45770227911E+02  0.14062812308E+02 -0.59896553671E+00  0.47885647255E+02  0.51100000000E-03 0.  1.
         22    1    1    0    0    0 -0.10512275543E+02 -0.24864985024E+01 -0.28162893349E+02  0.30163540469E+02  0.00000000000E+00 0. -1.
</event>
<event>
 5    1  0.1691145E-003  0.9118800E+02  0.7818608E-02  0.1130116E+00
         25   -1    0    0    0    0  0.00000000000E+00  0.00000000000E+00  0.99999998245E-14  0.12500000000E+03  0.12500000000E+03 0.  0.
        -11    1    3    3    0    0 -0.10868737426E+02  0.18669211205E+02 -0.27332138844E+02  0.34838408607E+02  0.51100000000E-03 0. -1.
         23    2    1    0    0    0 -0.11049896722E+02 -0.29976914212E+02  0.41495743698E+01  0.92783008044E+02  0.87010068446E+02 0.  0.
         11    1    3    3    0    0 -0.18115929598E+00 -0.48646125417E+02  0.31481713214E+02  0.57944599437E+02  0.51100000000E-03 0.  1.
         22    1    1    0    0    0  0.11049896722E+02  0.29976914212E+02 -0.41495743698E+01  0.32216991956E+02  0.00000000000E+00 0.  1.
</event>
<event>
 5    1  0.1691145E-003  0.9118800E+02  0.7818608E-02  0.1130116E+00
         25   -1    0    0    0    0  0.00000000000E+00  0.00000000000E+00  0.99999998245E-14  0.12500000000E+03  0.12500000000E+03 0.  0.
        -11    1    3    3    0    0 -0.24963656354E+02 -0.33176874413E+02 -0.48647852588E+01  0.41803771005E+02  0.51100000000E-03 0.  1.
         23    2    1    0    0    0  0.24725791205E+02 -0.81660028037E+01 -0.86502918033E+01  0.97561415839E+02  0.93623469065E+02 0.  0.
         11    1    3    3    0    0  0.49689447559E+02  0.25010871609E+02 -0.37855065445E+01  0.55757644834E+02  0.51100000000E-03 0. -1.
         22    1    1    0    0    0 -0.24725791205E+02  0.81660028037E+01  0.86502918033E+01  0.27438584161E+02  0.00000000000E+00 0. -1.
</event>
<event>
 5    1  0.1691145E-003  0.9118800E+02  0.7818608E-02  0.1130116E+00
         25   -1    0    0    0    0  0.00000000000E+00  0.00000000000E+00  0.99999998245E-14  0.12500000000E+03  0.12500000000E+03 0.  0.
        -11    1    3    3    0    0  0.32406759998E+01  0.28784492174E+02  0.24363148963E+02  0.37849861272E+02  0.51100000000E-03 0.  1.
         23    2    1    0    0    0 -0.29754541085E+02  0.98443165205E+01 -0.12904301970E+02  0.91106574498E+02  0.84567391023E+02 0.  0.
         11    1    3    3    0    0 -0.32995217085E+02 -0.18940175654E+02 -0.37267450934E+02  0.53256713226E+02  0.51100000000E-03 0. -1.
         22    1    1    0    0    0  0.29754541085E+02 -0.98443165205E+01  0.12904301970E+02  0.33893425502E+02  0.00000000000E+00 0. -1.
</event>
<event>
 5    1  0.1691145E-003  0.9118800E+02  0.7818608E-02  0.1130116E+00
         25   -1    0    0    0    0  0.00000000000E+00  0.00000000000E+00  0.99999998245E-14  0.12500000000E+03  0.12500000000E+03 0.  0.
        -11    1    3    3    0    0 -0.55129804202E+02 -0.15409483092E+02  0.75553722131E+01  0.57739337804E+02  0.51100000000E-03 0.  1.
         23    2    1    0    0    0 -0.18335198520E+02 -0.14347035882E+02  0.17506992195E+02  0.95870775516E+02  0.91338348348E+02 0.  0.
         11    1    3    3    0    0  0.36794605682E+02  0.10624472104E+01  0.99516199816E+01  0.38131437711E+02  0.51100000000E-03 0. -1.
         22    1    1    0    0    0  0.18335198520E+02  0.14347035882E+02 -0.17506992195E+02  0.29129224484E+02  0.00000000000E+00 0.  1.
</event>
<event>
 5    1  0.1691145E-003  0.9118800E+02  0.7818608E-02  0.1130116E+00
         25   -1    0    0    0    0  0.00000000000E+00  0.00000000000E+00  0.99999998245E-14  0.12500000000E+03  0.12500000000E+03 0.  0.
        -11    1    3    3    0    0  0.17651337462E+02 -0.28049370109E+02  0.13935376501E+02  0.35951795452E+02  0.51100000000E-03 0.  1.
         23    2    1    0    0    0 -0.11828946590E+02  0.22037650716E+02  0.17957340251E+02  0.94209610340E+02  0.89035962313E+02 0.  0.
         11    1    3    3    0    0 -0.29480284052E+02  0.50087020825E+02  0.40219637500E+01  0.58257814888E+02  0.51100000000E-03 0. -1.
         22    1    1    0    0    0  0.11828946590E+02 -0.22037650716E+02 -0.17957340251E+02  0.30790389660E+02  0.00000000000E+00 0. -1.
</event>
<event>
 5    1  0.1691145E-003  0.9118800E+02  0.7818608E-02  0.1130116E+00
         25   -1    0    0    0    0  0.00000000000E+00  0.00000000000E+00  0.99999998245E-14  0.12500000000E+03  0.12500000000E+03 0.  0.
        -11    1    3    3    0    0  0.25540383005E+02 -0.34203646257E+02 -0.55239112565E+01  0.43043166439E+02  0.51100000000E-03 0. -1.
         23    2    1    0    0    0  0.16915998498E+02  0.86149120661E+00  0.27973729114E+02  0.92297971120E+02  0.86310444212E+02 0.  0.
         11    1    3    3    0    0 -0.86243845066E+01  0.35065137463E+02  0.33497640371E+02  0.49254804681E+02  0.51100000000E-03 0.  1.
         22    1    1    0    0    0 -0.16915998498E+02 -0.86149120661E+00 -0.27973729114E+02  0.32702028880E+02  0.00000000000E+00 0.  1.
</event>
<event>
 5    1  0.1691145E-003  0.9118800E+02  0.7818608E-02  0.1130116E+00
         25   -1    0    0    0    0  0.00000000000E+00  0.00000000000E+00  0.99999998245E-14  0.12500000000E+03  0.12500000000E+03 0.  0.
        -11    1    3    3    0    0 -0.35916928960E+02 -0.13840967371E+02 -0.31499375342E+02  0.49737398513E+02  0.51100000000E-03 0. -1.
         23    2    1    0    0    0 -0.26604726071E+02 -0.35739499554E+02 -0.20859816662E+02  0.75803910431E+02  0.57671289285E+02 0.  0.
         11    1    3    3    0    0  0.93122028889E+01 -0.21898532183E+02  0.10639558680E+02  0.26066511919E+02  0.51100000000E-03 0.  1.
         22    1    1    0    0    0  0.26604726071E+02  0.35739499554E+02  0.20859816662E+02  0.49196089569E+02  0.00000000000E+00 0.  1.
</event>
<event>
 5    1  0.1691145E-003  0.9118800E+02  0.7818608E-02  0.1130116E+00
         25   -1    0    0    0    0  0.00000000000E+00  0.00000000000E+00  0.99999998245E-14  0.12500000000E+03  0.12500000000E+03 0.  0.
        -11    1    3    3    0    0 -0.18976796858E+02 -0.98963693080E+01  0.17680803360E+02  0.27760903303E+02  0.51100000000E-03 0.  1.
         23    2    1    0    0    0  0.18566203858E+02  0.11479633906E+02 -0.27245304278E+02  0.90088790833E+02  0.83049369102E+02 0.  0.
         11    1    3    3    0    0  0.37543000716E+02  0.21376003214E+02 -0.44926107638E+02  0.62327887530E+02  0.51100000000E-03 0. -1.
         22    1    1    0    0    0 -0.18566203858E+02 -0.11479633906E+02  0.27245304278E+02  0.34911209167E+02  0.00000000000E+00 0. -1.
</event>
<event>
 5    1  0.1691145E-003  0.9118800E+02  0.7818608E-02  0.1130116E+00
         25   -1    0    0    0    0  0.00000000000E+00  0.00000000000E+00  0.99999998245E-14  0.12500000000E+03  0.12500000000E+03 0.  0.
        -11    1    3    3    0    0 -0.15439570637E+02 -0.23982855082E+02 -0.24230423403E+02  0.37425540716E+02  0.51100000000E-03 0.  1.
         23    2    1    0    0    0  0.59035563740E+01  0.27582864242E+02 -0.10532633813E+02  0.94890155220E+02  0.89986325655E+02 0.  0.
         11    1    3    3    0    0  0.21343127011E+02  0.51565719325E+02  0.13697789590E+02  0.57464614503E+02  0.51100000000E-03 0. -1.
         22    1    1    0    0    0 -0.59035563740E+01 -0.27582864242E+02  0.10532633813E+02  0.30109844780E+02  0.00000000000E+00 0. -1.
</event>
<event>
 5    1  0.1691145E-003  0.9118800E+02  0.7818608E-02  0.1130116E+00
         25   -1    0    0    0    0  0.00000000000E+00  0.00000000000E+00  0.99999998245E-14  0.12500000000E+03  0.12500000000E+03 0.  0.
        -11    1    3    3    0    0  0.31153828433E+02  0.19083711437E+02 -0.53857992425E+01  0.36929065815E+02  0.51100000000E-03 0. -1.
         23    2    1    0    0    0 -0.82711788280E+01 -0.26407630920E+02 -0.53434413320E+00  0.97322194927E+02  0.93303530114E+02 0.  0.
         11    1    3    3    0    0 -0.39425007261E+02 -0.45491342357E+02  0.48514551093E+01  0.60393129112E+02  0.51100000000E-03 0.  1.
         22    1    1    0    0    0  0.82711788280E+01  0.26407630920E+02  0.53434413320E+00  0.27677805073E+02  0.00000000000E+00 0.  1.
</event>
<event>
 5    1  0.1691145E-003  0.9118800E+02  0.7818608E-02  0.1130116E+00
         25   -1    0    0    0    0  0.00000000000E+00  0.00000000000E+00  0.99999998245E-14  0.12500000000E+03  0.12500000000E+03 0.  0.
        -11    1    3    3    0    0  0.32001055114E+02 -0.25088376080E+02 -0.31864404199E+02  0.51660762653E+02  0.51100000000E-03 0.  1.
         23    2    1    0    0    0  0.97826412229E+01  0.12835552792E+02 -0.23639647708E+02  0.96376855020E+02  0.92028331263E+02 0.  0.
         11    1    3    3    0    0 -0.22218413891E+02  0.37923928872E+02  0.82247564904E+01  0.44716092367E+02  0.51100000000E-03 0. -1.
         22    1    1    0    0    0 -0.97826412229E+01 -0.12835552792E+02  0.23639647708E+02  0.28623144980E+02  0.00000000000E+00 0.  1.
</event>
<event>
 5    1  0.1691145E-003  0.9118800E+02  0.7818608E-02  0.1130116E+00
         25   -1    0    0    0    0  0.00000000000E+00  0.00000000000E+00  0.99999998245E-14  0.12500000000E+03  0.12500000000E+03 0.  0.
        -11    1    3    3    0    0  0.12912417208E+02 -0.27388774733E+02 -0.44759359967E+02  0.54039576279E+02  0.51100000000E-03 0.  1.
         23    2    1    0    0    0 -0.15629875767E+02 -0.18965477291E+02 -0.14575662393E+02  0.96426720882E+02  0.92096038028E+02 0.  0.
         11    1    3    3    0    0 -0.28542292975E+02  0.84232974415E+01  0.30183697574E+02  0.42387144603E+02  0.51100000000E-03 0. -1.
         22    1    1    0    0    0  0.15629875767E+02  0.18965477291E+02  0.14575662393E+02  0.28573279118E+02  0.00000000000E+00 0.  1.
</event>
<event>
 5    1  0.1691145E-003  0.9118800E+02  0.7818608E-02  0.1130116E+00
         25   -1    0    0    0    0  0.00000000000E+00  0.00000000000E+00  0.99999998245E-14  0.12500000000E+03  0.12500000000E+03 0.  0.
        -11    1    3    3    0    0 -0.98558198155E+01  0.21384479329E+02 -0.28551855083E+02  0.37008668841E+02  0.51100000000E-03 0. -1.
         23    2    1    0    0    0  0.29777592569E+02  0.73203501705E+01  0.86313374152E+01  0.93144191559E+02  0.87527412219E+02 0.  0.
         11    1    3    3    0    0  0.39633412385E+02 -0.14064129159E+02  0.37183192498E+02  0.56135522719E+02  0.51100000000E-03 0.  1.
         22    1    1    0    0    0 -0.29777592569E+02 -0.73203501705E+01 -0.86313374152E+01  0.31855808441E+02  0.00000000000E+00 0.  1.
</event>
<event>
 5    1  0.1691145E-003  0.9118800E+02  0.7818608E-02  0.1130116E+00
         25   -1    0    0    0    0  0.00000000000E+00  0.00000000000E+00  0.99999998245E-14  0.12500000000E+03  0.12500000000E+03 0.  0.
        -11    1    3    3    0    0 -0.50045891442E+02 -0.32244467987E+01 -0.28158289054E+02  0.57514150868E+02  0.51100000000E-03 0.  1.
         23    2    1    0    0    0 -0.29291243111E+02 -0.87655949801E+01  0.17932816145E+01  0.94372750087E+02  0.89264704792E+02 0.  0.
         11    1    3    3    0    0  0.20754648331E+02 -0.55411481814E+01  0.29951570669E+02  0.36858599218E+02  0.51100000000E-03 0. -1.
         22    1    1    0    0    0  0.29291243111E+02  0.87655949801E+01 -0.17932816145E+01  0.30627249913E+02  0.00000000000E+00 0.  1.
</event>
<event>
 5    1  0.1691145E-003  0.9118800E+02  0.7818608E-02  0.1130116E+00
         25   -1    0    0    0    0  0.00000000000E+00  0.00000000000E+00  0.99999998245E-14  0.12500000000E+03  0.12500000000E+03 0.  0.
        -11    1    3    3    0    0 -0.46139709554E+01 -0.26149702434E+02  0.48078570703E+02  0.54923989535E+02  0.51100000000E-03 0. -1.
         23    2    1    0    0    0  0.11123741620E+01 -0.28005180214E+02  0.74453199911E+01  0.96000684751E+02  0.91515961383E+02 0.  0.
         11    1    3    3    0    0  0.57263451174E+01 -0.18554777804E+01 -0.40633250712E+02  0.41076695216E+02  0.51100000000E-03 0.  1.
         22    1    1    0    0    0 -0.11123741620E+01  0.28005180214E+02 -0.74453199911E+01  0.28999315249E+02  0.00000000000E+00 0. -1.
</event>
<event>
 5    1  0.1691145E-003  0.9118800E+02  0.7818608E-02  0.1130116E+00
         25   -1    0    0    0    0  0.00000000000E+00  0.00000000000E+00  0.99999998245E-14  0.12500000000E+03  0.12500000000E+03 0.  0.
        -11    1    3    3    0    0 -0.35349031674E+02 -0.73591645251E+01 -0.48885620313E+02  0.60774297334E+02  0.51100000000E-03 0.  1.
         23    2    1    0    0    0 -0.24342225360E+02  0.39448933101E+01 -0.21972201860E+02  0.91971470313E+02  0.85836283576E+02 0.  0.
         11    1    3    3    0    0  0.11006806314E+02  0.11304057835E+02  0.26913418453E+02  0.31197172978E+02  0.51100000000E-03 0. -1.
         22    1    1    0    0    0  0.24342225360E+02 -0.39448933101E+01  0.21972201860E+02  0.33028529687E+02  0.00000000000E+00 0.  1.
</event>
<event>
 5    1  0.1691145E-003  0.9118800E+02  0.7818608E-02  0.1130116E+00
         25   -1    0    0    0    0  0.00000000000E+00  0.00000000000E+00  0.99999998245E-14  0.12500000000E+03  0.12500000000E+03 0.  0.
        -11    1    3    3    0    0  0.27879430987E+02 -0.31703536330E+02  0.30755627703E+02  0.52232992674E+02  0.51100000000E-03 0.  1.
         23    2    1    0    0    0 -0.11574800986E+02 -0.22646805373E+02  0.13012097588E+02  0.96431337184E+02  0.92102303424E+02 0.  0.
         11    1    3    3    0    0 -0.39454231973E+02  0.90567309574E+01 -0.17743530115E+02  0.44198344510E+02  0.51100000000E-03 0. -1.
         22    1    1    0    0    0  0.11574800986E+02  0.22646805373E+02 -0.13012097588E+02  0.28568662816E+02  0.00000000000E+00 0.  1.
</event>
<event>
 5    1  0.1691145E-003  0.9118800E+02  0.7818608E-02  0.1130116E+00
         25   -1    0    0    0    0  0.00000000000E+00  0.00000000000E+00  0.99999998245E-14  0.12500000000E+03  0.12500000000E+03 0.  0.
        -11    1    3    3    0    0  0.33345641274E+02  0.35560637258E+02 -0.36596550575E+02  0.60957347616E+02  0.51100000000E-03 0.  1.
         23    2    1    0    0    0  0.10163607879E+02  0.23198770128E+02 -0.11894644231E+02  0.97018498576E+02  0.92895773015E+02 0.  0.
         11    1    3    3    0    0 -0.23182033394E+02 -0.12361867130E+02  0.24701906345E+02  0.36061150960E+02  0.51100000000E-03 0. -1.
         22    1    1    0    0    0 -0.10163607879E+02 -0.23198770128E+02  0.11894644231E+02  0.27981501424E+02  0.00000000000E+00 0.  1.
</event>
<event>
 4    1  0.1691145E-003  0.9118800E+02  0.7818608E-02  0.1130116E+00
         25   -1    0    0    0    0  0.00000000000E+00  0.00000000000E+00  0.99999998245E-14  0.12500000000E+03  0.12500000000E+03 0.  0.
        -11    1    1    0    0    0  0.15938497447E+02  0.26936794617E+02  0.17101007024E+02  0.35666105010E+02  0.51100000000E-03 0.  1.
         11    1    1    0    0    0  0.20138631523E+02  0.10886665460E+02 -0.27766187331E+02  0.35986735385E+02  0.51100000000E-03 0. -1.
         22    1    1    0    0    0 -0.36077128970E+02 -0.37823460077E+02  0.10665180308E+02  0.53347159605E+02  0.00000000000E+00 0. -1.
</event>
<event>
 5    1  0.1691145E-003  0.9118800E+02  0.7818608E-02  0.1130116E+00
         25   -1    0    0    0    0  0.00000000000E+00  0.00000000000E+00  0.99999998245E-14  0.12500000000E+03  0.12500000000E+03 0.  0.
        -11    1    3    3    0    0  0.20948147910E+02 -0.37738254393E+02  0.55414979759E+01  0.43516766258E+02  0.51100000000E-03 0.  1.
         23    2    1    0    0    0  0.24623193008E+02  0.11275162636E+02  0.15685423511E+02  0.93703619425E+02  0.88322731255E+02 0.  0.
         11    1    3    3    0    0  0.36750450985E+01  0.49013417029E+02  0.10143925535E+02  0.50186853167E+02  0.51100000000E-03 0. -1.
         22    1    1    0    0    0 -0.24623193008E+02 -0.11275162636E+02 -0.15685423511E+02  0.31296380575E+02  0.00000000000E+00 0.  1.
</event>
<event>
 5    1  0.1691145E-003  0.9118800E+02  0.7818608E-02  0.1130116E+00
         25   -1    0    0    0    0  0.00000000000E+00  0.00000000000E+00  0.99999998245E-14  0.12500000000E+03  0.12500000000E+03 0.  0.
        -11    1    3    3    0    0 -0.10922119430E+02  0.34704791936E+02  0.12782154056E+02  0.38562919219E+02  0.51100000000E-03 0. -1.
         23    2    1    0    0    0 -0.12406898598E+02 -0.83651598917E+01 -0.24992502930E+02  0.95870423355E+02  0.91337866401E+02 0.  0.
         11    1    3    3    0    0 -0.14847791680E+01 -0.43069951827E+02 -0.37774656986E+02  0.57307504136E+02  0.51100000000E-03 0.  1.
         22    1    1    0    0    0  0.12406898598E+02  0.83651598917E+01  0.24992502930E+02  0.29129576645E+02  0.00000000000E+00 0.  1.
</event>
<event>
 5    1  0.1691145E-003  0.9118800E+02  0.7818608E-02  0.1130116E+00
         25   -1    0    0    0    0  0.00000000000E+00  0.00000000000E+00  0.99999998245E-14  0.12500000000E+03  0.12500000000E+03 0.  0.
        -11    1    3    3    0    0  0.44174458500E+01  0.41103904539E+02 -0.41716837443E+02  0.58731076294E+02  0.51100000000E-03 0.  1.
         23    2    1    0    0    0 -0.53655669996E+01  0.91201115200E+01 -0.28332208739E+02  0.94756326357E+02  0.89800231566E+02 0.  0.
         11    1    3    3    0    0 -0.97830128496E+01 -0.31983793019E+02  0.13384628703E+02  0.36025250063E+02  0.51100000000E-03 0. -1.
         22    1    1    0    0    0  0.53655669996E+01 -0.91201115200E+01  0.28332208739E+02  0.30243673643E+02  0.00000000000E+00 0.  1.
</event>
<event>
 5    1  0.1691145E-003  0.9118800E+02  0.7818608E-02  0.1130116E+00
         25   -1    0    0    0    0  0.00000000000E+00  0.00000000000E+00  0.99999998245E-14  0.12500000000E+03  0.12500000000E+03 0.  0.
        -11    1    3    3    0    0 -0.33054067329E+02  0.76483842060E+01  0.93779503767E+01  0.35199646326E+02  0.51100000000E-03 0.  1.
         23    2    1    0    0    0  0.22880706184E+02 -0.14295138467E+02  0.12285961935E+02  0.95355058442E+02  0.90629821861E+02 0.  0.
         11    1    3    3    0    0  0.55934773514E+02 -0.21943522673E+02  0.29080115581E+01  0.60155412116E+02  0.51100000000E-03 0. -1.
         22    1    1    0    0    0 -0.22880706184E+02  0.14295138467E+02 -0.12285961935E+02  0.29644941558E+02  0.00000000000E+00 0. -1.
</event>
<event>
 5    1  0.1691145E-003  0.9118800E+02  0.7818608E-02  0.1130116E+00
         25   -1    0    0    0    0  0.00000000000E+00  0.00000000000E+00  0.99999998245E-14  0.12500000000E+03  0.12500000000E+03 0.  0.
        -11    1    3    3    0    0  0.41206865082E+02 -0.35068269512E+01  0.30220087901E+02  0.51220672371E+02  0.51100000000E-03 0.  1.
         23    2    1    0    0    0  0.19543094590E+02 -0.20776447464E+02 -0.50104188185E+01  0.96039723549E+02  0.91569268247E+02 0.  0.
         11    1    3    3    0    0 -0.21663770492E+02 -0.17269620512E+02 -0.35230506719E+02  0.44819051178E+02  0.51100000000E-03 0. -1.
         22    1    1    0    0    0 -0.19543094590E+02  0.20776447464E+02  0.50104188185E+01  0.28960276451E+02  0.00000000000E+00 0.  1.
</event>
<event>
 5    1  0.1691145E-003  0.9118800E+02  0.7818608E-02  0.1130116E+00
         25   -1    0    0    0    0  0.00000000000E+00  0.00000000000E+00  0.99999998245E-14  0.12500000000E+03  0.12500000000E+03 0.  0.
        -11    1    3    3    0    0  0.27534763725E+02  0.82627195995E+01  0.20179278674E+02  0.35123197984E+02  0.51100000000E-03 0. -1.
         23    2    1    0    0    0 -0.29427458359E+02  0.48275553777E+01  0.16036565559E+01  0.95136103557E+02  0.90327326371E+02 0.  0.
         11    1    3    3    0    0 -0.56962222084E+02 -0.34351642217E+01 -0.18575622118E+02  0.60012905573E+02  0.51100000000E-03 0.  1.
         22    1    1    0    0    0  0.29427458359E+02 -0.48275553777E+01 -0.16036565559E+01  0.29863896443E+02  0.00000000000E+00 0.  1.
</event>
<event>
 5    1  0.1691145E-003  0.9118800E+02  0.7818608E-02  0.1130116E+00
         25   -1    0    0    0    0  0.00000000000E+00  0.00000000000E+00  0.99999998245E-14  0.12500000000E+03  0.12500000000E+03 0.  0.
        -11    1    3    3    0    0  0.23307803116E+02  0.43496420875E+02 -0.99792900867E+01  0.50346584253E+02  0.51100000000E-03 0.  1.
         23    2    1    0    0    0  0.28400691429E+02 -0.17106337567E+01 -0.50085341738E+01  0.96110365941E+02  0.91665650520E+02 0.  0.
         11    1    3    3    0    0  0.50928883127E+01 -0.45207054631E+02  0.49707559129E+01  0.45763781688E+02  0.51100000000E-03 0. -1.
         22    1    1    0    0    0 -0.28400691429E+02  0.17106337567E+01  0.50085341738E+01  0.28889634059E+02  0.00000000000E+00 0.  1.
</event>
<event>
 5    1  0.1691145E-003  0.9118800E+02  0.7818608E-02  0.1130116E+00
         25   -1    0    0    0    0  0.00000000000E+00  0.00000000000E+00  0.99999998245E-14  0.12500000000E+03  0.12500000000E+03 0.  0.
        -11    1    3    3    0    0  0.15672202219E+02  0.28711643337E+02  0.57905103192E+01  0.33219066747E+02  0.51100000000E-03 0. -1.
         23    2    1    0    0    0 -0.30278043126E+02  0.91108013199E+01 -0.18070786975E+02  0.88581324322E+02  0.80748567050E+02 0.  0.
         11    1    3    3    0    0 -0.45950245344E+02 -0.19600842017E+02 -0.23861297295E+02  0.55362257575E+02  0.51100000000E-03 0.  1.
         22    1    1    0    0    0  0.30278043126E+02 -0.91108013199E+01  0.18070786975E+02  0.36418675678E+02  0.00000000000E+00 0.  1.
</event>
<event>
 5    1  0.1691145E-003  0.9118800E+02  0.7818608E-02  0.1130116E+00
         25   -1    0    0    0    0  0.00000000000E+00  0.00000000000E+00  0.99999998245E-14  0.12500000000E+03  0.12500000000E+03 0.  0.
        -11    1    3    3    0    0 -0.17039611199E+02  0.31096321748E+02  0.78326454605E+01  0.36313632581E+02  0.51100000000E-03 0. -1.
         23    2    1    0    0    0  0.10921367899E+02 -0.64500190591E+01 -0.27335153635E+02  0.94865474172E+02  0.89952034679E+02 0.  0.
         11    1    3    3    0    0  0.27960979098E+02 -0.37546340807E+02 -0.35167799095E+02  0.58551841590E+02  0.51100000000E-03 0.  1.
         22    1    1    0    0    0 -0.10921367899E+02  0.64500190591E+01  0.27335153635E+02  0.30134525828E+02  0.00000000000E+00 0.  1.
</event>
<event>
 5    1  0.1691145E-003  0.9118800E+02  0.7818608E-02  0.1130116E+00
         25   -1    0    0    0    0  0.00000000000E+00  0.00000000000E+00  0.99999998245E-14  0.12500000000E+03  0.12500000000E+03 0.  0.
        -11    1    3    3    0    0  0.17328963557E+02 -0.41909536201E+02 -0.35599473661E+02  0.57654355670E+02  0.51100000000E-03 0.  1.
         23    2    1    0    0    0  0.23771052963E+02 -0.12110339011E+02 -0.16872011471E+02  0.93434385147E+02  0.87940868127E+02 0.  0.
         11    1    3    3    0    0  0.64420894062E+01  0.29799197190E+02  0.18727462190E+02  0.35780029478E+02  0.51100000000E-03 0. -1.
         22    1    1    0    0    0 -0.23771052963E+02  0.12110339011E+02  0.16872011471E+02  0.31565614853E+02  0.00000000000E+00 0. -1.
</event>
<event>
 5    1  0.1691145E-003  0.9118800E+02  0.7818608E-02  0.1130116E+00
         25   -1    0    0    0    0  0.00000000000E+00  0.00000000000E+00  0.99999998245E-14  0.12500000000E+03  0.12500000000E+03 0.  0.
        -11    1    3    3    0    0 -0.14565171034E+01 -0.55603044690E+01 -0.60890805289E+02  0.61161496032E+02  0.51100000000E-03 0.  1.
         23    2    1    0    0    0 -0.54034400511E+01 -0.10260294105E+02 -0.26823749213E+02  0.95776989865E+02  0.91209908817E+02 0.  0.
         11    1    3    3    0    0 -0.39469229477E+01 -0.46999896356E+01  0.34067056076E+02  0.34615493833E+02  0.51100000000E-03 0. -1.
         22    1    1    0    0    0  0.54034400511E+01  0.10260294105E+02  0.26823749213E+02  0.29223010135E+02  0.00000000000E+00 0.  1.
</event>
<event>
 5    1  0.1691145E-003  0.9118800E+02  0.7818608E-02  0.1130116E+00
         25   -1    0    0    0    0  0.00000000000E+00  0.00000000000E+00  0.99999998245E-14  0.12500000000E+03  0.12500000000E+03 0.  0.
        -11    1    3    3    0    0  0.24302727458E+01 -0.40130064046E+02 -0.13643183235E+02  0.42455443879E+02  0.51100000000E-03 0. -1.
         23    2    1    0    0    0 -0.26228896459E+02  0.55606487261E+01 -0.95212140273E+01  0.96547770909E+02  0.92260190371E+02 0.  0.
         11    1    3    3    0    0 -0.28659169204E+02  0.45690712772E+02  0.41219692082E+01  0.54092327030E+02  0.51100000000E-03 0.  1.
         22    1    1    0    0    0  0.26228896459E+02 -0.55606487261E+01  0.95212140273E+01  0.28452229091E+02  0.00000000000E+00 0.  1.
</event>
<event>
 5    1  0.1691145E-003  0.9118800E+02  0.7818608E-02  0.1130116E+00
         25   -1    0    0    0    0  0.00000000000E+00  0.00000000000E+00  0.99999998245E-14  0.12500000000E+03  0.12500000000E+03 0.  0.
        -11    1    3    3    0    0 -0.31303545316E+02 -0.19129119298E+02  0.67682745522E+01  0.37304754324E+02  0.51100000000E-03 0.  1.
         23    2    1    0    0    0  0.16469238436E+02  0.43948892376E+01  0.25990569824E+02  0.93918484821E+02  0.88626300866E+02 0.  0.
         11    1    3    3    0    0  0.47772783752E+02  0.23524008535E+02  0.19222295272E+02  0.56613730497E+02  0.51100000000E-03 0. -1.
         22    1    1    0    0    0 -0.16469238436E+02 -0.43948892376E+01 -0.25990569824E+02  0.31081515179E+02  0.00000000000E+00 0. -1.
</event>
<event>
 5    1  0.1691145E-003  0.9118800E+02  0.7818608E-02  0.1130116E+00
         25   -1    0    0    0    0  0.00000000000E+00  0.00000000000E+00  0.99999998245E-14  0.12500000000E+03  0.12500000000E+03 0.  0.
        -11    1    3    3    0    0 -0.19248370333E+02 -0.27570432178E+02 -0.82664043428E+01  0.34626029688E+02  0.51100000000E-03 0.  1.
         23    2    1    0    0    0  0.18985066094E+02  0.18901199164E+02  0.81407306570E+01  0.97000722151E+02  0.92871850082E+02 0.  0.
         11    1    3    3    0    0  0.38233436428E+02  0.46471631342E+02  0.16407135000E+02  0.62374692463E+02  0.51100000000E-03 0. -1.
         22    1    1    0    0    0 -0.18985066094E+02 -0.18901199164E+02 -0.81407306570E+01  0.27999277849E+02  0.00000000000E+00 0. -1.
</event>
<event>
 5    1  0.1691145E-003  0.9118800E+02  0.7818608E-02  0.1130116E+00
         25   -1    0    0    0    0  0.00000000000E+00  0.00000000000E+00  0.99999998245E-14  0.12500000000E+03  0.12500000000E+03 0.  0.
        -11    1    3    3    0    0  0.34556141066E+02  0.71694842164E+01  0.14741147691E+02  0.38246958374E+02  0.51100000000E-03 0. -1.
         23    2    1    0    0    0 -0.21132481726E+02 -0.24113364215E+01  0.21013494662E+02  0.95100781195E+02  0.90278432079E+02 0.  0.
         11    1    3    3    0    0 -0.55688622792E+02 -0.95808206379E+01  0.62723469713E+01  0.56853822821E+02  0.51100000000E-03 0.  1.
         22    1    1    0    0    0  0.21132481726E+02  0.24113364215E+01 -0.21013494662E+02  0.29899218805E+02  0.00000000000E+00 0.  1.
</event>
<event>
 5    1  0.1691145E-003  0.9118800E+02  0.7818608E-02  0.1130116E+00
         25   -1    0    0    0    0  0.00000000000E+00  0.00000000000E+00  0.99999998245E-14  0.12500000000E+03  0.12500000000E+03 0.  0.
        -11    1    3    3    0    0 -0.46468618263E+02  0.48514451265E+01 -0.19714064626E+02  0.50710091180E+02  0.51100000000E-03 0.  1.
         23    2    1    0    0    0 -0.14880971834E+02 -0.24373218030E+02 -0.90235384845E+01  0.95051355178E+02  0.90209970594E+02 0.  0.
         11    1    3    3    0    0  0.31587646429E+02 -0.29224663157E+02  0.10690526141E+02  0.44341263998E+02  0.51100000000E-03 0. -1.
         22    1    1    0    0    0  0.14880971834E+02  0.24373218030E+02  0.90235384845E+01  0.29948644822E+02  0.00000000000E+00 0.  1.
</event>
<event>
 5    1  0.1691145E-003  0.9118800E+02  0.7818608E-02  0.1130116E+00
         25   -1    0    0    0    0  0.00000000000E+00  0.00000000000E+00  0.99999998245E-14  0.12500000000E+03  0.12500000000E+03 0.  0.
        -11    1    3    3    0    0  0.13571286703E+02 -0.21246617021E+02 -0.25344149645E+02  0.35748069586E+02  0.51100000000E-03 0.  1.
         23    2    1    0    0    0  0.51371978917E+01  0.30716383301E+02 -0.76212394631E+00  0.93847667211E+02  0.88526362191E+02 0.  0.
         11    1    3    3    0    0 -0.84340888110E+01  0.51963000322E+02  0.24582025699E+02  0.58099597626E+02  0.51100000000E-03 0. -1.
         22    1    1    0    0    0 -0.51371978917E+01 -0.30716383301E+02  0.76212394631E+00  0.31152332789E+02  0.00000000000E+00 0. -1.
</event>
<event>
 5    1  0.1691145E-003  0.9118800E+02  0.7818608E-02  0.1130116E+00
         25   -1    0    0    0    0  0.00000000000E+00  0.00000000000E+00  0.99999998245E-14  0.12500000000E+03  0.12500000000E+03 0.  0.
        -11    1    3    3    0    0  0.19447711772E+02 -0.98507295755E+01  0.58378966355E+02  0.62316563442E+02  0.51100000000E-03 0.  1.
         23    2    1    0    0    0  0.49658812678E+01 -0.60946408900E+01  0.19476207869E+02  0.10399696933E+03  0.10185402463E+03 0.  0.
         11    1    3    3    0    0 -0.14481830504E+02  0.37560886855E+01 -0.38902758486E+02  0.41680405889E+02  0.51100000000E-03 0. -1.
         22    1    1    0    0    0 -0.49658812678E+01  0.60946408900E+01 -0.19476207869E+02  0.21003030669E+02  0.00000000000E+00 0.  1.
</event>
<event>
 5    1  0.1691145E-003  0.9118800E+02  0.7818608E-02  0.1130116E+00
         25   -1    0    0    0    0  0.00000000000E+00  0.00000000000E+00  0.99999998245E-14  0.12500000000E+03  0.12500000000E+03 0.  0.
        -11    1    3    3    0    0 -0.26002045001E+02 -0.22957473212E+02  0.74967512723E+01  0.35487366772E+02  0.51100000000E-03 0. -1.
         23    2    1    0    0    0  0.25516419655E+02 -0.40708628870E+00 -0.14235928946E+02  0.95778174866E+02  0.91211532804E+02 0.  0.
         11    1    3    3    0    0  0.51518464655E+02  0.22550386924E+02 -0.21732680218E+02  0.60290808094E+02  0.51100000000E-03 0.  1.
         22    1    1    0    0    0 -0.25516419655E+02  0.40708628870E+00  0.14235928946E+02  0.29221825134E+02  0.00000000000E+00 0.  1.
</event>
<event>
 5    1  0.1691145E-003  0.9118800E+02  0.7818608E-02  0.1130116E+00
         25   -1    0    0    0    0  0.00000000000E+00  0.00000000000E+00  0.99999998245E-14  0.12500000000E+03  0.12500000000E+03 0.  0.
        -11    1    3    3    0    0 -0.51034356925E+02 -0.12486060420E+02 -0.15434588492E+02  0.54759782813E+02  0.51100000000E-03 0.  1.
         23    2    1    0    0    0 -0.14975747081E+02 -0.24702910966E+02  0.68594609639E+00  0.96104025663E+02  0.91657004182E+02 0.  0.
         11    1    3    3    0    0  0.36058609844E+02 -0.12216850547E+02  0.16120534588E+02  0.41344242850E+02  0.51100000000E-03 0. -1.
         22    1    1    0    0    0  0.14975747081E+02  0.24702910966E+02 -0.68594609639E+00  0.28895974337E+02  0.00000000000E+00 0.  1.
</event>
<event>
 5    1  0.1691145E-003  0.9118800E+02  0.7818608E-02  0.1130116E+00
         25   -1    0    0    0    0  0.00000000000E+00  0.00000000000E+00  0.99999998245E-14  0.12500000000E+03  0.12500000000E+03 0.  0.
        -11    1    3    3    0    0  0.30068993328E+02 -0.32165461335E+02  0.17977122964E+02  0.47559838235E+02  0.51100000000E-03 0. -1.
         23    2    1    0    0    0  0.12580561996E+02  0.13257455716E+02  0.21999646002E+02  0.96399036793E+02  0.92058455332E+02 0.  0.
         11    1    3    3    0    0 -0.17488431332E+02  0.45422917051E+02  0.40225230374E+01  0.48839198557E+02  0.51100000000E-03 0.  1.
         22    1    1    0    0    0 -0.12580561996E+02 -0.13257455716E+02 -0.21999646002E+02  0.28600963207E+02  0.00000000000E+00 0.  1.
</event>
<event>
 5    1  0.1691145E-003  0.9118800E+02  0.7818608E-02  0.1130116E+00
         25   -1    0    0    0    0  0.00000000000E+00  0.00000000000E+00  0.99999998245E-14  0.12500000000E+03  0.12500000000E+03 0.  0.
        -11    1    3    3    0    0  0.55692530311E+02 -0.38787418557E+01 -0.19993091449E+02  0.59299462703E+02  0.51100000000E-03 0. -1.
         23    2    1    0    0    0  0.22717626196E+02  0.10280403324E+02 -0.15919205368E+02  0.95416248851E+02  0.90714178675E+02 0.  0.
         11    1    3    3    0    0 -0.32974904115E+02  0.14159145180E+02  0.40738860811E+01  0.36116786148E+02  0.51100000000E-03 0.  1.
         22    1    1    0    0    0 -0.22717626196E+02 -0.10280403324E+02  0.15919205368E+02  0.29583751149E+02  0.00000000000E+00 0. -1.
</event>
<event>
 5    1  0.1691145E-003  0.9118800E+02  0.7818608E-02  0.1130116E+00
         25   -1    0    0    0    0  0.00000000000E+00  0.00000000000E+00  0.99999998245E-14  0.12500000000E+03  0.12500000000E+03 0.  0.
        -11    1    3    3    0    0  0.24117087770E+02 -0.44182467252E+01  0.22814573991E+02  0.33491187099E+02  0.51100000000E-03 0.  1.
         23    2    1    0    0    0 -0.25128998618E+02 -0.47818691745E+01 -0.14788138476E+02  0.95453056268E+02  0.90764883446E+02 0.  0.
         11    1    3    3    0    0 -0.49246086388E+02 -0.36362244932E+00 -0.37602712467E+02  0.61961869169E+02  0.51100000000E-03 0. -1.
         22    1    1    0    0    0  0.25128998618E+02  0.47818691745E+01  0.14788138476E+02  0.29546943732E+02  0.00000000000E+00 0. -1.
</event>
<event>
 5    1  0.1691145E-003  0.9118800E+02  0.7818608E-02  0.1130116E+00
         25   -1    0    0    0    0  0.00000000000E+00  0.00000000000E+00  0.99999998245E-14  0.12500000000E+03  0.12500000000E+03 0.  0.
        -11    1    3    3    0    0  0.47752964046E+02 -0.11566437231E+02  0.71386269394E+01  0.49649652972E+02  0.51100000000E-03 0.  1.
         23    2    1    0    0    0  0.88949345581E+01 -0.30506449795E+02  0.35159579244E+01  0.93029305607E+02  0.87363186765E+02 0.  0.
         11    1    3    3    0    0 -0.38858029488E+02 -0.18940012564E+02 -0.36226690150E+01  0.43379652634E+02  0.51100000000E-03 0. -1.
         22    1    1    0    0    0 -0.88949345581E+01  0.30506449795E+02 -0.35159579244E+01  0.31970694393E+02  0.00000000000E+00 0.  1.
</event>
<event>
 5    1  0.1691145E-003  0.9118800E+02  0.7818608E-02  0.1130116E+00
         25   -1    0    0    0    0  0.00000000000E+00  0.00000000000E+00  0.99999998245E-14  0.12500000000E+03  0.12500000000E+03 0.  0.
        -11    1    3    3    0    0  0.13372112484E+02  0.39849332720E+02  0.34000055055E+00  0.42034489543E+02  0.51100000000E-03 0.  1.
         23    2    1    0    0    0 -0.46172088370E+01 -0.27989251668E+01 -0.28116869745E+02  0.96369405109E+02  0.92018211661E+02 0.  0.
         11    1    3    3    0    0 -0.17989321321E+02 -0.42648257886E+02 -0.28456870296E+02  0.54334915567E+02  0.51100000000E-03 0. -1.
         22    1    1    0    0    0  0.46172088370E+01  0.27989251668E+01  0.28116869745E+02  0.28630594891E+02  0.00000000000E+00 0. -1.
</event>
<event>
 5    1  0.1691145E-003  0.9118800E+02  0.7818608E-02  0.1130116E+00
         25   -1    0    0    0    0  0.00000000000E+00  0.00000000000E+00  0.99999998245E-14  0.12500000000E+03  0.12500000000E+03 0.  0.
        -11    1    3    3    0    0 -0.21085620520E+02  0.43680486639E+02  0.35522057672E+02  0.60119920885E+02  0.51100000000E-03 0.  1.
         23    2    1    0    0    0 -0.16815560488E+02  0.11762803582E+02  0.21610088078E+02  0.95198615311E+02  0.90413792243E+02 0.  0.
         11    1    3    3    0    0  0.42700600318E+01 -0.31917683057E+02 -0.13911969594E+02  0.35078694426E+02  0.51100000000E-03 0. -1.
         22    1    1    0    0    0  0.16815560488E+02 -0.11762803582E+02 -0.21610088078E+02  0.29801384689E+02  0.00000000000E+00 0.  1.
</event>
<event>
 5    1  0.1691145E-003  0.9118800E+02  0.7818608E-02  0.1130116E+00
         25   -1    0    0    0    0  0.00000000000E+00  0.00000000000E+00  0.99999998245E-14  0.12500000000E+03  0.12500000000E+03 0.  0.
        -11    1    3    3    0    0  0.26986064499E+02 -0.27822131893E+02 -0.10387906285E+02  0.40127637577E+02  0.51100000000E-03 0. -1.
         23    2    1    0    0    0  0.54460797178E+01  0.23880853132E+02 -0.14917556773E+02  0.96320940903E+02  0.91952353019E+02 0.  0.
         11    1    3    3    0    0 -0.21539984782E+02  0.51702985025E+02 -0.45296504878E+01  0.56193303326E+02  0.51100000000E-03 0.  1.
         22    1    1    0    0    0 -0.54460797178E+01 -0.23880853132E+02  0.14917556773E+02  0.28679059097E+02  0.00000000000E+00 0.  1.
</event>
<event>
 5    1  0.1691145E-003  0.9118800E+02  0.7818608E-02  0.1130116E+00
         25   -1    0    0    0    0  0.00000000000E+00  0.00000000000E+00  0.99999998245E-14  0.12500000000E+03  0.12500000000E+03 0.  0.
        -11    1    3    3    0    0  0.42594247459E+02 -0.28908927358E+02 -0.11218168757E+02  0.52686272482E+02  0.51100000000E-03 0.  1.
         23    2    1    0    0    0  0.18033197642E+01 -0.19098858854E+02 -0.21806934044E+02  0.95955882797E+02  0.91454746729E+02 0.  0.
         11    1    3    3    0    0 -0.40790927694E+02  0.98100685041E+01 -0.10588765287E+02  0.43269610315E+02  0.51100000000E-03 0. -1.
         22    1    1    0    0    0 -0.18033197642E+01  0.19098858854E+02  0.21806934044E+02  0.29044117203E+02  0.00000000000E+00 0. -1.
</event>
<event>
 5    1  0.1691145E-003  0.9118800E+02  0.7818608E-02  0.1130116E+00
         25   -1    0    0    0    0  0.00000000000E+00  0.00000000000E+00  0.99999998245E-14  0.12500000000E+03  0.12500000000E+03 0.  0.
        -11    1    3    3    0    0 -0.10182010561E+02 -0.15854618243E+02  0.26980970791E+02  0.32909193910E+02  0.51100000000E-03 0.  1.
         23    2    1    0    0    0  0.13110459317E+02  0.24720615784E+02 -0.12713679920E+02  0.94265155843E+02  0.89113910030E+02 0.  0.
         11    1    3    3    0    0  0.23292469878E+02  0.40575234027E+02 -0.39694650711E+02  0.61355961933E+02  0.51100000000E-03 0. -1.
         22    1    1    0    0    0 -0.13110459317E+02 -0.24720615784E+02  0.12713679920E+02  0.30734844157E+02  0.00000000000E+00 0. -1.
</event>
<event>
 5    1  0.1691145E-003  0.9118800E+02  0.7818608E-02  0.1130116E+00
         25   -1    0    0    0    0  0.00000000000E+00  0.00000000000E+00  0.99999998245E-14  0.12500000000E+03  0.12500000000E+03 0.  0.
        -11    1    3    3    0    0  0.33609748550E+02  0.81474969883E+01  0.13011250929E+01  0.34607655678E+02  0.51100000000E-03 0.  1.
         23    2    1    0    0    0 -0.28084223331E+02 -0.48211438761E+00  0.37324594543E+00  0.96909159021E+02  0.92748529666E+02 0.  0.
         11    1    3    3    0    0 -0.61693971880E+02 -0.86296113759E+01 -0.92787914747E+00  0.62301503343E+02  0.51100000000E-03 0. -1.
         22    1    1    0    0    0  0.28084223331E+02  0.48211438761E+00 -0.37324594543E+00  0.28090840979E+02  0.00000000000E+00 0. -1.
</event>
<event>
 5    1  0.1691145E-003  0.9118800E+02  0.7818608E-02  0.1130116E+00
         25   -1    0    0    0    0  0.00000000000E+00  0.00000000000E+00  0.99999998245E-14  0.12500000000E+03  0.12500000000E+03 0.  0.
        -11    1    3    3    0    0  0.20589741969E+02 -0.96935607052E+01  0.28668961437E+02  0.36603441691E+02  0.51100000000E-03 0.  1.
         23    2    1    0    0    0 -0.97116682251E+01  0.27816965977E+02 -0.45895945308E+01  0.95181138958E+02  0.90389627389E+02 0.  0.
         11    1    3    3    0    0 -0.30301410194E+02  0.37510526682E+02 -0.33258555968E+02  0.58577697267E+02  0.51100000000E-03 0. -1.
         22    1    1    0    0    0  0.97116682251E+01 -0.27816965977E+02  0.45895945308E+01  0.29818861042E+02  0.00000000000E+00 0.  1.
</event>
<event>
 5    1  0.1691145E-003  0.9118800E+02  0.7818608E-02  0.1130116E+00
         25   -1    0    0    0    0  0.00000000000E+00  0.00000000000E+00  0.99999998245E-14  0.12500000000E+03  0.12500000000E+03 0.  0.
        -11    1    3    3    0    0  0.11056183181E+02  0.39004114279E+02  0.21778266482E+01  0.40599298595E+02  0.51100000000E-03 0. -1.
         23    2    1    0    0    0 -0.19788293817E+02  0.55976299655E+01 -0.24261053153E+02  0.93195774911E+02  0.87601048668E+02 0.  0.
         11    1    3    3    0    0 -0.30844476998E+02 -0.33406484314E+02 -0.26438879801E+02  0.52596476316E+02  0.51100000000E-03 0.  1.
         22    1    1    0    0    0  0.19788293817E+02 -0.55976299655E+01  0.24261053153E+02  0.31804225089E+02  0.00000000000E+00 0.  1.
</event>
<event>
 5    1  0.1691145E-003  0.9118800E+02  0.7818608E-02  0.1130116E+00
         25   -1    0    0    0    0  0.00000000000E+00  0.00000000000E+00  0.99999998245E-14  0.12500000000E+03  0.12500000000E+03 0.  0.
        -11    1    3    3    0    0 -0.38141244472E+02  0.66313558862E+01 -0.44929514702E+02  0.59307593969E+02  0.51100000000E-03 0.  1.
         23    2    1    0    0    0 -0.91341252131E+01 -0.65950342565E+01 -0.26673227318E+02  0.96045073376E+02  0.91576570934E+02 0.  0.
         11    1    3    3    0    0  0.29007119259E+02 -0.13226390143E+02  0.18256287384E+02  0.36737479407E+02  0.51100000000E-03 0. -1.
         22    1    1    0    0    0  0.91341252131E+01  0.65950342565E+01  0.26673227318E+02  0.28954926624E+02  0.00000000000E+00 0.  1.
</event>
<event>
 5    1  0.1691145E-003  0.9118800E+02  0.7818608E-02  0.1130116E+00
         25   -1    0    0    0    0  0.00000000000E+00  0.00000000000E+00  0.99999998245E-14  0.12500000000E+03  0.12500000000E+03 0.  0.
        -11    1    3    3    0    0 -0.58126060776E+02 -0.10115722012E+02 -0.79664377418E+00  0.59005096515E+02  0.51100000000E-03 0.  1.
         23    2    1    0    0    0 -0.24373786017E+02  0.67811547757E+01 -0.98994015557E+01  0.97832673005E+02  0.93984936300E+02 0.  0.
         11    1    3    3    0    0  0.33752274759E+02  0.16896876788E+02 -0.91027577815E+01  0.38827576490E+02  0.51100000000E-03 0. -1.
         22    1    1    0    0    0  0.24373786017E+02 -0.67811547757E+01  0.98994015557E+01  0.27167326995E+02  0.00000000000E+00 0.  1.
</event>
<event>
 5    1  0.1691145E-003  0.9118800E+02  0.7818608E-02  0.1130116E+00
         25   -1    0    0    0    0  0.00000000000E+00  0.00000000000E+00  0.99999998245E-14  0.12500000000E+03  0.12500000000E+03 0.  0.
        -11    1    3    3    0    0 -0.57647125004E+00 -0.33005823664E+01 -0.43470582343E+02  0.43599514820E+02  0.51100000000E-03 0. -1.
         23    2    1    0    0    0  0.11948002838E+02 -0.26103684627E+02  0.22499799989E+01  0.96203827808E+02  0.91793011456E+02 0.  0.
         11    1    3    3    0    0  0.12524474088E+02 -0.22803102260E+02  0.45720562342E+02  0.52604312988E+02  0.51100000000E-03 0.  1.
         22    1    1    0    0    0 -0.11948002838E+02  0.26103684627E+02 -0.22499799989E+01  0.28796172192E+02  0.00000000000E+00 0. -1.
</event>
<event>
 5    1  0.1691145E-003  0.9118800E+02  0.7818608E-02  0.1130116E+00
         25   -1    0    0    0    0  0.00000000000E+00  0.00000000000E+00  0.99999998245E-14  0.12500000000E+03  0.12500000000E+03 0.  0.
        -11    1    3    3    0    0  0.54399576594E+01 -0.26807970087E+02  0.29268285035E+02  0.40061114671E+02  0.51100000000E-03 0.  1.
         23    2    1    0    0    0  0.25826280470E+02  0.15773766065E+02  0.17924276176E+01  0.94684636642E+02  0.89700385509E+02 0.  0.
         11    1    3    3    0    0  0.20386322810E+02  0.42581736152E+02 -0.27475857417E+02  0.54623521971E+02  0.51100000000E-03 0. -1.
         22    1    1    0    0    0 -0.25826280470E+02 -0.15773766065E+02 -0.17924276176E+01  0.30315363358E+02  0.00000000000E+00 0. -1.
</event>
<event>
 5    1  0.1691145E-003  0.9118800E+02  0.7818608E-02  0.1130116E+00
         25   -1    0    0    0    0  0.00000000000E+00  0.00000000000E+00  0.99999998245E-14  0.12500000000E+03  0.12500000000E+03 0.  0.
        -11    1    3    3    0    0 -0.59848035419E+02  0.29168828919E+01  0.56477441153E+01  0.60184653884E+02  0.51100000000E-03 0. -1.
         23    2    1    0    0    0 -0.28741284921E+02 -0.72210442123E+01 -0.57163671801E+01  0.94819181719E+02  0.89887682302E+02 0.  0.
         11    1    3    3    0    0  0.31106750498E+02 -0.10137927104E+02 -0.11364111295E+02  0.34634527835E+02  0.51100000000E-03 0.  1.
         22    1    1    0    0    0  0.28741284921E+02  0.72210442123E+01  0.57163671801E+01  0.30180818281E+02  0.00000000000E+00 0. -1.
</event>
<event>
 5    1  0.1691145E-003  0.9118800E+02  0.7818608E-02  0.1130116E+00
         25   -1    0    0    0    0  0.00000000000E+00  0.00000000000E+00  0.99999998245E-14  0.12500000000E+03  0.12500000000E+03 0.  0.
        -11    1    3    3    0    0 -0.76913900785E+01  0.12327065357E+00 -0.46655564089E+02  0.47285455879E+02  0.51100000000E-03 0.  1.
         23    2    1    0    0    0  0.19967815943E+02  0.19658388931E+02 -0.17553213495E+02  0.91935196463E+02  0.85783443134E+02 0.  0.
         11    1    3    3    0    0  0.27659206022E+02  0.19535118278E+02  0.29102350594E+02  0.44649740584E+02  0.51100000000E-03 0. -1.
         22    1    1    0    0    0 -0.19967815943E+02 -0.19658388931E+02  0.17553213495E+02  0.33064803537E+02  0.00000000000E+00 0.  1.
</event>
<event>
 5    1  0.1691145E-003  0.9118800E+02  0.7818608E-02  0.1130116E+00
         25   -1    0    0    0    0  0.00000000000E+00  0.00000000000E+00  0.99999998245E-14  0.12500000000E+03  0.12500000000E+03 0.  0.
        -11    1    3    3    0    0  0.29529914453E+01  0.59453763034E+01 -0.54928183082E+02  0.55327867795E+02  0.51100000000E-03 0. -1.
         23    2    1    0    0    0  0.17266304146E+02  0.15195325181E+02 -0.18726923594E+02  0.95339911775E+02  0.90608928610E+02 0.  0.
         11    1    3    3    0    0  0.14313312701E+02  0.92499488773E+01  0.36201259487E+02  0.40012043980E+02  0.51100000000E-03 0.  1.
         22    1    1    0    0    0 -0.17266304146E+02 -0.15195325181E+02  0.18726923594E+02  0.29660088225E+02  0.00000000000E+00 0. -1.
</event>
<event>
 5    1  0.1691145E-003  0.9118800E+02  0.7818608E-02  0.1130116E+00
         25   -1    0    0    0    0  0.00000000000E+00  0.00000000000E+00  0.99999998245E-14  0.12500000000E+03  0.12500000000E+03 0.  0.
        -11    1    3    3    0    0 -0.55351963098E+02 -0.17714692026E+02  0.11584409940E+02  0.59260852898E+02  0.51100000000E-03 0.  1.
         23    2    1    0    0    0 -0.25164385095E+02 -0.82780783694E+01 -0.90280951569E+01  0.97012871515E+02  0.92888200966E+02 0.  0.
         11    1    3    3    0    0  0.30187578003E+02  0.94366136562E+01 -0.20612505097E+02  0.37752018616E+02  0.51100000000E-03 0. -1.
         22    1    1    0    0    0  0.25164385095E+02  0.82780783694E+01  0.90280951569E+01  0.27987128485E+02  0.00000000000E+00 0.  1.
</event>
<event>
 5    1  0.1691145E-003  0.9118800E+02  0.7818608E-02  0.1130116E+00
         25   -1    0    0    0    0  0.00000000000E+00  0.00000000000E+00  0.99999998245E-14  0.12500000000E+03  0.12500000000E+03 0.  0.
        -11    1    3    3    0    0  0.28577084534E-01 -0.37435415888E+02 -0.47013766045E+02  0.60097465649E+02  0.51100000000E-03 0. -1.
         23    2    1    0    0    0  0.88953699867E+01 -0.23725920230E+02 -0.16328800831E+02  0.94855736291E+02  0.89938501615E+02 0.  0.
         11    1    3    3    0    0  0.88667929022E+01  0.13709495658E+02  0.30684965215E+02  0.34758270642E+02  0.51100000000E-03 0.  1.
         22    1    1    0    0    0 -0.88953699867E+01  0.23725920230E+02  0.16328800831E+02  0.30144263709E+02  0.00000000000E+00 0. -1.
</event>
<event>
 5    1  0.1691145E-003  0.9118800E+02  0.7818608E-02  0.1130116E+00
         25   -1    0    0    0    0  0.00000000000E+00  0.00000000000E+00  0.99999998245E-14  0.12500000000E+03  0.12500000000E+03 0.  0.
        -11    1    3    3    0    0  0.40400687841E+02 -0.30267962130E+02 -0.35415163276E+02  0.61665216286E+02  0.51100000000E-03 0.  1.
         23    2    1    0    0    0  0.14895681794E+02 -0.19754077273E+02 -0.14135781911E+02  0.96505698197E+02  0.92203169952E+02 0.  0.
         11    1    3    3    0    0 -0.25505006046E+02  0.10513884858E+02  0.21279381364E+02  0.34840481910E+02  0.51100000000E-03 0. -1.
         22    1    1    0    0    0 -0.14895681794E+02  0.19754077273E+02  0.14135781911E+02  0.28494301803E+02  0.00000000000E+00 0.  1.
</event>
<event>
 5    1  0.1691145E-003  0.9118800E+02  0.7818608E-02  0.1130116E+00
         25   -1    0    0    0    0  0.00000000000E+00  0.00000000000E+00  0.99999998245E-14  0.12500000000E+03  0.12500000000E+03 0.  0.
        -11    1    3    3    0    0  0.18656223460E+01  0.22962030146E+02 -0.17056214148E+02  0.28664434697E+02  0.51100000000E-03 0.  1.
         23    2    1    0    0    0  0.20112163184E+02  0.87723668012E+01  0.33900212689E+02  0.84618346398E+02  0.74361190144E+02 0.  0.
         11    1    3    3    0    0  0.18246540838E+02 -0.14189663345E+02  0.50956426837E+02  0.55953911701E+02  0.51100000000E-03 0. -1.
         22    1    1    0    0    0 -0.20112163184E+02 -0.87723668012E+01 -0.33900212689E+02  0.40381653602E+02  0.00000000000E+00 0. -1.
</event>
<event>
 5    1  0.1691145E-003  0.9118800E+02  0.7818608E-02  0.1130116E+00
         25   -1    0    0    0    0  0.00000000000E+00  0.00000000000E+00  0.99999998245E-14  0.12500000000E+03  0.12500000000E+03 0.  0.
        -11    1    3    3    0    0 -0.58802135420E+02  0.94463107506E+01  0.84866373450E+01  0.60157683885E+02  0.51100000000E-03 0.  1.
         23    2    1    0    0    0 -0.24185467297E+02  0.15542747886E+02  0.73533012174E+01  0.95325349555E+02  0.90588836999E+02 0.  0.
         11    1    3    3    0    0  0.34616668122E+02  0.60964371350E+01 -0.11333361275E+01  0.35167665670E+02  0.51100000000E-03 0. -1.
         22    1    1    0    0    0  0.24185467297E+02 -0.15542747886E+02 -0.73533012174E+01  0.29674650445E+02  0.00000000000E+00 0.  1.
</event>
<event>
 5    1  0.1691145E-003  0.9118800E+02  0.7818608E-02  0.1130116E+00
         25   -1    0    0    0    0  0.00000000000E+00  0.00000000000E+00  0.99999998245E-14  0.12500000000E+03  0.12500000000E+03 0.  0.
        -11    1    3    3    0    0  0.25446667374E+02  0.48256054421E+02 -0.21781187255E+02  0.58741806129E+02  0.51100000000E-03 0. -1.
         23    2    1    0    0    0  0.11873957872E+02  0.16496198715E+02 -0.24238286809E+02  0.93367580000E+02  0.87845859322E+02 0.  0.
         11    1    3    3    0    0 -0.13572709502E+02 -0.31759855706E+02 -0.24570995546E+01  0.34625773871E+02  0.51100000000E-03 0.  1.
         22    1    1    0    0    0 -0.11873957872E+02 -0.16496198715E+02  0.24238286809E+02  0.31632420000E+02  0.00000000000E+00 0. -1.
</event>
<event>
 5    1  0.1691145E-003  0.9118800E+02  0.7818608E-02  0.1130116E+00
         25   -1    0    0    0    0  0.00000000000E+00  0.00000000000E+00  0.99999998245E-14  0.12500000000E+03  0.12500000000E+03 0.  0.
        -11    1    3    3    0    0  0.40138120270E+02  0.18426804564E+02  0.13247913625E+02  0.46109901767E+02  0.51100000000E-03 0. -1.
         23    2    1    0    0    0  0.15062138099E+02 -0.23696479089E+02 -0.11762204723E+00  0.96921450175E+02  0.92765093348E+02 0.  0.
         11    1    3    3    0    0 -0.25075982171E+02 -0.42123283653E+02 -0.13365535673E+02  0.50811548408E+02  0.51100000000E-03 0.  1.
         22    1    1    0    0    0 -0.15062138099E+02  0.23696479089E+02  0.11762204723E+00  0.28078549825E+02  0.00000000000E+00 0. -1.
</event>
<event>
 5    1  0.1691145E-003  0.9118800E+02  0.7818608E-02  0.1130116E+00
         25   -1    0    0    0    0  0.00000000000E+00  0.00000000000E+00  0.99999998245E-14  0.12500000000E+03  0.12500000000E+03 0.  0.
        -11    1    3    3    0    0  0.29957929626E+02 -0.32779902542E+02 -0.19417474846E+02  0.48466874129E+02  0.51100000000E-03 0.  1.
         23    2    1    0    0    0  0.24275585666E+02 -0.13323997483E+01  0.15786525170E+02  0.96012179705E+02  0.91531660786E+02 0.  0.
         11    1    3    3    0    0 -0.56823439604E+01  0.31447502794E+02  0.35204000017E+02  0.47545305576E+02  0.51100000000E-03 0. -1.
         22    1    1    0    0    0 -0.24275585666E+02  0.13323997483E+01 -0.15786525170E+02  0.28987820295E+02  0.00000000000E+00 0. -1.
</event>
<event>
 5    1  0.1691145E-003  0.9118800E+02  0.7818608E-02  0.1130116E+00
         25   -1    0    0    0    0  0.00000000000E+00  0.00000000000E+00  0.99999998245E-14  0.12500000000E+03  0.12500000000E+03 0.  0.
        -11    1    3    3    0    0  0.13841528142E+02 -0.18049892223E+02  0.53305200519E+01  0.23362383330E+02  0.51100000000E-03 0. -1.
         23    2    1    0    0    0 -0.14850582065E+02  0.12375964779E+02 -0.37241931423E+02  0.83039712251E+02  0.71658412366E+02 0.  0.
         11    1    3    3    0    0 -0.28692110207E+02  0.30425857002E+02 -0.42572451474E+02  0.59677328922E+02  0.51100000000E-03 0.  1.
         22    1    1    0    0    0  0.14850582065E+02 -0.12375964779E+02  0.37241931423E+02  0.41960287749E+02  0.00000000000E+00 0.  1.
</event>
<event>
 5    1  0.1691145E-003  0.9118800E+02  0.7818608E-02  0.1130116E+00
         25   -1    0    0    0    0  0.00000000000E+00  0.00000000000E+00  0.99999998245E-14  0.12500000000E+03  0.12500000000E+03 0.  0.
        -11    1    3    3    0    0 -0.26425609351E+02  0.38873031349E+02 -0.18457971233E+02  0.50498733629E+02  0.51100000000E-03 0.  1.
         23    2    1    0    0    0 -0.30107618737E+02  0.55122371696E+01  0.81452857677E+01  0.93326680868E+02  0.87787642735E+02 0.  0.
         11    1    3    3    0    0 -0.36820093859E+01 -0.33360794180E+02  0.26603257000E+02  0.42827947239E+02  0.51100000000E-03 0. -1.
         22    1    1    0    0    0  0.30107618737E+02 -0.55122371696E+01 -0.81452857677E+01  0.31673319132E+02  0.00000000000E+00 0. -1.
</event>
<event>
 5    1  0.1691145E-003  0.9118800E+02  0.7818608E-02  0.1130116E+00
         25   -1    0    0    0    0  0.00000000000E+00  0.00000000000E+00  0.99999998245E-14  0.12500000000E+03  0.12500000000E+03 0.  0.
        -11    1    3    3    0    0  0.44284558204E+02  0.93625347570E+01 -0.27541629130E+02  0.52984153176E+02  0.51100000000E-03 0. -1.
         23    2    1    0    0    0  0.30552034056E+02 -0.52815203705E+01  0.72555388637E+01  0.93157197256E+02  0.87545983998E+02 0.  0.
         11    1    3    3    0    0 -0.13732524148E+02 -0.14644055127E+02  0.34797167994E+02  0.40173044081E+02  0.51100000000E-03 0.  1.
         22    1    1    0    0    0 -0.30552034056E+02  0.52815203705E+01 -0.72555388637E+01  0.31842802744E+02  0.00000000000E+00 0. -1.
</event>
<event>
 5    1  0.1691145E-003  0.9118800E+02  0.7818608E-02  0.1130116E+00
         25   -1    0    0    0    0  0.00000000000E+00  0.00000000000E+00  0.99999998245E-14  0.12500000000E+03  0.12500000000E+03 0.  0.
        -11    1    3    3    0    0 -0.30498390774E+02  0.38842070513E+01 -0.41715137817E+02  0.51820764444E+02  0.51100000000E-03 0. -1.
         23    2    1    0    0    0  0.10574889629E+02 -0.30415899144E+01 -0.26740788662E+02  0.96083753042E+02  0.91629352614E+02 0.  0.
         11    1    3    3    0    0  0.41073280404E+02 -0.69257969657E+01  0.14974349155E+02  0.44262988598E+02  0.51100000000E-03 0.  1.
         22    1    1    0    0    0 -0.10574889629E+02  0.30415899144E+01  0.26740788662E+02  0.28916246958E+02  0.00000000000E+00 0. -1.
</event>
<event>
 5    1  0.1691145E-003  0.9118800E+02  0.7818608E-02  0.1130116E+00
         25   -1    0    0    0    0  0.00000000000E+00  0.00000000000E+00  0.99999998245E-14  0.12500000000E+03  0.12500000000E+03 0.  0.
        -11    1    3    3    0    0  0.10299304664E+02  0.39629801677E+01 -0.34459151404E+02  0.36183062392E+02  0.51100000000E-03 0.  1.
         23    2    1    0    0    0 -0.29202744987E+02 -0.63565904857E+01  0.69299525914E+01  0.94320514993E+02  0.89191528456E+02 0.  0.
         11    1    3    3    0    0 -0.39502049651E+02 -0.10319570653E+02  0.41389103995E+02  0.58137452601E+02  0.51100000000E-03 0. -1.
         22    1    1    0    0    0  0.29202744987E+02  0.63565904857E+01 -0.69299525914E+01  0.30679485007E+02  0.00000000000E+00 0. -1.
</event>
<event>
 5    1  0.1691145E-003  0.9118800E+02  0.7818608E-02  0.1130116E+00
         25   -1    0    0    0    0  0.00000000000E+00  0.00000000000E+00  0.99999998245E-14  0.12500000000E+03  0.12500000000E+03 0.  0.
        -11    1    3    3    0    0 -0.23366117184E+01 -0.72773626468E+01  0.41463096222E+02  0.42161690075E+02  0.51100000000E-03 0.  1.
         23    2    1    0    0    0 -0.33982075385E+01  0.27657527808E+02 -0.94756963481E+00  0.97118383348E+02  0.93030080280E+02 0.  0.
         11    1    3    3    0    0 -0.10615958201E+01  0.34934890455E+02 -0.42410665857E+02  0.54956693273E+02  0.51100000000E-03 0. -1.
         22    1    1    0    0    0  0.33982075385E+01 -0.27657527808E+02  0.94756963481E+00  0.27881616652E+02  0.00000000000E+00 0. -1.
</event>
<event>
 5    1  0.1691145E-003  0.9118800E+02  0.7818608E-02  0.1130116E+00
         25   -1    0    0    0    0  0.00000000000E+00  0.00000000000E+00  0.99999998245E-14  0.12500000000E+03  0.12500000000E+03 0.  0.
        -11    1    3    3    0    0  0.72717934674E+00  0.14959434698E+01 -0.38746797620E+02  0.38782482679E+02  0.51100000000E-03 0.  1.
         23    2    1    0    0    0  0.26320234674E+02  0.69675725593E+01  0.11505904904E+02  0.95441791862E+02  0.90749368954E+02 0.  0.
         11    1    3    3    0    0  0.25593055328E+02  0.54716290895E+01  0.50252702524E+02  0.56659309183E+02  0.51100000000E-03 0. -1.
         22    1    1    0    0    0 -0.26320234674E+02 -0.69675725593E+01 -0.11505904904E+02  0.29558208138E+02  0.00000000000E+00 0. -1.
</event>
<event>
 5    1  0.1691145E-003  0.9118800E+02  0.7818608E-02  0.1130116E+00
         25   -1    0    0    0    0  0.00000000000E+00  0.00000000000E+00  0.99999998245E-14  0.12500000000E+03  0.12500000000E+03 0.  0.
        -11    1    3    3    0    0  0.11079339562E+02  0.19202001898E+02 -0.26968119178E+02  0.34910572815E+02  0.51100000000E-03 0. -1.
         23    2    1    0    0    0  0.47396424260E+02  0.11449370584E+02 -0.13594747952E+02  0.74380573974E+02  0.54499022867E+02 0.  0.
         11    1    3    3    0    0  0.36317084697E+02 -0.77526313142E+01  0.13373371227E+02  0.39470001158E+02  0.51100000000E-03 0.  1.
         22    1    1    0    0    0 -0.47396424260E+02 -0.11449370584E+02  0.13594747952E+02  0.50619426026E+02  0.00000000000E+00 0. -1.
</event>
<event>
 5    1  0.1691145E-003  0.9118800E+02  0.7818608E-02  0.1130116E+00
         25   -1    0    0    0    0  0.00000000000E+00  0.00000000000E+00  0.99999998245E-14  0.12500000000E+03  0.12500000000E+03 0.  0.
        -11    1    3    3    0    0 -0.32737323571E+02  0.89866625322E+00 -0.14502466508E+02  0.35817055863E+02  0.51100000000E-03 0. -1.
         23    2    1    0    0    0  0.25272037424E+02  0.13402724535E+02 -0.61010064077E+01  0.95750535394E+02  0.91173646678E+02 0.  0.
         11    1    3    3    0    0  0.58009360996E+02  0.12504058282E+02  0.84014600998E+01  0.59933479531E+02  0.51100000000E-03 0.  1.
         22    1    1    0    0    0 -0.25272037424E+02 -0.13402724535E+02  0.61010064077E+01  0.29249464606E+02  0.00000000000E+00 0.  1.
</event>
<event>
 5    1  0.1691145E-003  0.9118800E+02  0.7818608E-02  0.1130116E+00
         25   -1    0    0    0    0  0.00000000000E+00  0.00000000000E+00  0.99999998245E-14  0.12500000000E+03  0.12500000000E+03 0.  0.
        -11    1    3    3    0    0 -0.28266177815E+02  0.20334175367E+01  0.44589951126E+01  0.28687876060E+02  0.51100000000E-03 0. -1.
         23    2    1    0    0    0  0.26574024345E+02 -0.29277658394E+01  0.25897863517E+02  0.87778367614E+02  0.79495860921E+02 0.  0.
         11    1    3    3    0    0  0.54840202160E+02 -0.49611833761E+01  0.21438868404E+02  0.59090491555E+02  0.51100000000E-03 0.  1.
         22    1    1    0    0    0 -0.26574024345E+02  0.29277658394E+01 -0.25897863517E+02  0.37221632386E+02  0.00000000000E+00 0.  1.
</event>
<event>
 5    1  0.1691145E-003  0.9118800E+02  0.7818608E-02  0.1130116E+00
         25   -1    0    0    0    0  0.00000000000E+00  0.00000000000E+00  0.99999998245E-14  0.12500000000E+03  0.12500000000E+03 0.  0.
        -11    1    3    3    0    0  0.28474205682E+02  0.10058953880E+02 -0.16719398248E+02  0.34518128866E+02  0.51100000000E-03 0. -1.
         23    2    1    0    0    0 -0.23084817333E+02  0.22127202283E+02  0.65520732602E+01  0.92358744875E+02  0.86398415603E+02 0.  0.
         11    1    3    3    0    0 -0.51559023015E+02  0.12068248403E+02  0.23271471508E+02  0.57840616008E+02  0.51100000000E-03 0.  1.
         22    1    1    0    0    0  0.23084817333E+02 -0.22127202283E+02 -0.65520732602E+01  0.32641255125E+02  0.00000000000E+00 0.  1.
</event>
<event>
 5    1  0.1691145E-003  0.9118800E+02  0.7818608E-02  0.1130116E+00
         25   -1    0    0    0    0  0.00000000000E+00  0.00000000000E+00  0.99999998245E-14  0.12500000000E+03  0.12500000000E+03 0.  0.
        -11    1    3    3    0    0 -0.42800748590E+01  0.48551025518E+01 -0.42574101792E+02  0.43063269793E+02  0.51100000000E-03 0.  1.
         23    2    1    0    0    0  0.22459378328E+02 -0.16695491018E+02 -0.98708827158E+00  0.96997545849E+02  0.92867574871E+02 0.  0.
         11    1    3    3    0    0  0.26739453187E+02 -0.21550593570E+02  0.41587013520E+02  0.53934276057E+02  0.51100000000E-03 0. -1.
         22    1    1    0    0    0 -0.22459378328E+02  0.16695491018E+02  0.98708827158E+00  0.28002454151E+02  0.00000000000E+00 0. -1.
</event>
<event>
 5    1  0.1691145E-003  0.9118800E+02  0.7818608E-02  0.1130116E+00
         25   -1    0    0    0    0  0.00000000000E+00  0.00000000000E+00  0.99999998245E-14  0.12500000000E+03  0.12500000000E+03 0.  0.
        -11    1    3    3    0    0  0.76173524251E+01  0.42470440235E+01 -0.27519222775E+02  0.28868132314E+02  0.51100000000E-03 0.  1.
         23    2    1    0    0    0 -0.12421292914E+02 -0.10789648902E+01  0.31339105003E+02  0.91271789474E+02  0.84811245531E+02 0.  0.
         11    1    3    3    0    0 -0.20038645339E+02 -0.53260089136E+01  0.58858327778E+02  0.62403657160E+02  0.51100000000E-03 0. -1.
         22    1    1    0    0    0  0.12421292914E+02  0.10789648902E+01 -0.31339105003E+02  0.33728210526E+02  0.00000000000E+00 0. -1.
</event>
<event>
 5    1  0.1691145E-003  0.9118800E+02  0.7818608E-02  0.1130116E+00
         25   -1    0    0    0    0  0.00000000000E+00  0.00000000000E+00  0.99999998245E-14  0.12500000000E+03  0.12500000000E+03 0.  0.
        -11    1    3    3    0    0 -0.37442449601E+01 -0.45682091536E+02 -0.34758622188E+02  0.57524209461E+02  0.51100000000E-03 0. -1.
         23    2    1    0    0    0  0.15442008674E+02 -0.22316813622E+02 -0.12203613394E+02  0.95243925292E+02  0.90476413076E+02 0.  0.
         11    1    3    3    0    0  0.19186253634E+02  0.23365277914E+02  0.22555008793E+02  0.37719715832E+02  0.51100000000E-03 0.  1.
         22    1    1    0    0    0 -0.15442008674E+02  0.22316813622E+02  0.12203613394E+02  0.29756074708E+02  0.00000000000E+00 0. -1.
</event>
<event>
 5    1  0.1691145E-003  0.9118800E+02  0.7818608E-02  0.1130116E+00
         25   -1    0    0    0    0  0.00000000000E+00  0.00000000000E+00  0.99999998245E-14  0.12500000000E+03  0.12500000000E+03 0.  0.
        -11    1    3    3    0    0  0.77885580102E-02  0.21630737962E+02 -0.25647647555E+02  0.33551314591E+02  0.51100000000E-03 0.  1.
         23    2    1    0    0    0  0.43814553745E+01 -0.13036907338E+02  0.25811600451E+02  0.95752832240E+02  0.91176795622E+02 0.  0.
         11    1    3    3    0    0  0.43736668165E+01 -0.34667645301E+02  0.51459248006E+02  0.62201517648E+02  0.51100000000E-03 0. -1.
         22    1    1    0    0    0 -0.43814553745E+01  0.13036907338E+02 -0.25811600451E+02  0.29247167760E+02  0.00000000000E+00 0. -1.
</event>
<event>
 5    1  0.1691145E-003  0.9118800E+02  0.7818608E-02  0.1130116E+00
         25   -1    0    0    0    0  0.00000000000E+00  0.00000000000E+00  0.99999998245E-14  0.12500000000E+03  0.12500000000E+03 0.  0.
        -11    1    3    3    0    0  0.59539174941E+02  0.57839522521E+01  0.52771452442E+00  0.59821784821E+02  0.51100000000E-03 0. -1.
         23    2    1    0    0    0  0.26310762291E+02 -0.10268617619E+02  0.12044779654E+01  0.96730732459E+02  0.92507746242E+02 0.  0.
         11    1    3    3    0    0 -0.33228412650E+02 -0.16052569872E+02  0.67676344097E+00  0.36908947638E+02  0.51100000000E-03 0.  1.
         22    1    1    0    0    0 -0.26310762291E+02  0.10268617619E+02 -0.12044779654E+01  0.28269267541E+02  0.00000000000E+00 0. -1.
</event>
<event>
 5    1  0.1691145E-003  0.9118800E+02  0.7818608E-02  0.1130116E+00
         25   -1    0    0    0    0  0.00000000000E+00  0.00000000000E+00  0.99999998245E-14  0.12500000000E+03  0.12500000000E+03 0.  0.
        -11    1    3    3    0    0 -0.10901457357E+02  0.23846920239E+02 -0.56582621901E+02  0.62362733093E+02  0.51100000000E-03 0.  1.
         23    2    1    0    0    0 -0.41848391719E+01  0.83330685616E+01 -0.27000539711E+02  0.96434600384E+02  0.92106732088E+02 0.  0.
         11    1    3    3    0    0  0.67166181851E+01 -0.15513851677E+02  0.29582082190E+02  0.34071867291E+02  0.51100000000E-03 0. -1.
         22    1    1    0    0    0  0.41848391719E+01 -0.83330685616E+01  0.27000539711E+02  0.28565399616E+02  0.00000000000E+00 0.  1.
</event>
<event>
 5    1  0.1691145E-003  0.9118800E+02  0.7818608E-02  0.1130116E+00
         25   -1    0    0    0    0  0.00000000000E+00  0.00000000000E+00  0.99999998245E-14  0.12500000000E+03  0.12500000000E+03 0.  0.
        -11    1    3    3    0    0 -0.18000319573E+01 -0.34417775598E+02 -0.11053719402E+01  0.34482535283E+02  0.51100000000E-03 0. -1.
         23    2    1    0    0    0  0.19098333885E+01  0.23856243004E+02 -0.17753501010E+02  0.95201433055E+02  0.90417687782E+02 0.  0.
         11    1    3    3    0    0  0.37098653458E+01  0.58274018602E+02 -0.16648129070E+02  0.60718897772E+02  0.51100000000E-03 0.  1.
         22    1    1    0    0    0 -0.19098333885E+01 -0.23856243004E+02  0.17753501010E+02  0.29798566945E+02  0.00000000000E+00 0.  1.
</event>
<event>
 5    1  0.1691145E-003  0.9118800E+02  0.7818608E-02  0.1130116E+00
         25   -1    0    0    0    0  0.00000000000E+00  0.00000000000E+00  0.99999998245E-14  0.12500000000E+03  0.12500000000E+03 0.  0.
        -11    1    3    3    0    0 -0.56371103079E+01 -0.14403832317E+02  0.29489937425E+02  0.33300207321E+02  0.51100000000E-03 0.  1.
         23    2    1    0    0    0 -0.77542835712E+01  0.53141007962E+01 -0.28712168346E+02  0.94788128292E+02  0.89844488273E+02 0.  0.
         11    1    3    3    0    0 -0.21171732633E+01  0.19717933113E+02 -0.58202105771E+02  0.61487920971E+02  0.51100000000E-03 0. -1.
         22    1    1    0    0    0  0.77542835712E+01 -0.53141007962E+01  0.28712168346E+02  0.30211871708E+02  0.00000000000E+00 0. -1.
</event>
<event>
 5    1  0.1691145E-003  0.9118800E+02  0.7818608E-02  0.1130116E+00
         25   -1    0    0    0    0  0.00000000000E+00  0.00000000000E+00  0.99999998245E-14  0.12500000000E+03  0.12500000000E+03 0.  0.
        -11    1    3    3    0    0 -0.23219237146E+02 -0.23594005712E+02 -0.11528596866E+02  0.35053082962E+02  0.51100000000E-03 0. -1.
         23    2    1    0    0    0  0.26300692160E+02  0.10953243536E+02 -0.76019275942E-01  0.96509550179E+02  0.92208391944E+02 0.  0.
         11    1    3    3    0    0  0.49519929306E+02  0.34547249248E+02  0.11452577590E+02  0.61456467217E+02  0.51100000000E-03 0.  1.
         22    1    1    0    0    0 -0.26300692160E+02 -0.10953243536E+02  0.76019275942E-01  0.28490449821E+02  0.00000000000E+00 0.  1.
</event>
<event>
 5    1  0.1691145E-003  0.9118800E+02  0.7818608E-02  0.1130116E+00
         25   -1    0    0    0    0  0.00000000000E+00  0.00000000000E+00  0.99999998245E-14  0.12500000000E+03  0.12500000000E+03 0.  0.
        -11    1    3    3    0    0  0.24194959412E+02 -0.79798669084E+01 -0.24080872714E+02  0.35056565259E+02  0.51100000000E-03 0.  1.
         23    2    1    0    0    0 -0.19159392652E+02  0.48004627493E+01  0.19069056422E+02  0.97545388689E+02  0.93602068205E+02 0.  0.
         11    1    3    3    0    0 -0.43354352064E+02  0.12780329658E+02  0.43149929136E+02  0.62488823430E+02  0.51100000000E-03 0. -1.
         22    1    1    0    0    0  0.19159392652E+02 -0.48004627493E+01 -0.19069056422E+02  0.27454611311E+02  0.00000000000E+00 0. -1.
</event>
<event>
 5    1  0.1691145E-003  0.9118800E+02  0.7818608E-02  0.1130116E+00
         25   -1    0    0    0    0  0.00000000000E+00  0.00000000000E+00  0.99999998245E-14  0.12500000000E+03  0.12500000000E+03 0.  0.
        -11    1    3    3    0    0  0.18227831430E+01  0.20724288920E+02  0.32327465360E+02  0.38443253069E+02  0.51100000000E-03 0. -1.
         23    2    1    0    0    0  0.12822613631E+02  0.95987834304E+01 -0.23577648583E+02  0.96496288376E+02  0.92190412158E+02 0.  0.
         11    1    3    3    0    0  0.10999830488E+02 -0.11125505490E+02 -0.55905113943E+02  0.58053035307E+02  0.51100000000E-03 0.  1.
         22    1    1    0    0    0 -0.12822613631E+02 -0.95987834304E+01  0.23577648583E+02  0.28503711624E+02  0.00000000000E+00 0.  1.
</event>
<event>
 5    1  0.1691145E-003  0.9118800E+02  0.7818608E-02  0.1130116E+00
         25   -1    0    0    0    0  0.00000000000E+00  0.00000000000E+00  0.99999998245E-14  0.12500000000E+03  0.12500000000E+03 0.  0.
        -11    1    3    3    0    0 -0.25170937780E+02 -0.39357903382E+02  0.38875709849E+02  0.60777804204E+02  0.51100000000E-03 0.  1.
         23    2    1    0    0    0 -0.58688025258E+01 -0.15955849750E+02  0.26445966986E+02  0.93560834073E+02  0.88120420553E+02 0.  0.
         11    1    3    3    0    0  0.19302135254E+02  0.23402053632E+02 -0.12429742863E+02  0.32783029870E+02  0.51100000000E-03 0. -1.
         22    1    1    0    0    0  0.58688025258E+01  0.15955849750E+02 -0.26445966986E+02  0.31439165927E+02  0.00000000000E+00 0.  1.
</event>
<event>
 5    1  0.1691145E-003  0.9118800E+02  0.7818608E-02  0.1130116E+00
         25   -1    0    0    0    0  0.00000000000E+00  0.00000000000E+00  0.99999998245E-14  0.12500000000E+03  0.12500000000E+03 0.  0.
        -11    1    3    3    0    0 -0.23010599631E+02  0.25509545374E+02  0.56783293243E+01  0.34820511552E+02  0.51100000000E-03 0. -1.
         23    2    1    0    0    0  0.29236084694E+02  0.28325591855E+01 -0.10129755413E+02  0.93929371031E+02  0.88641653628E+02 0.  0.
         11    1    3    3    0    0  0.52246684325E+02 -0.22676986188E+02 -0.15808084737E+02  0.59108859479E+02  0.51100000000E-03 0.  1.
         22    1    1    0    0    0 -0.29236084694E+02 -0.28325591855E+01  0.10129755413E+02  0.31070628969E+02  0.00000000000E+00 0.  1.
</event>
<event>
 5    1  0.1691145E-003  0.9118800E+02  0.7818608E-02  0.1130116E+00
         25   -1    0    0    0    0  0.00000000000E+00  0.00000000000E+00  0.99999998245E-14  0.12500000000E+03  0.12500000000E+03 0.  0.
        -11    1    3    3    0    0  0.29289467099E+02  0.76002245917E+01  0.43859350962E+02  0.53284884947E+02  0.51100000000E-03 0.  1.
         23    2    1    0    0    0  0.23362764362E+02  0.17040999159E+02  0.26657490068E+01  0.95960016723E+02  0.91460396788E+02 0.  0.
         11    1    3    3    0    0 -0.59267027370E+01  0.94407745677E+01 -0.41193601955E+02  0.42675131775E+02  0.51100000000E-03 0. -1.
         22    1    1    0    0    0 -0.23362764362E+02 -0.17040999159E+02 -0.26657490068E+01  0.29039983277E+02  0.00000000000E+00 0.  1.
</event>
<event>
 5    1  0.1691145E-003  0.9118800E+02  0.7818608E-02  0.1130116E+00
         25   -1    0    0    0    0  0.00000000000E+00  0.00000000000E+00  0.99999998245E-14  0.12500000000E+03  0.12500000000E+03 0.  0.
        -11    1    3    3    0    0  0.56142442681E+02  0.47960838282E+01 -0.20793834266E+01  0.56385282884E+02  0.51100000000E-03 0. -1.
         23    2    1    0    0    0  0.22003280762E+02  0.13038683078E+02  0.14905785008E+02  0.95397060156E+02  0.90687733675E+02 0.  0.
         11    1    3    3    0    0 -0.34139161919E+02  0.82425992496E+01  0.16985168434E+02  0.39011777272E+02  0.51100000000E-03 0.  1.
         22    1    1    0    0    0 -0.22003280762E+02 -0.13038683078E+02 -0.14905785008E+02  0.29602939844E+02  0.00000000000E+00 0. -1.
</event>
<event>
 5    1  0.1691145E-003  0.9118800E+02  0.7818608E-02  0.1130116E+00
         25   -1    0    0    0    0  0.00000000000E+00  0.00000000000E+00  0.99999998245E-14  0.12500000000E+03  0.12500000000E+03 0.  0.
        -11    1    3    3    0    0 -0.15995516381E+01  0.40644538630E+02 -0.33486510226E+02  0.52686653464E+02  0.51100000000E-03 0. -1.
         23    2    1    0    0    0 -0.19757220865E+02  0.42482881548E+01 -0.22371896371E+02  0.94852073441E+02  0.89933410701E+02 0.  0.
         11    1    3    3    0    0 -0.18157669227E+02 -0.36396250476E+02  0.11114613855E+02  0.42165419977E+02  0.51100000000E-03 0.  1.
         22    1    1    0    0    0  0.19757220865E+02 -0.42482881548E+01  0.22371896371E+02  0.30147926559E+02  0.00000000000E+00 0.  1.
</event>
<event>
 5    1  0.1691145E-003  0.9118800E+02  0.7818608E-02  0.1130116E+00
         25   -1    0    0    0    0  0.00000000000E+00  0.00000000000E+00  0.99999998245E-14  0.12500000000E+03  0.12500000000E+03 0.  0.
        -11    1    3    3    0    0  0.18968080890E+02  0.63359688435E+01  0.29054946335E+02  0.35272120728E+02  0.51100000000E-03 0.  1.
         23    2    1    0    0    0 -0.11694282644E+01 -0.28763027322E+02 -0.12805287386E+02  0.93493577032E+02  0.88024963834E+02 0.  0.
         11    1    3    3    0    0 -0.20137509155E+02 -0.35098996165E+02 -0.41860233721E+02  0.58221456304E+02  0.51100000000E-03 0. -1.
         22    1    1    0    0    0  0.11694282644E+01  0.28763027322E+02  0.12805287386E+02  0.31506422968E+02  0.00000000000E+00 0. -1.
</event>
<event>
 5    1  0.1691145E-003  0.9118800E+02  0.7818608E-02  0.1130116E+00
         25   -1    0    0    0    0  0.00000000000E+00  0.00000000000E+00  0.99999998245E-14  0.12500000000E+03  0.12500000000E+03 0.  0.
        -11    1    3    3    0    0 -0.72013444050E+01 -0.10379302492E+01 -0.43175218140E+02  0.43783971064E+02  0.51100000000E-03 0. -1.
         23    2    1    0    0    0 -0.21940350721E+02  0.18863626840E+02  0.27233117314E+01  0.95937449628E+02  0.91429548873E+02 0.  0.
         11    1    3    3    0    0 -0.14739006316E+02  0.19901557089E+02  0.45898529871E+02  0.52153478564E+02  0.51100000000E-03 0.  1.
         22    1    1    0    0    0  0.21940350721E+02 -0.18863626840E+02 -0.27233117314E+01  0.29062550372E+02  0.00000000000E+00 0. -1.
</event>
<event>
 5    1  0.1691145E-003  0.9118800E+02  0.7818608E-02  0.1130116E+00
         25   -1    0    0    0    0  0.00000000000E+00  0.00000000000E+00  0.99999998245E-14  0.12500000000E+03  0.12500000000E+03 0.  0.
        -11    1    3    3    0    0 -0.30678538711E+02 -0.85182046399E+01  0.40881229702E+02  0.51817057905E+02  0.51100000000E-03 0.  1.
         23    2    1    0    0    0 -0.21133397931E+01 -0.26441560501E+02  0.22457389315E+02  0.90244329073E+02  0.83283145162E+02 0.  0.
         11    1    3    3    0    0  0.28565198918E+02 -0.17923355861E+02 -0.18423840387E+02  0.38427271168E+02  0.51100000000E-03 0. -1.
         22    1    1    0    0    0  0.21133397931E+01  0.26441560501E+02 -0.22457389315E+02  0.34755670927E+02  0.00000000000E+00 0.  1.
</event>
<event>
 5    1  0.1691145E-003  0.9118800E+02  0.7818608E-02  0.1130116E+00
         25   -1    0    0    0    0  0.00000000000E+00  0.00000000000E+00  0.99999998245E-14  0.12500000000E+03  0.12500000000E+03 0.  0.
        -11    1    3    3    0    0 -0.14307477292E+02  0.46355022270E+02 -0.27572387578E+01  0.48591093443E+02  0.51100000000E-03 0.  1.
         23    2    1    0    0    0 -0.10463892530E+02  0.42811108646E+01 -0.25883178366E+02  0.96755356624E+02  0.92541013373E+02 0.  0.
         11    1    3    3    0    0  0.38435847616E+01 -0.42073911406E+02 -0.23125939608E+02  0.48164263181E+02  0.51100000000E-03 0. -1.
         22    1    1    0    0    0  0.10463892530E+02 -0.42811108646E+01  0.25883178366E+02  0.28244643376E+02  0.00000000000E+00 0. -1.
</event>
<event>
 5    1  0.1691145E-003  0.9118800E+02  0.7818608E-02  0.1130116E+00
         25   -1    0    0    0    0  0.00000000000E+00  0.00000000000E+00  0.99999998245E-14  0.12500000000E+03  0.12500000000E+03 0.  0.
        -11    1    3    3    0    0  0.46042407083E+02 -0.97987132041E+01 -0.25704750951E+02  0.53634431591E+02  0.51100000000E-03 0. -1.
         23    2    1    0    0    0  0.21065936903E+02 -0.21068208219E+02  0.50023303947E+01  0.94789630844E+02  0.89846578739E+02 0.  0.
         11    1    3    3    0    0 -0.24976470180E+02 -0.11269495015E+02  0.30707081345E+02  0.41155199253E+02  0.51100000000E-03 0.  1.
         22    1    1    0    0    0 -0.21065936903E+02  0.21068208219E+02 -0.50023303947E+01  0.30210369156E+02  0.00000000000E+00 0.  1.
</event>
<event>
 5    1  0.1691145E-003  0.9118800E+02  0.7818608E-02  0.1130116E+00
         25   -1    0    0    0    0  0.00000000000E+00  0.00000000000E+00  0.99999998245E-14  0.12500000000E+03  0.12500000000E+03 0.  0.
        -11    1    3    3    0    0  0.43004356074E+02 -0.21037594600E+02  0.31425160642E+02  0.57266881786E+02  0.51100000000E-03 0.  1.
         23    2    1    0    0    0  0.72011716834E+01 -0.21238383659E+02  0.20277328525E+02  0.94765981640E+02  0.89813670508E+02 0.  0.
         11    1    3    3    0    0 -0.35803184390E+02 -0.20078905953E+00 -0.11147832117E+02  0.37499099854E+02  0.51100000000E-03 0. -1.
         22    1    1    0    0    0 -0.72011716834E+01  0.21238383659E+02 -0.20277328525E+02  0.30234018360E+02  0.00000000000E+00 0.  1.
</event>
<event>
 5    1  0.1691145E-003  0.9118800E+02  0.7818608E-02  0.1130116E+00
         25   -1    0    0    0    0  0.00000000000E+00  0.00000000000E+00  0.99999998245E-14  0.12500000000E+03  0.12500000000E+03 0.  0.
        -11    1    3    3    0    0 -0.21805996663E+02 -0.36978669767E+02 -0.40074194182E+02  0.58727034216E+02  0.51100000000E-03 0. -1.
         23    2    1    0    0    0 -0.16835624252E+02 -0.23387941438E+02 -0.62557265789E+01  0.95511558812E+02  0.90845416521E+02 0.  0.
         11    1    3    3    0    0  0.49703724105E+01  0.13590728329E+02  0.33818467603E+02  0.36784524596E+02  0.51100000000E-03 0.  1.
         22    1    1    0    0    0  0.16835624252E+02  0.23387941438E+02  0.62557265789E+01  0.29488441188E+02  0.00000000000E+00 0. -1.
</event>
<event>
 5    1  0.1691145E-003  0.9118800E+02  0.7818608E-02  0.1130116E+00
         25   -1    0    0    0    0  0.00000000000E+00  0.00000000000E+00  0.99999998245E-14  0.12500000000E+03  0.12500000000E+03 0.  0.
        -11    1    3    3    0    0  0.30272087552E+02  0.16013475290E+02  0.35895680928E+02  0.49611798850E+02  0.51100000000E-03 0. -1.
         23    2    1    0    0    0  0.27756803872E+02 -0.16959502733E+02  0.12350709915E+02  0.90206251574E+02  0.83225974872E+02 0.  0.
         11    1    3    3    0    0 -0.25152836803E+01 -0.32972978023E+02 -0.23544971013E+02  0.40594452724E+02  0.51100000000E-03 0.  1.
         22    1    1    0    0    0 -0.27756803872E+02  0.16959502733E+02 -0.12350709915E+02  0.34793748426E+02  0.00000000000E+00 0. -1.
</event>
<event>
 5    1  0.1691145E-003  0.9118800E+02  0.7818608E-02  0.1130116E+00
         25   -1    0    0    0    0  0.00000000000E+00  0.00000000000E+00  0.99999998245E-14  0.12500000000E+03  0.12500000000E+03 0.  0.
        -11    1    3    3    0    0  0.20769564145E+02 -0.50686209681E+02 -0.19096116224E+02  0.58009725924E+02  0.51100000000E-03 0.  1.
         23    2    1    0    0    0 -0.33716567096E+01 -0.27167027760E+02  0.16294064907E+01  0.97576097437E+02  0.93643068933E+02 0.  0.
         11    1    3    3    0    0 -0.24141220855E+02  0.23519181921E+02  0.20725522715E+02  0.39566371513E+02  0.51100000000E-03 0. -1.
         22    1    1    0    0    0  0.33716567096E+01  0.27167027760E+02 -0.16294064907E+01  0.27423902563E+02  0.00000000000E+00 0.  1.
</event>
<event>
 5    1  0.1691145E-003  0.9118800E+02  0.7818608E-02  0.1130116E+00
         25   -1    0    0    0    0  0.00000000000E+00  0.00000000000E+00  0.99999998245E-14  0.12500000000E+03  0.12500000000E+03 0.  0.
        -11    1    3    3    0    0  0.21139124693E+02  0.20656073053E+02 -0.39673990586E+02  0.49472835739E+02  0.51100000000E-03 0.  1.
         23    2    1    0    0    0  0.28689838346E+02 -0.71822827419E+01 -0.43035487976E+01  0.95113338394E+02  0.90295817171E+02 0.  0.
         11    1    3    3    0    0  0.75507136521E+01 -0.27838355795E+02  0.35370441789E+02  0.45640502655E+02  0.51100000000E-03 0. -1.
         22    1    1    0    0    0 -0.28689838346E+02  0.71822827419E+01  0.43035487976E+01  0.29886661606E+02  0.00000000000E+00 0.  1.
</event>
<event>
 5    1  0.1691145E-003  0.9118800E+02  0.7818608E-02  0.1130116E+00
         25   -1    0    0    0    0  0.00000000000E+00  0.00000000000E+00  0.99999998245E-14  0.12500000000E+03  0.12500000000E+03 0.  0.
        -11    1    3    3    0    0 -0.15829051204E+02  0.30618131971E+02  0.33553306912E+02  0.48102528753E+02  0.51100000000E-03 0.  1.
         23    2    1    0    0    0 -0.89853814799E+01 -0.17306617303E+02  0.16584177824E+02  0.99401346971E+02  0.96048616558E+02 0.  0.
         11    1    3    3    0    0  0.68436697241E+01 -0.47924749274E+02 -0.16969129088E+02  0.51298818218E+02  0.51100000000E-03 0. -1.
         22    1    1    0    0    0  0.89853814799E+01  0.17306617303E+02 -0.16584177824E+02  0.25598653029E+02  0.00000000000E+00 0.  1.
</event>
<event>
 5    1  0.1691145E-003  0.9118800E+02  0.7818608E-02  0.1130116E+00
         25   -1    0    0    0    0  0.00000000000E+00  0.00000000000E+00  0.99999998245E-14  0.12500000000E+03  0.12500000000E+03 0.  0.
        -11    1    3    3    0    0 -0.37721762777E+02  0.34702873148E+02  0.20190608541E+02  0.55089758261E+02  0.51100000000E-03 0. -1.
         23    2    1    0    0    0  0.49075199347E+00  0.28150241106E+02  0.80175080212E+01  0.95726166176E+02  0.91140230108E+02 0.  0.
         11    1    3    3    0    0  0.38212514770E+02 -0.65526320414E+01 -0.12173100520E+02  0.40636407915E+02  0.51100000000E-03 0.  1.
         22    1    1    0    0    0 -0.49075199347E+00 -0.28150241106E+02 -0.80175080212E+01  0.29273833824E+02  0.00000000000E+00 0.  1.
</event>
<event>
 5    1  0.1691145E-003  0.9118800E+02  0.7818608E-02  0.1130116E+00
         25   -1    0    0    0    0  0.00000000000E+00  0.00000000000E+00  0.99999998245E-14  0.12500000000E+03  0.12500000000E+03 0.  0.
        -11    1    3    3    0    0 -0.10897934133E+01  0.35978154415E+02 -0.31829060487E+02  0.48048978517E+02  0.51100000000E-03 0.  1.
         23    2    1    0    0    0  0.20796608100E+02  0.84024598687E+01 -0.35034854801E+02  0.83400224865E+02  0.72284550329E+02 0.  0.
         11    1    3    3    0    0  0.21886401513E+02 -0.27575694546E+02 -0.32057943143E+01  0.35351246348E+02  0.51100000000E-03 0. -1.
         22    1    1    0    0    0 -0.20796608100E+02 -0.84024598687E+01  0.35034854801E+02  0.41599775135E+02  0.00000000000E+00 0.  1.
</event>
<event>
 5    1  0.1691145E-003  0.9118800E+02  0.7818608E-02  0.1130116E+00
         25   -1    0    0    0    0  0.00000000000E+00  0.00000000000E+00  0.99999998245E-14  0.12500000000E+03  0.12500000000E+03 0.  0.
        -11    1    3    3    0    0  0.22342047256E+02  0.18923261899E+02 -0.16732630905E+02  0.33722957369E+02  0.51100000000E-03 0.  1.
         23    2    1    0    0    0 -0.30470736321E+02  0.12948434390E+02 -0.18826220363E+02  0.86913856873E+02  0.78124670996E+02 0.  0.
         11    1    3    3    0    0 -0.52812783577E+02 -0.59748275094E+01 -0.20935894589E+01  0.53190899504E+02  0.51100000000E-03 0. -1.
         22    1    1    0    0    0  0.30470736321E+02 -0.12948434390E+02  0.18826220363E+02  0.38086143127E+02  0.00000000000E+00 0. -1.
</event>
<event>
 5    1  0.1691145E-003  0.9118800E+02  0.7818608E-02  0.1130116E+00
         25   -1    0    0    0    0  0.00000000000E+00  0.00000000000E+00  0.99999998245E-14  0.12500000000E+03  0.12500000000E+03 0.  0.
        -11    1    3    3    0    0 -0.35032105085E+00  0.32870282572E+02 -0.82422443724E+01  0.33889715162E+02  0.51100000000E-03 0. -1.
         23    2    1    0    0    0 -0.35760412493E+01 -0.28242158327E+02  0.38582783046E+01  0.96272071264E+02  0.91885895631E+02 0.  0.
         11    1    3    3    0    0 -0.32257201984E+01 -0.61112440899E+02  0.12100522677E+02  0.62382356102E+02  0.51100000000E-03 0.  1.
         22    1    1    0    0    0  0.35760412493E+01  0.28242158327E+02 -0.38582783046E+01  0.28727928736E+02  0.00000000000E+00 0.  1.
</event>
<event>
 5    1  0.1691145E-003  0.9118800E+02  0.7818608E-02  0.1130116E+00
         25   -1    0    0    0    0  0.00000000000E+00  0.00000000000E+00  0.99999998245E-14  0.12500000000E+03  0.12500000000E+03 0.  0.
        -11    1    3    3    0    0 -0.19577846429E+01  0.50974755952E+02 -0.57660219703E+01  0.51337176341E+02  0.51100000000E-03 0. -1.
         23    2    1    0    0    0  0.77885514451E+01  0.86144161598E+01 -0.23894213422E+02  0.98433044313E+02  0.94780066883E+02 0.  0.
         11    1    3    3    0    0  0.97463360879E+01 -0.42360339792E+02 -0.18128191452E+02  0.47095867972E+02  0.51100000000E-03 0.  1.
         22    1    1    0    0    0 -0.77885514451E+01 -0.86144161598E+01  0.23894213422E+02  0.26566955687E+02  0.00000000000E+00 0. -1.
</event>
<event>
 5    1  0.1691145E-003  0.9118800E+02  0.7818608E-02  0.1130116E+00
         25   -1    0    0    0    0  0.00000000000E+00  0.00000000000E+00  0.99999998245E-14  0.12500000000E+03  0.12500000000E+03 0.  0.
        -11    1    3    3    0    0 -0.55611176421E+01 -0.54918709454E+02  0.20277874887E+02  0.58806316733E+02  0.51100000000E-03 0.  1.
         23    2    1    0    0    0 -0.43507425181E+01 -0.24343664717E+02  0.25078538226E+02  0.89779607443E+02  0.82582697103E+02 0.  0.
         11    1    3    3    0    0  0.12103751240E+01  0.30575044738E+02  0.48006633387E+01  0.30973290710E+02  0.51100000000E-03 0. -1.
         22    1    1    0    0    0  0.43507425181E+01  0.24343664717E+02 -0.25078538226E+02  0.35220392557E+02  0.00000000000E+00 0.  1.
</event>
<event>
 5    1  0.1691145E-003  0.9118800E+02  0.7818608E-02  0.1130116E+00
         25   -1    0    0    0    0  0.00000000000E+00  0.00000000000E+00  0.99999998245E-14  0.12500000000E+03  0.12500000000E+03 0.  0.
        -11    1    3    3    0    0 -0.33417811861E+02 -0.13756434362E+02  0.20211381066E+02  0.41406395167E+02  0.51100000000E-03 0. -1.
         23    2    1    0    0    0 -0.21160521105E+02  0.14662976856E+02 -0.20177784419E+02  0.92290467326E+02  0.86299576079E+02 0.  0.
         11    1    3    3    0    0  0.12257290756E+02  0.28419411218E+02 -0.40389165485E+02  0.50884072159E+02  0.51100000000E-03 0.  1.
         22    1    1    0    0    0  0.21160521105E+02 -0.14662976856E+02  0.20177784419E+02  0.32709532674E+02  0.00000000000E+00 0.  1.
</event>
<event>
 5    1  0.1691145E-003  0.9118800E+02  0.7818608E-02  0.1130116E+00
         25   -1    0    0    0    0  0.00000000000E+00  0.00000000000E+00  0.99999998245E-14  0.12500000000E+03  0.12500000000E+03 0.  0.
        -11    1    3    3    0    0  0.55588984601E+01  0.23295609273E+02  0.44284734905E+02  0.50346047604E+02  0.51100000000E-03 0. -1.
         23    2    1    0    0    0  0.40051247549E+01 -0.17029814823E+02  0.23394118254E+02  0.95788009550E+02  0.91225009660E+02 0.  0.
         11    1    3    3    0    0 -0.15537737052E+01 -0.40325424095E+02 -0.20890616651E+02  0.45441961946E+02  0.51100000000E-03 0.  1.
         22    1    1    0    0    0 -0.40051247549E+01  0.17029814823E+02 -0.23394118254E+02  0.29211990450E+02  0.00000000000E+00 0.  1.
</event>
<event>
 5    1  0.1691145E-003  0.9118800E+02  0.7818608E-02  0.1130116E+00
         25   -1    0    0    0    0  0.00000000000E+00  0.00000000000E+00  0.99999998245E-14  0.12500000000E+03  0.12500000000E+03 0.  0.
        -11    1    3    3    0    0 -0.22828628281E+02 -0.44198888216E+02 -0.83158498430E+01  0.50436508083E+02  0.51100000000E-03 0. -1.
         23    2    1    0    0    0 -0.23485193610E+02  0.22604895551E+01 -0.14494699319E+02  0.97309560490E+02  0.93286602053E+02 0.  0.
         11    1    3    3    0    0 -0.65656532804E+00  0.46459377771E+02 -0.61788494759E+01  0.46873052407E+02  0.51100000000E-03 0.  1.
         22    1    1    0    0    0  0.23485193610E+02 -0.22604895551E+01  0.14494699319E+02  0.27690439510E+02  0.00000000000E+00 0. -1.
</event>
<event>
 5    1  0.1691145E-003  0.9118800E+02  0.7818608E-02  0.1130116E+00
         25   -1    0    0    0    0  0.00000000000E+00  0.00000000000E+00  0.99999998245E-14  0.12500000000E+03  0.12500000000E+03 0.  0.
        -11    1    3    3    0    0 -0.14224386208E+02 -0.13497476178E+02 -0.17549141658E+02  0.26315155317E+02  0.51100000000E-03 0.  1.
         23    2    1    0    0    0  0.35328315251E+02  0.14249266307E+02 -0.17431394314E+02  0.83107459418E+02  0.71776492352E+02 0.  0.
         11    1    3    3    0    0  0.49552701459E+02  0.27746742484E+02  0.11774734419E+00  0.56792304101E+02  0.51100000000E-03 0. -1.
         22    1    1    0    0    0 -0.35328315251E+02 -0.14249266307E+02  0.17431394314E+02  0.41892540582E+02  0.00000000000E+00 0. -1.
</event>
<event>
 5    1  0.1691145E-003  0.9118800E+02  0.7818608E-02  0.1130116E+00
         25   -1    0    0    0    0  0.00000000000E+00  0.00000000000E+00  0.99999998245E-14  0.12500000000E+03  0.12500000000E+03 0.  0.
        -11    1    3    3    0    0 -0.33236429065E+02  0.15751864296E+02 -0.47449316652E+02  0.60035148844E+02  0.51100000000E-03 0.  1.
         23    2    1    0    0    0 -0.23981429839E+02  0.48562852162E+01 -0.13088713394E+02  0.97251001792E+02  0.93208102910E+02 0.  0.
         11    1    3    3    0    0  0.92549992267E+01 -0.10895579079E+02  0.34360603258E+02  0.37215852948E+02  0.51100000000E-03 0. -1.
         22    1    1    0    0    0  0.23981429839E+02 -0.48562852162E+01  0.13088713394E+02  0.27748998208E+02  0.00000000000E+00 0.  1.
</event>
<event>
 5    1  0.1691145E-003  0.9118800E+02  0.7818608E-02  0.1130116E+00
         25   -1    0    0    0    0  0.00000000000E+00  0.00000000000E+00  0.99999998245E-14  0.12500000000E+03  0.12500000000E+03 0.  0.
        -11    1    3    3    0    0  0.48687297374E+02  0.91173997257E+01  0.10287374726E+02  0.50590611603E+02  0.51100000000E-03 0.  1.
         23    2    1    0    0    0  0.19976834613E+02 -0.21114879737E+02  0.14538600590E+02  0.92499492703E+02  0.86601808155E+02 0.  0.
         11    1    3    3    0    0 -0.28710462761E+02 -0.30232279463E+02  0.42512258635E+01  0.41908881100E+02  0.51100000000E-03 0. -1.
         22    1    1    0    0    0 -0.19976834613E+02  0.21114879737E+02 -0.14538600590E+02  0.32500507297E+02  0.00000000000E+00 0.  1.
</event>
<event>
 5    1  0.1691145E-003  0.9118800E+02  0.7818608E-02  0.1130116E+00
         25   -1    0    0    0    0  0.00000000000E+00  0.00000000000E+00  0.99999998245E-14  0.12500000000E+03  0.12500000000E+03 0.  0.
        -11    1    3    3    0    0  0.45731651066E+01  0.58664278935E+02 -0.14982621183E+02  0.60719769431E+02  0.51100000000E-03 0.  1.
         23    2    1    0    0    0  0.66210404477E+01  0.30498478500E+02  0.20929504088E+01  0.93721000514E+02  0.88347326664E+02 0.  0.
         11    1    3    3    0    0  0.20478753411E+01 -0.28165800435E+02  0.17075571592E+02  0.33001231083E+02  0.51100000000E-03 0. -1.
         22    1    1    0    0    0 -0.66210404477E+01 -0.30498478500E+02 -0.20929504088E+01  0.31278999486E+02  0.00000000000E+00 0.  1.
</event>
<event>
 5    1  0.1691145E-003  0.9118800E+02  0.7818608E-02  0.1130116E+00
         25   -1    0    0    0    0  0.00000000000E+00  0.00000000000E+00  0.99999998245E-14  0.12500000000E+03  0.12500000000E+03 0.  0.
        -11    1    3    3    0    0 -0.30282776202E+02  0.94301792537E+01 -0.28444437482E+00  0.31718381486E+02  0.51100000000E-03 0. -1.
         23    2    1    0    0    0  0.52153189999E+01 -0.35376240216E+02 -0.40859683301E+01  0.89008708535E+02  0.81407475908E+02 0.  0.
         11    1    3    3    0    0  0.35498095202E+02 -0.44806419470E+02 -0.38015239552E+01  0.57290327049E+02  0.51100000000E-03 0.  1.
         22    1    1    0    0    0 -0.52153189999E+01  0.35376240216E+02  0.40859683301E+01  0.35991291465E+02  0.00000000000E+00 0. -1.
</event>
<event>
 5    1  0.1691145E-003  0.9118800E+02  0.7818608E-02  0.1130116E+00
         25   -1    0    0    0    0  0.00000000000E+00  0.00000000000E+00  0.99999998245E-14  0.12500000000E+03  0.12500000000E+03 0.  0.
        -11    1    3    3    0    0  0.59727195590E+01 -0.11709631517E+02 -0.20092014150E+02  0.24009953812E+02  0.51100000000E-03 0. -1.
         23    2    1    0    0    0 -0.60107405944E+01  0.36150913891E+02  0.15870910536E+02  0.85063758578E+02  0.75106189122E+02 0.  0.
         11    1    3    3    0    0 -0.11983460153E+02  0.47860545408E+02  0.35962924687E+02  0.61053804765E+02  0.51100000000E-03 0.  1.
         22    1    1    0    0    0  0.60107405944E+01 -0.36150913891E+02 -0.15870910536E+02  0.39936241422E+02  0.00000000000E+00 0.  1.
</event>
<event>
 5    1  0.1691145E-003  0.9118800E+02  0.7818608E-02  0.1130116E+00
         25   -1    0    0    0    0  0.00000000000E+00  0.00000000000E+00  0.99999998245E-14  0.12500000000E+03  0.12500000000E+03 0.  0.
        -11    1    3    3    0    0  0.20298172796E+02 -0.37576849592E+02 -0.15890736914E+02  0.45569188758E+02  0.51100000000E-03 0. -1.
         23    2    1    0    0    0 -0.17462172161E+02  0.54913384920E+01 -0.12273745367E+02  0.10296078313E+03  0.10057432964E+03 0.  0.
         11    1    3    3    0    0 -0.37760344957E+02  0.43068188084E+02  0.36169915468E+01  0.57391594369E+02  0.51100000000E-03 0.  1.
         22    1    1    0    0    0  0.17462172161E+02 -0.54913384920E+01  0.12273745367E+02  0.22039216873E+02  0.00000000000E+00 0.  1.
</event>
<event>
 5    1  0.1691145E-003  0.9118800E+02  0.7818608E-02  0.1130116E+00
         25   -1    0    0    0    0  0.00000000000E+00  0.00000000000E+00  0.99999998245E-14  0.12500000000E+03  0.12500000000E+03 0.  0.
        -11    1    3    3    0    0  0.29860431248E+02 -0.16914904301E+02  0.21958544519E+02  0.40742324669E+02  0.51100000000E-03 0.  1.
         23    2    1    0    0    0 -0.11468756563E+02  0.19536496503E+02  0.18133661970E+02  0.95982130176E+02  0.91490614513E+02 0.  0.
         11    1    3    3    0    0 -0.41329187811E+02  0.36451400803E+02 -0.38248825488E+01  0.55239805506E+02  0.51100000000E-03 0. -1.
         22    1    1    0    0    0  0.11468756563E+02 -0.19536496503E+02 -0.18133661970E+02  0.29017869824E+02  0.00000000000E+00 0. -1.
</event>
<event>
 5    1  0.1691145E-003  0.9118800E+02  0.7818608E-02  0.1130116E+00
         25   -1    0    0    0    0  0.00000000000E+00  0.00000000000E+00  0.99999998245E-14  0.12500000000E+03  0.12500000000E+03 0.  0.
        -11    1    3    3    0    0  0.55023180653E+02  0.60327251522E+01  0.14449301772E+02  0.57207748635E+02  0.51100000000E-03 0. -1.
         23    2    1    0    0    0  0.17238859849E+02  0.15043450159E+02  0.17534438343E+02  0.96173966461E+02  0.91752338473E+02 0.  0.
         11    1    3    3    0    0 -0.37784320804E+02  0.90107250070E+01  0.30851365713E+01  0.38966217826E+02  0.51100000000E-03 0.  1.
         22    1    1    0    0    0 -0.17238859849E+02 -0.15043450159E+02 -0.17534438343E+02  0.28826033539E+02  0.00000000000E+00 0. -1.
</event>
<event>
 5    1  0.1691145E-003  0.9118800E+02  0.7818608E-02  0.1130116E+00
         25   -1    0    0    0    0  0.00000000000E+00  0.00000000000E+00  0.99999998245E-14  0.12500000000E+03  0.12500000000E+03 0.  0.
        -11    1    3    3    0    0  0.43522589535E+02  0.79729136371E+01 -0.96407839591E+00  0.44257345143E+02  0.51100000000E-03 0.  1.
         23    2    1    0    0    0 -0.20689567765E+01 -0.58790245144E+00 -0.27310215048E+02  0.97605218428E+02  0.93681933194E+02 0.  0.
         11    1    3    3    0    0 -0.45591546312E+02 -0.85608160885E+01 -0.26346136652E+02  0.53347873284E+02  0.51100000000E-03 0. -1.
         22    1    1    0    0    0  0.20689567765E+01  0.58790245144E+00  0.27310215048E+02  0.27394781572E+02  0.00000000000E+00 0. -1.
</event>
<event>
 5    1  0.1691145E-003  0.9118800E+02  0.7818608E-02  0.1130116E+00
         25   -1    0    0    0    0  0.00000000000E+00  0.00000000000E+00  0.99999998245E-14  0.12500000000E+03  0.12500000000E+03 0.  0.
        -11    1    3    3    0    0 -0.18691751199E+01 -0.41635758830E+02 -0.11027044197E+02  0.43111784154E+02  0.51100000000E-03 0.  1.
         23    2    1    0    0    0 -0.20764270998E+02  0.83633908366E+00 -0.25784551041E+02  0.91883576801E+02  0.85708192142E+02 0.  0.
         11    1    3    3    0    0 -0.18895095878E+02  0.42472097914E+02 -0.14757506843E+02  0.48771792646E+02  0.51100000000E-03 0. -1.
         22    1    1    0    0    0  0.20764270998E+02 -0.83633908366E+00  0.25784551041E+02  0.33116423199E+02  0.00000000000E+00 0. -1.
</event>
<event>
 5    1  0.1691145E-003  0.9118800E+02  0.7818608E-02  0.1130116E+00
         25   -1    0    0    0    0  0.00000000000E+00  0.00000000000E+00  0.99999998245E-14  0.12500000000E+03  0.12500000000E+03 0.  0.
        -11    1    3    3    0    0 -0.27945080047E+02  0.17828873680E+02 -0.30037363517E+01  0.33283910045E+02  0.51100000000E-03 0. -1.
         23    2    1    0    0    0  0.20765938879E+02  0.27761661127E+02 -0.18947237510E+02  0.85491369863E+02  0.75814526746E+02 0.  0.
         11    1    3    3    0    0  0.48711018926E+02  0.99327874474E+01 -0.15943501159E+02  0.52207459818E+02  0.51100000000E-03 0.  1.
         22    1    1    0    0    0 -0.20765938879E+02 -0.27761661127E+02  0.18947237510E+02  0.39508630137E+02  0.00000000000E+00 0.  1.
</event>
<event>
 5    1  0.1691145E-003  0.9118800E+02  0.7818608E-02  0.1130116E+00
         25   -1    0    0    0    0  0.00000000000E+00  0.00000000000E+00  0.99999998245E-14  0.12500000000E+03  0.12500000000E+03 0.  0.
        -11    1    3    3    0    0 -0.15925914569E+02  0.21584980237E+02 -0.20857700927E+02  0.33979255656E+02  0.51100000000E-03 0. -1.
         23    2    1    0    0    0  0.67836485792E+01 -0.14767146897E+02  0.23995387787E+02  0.96019572974E+02  0.91541756830E+02 0.  0.
         11    1    3    3    0    0  0.22709563148E+02 -0.36352127134E+02  0.44853088714E+02  0.62040317319E+02  0.51100000000E-03 0.  1.
         22    1    1    0    0    0 -0.67836485792E+01  0.14767146897E+02 -0.23995387787E+02  0.28980427026E+02  0.00000000000E+00 0.  1.
</event>
<event>
 5    1  0.1691145E-003  0.9118800E+02  0.7818608E-02  0.1130116E+00
         25   -1    0    0    0    0  0.00000000000E+00  0.00000000000E+00  0.99999998245E-14  0.12500000000E+03  0.12500000000E+03 0.  0.
        -11    1    3    3    0    0 -0.28754033394E+02  0.25229543591E+02 -0.30137124767E+02  0.48698774068E+02  0.51100000000E-03 0. -1.
         23    2    1    0    0    0 -0.28119684755E+02 -0.92341912799E+01  0.13323410497E+01  0.95372949995E+02  0.90654495193E+02 0.  0.
         11    1    3    3    0    0  0.63434863867E+00 -0.34463734871E+02  0.31469465817E+02  0.46674175927E+02  0.51100000000E-03 0.  1.
         22    1    1    0    0    0  0.28119684755E+02  0.92341912799E+01 -0.13323410497E+01  0.29627050005E+02  0.00000000000E+00 0. -1.
</event>
<event>
 5    1  0.1691145E-003  0.9118800E+02  0.7818608E-02  0.1130116E+00
         25   -1    0    0    0    0  0.00000000000E+00  0.00000000000E+00  0.99999998245E-14  0.12500000000E+03  0.12500000000E+03 0.  0.
        -11    1    3    3    0    0  0.42497796842E+01 -0.34709005188E+02 -0.26638260176E+02  0.43958759923E+02  0.51100000000E-03 0. -1.
         23    2    1    0    0    0 -0.21379876814E+02 -0.14648935721E+02  0.13615579343E+02  0.95724166089E+02  0.91137486921E+02 0.  0.
         11    1    3    3    0    0 -0.25629656498E+02  0.20060069467E+02  0.40253839519E+02  0.51765406166E+02  0.51100000000E-03 0.  1.
         22    1    1    0    0    0  0.21379876814E+02  0.14648935721E+02 -0.13615579343E+02  0.29275833911E+02  0.00000000000E+00 0.  1.
</event>
<event>
 5    1  0.1691145E-003  0.9118800E+02  0.7818608E-02  0.1130116E+00
         25   -1    0    0    0    0  0.00000000000E+00  0.00000000000E+00  0.99999998245E-14  0.12500000000E+03  0.12500000000E+03 0.  0.
        -11    1    3    3    0    0 -0.23387459967E+02 -0.39649682945E+02  0.84054468427E+01  0.46794467389E+02  0.51100000000E-03 0.  1.
         23    2    1    0    0    0 -0.33676042582E+01 -0.27453454578E+01 -0.24487568447E+02  0.10012996404E+03  0.96992221391E+02 0.  0.
         11    1    3    3    0    0  0.20019855709E+02  0.36904337487E+02 -0.32893015290E+02  0.53335496652E+02  0.51100000000E-03 0. -1.
         22    1    1    0    0    0  0.33676042582E+01  0.27453454578E+01  0.24487568447E+02  0.24870035958E+02  0.00000000000E+00 0. -1.
</event>
<event>
 5    1  0.1691145E-003  0.9118800E+02  0.7818608E-02  0.1130116E+00
         25   -1    0    0    0    0  0.00000000000E+00  0.00000000000E+00  0.99999998245E-14  0.12500000000E+03  0.12500000000E+03 0.  0.
        -11    1    3    3    0    0 -0.16367883800E+02 -0.12241559892E+02 -0.41701163597E+02  0.46440827450E+02  0.51100000000E-03 0.  1.
         23    2    1    0    0    0  0.21923071524E+02 -0.16821502742E+02 -0.13310058269E+02  0.94328487636E+02  0.89202701243E+02 0.  0.
         11    1    3    3    0    0  0.38290955324E+02 -0.45799428502E+01  0.28391105328E+02  0.47887660186E+02  0.51100000000E-03 0. -1.
         22    1    1    0    0    0 -0.21923071524E+02  0.16821502742E+02  0.13310058269E+02  0.30671512364E+02  0.00000000000E+00 0.  1.
</event>
<event>
 5    1  0.1691145E-003  0.9118800E+02  0.7818608E-02  0.1130116E+00
         25   -1    0    0    0    0  0.00000000000E+00  0.00000000000E+00  0.99999998245E-14  0.12500000000E+03  0.12500000000E+03 0.  0.
        -11    1    3    3    0    0 -0.55101477701E+02  0.25738329415E+02  0.62985422473E+01  0.61141688566E+02  0.51100000000E-03 0. -1.
         23    2    1    0    0    0 -0.23515905248E+02  0.17228912435E+01 -0.58949506976E+00  0.10141369766E+03  0.98632775556E+02 0.  0.
         11    1    3    3    0    0  0.31585572454E+02 -0.24015438171E+02 -0.68880373170E+01  0.40272009090E+02  0.51100000000E-03 0.  1.
         22    1    1    0    0    0  0.23515905248E+02 -0.17228912435E+01  0.58949506976E+00  0.23586302345E+02  0.00000000000E+00 0. -1.
</event>
<event>
 5    1  0.1691145E-003  0.9118800E+02  0.7818608E-02  0.1130116E+00
         25   -1    0    0    0    0  0.00000000000E+00  0.00000000000E+00  0.99999998245E-14  0.12500000000E+03  0.12500000000E+03 0.  0.
        -11    1    3    3    0    0  0.40208635291E+02 -0.97846061764E+01  0.31239695234E+02  0.51849700371E+02  0.51100000000E-03 0. -1.
         23    2    1    0    0    0  0.10715214189E+02 -0.27124835594E+02  0.40410983581E+01  0.95556783514E+02  0.90907622775E+02 0.  0.
         11    1    3    3    0    0 -0.29493421103E+02 -0.17340229417E+02 -0.27198596876E+02  0.43707083143E+02  0.51100000000E-03 0.  1.
         22    1    1    0    0    0 -0.10715214189E+02  0.27124835594E+02 -0.40410983581E+01  0.29443216486E+02  0.00000000000E+00 0. -1.
</event>
<event>
 5    1  0.1691145E-003  0.9118800E+02  0.7818608E-02  0.1130116E+00
         25   -1    0    0    0    0  0.00000000000E+00  0.00000000000E+00  0.99999998245E-14  0.12500000000E+03  0.12500000000E+03 0.  0.
        -11    1    3    3    0    0 -0.19879577961E+02 -0.41017966611E+02  0.25273229805E+02  0.52119164900E+02  0.51100000000E-03 0.  1.
         23    2    1    0    0    0 -0.27135812032E+02 -0.10583938608E+02 -0.47582835338E+01  0.95487065323E+02  0.90811708115E+02 0.  0.
         11    1    3    3    0    0 -0.72562340708E+01  0.30434028003E+02 -0.30031513339E+02  0.43367900423E+02  0.51100000000E-03 0. -1.
         22    1    1    0    0    0  0.27135812032E+02  0.10583938608E+02  0.47582835338E+01  0.29512934677E+02  0.00000000000E+00 0.  1.
</event>
<event>
 5    1  0.1691145E-003  0.9118800E+02  0.7818608E-02  0.1130116E+00
         25   -1    0    0    0    0  0.00000000000E+00  0.00000000000E+00  0.99999998245E-14  0.12500000000E+03  0.12500000000E+03 0.  0.
        -11    1    3    3    0    0  0.22840079337E+02 -0.15861023712E+02 -0.42632508492E+02  0.50899627483E+02  0.51100000000E-03 0. -1.
         23    2    1    0    0    0  0.21287518428E+02  0.16407623711E+02 -0.11496484338E+02  0.95767523047E+02  0.91196933949E+02 0.  0.
         11    1    3    3    0    0 -0.15525609090E+01  0.32268647423E+02  0.31136024155E+02  0.44867895563E+02  0.51100000000E-03 0.  1.
         22    1    1    0    0    0 -0.21287518428E+02 -0.16407623711E+02  0.11496484338E+02  0.29232476953E+02  0.00000000000E+00 0.  1.
</event>
<event>
 4    1  0.1691145E-003  0.9118800E+02  0.7818608E-02  0.1130116E+00
         25   -1    0    0    0    0  0.00000000000E+00  0.00000000000E+00  0.99999998245E-14  0.12500000000E+03  0.12500000000E+03 0.  0.
        -11    1    1    0    0    0 -0.14401109039E+02  0.34133467660E+02 -0.34445970680E+02  0.50586662791E+02  0.51100000000E-03 0.  1.
         11    1    1    0    0    0 -0.20123292066E+02 -0.52543953253E+01  0.85643068544E+01  0.22492285477E+02  0.51100000000E-03 0. -1.
         22    1    1    0    0    0  0.34524401105E+02 -0.28879072334E+02  0.25881663825E+02  0.51921051732E+02  0.00000000000E+00 0.  1.
</event>
<event>
 5    1  0.1691145E-003  0.9118800E+02  0.7818608E-02  0.1130116E+00
         25   -1    0    0    0    0  0.00000000000E+00  0.00000000000E+00  0.99999998245E-14  0.12500000000E+03  0.12500000000E+03 0.  0.
        -11    1    3    3    0    0  0.41203143908E+02 -0.19413614204E+01 -0.96302558262E+01  0.42358113503E+02  0.51100000000E-03 0.  1.
         23    2    1    0    0    0 -0.77871803850E-01  0.29349635423E+02  0.24500581507E+01  0.95548175805E+02  0.90895786213E+02 0.  0.
         11    1    3    3    0    0 -0.41281015711E+02  0.31290996843E+02  0.12080313977E+02  0.53190062302E+02  0.51100000000E-03 0. -1.
         22    1    1    0    0    0  0.77871803850E-01 -0.29349635423E+02 -0.24500581507E+01  0.29451824195E+02  0.00000000000E+00 0. -1.
</event>
<event>
 5    1  0.1691145E-003  0.9118800E+02  0.7818608E-02  0.1130116E+00
         25   -1    0    0    0    0  0.00000000000E+00  0.00000000000E+00  0.99999998245E-14  0.12500000000E+03  0.12500000000E+03 0.  0.
        -11    1    3    3    0    0 -0.46413999159E+02 -0.10751776249E+02  0.32325669282E+02  0.57574377159E+02  0.51100000000E-03 0. -1.
         23    2    1    0    0    0 -0.91461578891E+01 -0.97460701496E+01  0.26516290972E+02  0.95305694580E+02  0.90561711805E+02 0.  0.
         11    1    3    3    0    0  0.37267841270E+02  0.10057060996E+01 -0.58093783101E+01  0.37731317421E+02  0.51100000000E-03 0.  1.
         22    1    1    0    0    0  0.91461578891E+01  0.97460701496E+01 -0.26516290972E+02  0.29694305420E+02  0.00000000000E+00 0. -1.
</event>
<event>
 5    1  0.1691145E-003  0.9118800E+02  0.7818608E-02  0.1130116E+00
         25   -1    0    0    0    0  0.00000000000E+00  0.00000000000E+00  0.99999998245E-14  0.12500000000E+03  0.12500000000E+03 0.  0.
        -11    1    3    3    0    0  0.40662107901E+01  0.24433767693E+02 -0.81543524398E+01  0.26077510193E+02  0.51100000000E-03 0. -1.
         23    2    1    0    0    0  0.34582326508E+02 -0.15499456871E+02  0.18347728573E+02  0.82895254260E+02  0.71405977096E+02 0.  0.
         11    1    3    3    0    0  0.30516115718E+02 -0.39933224564E+02  0.26502081013E+02  0.56817744067E+02  0.51100000000E-03 0.  1.
         22    1    1    0    0    0 -0.34582326508E+02  0.15499456871E+02 -0.18347728573E+02  0.42104745740E+02  0.00000000000E+00 0.  1.
</event>
<event>
 5    1  0.1691145E-003  0.9118800E+02  0.7818608E-02  0.1130116E+00
         25   -1    0    0    0    0  0.00000000000E+00  0.00000000000E+00  0.99999998245E-14  0.12500000000E+03  0.12500000000E+03 0.  0.
        -11    1    3    3    0    0  0.47969062445E+02 -0.52406735764E+01  0.23278900758E+02  0.53576140512E+02  0.51100000000E-03 0.  1.
         23    2    1    0    0    0  0.16509186710E+02 -0.24548912173E+02  0.42258489064E+01  0.95115888274E+02  0.90299346999E+02 0.  0.
         11    1    3    3    0    0 -0.31459875735E+02 -0.19308238597E+02 -0.19053051851E+02  0.41539747762E+02  0.51100000000E-03 0. -1.
         22    1    1    0    0    0 -0.16509186710E+02  0.24548912173E+02 -0.42258489064E+01  0.29884111726E+02  0.00000000000E+00 0.  1.
</event>
<event>
 5    1  0.1691145E-003  0.9118800E+02  0.7818608E-02  0.1130116E+00
         25   -1    0    0    0    0  0.00000000000E+00  0.00000000000E+00  0.99999998245E-14  0.12500000000E+03  0.12500000000E+03 0.  0.
        -11    1    3    3    0    0 -0.76078487288E+01 -0.40066304489E+02  0.25393417165E+02  0.48041791737E+02  0.51100000000E-03 0.  1.
         23    2    1    0    0    0  0.24181567013E+02 -0.15759409682E+02 -0.12365243743E+01  0.96109929574E+02  0.91665055465E+02 0.  0.
         11    1    3    3    0    0  0.31789415742E+02  0.24306894808E+02 -0.26629941540E+02  0.48068137836E+02  0.51100000000E-03 0. -1.
         22    1    1    0    0    0 -0.24181567013E+02  0.15759409682E+02  0.12365243743E+01  0.28890070426E+02  0.00000000000E+00 0.  1.
</event>
<event>
 5    1  0.1691145E-003  0.9118800E+02  0.7818608E-02  0.1130116E+00
         25   -1    0    0    0    0  0.00000000000E+00  0.00000000000E+00  0.99999998245E-14  0.12500000000E+03  0.12500000000E+03 0.  0.
        -11    1    3    3    0    0 -0.32298336530E+02  0.86107811566E+01 -0.28690545980E+02  0.44050828864E+02  0.51100000000E-03 0. -1.
         23    2    1    0    0    0  0.10732055358E+02  0.20619134963E+02 -0.27837600136E+02  0.88733517952E+02  0.80983822384E+02 0.  0.
         11    1    3    3    0    0  0.43030391888E+02  0.12008353807E+02  0.85294584427E+00  0.44682689087E+02  0.51100000000E-03 0.  1.
         22    1    1    0    0    0 -0.10732055358E+02 -0.20619134963E+02  0.27837600136E+02  0.36266482048E+02  0.00000000000E+00 0.  1.
</event>
<event>
 5    1  0.1691145E-003  0.9118800E+02  0.7818608E-02  0.1130116E+00
         25   -1    0    0    0    0  0.00000000000E+00  0.00000000000E+00  0.99999998245E-14  0.12500000000E+03  0.12500000000E+03 0.  0.
        -11    1    3    3    0    0  0.82777118338E+01 -0.33180243609E+02 -0.13781325720E+02  0.36869689692E+02  0.51100000000E-03 0.  1.
         23    2    1    0    0    0 -0.27922908509E+01  0.31644416475E+01  0.29923763446E+02  0.94780102616E+02  0.89833321513E+02 0.  0.
         11    1    3    3    0    0 -0.11070002685E+02  0.36344685256E+02  0.43705089165E+02  0.57910412924E+02  0.51100000000E-03 0. -1.
         22    1    1    0    0    0  0.27922908509E+01 -0.31644416475E+01 -0.29923763446E+02  0.30219897384E+02  0.00000000000E+00 0. -1.
</event>
<event>
 5    1  0.1691145E-003  0.9118800E+02  0.7818608E-02  0.1130116E+00
         25   -1    0    0    0    0  0.00000000000E+00  0.00000000000E+00  0.99999998245E-14  0.12500000000E+03  0.12500000000E+03 0.  0.
        -11    1    3    3    0    0  0.29485121153E+02 -0.11962083465E+01 -0.52592241652E+02  0.60305448892E+02  0.51100000000E-03 0. -1.
         23    2    1    0    0    0  0.11435174974E+02  0.10992992742E+02 -0.23507534357E+02  0.96641345454E+02  0.92386884153E+02 0.  0.
         11    1    3    3    0    0 -0.18049946179E+02  0.12189201089E+02  0.29084707295E+02  0.36335896562E+02  0.51100000000E-03 0.  1.
         22    1    1    0    0    0 -0.11435174974E+02 -0.10992992742E+02  0.23507534357E+02  0.28358654546E+02  0.00000000000E+00 0. -1.
</event>
<event>
 5    1  0.1691145E-003  0.9118800E+02  0.7818608E-02  0.1130116E+00
         25   -1    0    0    0    0  0.00000000000E+00  0.00000000000E+00  0.99999998245E-14  0.12500000000E+03  0.12500000000E+03 0.  0.
        -11    1    3    3    0    0  0.20233624513E+02  0.29593310194E+02  0.88166610830E+01  0.36917436018E+02  0.51100000000E-03 0. -1.
         23    2    1    0    0    0 -0.26778446456E+02  0.28722379008E+01 -0.12834371100E+02  0.95166193225E+02  0.90368956541E+02 0.  0.
         11    1    3    3    0    0 -0.47012070969E+02 -0.26721072293E+02 -0.21651032183E+02  0.58248757207E+02  0.51100000000E-03 0.  1.
         22    1    1    0    0    0  0.26778446456E+02 -0.28722379008E+01  0.12834371100E+02  0.29833806775E+02  0.00000000000E+00 0.  1.
</event>
<event>
 5    1  0.1691145E-003  0.9118800E+02  0.7818608E-02  0.1130116E+00
         25   -1    0    0    0    0  0.00000000000E+00  0.00000000000E+00  0.99999998245E-14  0.12500000000E+03  0.12500000000E+03 0.  0.
        -11    1    3    3    0    0  0.37750018176E+02  0.29856474868E+02 -0.43241948559E+01  0.48323613537E+02  0.51100000000E-03 0.  1.
         23    2    1    0    0    0 -0.56875850596E+01  0.22633055690E+02 -0.19176451439E+02  0.94795031477E+02  0.89854092112E+02 0.  0.
         11    1    3    3    0    0 -0.43437603236E+02 -0.72234191783E+01 -0.14852256584E+02  0.46471417940E+02  0.51100000000E-03 0. -1.
         22    1    1    0    0    0  0.56875850596E+01 -0.22633055690E+02  0.19176451439E+02  0.30204968523E+02  0.00000000000E+00 0. -1.
</event>
<event>
 5    1  0.1691145E-003  0.9118800E+02  0.7818608E-02  0.1130116E+00
         25   -1    0    0    0    0  0.00000000000E+00  0.00000000000E+00  0.99999998245E-14  0.12500000000E+03  0.12500000000E+03 0.  0.
        -11    1    3    3    0    0  0.20088152972E+02 -0.40427428066E+02  0.12398882559E+02  0.46814988186E+02  0.51100000000E-03 0.  1.
         23    2    1    0    0    0  0.28520662127E+02  0.63900813701E+01  0.88767958185E+00  0.95758774255E+02  0.91184941540E+02 0.  0.
         11    1    3    3    0    0  0.84325091545E+01  0.46817509436E+02 -0.11511202977E+02  0.48943786068E+02  0.51100000000E-03 0. -1.
         22    1    1    0    0    0 -0.28520662127E+02 -0.63900813701E+01 -0.88767958185E+00  0.29241225745E+02  0.00000000000E+00 0. -1.
</event>
<event>
 5    1  0.1691145E-003  0.9118800E+02  0.7818608E-02  0.1130116E+00
         25   -1    0    0    0    0  0.00000000000E+00  0.00000000000E+00  0.99999998245E-14  0.12500000000E+03  0.12500000000E+03 0.  0.
        -11    1    3    3    0    0 -0.18304002914E+02  0.30601190924E+01 -0.16616595821E+02  0.24910080459E+02  0.51100000000E-03 0. -1.
         23    2    1    0    0    0  0.26426634127E+02  0.34781390545E+02 -0.10391613693E+02  0.80099022787E+02  0.66330654277E+02 0.  0.
         11    1    3    3    0    0  0.44730637041E+02  0.31721271452E+02  0.62249821282E+01  0.55188942329E+02  0.51100000000E-03 0.  1.
         22    1    1    0    0    0 -0.26426634127E+02 -0.34781390545E+02  0.10391613693E+02  0.44900977213E+02  0.00000000000E+00 0.  1.
</event>
<event>
 5    1  0.1691145E-003  0.9118800E+02  0.7818608E-02  0.1130116E+00
         25   -1    0    0    0    0  0.00000000000E+00  0.00000000000E+00  0.99999998245E-14  0.12500000000E+03  0.12500000000E+03 0.  0.
        -11    1    3    3    0    0  0.34901809879E+02 -0.35195366614E+01 -0.32757845730E+02  0.47995832405E+02  0.51100000000E-03 0.  1.
         23    2    1    0    0    0 -0.44453372040E+00 -0.18550853829E+01 -0.40694771720E+02  0.84260542501E+02  0.73757275066E+02 0.  0.
         11    1    3    3    0    0 -0.35346343599E+02  0.16644512786E+01 -0.79369259896E+01  0.36264710096E+02  0.51100000000E-03 0. -1.
         22    1    1    0    0    0  0.44453372040E+00  0.18550853829E+01  0.40694771720E+02  0.40739457499E+02  0.00000000000E+00 0. -1.
</event>
<event>
 5    1  0.1691145E-003  0.9118800E+02  0.7818608E-02  0.1130116E+00
         25   -1    0    0    0    0  0.00000000000E+00  0.00000000000E+00  0.99999998245E-14  0.12500000000E+03  0.12500000000E+03 0.  0.
        -11    1    3    3    0    0 -0.42702272804E+00 -0.43880202400E+02 -0.19446868096E+02  0.47998283199E+02  0.51100000000E-03 0. -1.
         23    2    1    0    0    0  0.27054344887E+02 -0.89275069947E+01 -0.42257754313E-01  0.96510708255E+02  0.92209961847E+02 0.  0.
         11    1    3    3    0    0  0.27481367615E+02  0.34952695405E+02  0.19404610342E+02  0.48512425056E+02  0.51100000000E-03 0.  1.
         22    1    1    0    0    0 -0.27054344887E+02  0.89275069947E+01  0.42257754313E-01  0.28489291745E+02  0.00000000000E+00 0. -1.
</event>
<event>
 5    1  0.1691145E-003  0.9118800E+02  0.7818608E-02  0.1130116E+00
         25   -1    0    0    0    0  0.00000000000E+00  0.00000000000E+00  0.99999998245E-14  0.12500000000E+03  0.12500000000E+03 0.  0.
        -11    1    3    3    0    0 -0.72651445169E+01 -0.36603157140E+02 -0.16568322698E+02  0.40829924746E+02  0.51100000000E-03 0.  1.
         23    2    1    0    0    0 -0.16988228478E+02  0.18546259891E+02 -0.12328267264E+02  0.96990183212E+02  0.92857664212E+02 0.  0.
         11    1    3    3    0    0 -0.97230839610E+01  0.55149417032E+02  0.42400554336E+01  0.56160258466E+02  0.51100000000E-03 0. -1.
         22    1    1    0    0    0  0.16988228478E+02 -0.18546259891E+02  0.12328267264E+02  0.28009816788E+02  0.00000000000E+00 0. -1.
</event>
<event>
 5    1  0.1691145E-003  0.9118800E+02  0.7818608E-02  0.1130116E+00
         25   -1    0    0    0    0  0.00000000000E+00  0.00000000000E+00  0.99999998245E-14  0.12500000000E+03  0.12500000000E+03 0.  0.
        -11    1    3    3    0    0  0.38707909663E+02 -0.26151295538E+02  0.45575176453E+01  0.46935737942E+02  0.51100000000E-03 0. -1.
         23    2    1    0    0    0 -0.10053573417E+02  0.12259085952E+02  0.12430296236E+01  0.10909702388E+03  0.10793171902E+03 0.  0.
         11    1    3    3    0    0 -0.48761483080E+02  0.38410381490E+02 -0.33144880217E+01  0.62161285938E+02  0.51100000000E-03 0.  1.
         22    1    1    0    0    0  0.10053573417E+02 -0.12259085952E+02 -0.12430296236E+01  0.15902976120E+02  0.00000000000E+00 0.  1.
</event>
<event>
 5    1  0.1691145E-003  0.9118800E+02  0.7818608E-02  0.1130116E+00
         25   -1    0    0    0    0  0.00000000000E+00  0.00000000000E+00  0.99999998245E-14  0.12500000000E+03  0.12500000000E+03 0.  0.
        -11    1    3    3    0    0 -0.10096971159E+02  0.77388330494E+01  0.37666155152E+02  0.39756478814E+02  0.51100000000E-03 0.  1.
         23    2    1    0    0    0  0.30100992892E+02 -0.89413660137E+01  0.74834952012E+01  0.92719657689E+02  0.86919010708E+02 0.  0.
         11    1    3    3    0    0  0.40197964051E+02 -0.16680199063E+02 -0.30182659950E+02  0.52963178875E+02  0.51100000000E-03 0. -1.
         22    1    1    0    0    0 -0.30100992892E+02  0.89413660137E+01 -0.74834952012E+01  0.32280342311E+02  0.00000000000E+00 0.  1.
</event>
<event>
 5    1  0.1691145E-003  0.9118800E+02  0.7818608E-02  0.1130116E+00
         25   -1    0    0    0    0  0.00000000000E+00  0.00000000000E+00  0.99999998245E-14  0.12500000000E+03  0.12500000000E+03 0.  0.
        -11    1    3    3    0    0 -0.51284328879E+02  0.23563052344E+02 -0.13892409327E+02  0.58123135338E+02  0.51100000000E-03 0. -1.
         23    2    1    0    0    0 -0.19542249910E+02  0.10884623193E+02  0.10672747478E+02  0.10021528511E+03  0.97102117776E+02 0.  0.
         11    1    3    3    0    0  0.31742078969E+02 -0.12678429151E+02  0.24565156805E+02  0.42092149768E+02  0.51100000000E-03 0.  1.
         22    1    1    0    0    0  0.19542249910E+02 -0.10884623193E+02 -0.10672747478E+02  0.24784714893E+02  0.00000000000E+00 0. -1.
</event>
<event>
 5    1  0.1691145E-003  0.9118800E+02  0.7818608E-02  0.1130116E+00
         25   -1    0    0    0    0  0.00000000000E+00  0.00000000000E+00  0.99999998245E-14  0.12500000000E+03  0.12500000000E+03 0.  0.
        -11    1    3    3    0    0 -0.39042909601E+02 -0.37414011217E+02 -0.24364325824E+02  0.59310853969E+02  0.51100000000E-03 0. -1.
         23    2    1    0    0    0 -0.18588431353E+02 -0.70874531101E+01 -0.21044180627E+02  0.96041075469E+02  0.91571113716E+02 0.  0.
         11    1    3    3    0    0  0.20454478248E+02  0.30326558107E+02  0.33201451979E+01  0.36730221500E+02  0.51100000000E-03 0.  1.
         22    1    1    0    0    0  0.18588431353E+02  0.70874531101E+01  0.21044180627E+02  0.28958924531E+02  0.00000000000E+00 0. -1.
</event>
<event>
 5    1  0.1691145E-003  0.9118800E+02  0.7818608E-02  0.1130116E+00
         25   -1    0    0    0    0  0.00000000000E+00  0.00000000000E+00  0.99999998245E-14  0.12500000000E+03  0.12500000000E+03 0.  0.
        -11    1    3    3    0    0 -0.96945644569E+01  0.47880494369E+02 -0.26649834116E+02  0.55648360081E+02  0.51100000000E-03 0. -1.
         23    2    1    0    0    0 -0.13712244889E+02  0.24921259671E+02  0.61614804097E+01  0.95895727387E+02  0.91372489551E+02 0.  0.
         11    1    3    3    0    0 -0.40176804320E+01 -0.22959234698E+02  0.32811314525E+02  0.40247367306E+02  0.51100000000E-03 0.  1.
         22    1    1    0    0    0  0.13712244889E+02 -0.24921259671E+02 -0.61614804097E+01  0.29104272613E+02  0.00000000000E+00 0. -1.
</event>
<event>
 5    1  0.1691145E-003  0.9118800E+02  0.7818608E-02  0.1130116E+00
         25   -1    0    0    0    0  0.00000000000E+00  0.00000000000E+00  0.99999998245E-14  0.12500000000E+03  0.12500000000E+03 0.  0.
        -11    1    3    3    0    0 -0.30506077191E+02  0.29358196172E+02  0.89725382135E+01  0.43278526665E+02  0.51100000000E-03 0.  1.
         23    2    1    0    0    0  0.20737103599E+02  0.10058860506E+02  0.13613467160E+02  0.98231835542E+02  0.94514331640E+02 0.  0.
         11    1    3    3    0    0  0.51243180791E+02 -0.19299335666E+02  0.46409289461E+01  0.54953308876E+02  0.51100000000E-03 0. -1.
         22    1    1    0    0    0 -0.20737103599E+02 -0.10058860506E+02 -0.13613467160E+02  0.26768164458E+02  0.00000000000E+00 0. -1.
</event>
<event>
 5    1  0.1691145E-003  0.9118800E+02  0.7818608E-02  0.1130116E+00
         25   -1    0    0    0    0  0.00000000000E+00  0.00000000000E+00  0.99999998245E-14  0.12500000000E+03  0.12500000000E+03 0.  0.
        -11    1    3    3    0    0  0.32656755376E+02  0.72426004480E+01 -0.44086497968E+02  0.55340204520E+02  0.51100000000E-03 0. -1.
         23    2    1    0    0    0  0.94857389562E+01  0.23378603772E+02 -0.16252509515E+02  0.94988628432E+02  0.90123010979E+02 0.  0.
         11    1    3    3    0    0 -0.23171016420E+02  0.16136003324E+02  0.27833988453E+02  0.39648423912E+02  0.51100000000E-03 0.  1.
         22    1    1    0    0    0 -0.94857389562E+01 -0.23378603772E+02  0.16252509515E+02  0.30011371568E+02  0.00000000000E+00 0. -1.
</event>
<event>
 5    1  0.1691145E-003  0.9118800E+02  0.7818608E-02  0.1130116E+00
         25   -1    0    0    0    0  0.00000000000E+00  0.00000000000E+00  0.99999998245E-14  0.12500000000E+03  0.12500000000E+03 0.  0.
        -11    1    3    3    0    0  0.46534262676E+02  0.26246836536E+02  0.11064576255E+02  0.54559681807E+02  0.51100000000E-03 0.  1.
         23    2    1    0    0    0  0.10559721756E+02  0.24123026816E+02  0.20287445265E+02  0.91758330642E+02  0.85525333443E+02 0.  0.
         11    1    3    3    0    0 -0.35974540920E+02 -0.21238097199E+01  0.92228690107E+01  0.37198648835E+02  0.51100000000E-03 0. -1.
         22    1    1    0    0    0 -0.10559721756E+02 -0.24123026816E+02 -0.20287445265E+02  0.33241669358E+02  0.00000000000E+00 0.  1.
</event>
<event>
 5    1  0.1691145E-003  0.9118800E+02  0.7818608E-02  0.1130116E+00
         25   -1    0    0    0    0  0.00000000000E+00  0.00000000000E+00  0.99999998245E-14  0.12500000000E+03  0.12500000000E+03 0.  0.
        -11    1    3    3    0    0  0.25114947772E+02  0.82189005544E+01  0.34891523798E+02  0.43769045695E+02  0.51100000000E-03 0.  1.
         23    2    1    0    0    0 -0.19812413643E+02  0.18427746348E+02  0.98646691017E+01  0.96200255794E+02  0.91788147102E+02 0.  0.
         11    1    3    3    0    0 -0.44927361415E+02  0.10208845794E+02 -0.25026854696E+02  0.52431210099E+02  0.51100000000E-03 0. -1.
         22    1    1    0    0    0  0.19812413643E+02 -0.18427746348E+02 -0.98646691017E+01  0.28799744206E+02  0.00000000000E+00 0. -1.
</event>
<event>
 5    1  0.1691145E-003  0.9118800E+02  0.7818608E-02  0.1130116E+00
         25   -1    0    0    0    0  0.00000000000E+00  0.00000000000E+00  0.99999998245E-14  0.12500000000E+03  0.12500000000E+03 0.  0.
        -11    1    3    3    0    0  0.20428568937E+02 -0.12164399556E+02 -0.18630194308E+02  0.30205681346E+02  0.51100000000E-03 0.  1.
         23    2    1    0    0    0  0.34132671354E+02 -0.11213521963E+02  0.28401394715E+02  0.79202384884E+02  0.64618853448E+02 0.  0.
         11    1    3    3    0    0  0.13704102417E+02  0.95087759319E+00  0.47031589023E+02  0.48996703537E+02  0.51100000000E-03 0. -1.
         22    1    1    0    0    0 -0.34132671354E+02  0.11213521963E+02 -0.28401394715E+02  0.45797615116E+02  0.00000000000E+00 0. -1.
</event>
<event>
 5    1  0.1691145E-003  0.9118800E+02  0.7818608E-02  0.1130116E+00
         25   -1    0    0    0    0  0.00000000000E+00  0.00000000000E+00  0.99999998245E-14  0.12500000000E+03  0.12500000000E+03 0.  0.
        -11    1    3    3    0    0  0.49300980964E+02  0.18125272322E+02  0.25427423774E+02  0.58358085136E+02  0.51100000000E-03 0.  1.
         23    2    1    0    0    0  0.28220898384E+02  0.15101262604E+02 -0.18207054159E+01  0.92940957499E+02  0.87236685946E+02 0.  0.
         11    1    3    3    0    0 -0.21080082579E+02 -0.30240097177E+01 -0.27248129189E+02  0.34582872363E+02  0.51100000000E-03 0. -1.
         22    1    1    0    0    0 -0.28220898384E+02 -0.15101262604E+02  0.18207054159E+01  0.32059042501E+02  0.00000000000E+00 0.  1.
</event>
<event>
 5    1  0.1691145E-003  0.9118800E+02  0.7818608E-02  0.1130116E+00
         25   -1    0    0    0    0  0.00000000000E+00  0.00000000000E+00  0.99999998245E-14  0.12500000000E+03  0.12500000000E+03 0.  0.
        -11    1    3    3    0    0  0.22458716584E+02  0.20597888068E+02 -0.17399091145E+02  0.35091242731E+02  0.51100000000E-03 0.  1.
         23    2    1    0    0    0 -0.18780910407E+02 -0.21942121121E+02 -0.39247109222E+01  0.95852399227E+02  0.91313196236E+02 0.  0.
         11    1    3    3    0    0 -0.41239626990E+02 -0.42540009189E+02  0.13474380223E+02  0.60761156496E+02  0.51100000000E-03 0. -1.
         22    1    1    0    0    0  0.18780910407E+02  0.21942121121E+02  0.39247109222E+01  0.29147600773E+02  0.00000000000E+00 0. -1.
</event>
<event>
 5    1  0.1691145E-003  0.9118800E+02  0.7818608E-02  0.1130116E+00
         25   -1    0    0    0    0  0.00000000000E+00  0.00000000000E+00  0.99999998245E-14  0.12500000000E+03  0.12500000000E+03 0.  0.
        -11    1    3    3    0    0  0.15509553535E+02 -0.93382662721E+01  0.29003514193E+02  0.34189959105E+02  0.51100000000E-03 0.  1.
         23    2    1    0    0    0  0.10703699374E+01  0.62088152979E+01 -0.28671678052E+02  0.95644247556E+02  0.91027808329E+02 0.  0.
         11    1    3    3    0    0 -0.14439183598E+02  0.15547081570E+02 -0.57675192245E+02  0.61454288451E+02  0.51100000000E-03 0. -1.
         22    1    1    0    0    0 -0.10703699374E+01 -0.62088152979E+01  0.28671678052E+02  0.29355752444E+02  0.00000000000E+00 0. -1.
</event>
<event>
 5    1  0.1691145E-003  0.9118800E+02  0.7818608E-02  0.1130116E+00
         25   -1    0    0    0    0  0.00000000000E+00  0.00000000000E+00  0.99999998245E-14  0.12500000000E+03  0.12500000000E+03 0.  0.
        -11    1    3    3    0    0 -0.76398235136E+01 -0.24528587637E+01 -0.38669745343E+02  0.39493450401E+02  0.51100000000E-03 0.  1.
         23    2    1    0    0    0  0.27865200501E+02 -0.17911544362E+02 -0.37036930200E+01  0.91668180932E+02  0.85393473012E+02 0.  0.
         11    1    3    3    0    0  0.35505024015E+02 -0.15458685598E+02  0.34966052323E+02  0.52174730531E+02  0.51100000000E-03 0. -1.
         22    1    1    0    0    0 -0.27865200501E+02  0.17911544362E+02  0.37036930200E+01  0.33331819068E+02  0.00000000000E+00 0. -1.
</event>
<event>
 5    1  0.1691145E-003  0.9118800E+02  0.7818608E-02  0.1130116E+00
         25   -1    0    0    0    0  0.00000000000E+00  0.00000000000E+00  0.99999998245E-14  0.12500000000E+03  0.12500000000E+03 0.  0.
        -11    1    3    3    0    0  0.19880070599E+02  0.15380655550E+02  0.46241840756E+02  0.52631640758E+02  0.51100000000E-03 0. -1.
         23    2    1    0    0    0 -0.14914394862E+02  0.63429808691E+01  0.27264046586E+02  0.93282484072E+02  0.87724688760E+02 0.  0.
         11    1    3    3    0    0 -0.34794465461E+02 -0.90376746810E+01 -0.18977794170E+02  0.40650843314E+02  0.51100000000E-03 0.  1.
         22    1    1    0    0    0  0.14914394862E+02 -0.63429808691E+01 -0.27264046586E+02  0.31717515928E+02  0.00000000000E+00 0.  1.
</event>
<event>
 5    1  0.1691145E-003  0.9118800E+02  0.7818608E-02  0.1130116E+00
         25   -1    0    0    0    0  0.00000000000E+00  0.00000000000E+00  0.99999998245E-14  0.12500000000E+03  0.12500000000E+03 0.  0.
        -11    1    3    3    0    0  0.37776533357E+02 -0.15929019715E+02 -0.42741260694E+02  0.59225125644E+02  0.51100000000E-03 0.  1.
         23    2    1    0    0    0  0.59223466155E+01 -0.14654743326E+02 -0.24172645286E+02  0.96118302136E+02  0.91676472085E+02 0.  0.
         11    1    3    3    0    0 -0.31854186741E+02  0.12742763885E+01  0.18568615408E+02  0.36893176492E+02  0.51100000000E-03 0. -1.
         22    1    1    0    0    0 -0.59223466155E+01  0.14654743326E+02  0.24172645286E+02  0.28881697864E+02  0.00000000000E+00 0.  1.
</event>
<event>
 5    1  0.1691145E-003  0.9118800E+02  0.7818608E-02  0.1130116E+00
         25   -1    0    0    0    0  0.00000000000E+00  0.00000000000E+00  0.99999998245E-14  0.12500000000E+03  0.12500000000E+03 0.  0.
        -11    1    3    3    0    0  0.56801829302E+02  0.63349860253E+01 -0.11765916531E+02  0.58352520528E+02  0.51100000000E-03 0.  1.
         23    2    1    0    0    0  0.19201751713E+02  0.63480002363E+01 -0.19685132492E+02  0.96777512210E+02  0.92570935247E+02 0.  0.
         11    1    3    3    0    0 -0.37600077589E+02  0.13014210956E-01 -0.79192159606E+01  0.38424991682E+02  0.51100000000E-03 0. -1.
         22    1    1    0    0    0 -0.19201751713E+02 -0.63480002363E+01  0.19685132492E+02  0.28222487790E+02  0.00000000000E+00 0.  1.
</event>
<event>
 5    1  0.1691145E-003  0.9118800E+02  0.7818608E-02  0.1130116E+00
         25   -1    0    0    0    0  0.00000000000E+00  0.00000000000E+00  0.99999998245E-14  0.12500000000E+03  0.12500000000E+03 0.  0.
        -11    1    3    3    0    0 -0.30032726956E+02  0.16195535017E+02 -0.37765026176E+02  0.50896534707E+02  0.51100000000E-03 0.  1.
         23    2    1    0    0    0 -0.30573279415E+02  0.49412475325E+01  0.36488658342E+01  0.93815780220E+02  0.88481326025E+02 0.  0.
         11    1    3    3    0    0 -0.54055245970E+00 -0.11254287484E+02  0.41413892010E+02  0.42919245513E+02  0.51100000000E-03 0. -1.
         22    1    1    0    0    0  0.30573279415E+02 -0.49412475325E+01 -0.36488658342E+01  0.31184219780E+02  0.00000000000E+00 0.  1.
</event>
<event>
 5    1  0.1691145E-003  0.9118800E+02  0.7818608E-02  0.1130116E+00
         25   -1    0    0    0    0  0.00000000000E+00  0.00000000000E+00  0.99999998245E-14  0.12500000000E+03  0.12500000000E+03 0.  0.
        -11    1    3    3    0    0  0.50290223627E+02 -0.32063719525E+02 -0.12027326364E+02  0.60842791536E+02  0.51100000000E-03 0. -1.
         23    2    1    0    0    0  0.29302757255E+02 -0.82738315732E+01 -0.65295868796E+00  0.94544553415E+02  0.89504962732E+02 0.  0.
         11    1    3    3    0    0 -0.20987466371E+02  0.23789887951E+02  0.11374367676E+02  0.33701761879E+02  0.51100000000E-03 0.  1.
         22    1    1    0    0    0 -0.29302757255E+02  0.82738315732E+01  0.65295868796E+00  0.30455446585E+02  0.00000000000E+00 0. -1.
</event>
<event>
 5    1  0.1691145E-003  0.9118800E+02  0.7818608E-02  0.1130116E+00
         25   -1    0    0    0    0  0.00000000000E+00  0.00000000000E+00  0.99999998245E-14  0.12500000000E+03  0.12500000000E+03 0.  0.
        -11    1    3    3    0    0 -0.32928611880E+02 -0.37227871732E+02  0.23576205910E+02  0.55009502810E+02  0.51100000000E-03 0.  1.
         23    2    1    0    0    0 -0.30906715472E+02 -0.24689196823E+01  0.12798473564E+02  0.91457168407E+02  0.85084029652E+02 0.  0.
         11    1    3    3    0    0  0.20218964077E+01  0.34758952050E+02 -0.10777732346E+02  0.36447665597E+02  0.51100000000E-03 0. -1.
         22    1    1    0    0    0  0.30906715472E+02  0.24689196823E+01 -0.12798473564E+02  0.33542831593E+02  0.00000000000E+00 0.  1.
</event>
<event>
 5    1  0.1691145E-003  0.9118800E+02  0.7818608E-02  0.1130116E+00
         25   -1    0    0    0    0  0.00000000000E+00  0.00000000000E+00  0.99999998245E-14  0.12500000000E+03  0.12500000000E+03 0.  0.
        -11    1    3    3    0    0 -0.20446143214E+02  0.20294000895E+02  0.20410923665E+02  0.35305765107E+02  0.51100000000E-03 0.  1.
         23    2    1    0    0    0  0.28835622856E+02 -0.82245714396E+01  0.29085696127E+01  0.94873657739E+02  0.89963406087E+02 0.  0.
         11    1    3    3    0    0  0.49281766070E+02 -0.28518572334E+02 -0.17502354053E+02  0.59567892632E+02  0.51100000000E-03 0. -1.
         22    1    1    0    0    0 -0.28835622856E+02  0.82245714396E+01 -0.29085696127E+01  0.30126342261E+02  0.00000000000E+00 0. -1.
</event>
<event>
 5    1  0.1691145E-003  0.9118800E+02  0.7818608E-02  0.1130116E+00
         25   -1    0    0    0    0  0.00000000000E+00  0.00000000000E+00  0.99999998245E-14  0.12500000000E+03  0.12500000000E+03 0.  0.
        -11    1    3    3    0    0  0.16181395952E+02 -0.45244119706E+02  0.39878933736E+01  0.48215881582E+02  0.51100000000E-03 0.  1.
         23    2    1    0    0    0  0.97137245682E+01 -0.13919897746E+02 -0.27231545455E+02  0.92911418446E+02  0.87194349654E+02 0.  0.
         11    1    3    3    0    0 -0.64676713838E+01  0.31324221960E+02 -0.31219438829E+02  0.44695536864E+02  0.51100000000E-03 0. -1.
         22    1    1    0    0    0 -0.97137245682E+01  0.13919897746E+02  0.27231545455E+02  0.32088581554E+02  0.00000000000E+00 0.  1.
</event>
<event>
 5    1  0.1691145E-003  0.9118800E+02  0.7818608E-02  0.1130116E+00
         25   -1    0    0    0    0  0.00000000000E+00  0.00000000000E+00  0.99999998245E-14  0.12500000000E+03  0.12500000000E+03 0.  0.
        -11    1    3    3    0    0  0.32653643567E+02  0.10601713227E+02  0.76501688091E+01  0.35173595845E+02  0.51100000000E-03 0. -1.
         23    2    1    0    0    0 -0.24338000811E+02  0.83175745099E+01 -0.13433626663E+02  0.95983062627E+02  0.91491888475E+02 0.  0.
         11    1    3    3    0    0 -0.56991644378E+02 -0.22841387170E+01 -0.21083795472E+02  0.60809466782E+02  0.51100000000E-03 0.  1.
         22    1    1    0    0    0  0.24338000811E+02 -0.83175745099E+01  0.13433626663E+02  0.29016937373E+02  0.00000000000E+00 0.  1.
</event>
<event>
 5    1  0.1691145E-003  0.9118800E+02  0.7818608E-02  0.1130116E+00
         25   -1    0    0    0    0  0.00000000000E+00  0.00000000000E+00  0.99999998245E-14  0.12500000000E+03  0.12500000000E+03 0.  0.
        -11    1    3    3    0    0  0.35066998160E+00 -0.44741756449E+02  0.15929649397E+02  0.47494225646E+02  0.51100000000E-03 0. -1.
         23    2    1    0    0    0 -0.55057716733E+01  0.14385317831E+01  0.28681522139E+02  0.95759401381E+02  0.91185801226E+02 0.  0.
         11    1    3    3    0    0 -0.58564416549E+01  0.46180288232E+02  0.12751872742E+02  0.48265175735E+02  0.51100000000E-03 0.  1.
         22    1    1    0    0    0  0.55057716733E+01 -0.14385317831E+01 -0.28681522139E+02  0.29240598619E+02  0.00000000000E+00 0. -1.
</event>
<event>
 5    1  0.1691145E-003  0.9118800E+02  0.7818608E-02  0.1130116E+00
         25   -1    0    0    0    0  0.00000000000E+00  0.00000000000E+00  0.99999998245E-14  0.12500000000E+03  0.12500000000E+03 0.  0.
        -11    1    3    3    0    0 -0.22911558715E+02 -0.47834845693E+01 -0.43498101623E+02  0.49395405580E+02  0.51100000000E-03 0. -1.
         23    2    1    0    0    0 -0.29214403689E+02  0.43944332644E+01  0.11735772585E+01  0.95433638875E+02  0.90738138170E+02 0.  0.
         11    1    3    3    0    0 -0.63028449744E+01  0.91779178337E+01  0.44671678881E+02  0.46038233294E+02  0.51100000000E-03 0.  1.
         22    1    1    0    0    0  0.29214403689E+02 -0.43944332644E+01 -0.11735772585E+01  0.29566361125E+02  0.00000000000E+00 0. -1.
</event>
<event>
 5    1  0.1691145E-003  0.9118800E+02  0.7818608E-02  0.1130116E+00
         25   -1    0    0    0    0  0.00000000000E+00  0.00000000000E+00  0.99999998245E-14  0.12500000000E+03  0.12500000000E+03 0.  0.
        -11    1    3    3    0    0  0.53804013047E+02  0.27548902183E+02  0.93520267776E+01  0.61165956516E+02  0.51100000000E-03 0. -1.
         23    2    1    0    0    0  0.24453454195E+02  0.13201407900E+02 -0.48527224735E+01  0.96790116838E+02  0.92587953911E+02 0.  0.
         11    1    3    3    0    0 -0.29350558852E+02 -0.14347494282E+02 -0.14204749251E+02  0.35624160322E+02  0.51100000000E-03 0.  1.
         22    1    1    0    0    0 -0.24453454195E+02 -0.13201407900E+02  0.48527224735E+01  0.28209883162E+02  0.00000000000E+00 0. -1.
</event>
<event>
 5    1  0.1691145E-003  0.9118800E+02  0.7818608E-02  0.1130116E+00
         25   -1    0    0    0    0  0.00000000000E+00  0.00000000000E+00  0.99999998245E-14  0.12500000000E+03  0.12500000000E+03 0.  0.
        -11    1    3    3    0    0 -0.68980663825E+01  0.49991482336E+02 -0.26739473927E+02  0.57111567060E+02  0.51100000000E-03 0.  1.
         23    2    1    0    0    0  0.98870661446E+01  0.15214411965E+02 -0.22701763069E+02  0.95937955082E+02  0.91430239912E+02 0.  0.
         11    1    3    3    0    0  0.16785132527E+02 -0.34777070371E+02  0.40377108575E+01  0.38826388021E+02  0.51100000000E-03 0. -1.
         22    1    1    0    0    0 -0.98870661446E+01 -0.15214411965E+02  0.22701763069E+02  0.29062044918E+02  0.00000000000E+00 0.  1.
</event>
<event>
 5    1  0.1691145E-003  0.9118800E+02  0.7818608E-02  0.1130116E+00
         25   -1    0    0    0    0  0.00000000000E+00  0.00000000000E+00  0.99999998245E-14  0.12500000000E+03  0.12500000000E+03 0.  0.
        -11    1    3    3    0    0  0.20078255179E+02 -0.23388830853E+02  0.40367647444E+02  0.50790950967E+02  0.51100000000E-03 0.  1.
         23    2    1    0    0    0  0.31507946256E+02 -0.10652944374E+02  0.33513074703E+01  0.91571461850E+02  0.85251776887E+02 0.  0.
         11    1    3    3    0    0  0.11429691077E+02  0.12735886479E+02 -0.37016339974E+02  0.40780510883E+02  0.51100000000E-03 0. -1.
         22    1    1    0    0    0 -0.31507946256E+02  0.10652944374E+02 -0.33513074703E+01  0.33428538150E+02  0.00000000000E+00 0. -1.
</event>
<event>
 5    1  0.1691145E-003  0.9118800E+02  0.7818608E-02  0.1130116E+00
         25   -1    0    0    0    0  0.00000000000E+00  0.00000000000E+00  0.99999998245E-14  0.12500000000E+03  0.12500000000E+03 0.  0.
        -11    1    3    3    0    0  0.29331310010E+02  0.25406244691E+02 -0.25413863923E+02  0.46386070064E+02  0.51100000000E-03 0. -1.
         23    2    1    0    0    0  0.19181835139E+02  0.12595945235E+02  0.19942755932E+02  0.94597464746E+02  0.89578826665E+02 0.  0.
         11    1    3    3    0    0 -0.10149474870E+02 -0.12810299456E+02  0.45356619855E+02  0.48211394683E+02  0.51100000000E-03 0.  1.
         22    1    1    0    0    0 -0.19181835139E+02 -0.12595945235E+02 -0.19942755932E+02  0.30402535254E+02  0.00000000000E+00 0. -1.
</event>
<event>
 5    1  0.1691145E-003  0.9118800E+02  0.7818608E-02  0.1130116E+00
         25   -1    0    0    0    0  0.00000000000E+00  0.00000000000E+00  0.99999998245E-14  0.12500000000E+03  0.12500000000E+03 0.  0.
        -11    1    3    3    0    0  0.13767874878E+02  0.17102018381E+02 -0.34695837916E+02  0.41058915966E+02  0.51100000000E-03 0. -1.
         23    2    1    0    0    0  0.42678528231E+01 -0.28193577679E+02 -0.49937077269E+01  0.96051260702E+02  0.91585016108E+02 0.  0.
         11    1    3    3    0    0 -0.95000220553E+01 -0.45295596060E+02  0.29702130189E+02  0.54992344736E+02  0.51100000000E-03 0.  1.
         22    1    1    0    0    0 -0.42678528231E+01  0.28193577679E+02  0.49937077269E+01  0.28948739298E+02  0.00000000000E+00 0.  1.
</event>
<event>
 5    1  0.1691145E-003  0.9118800E+02  0.7818608E-02  0.1130116E+00
         25   -1    0    0    0    0  0.00000000000E+00  0.00000000000E+00  0.99999998245E-14  0.12500000000E+03  0.12500000000E+03 0.  0.
        -11    1    3    3    0    0  0.58769741565E+02 -0.76287361057E+01  0.38739307075E+01  0.59389287566E+02  0.51100000000E-03 0. -1.
         23    2    1    0    0    0  0.25708953443E+02 -0.14284865453E+01  0.15460877857E+02  0.94966192298E+02  0.90091886841E+02 0.  0.
         11    1    3    3    0    0 -0.33060788122E+02  0.62002495604E+01  0.11586947150E+02  0.35576904733E+02  0.51100000000E-03 0.  1.
         22    1    1    0    0    0 -0.25708953443E+02  0.14284865453E+01 -0.15460877857E+02  0.30033807702E+02  0.00000000000E+00 0. -1.
</event>
<event>
 5    1  0.1691145E-003  0.9118800E+02  0.7818608E-02  0.1130116E+00
         25   -1    0    0    0    0  0.00000000000E+00  0.00000000000E+00  0.99999998245E-14  0.12500000000E+03  0.12500000000E+03 0.  0.
        -11    1    3    3    0    0  0.38309767397E+02  0.13062541999E+02  0.46744344230E+02  0.61832855338E+02  0.51100000000E-03 0. -1.
         23    2    1    0    0    0  0.13318669896E+02  0.36959948666E+01  0.25694304299E+02  0.95823903290E+02  0.91274179385E+02 0.  0.
         11    1    3    3    0    0 -0.24991097501E+02 -0.93665471326E+01 -0.21050039931E+02  0.33991047952E+02  0.51100000000E-03 0.  1.
         22    1    1    0    0    0 -0.13318669896E+02 -0.36959948666E+01 -0.25694304299E+02  0.29176096710E+02  0.00000000000E+00 0. -1.
</event>
<event>
 5    1  0.1691145E-003  0.9118800E+02  0.7818608E-02  0.1130116E+00
         25   -1    0    0    0    0  0.00000000000E+00  0.00000000000E+00  0.99999998245E-14  0.12500000000E+03  0.12500000000E+03 0.  0.
        -11    1    3    3    0    0 -0.20338277495E+02 -0.53185504037E+02  0.21217338929E+02  0.60766099452E+02  0.51100000000E-03 0.  1.
         23    2    1    0    0    0 -0.52757556586E+00 -0.24938216843E+02  0.15203334459E+02  0.95788112454E+02  0.91225150664E+02 0.  0.
         11    1    3    3    0    0  0.19810701929E+02  0.28247287194E+02 -0.60140044696E+01  0.35022013002E+02  0.51100000000E-03 0. -1.
         22    1    1    0    0    0  0.52757556586E+00  0.24938216843E+02 -0.15203334459E+02  0.29211887546E+02  0.00000000000E+00 0.  1.
</event>
<event>
 5    1  0.1691145E-003  0.9118800E+02  0.7818608E-02  0.1130116E+00
         25   -1    0    0    0    0  0.00000000000E+00  0.00000000000E+00  0.99999998245E-14  0.12500000000E+03  0.12500000000E+03 0.  0.
        -11    1    3    3    0    0 -0.24169341250E+01 -0.26900340756E+02  0.20049182170E+02  0.33636878709E+02  0.51100000000E-03 0.  1.
         23    2    1    0    0    0  0.10250837984E+02  0.22829842500E+02 -0.15038313568E+02  0.95803557359E+02  0.91246311376E+02 0.  0.
         11    1    3    3    0    0  0.12667772109E+02  0.49730183256E+02 -0.35087495737E+02  0.62166678649E+02  0.51100000000E-03 0. -1.
         22    1    1    0    0    0 -0.10250837984E+02 -0.22829842500E+02  0.15038313568E+02  0.29196442641E+02  0.00000000000E+00 0. -1.
</event>
<event>
 5    1  0.1691145E-003  0.9118800E+02  0.7818608E-02  0.1130116E+00
         25   -1    0    0    0    0  0.00000000000E+00  0.00000000000E+00  0.99999998245E-14  0.12500000000E+03  0.12500000000E+03 0.  0.
        -11    1    3    3    0    0  0.35735808444E+02 -0.14405745804E+02 -0.22395931886E+02  0.44566257220E+02  0.51100000000E-03 0. -1.
         23    2    1    0    0    0  0.14216506713E+02  0.23711222444E+02  0.59574129570E+01  0.96718877284E+02  0.92491725690E+02 0.  0.
         11    1    3    3    0    0 -0.21519301732E+02  0.38116968249E+02  0.28353344843E+02  0.52152620064E+02  0.51100000000E-03 0.  1.
         22    1    1    0    0    0 -0.14216506713E+02 -0.23711222444E+02 -0.59574129570E+01  0.28281122716E+02  0.00000000000E+00 0.  1.
</event>
<event>
 5    1  0.1691145E-003  0.9118800E+02  0.7818608E-02  0.1130116E+00
         25   -1    0    0    0    0  0.00000000000E+00  0.00000000000E+00  0.99999998245E-14  0.12500000000E+03  0.12500000000E+03 0.  0.
        -11    1    3    3    0    0  0.21987972166E+02  0.18690717217E+02 -0.26967832312E+02  0.39497820319E+02  0.51100000000E-03 0. -1.
         23    2    1    0    0    0 -0.25490073884E+02 -0.74190069850E+01 -0.12931779271E+02  0.95470075409E+02  0.90788318919E+02 0.  0.
         11    1    3    3    0    0 -0.47478046050E+02 -0.26109724202E+02  0.14036053041E+02  0.55972255090E+02  0.51100000000E-03 0.  1.
         22    1    1    0    0    0  0.25490073884E+02  0.74190069850E+01  0.12931779271E+02  0.29529924591E+02  0.00000000000E+00 0.  1.
</event>
<event>
 5    1  0.1691145E-003  0.9118800E+02  0.7818608E-02  0.1130116E+00
         25   -1    0    0    0    0  0.00000000000E+00  0.00000000000E+00  0.99999998245E-14  0.12500000000E+03  0.12500000000E+03 0.  0.
        -11    1    3    3    0    0  0.47212792178E+01 -0.41126640786E+02 -0.13535997879E+02  0.43553579630E+02  0.51100000000E-03 0.  1.
         23    2    1    0    0    0  0.75866807742E+01  0.98261212873E+01 -0.26088976834E+02  0.96108044425E+02  0.91662484726E+02 0.  0.
         11    1    3    3    0    0  0.28654015565E+01  0.50952762073E+02 -0.12552978955E+02  0.52554464795E+02  0.51100000000E-03 0. -1.
         22    1    1    0    0    0 -0.75866807742E+01 -0.98261212873E+01  0.26088976834E+02  0.28891955575E+02  0.00000000000E+00 0.  1.
</event>
<event>
 5    1  0.1691145E-003  0.9118800E+02  0.7818608E-02  0.1130116E+00
         25   -1    0    0    0    0  0.00000000000E+00  0.00000000000E+00  0.99999998245E-14  0.12500000000E+03  0.12500000000E+03 0.  0.
        -11    1    3    3    0    0 -0.40510425954E+02  0.22877201763E+02 -0.16189104404E+02  0.49260004803E+02  0.51100000000E-03 0.  1.
         23    2    1    0    0    0 -0.16476047933E+02 -0.18340304223E+02 -0.13121383860E+02  0.97071562362E+02  0.92967147910E+02 0.  0.
         11    1    3    3    0    0  0.24034378021E+02 -0.41217505987E+02  0.30677205433E+01  0.47811557559E+02  0.51100000000E-03 0. -1.
         22    1    1    0    0    0  0.16476047933E+02  0.18340304223E+02  0.13121383860E+02  0.27928437638E+02  0.00000000000E+00 0.  1.
</event>
<event>
 5    1  0.1691145E-003  0.9118800E+02  0.7818608E-02  0.1130116E+00
         25   -1    0    0    0    0  0.00000000000E+00  0.00000000000E+00  0.99999998245E-14  0.12500000000E+03  0.12500000000E+03 0.  0.
        -11    1    3    3    0    0  0.17008113827E+02 -0.39554030090E+02  0.13233332824E+01  0.43076077393E+02  0.51100000000E-03 0.  1.
         23    2    1    0    0    0  0.26129500154E+02  0.10659393199E+02 -0.94571380544E+01  0.95237424476E+02  0.90467431261E+02 0.  0.
         11    1    3    3    0    0  0.91213863265E+01  0.50213423289E+02 -0.10780471337E+02  0.52161347083E+02  0.51100000000E-03 0. -1.
         22    1    1    0    0    0 -0.26129500154E+02 -0.10659393199E+02  0.94571380544E+01  0.29762575524E+02  0.00000000000E+00 0. -1.
</event>
<event>
 5    1  0.1691145E-003  0.9118800E+02  0.7818608E-02  0.1130116E+00
         25   -1    0    0    0    0  0.00000000000E+00  0.00000000000E+00  0.99999998245E-14  0.12500000000E+03  0.12500000000E+03 0.  0.
        -11    1    3    3    0    0  0.87880139086E+01  0.30210694095E+02 -0.24173919499E+02  0.39677368995E+02  0.51100000000E-03 0.  1.
         23    2    1    0    0    0  0.84028129752E+01  0.57585351139E+01  0.26862758650E+02  0.96270645763E+02  0.91883956384E+02 0.  0.
         11    1    3    3    0    0 -0.38520093341E+00 -0.24452158981E+02  0.51036678149E+02  0.56593276768E+02  0.51100000000E-03 0. -1.
         22    1    1    0    0    0 -0.84028129752E+01 -0.57585351139E+01 -0.26862758650E+02  0.28729354237E+02  0.00000000000E+00 0. -1.
</event>
<event>
 5    1  0.1691145E-003  0.9118800E+02  0.7818608E-02  0.1130116E+00
         25   -1    0    0    0    0  0.00000000000E+00  0.00000000000E+00  0.99999998245E-14  0.12500000000E+03  0.12500000000E+03 0.  0.
        -11    1    3    3    0    0  0.29473631262E+02  0.24224549547E+02  0.46049589474E+02  0.59800404944E+02  0.51100000000E-03 0.  1.
         23    2    1    0    0    0  0.20253641562E+02  0.19045169493E+02  0.13365890663E+02  0.94152382414E+02  0.88955582194E+02 0.  0.
         11    1    3    3    0    0 -0.92199896998E+01 -0.51793800540E+01 -0.32683698811E+02  0.34351977469E+02  0.51100000000E-03 0. -1.
         22    1    1    0    0    0 -0.20253641562E+02 -0.19045169493E+02 -0.13365890663E+02  0.30847617586E+02  0.00000000000E+00 0.  1.
</event>
<event>
 5    1  0.1691145E-003  0.9118800E+02  0.7818608E-02  0.1130116E+00
         25   -1    0    0    0    0  0.00000000000E+00  0.00000000000E+00  0.99999998245E-14  0.12500000000E+03  0.12500000000E+03 0.  0.
        -11    1    3    3    0    0 -0.29562397648E+02 -0.20826113095E+02 -0.44351370082E+02  0.57225050194E+02  0.51100000000E-03 0.  1.
         23    2    1    0    0    0 -0.18856774181E+02  0.78383469240E+01 -0.20927820850E+02  0.95759765723E+02  0.91186300675E+02 0.  0.
         11    1    3    3    0    0  0.10705623467E+02  0.28664460019E+02  0.23423549232E+02  0.38534715529E+02  0.51100000000E-03 0. -1.
         22    1    1    0    0    0  0.18856774181E+02 -0.78383469240E+01  0.20927820850E+02  0.29240234277E+02  0.00000000000E+00 0.  1.
</event>
<event>
 5    1  0.1691145E-003  0.9118800E+02  0.7818608E-02  0.1130116E+00
         25   -1    0    0    0    0  0.00000000000E+00  0.00000000000E+00  0.99999998245E-14  0.12500000000E+03  0.12500000000E+03 0.  0.
        -11    1    3    3    0    0 -0.26815672589E+02  0.28364654737E+02  0.29886404076E+02  0.49161276261E+02  0.51100000000E-03 0. -1.
         23    2    1    0    0    0  0.44715201820E+00  0.28817275645E+02 -0.72962681463E+01  0.95270034487E+02  0.90512477713E+02 0.  0.
         11    1    3    3    0    0  0.27262824607E+02  0.45262090858E+00 -0.37182672223E+02  0.46108758226E+02  0.51100000000E-03 0.  1.
         22    1    1    0    0    0 -0.44715201820E+00 -0.28817275645E+02  0.72962681463E+01  0.29729965513E+02  0.00000000000E+00 0. -1.
</event>
<event>
 5    1  0.1691145E-003  0.9118800E+02  0.7818608E-02  0.1130116E+00
         25   -1    0    0    0    0  0.00000000000E+00  0.00000000000E+00  0.99999998245E-14  0.12500000000E+03  0.12500000000E+03 0.  0.
        -11    1    3    3    0    0  0.55295927630E+01 -0.34036498396E+02  0.11041016492E+01  0.34500415358E+02  0.51100000000E-03 0.  1.
         23    2    1    0    0    0  0.10171884050E+02  0.23160690577E+02 -0.16823055949E+02  0.94620730348E+02  0.89611286047E+02 0.  0.
         11    1    3    3    0    0  0.46422912871E+01  0.57197188972E+02 -0.17927157598E+02  0.60120314990E+02  0.51100000000E-03 0. -1.
         22    1    1    0    0    0 -0.10171884050E+02 -0.23160690577E+02  0.16823055949E+02  0.30379269652E+02  0.00000000000E+00 0. -1.
</event>
<event>
 5    1  0.1691145E-003  0.9118800E+02  0.7818608E-02  0.1130116E+00
         25   -1    0    0    0    0  0.00000000000E+00  0.00000000000E+00  0.99999998245E-14  0.12500000000E+03  0.12500000000E+03 0.  0.
        -11    1    3    3    0    0 -0.10917675145E+02  0.32473936022E+02 -0.10348645676E+02  0.35788917543E+02  0.51100000000E-03 0. -1.
         23    2    1    0    0    0  0.10376112545E+02 -0.18068881282E+02  0.17944287959E+02  0.97501897289E+02  0.93543969995E+02 0.  0.
         11    1    3    3    0    0  0.21293787689E+02 -0.50542817304E+02  0.28292933635E+02  0.61712979746E+02  0.51100000000E-03 0.  1.
         22    1    1    0    0    0 -0.10376112545E+02  0.18068881282E+02 -0.17944287959E+02  0.27498102711E+02  0.00000000000E+00 0.  1.
</event>
<event>
 5    1  0.1691145E-003  0.9118800E+02  0.7818608E-02  0.1130116E+00
         25   -1    0    0    0    0  0.00000000000E+00  0.00000000000E+00  0.99999998245E-14  0.12500000000E+03  0.12500000000E+03 0.  0.
        -11    1    3    3    0    0 -0.56279061269E+01  0.13706042853E+02  0.53142728354E+02  0.55169543366E+02  0.51100000000E-03 0.  1.
         23    2    1    0    0    0 -0.20452130826E+02 -0.52354646598E+01  0.22152009798E+02  0.94399162044E+02  0.89301682577E+02 0.  0.
         11    1    3    3    0    0 -0.14824224699E+02 -0.18941507512E+02 -0.30990718556E+02  0.39229618678E+02  0.51100000000E-03 0. -1.
         22    1    1    0    0    0  0.20452130826E+02  0.52354646598E+01 -0.22152009798E+02  0.30600837956E+02  0.00000000000E+00 0.  1.
</event>
<event>
 5    1  0.1691145E-003  0.9118800E+02  0.7818608E-02  0.1130116E+00
         25   -1    0    0    0    0  0.00000000000E+00  0.00000000000E+00  0.99999998245E-14  0.12500000000E+03  0.12500000000E+03 0.  0.
        -11    1    3    3    0    0  0.55042371464E+02 -0.59671343030E+01  0.24399112830E+01  0.55418611635E+02  0.51100000000E-03 0. -1.
         23    2    1    0    0    0  0.19579151213E+02  0.20239936482E+01  0.20985138100E+02  0.96228212888E+02  0.91826212064E+02 0.  0.
         11    1    3    3    0    0 -0.35463220251E+02  0.79911279511E+01  0.18545226817E+02  0.40809601254E+02  0.51100000000E-03 0.  1.
         22    1    1    0    0    0 -0.19579151213E+02 -0.20239936482E+01 -0.20985138100E+02  0.28771787112E+02  0.00000000000E+00 0. -1.
</event>
<event>
 5    1  0.1691145E-003  0.9118800E+02  0.7818608E-02  0.1130116E+00
         25   -1    0    0    0    0  0.00000000000E+00  0.00000000000E+00  0.99999998245E-14  0.12500000000E+03  0.12500000000E+03 0.  0.
        -11    1    3    3    0    0  0.36997065797E+02  0.25728679658E+02  0.93795848810E+01  0.46029604032E+02  0.51100000000E-03 0.  1.
         23    2    1    0    0    0 -0.12955790420E+02  0.25114953708E+02  0.60697604230E+01  0.96095754693E+02  0.91645723704E+02 0.  0.
         11    1    3    3    0    0 -0.49952856217E+02 -0.61372595004E+00 -0.33098244580E+01  0.50066150661E+02  0.51100000000E-03 0. -1.
         22    1    1    0    0    0  0.12955790420E+02 -0.25114953708E+02 -0.60697604230E+01  0.28904245307E+02  0.00000000000E+00 0. -1.
</event>
<event>
 5    1  0.1691145E-003  0.9118800E+02  0.7818608E-02  0.1130116E+00
         25   -1    0    0    0    0  0.00000000000E+00  0.00000000000E+00  0.99999998245E-14  0.12500000000E+03  0.12500000000E+03 0.  0.
        -11    1    3    3    0    0  0.89102278020E+01  0.23521835859E+02 -0.51785557652E+02  0.57570938009E+02  0.51100000000E-03 0. -1.
         23    2    1    0    0    0 -0.17144314275E+01 -0.57348507029E+01 -0.26956336135E+02  0.97387107259E+02  0.93390453552E+02 0.  0.
         11    1    3    3    0    0 -0.10624659230E+02 -0.29256686562E+02  0.24829221517E+02  0.39816169250E+02  0.51100000000E-03 0.  1.
         22    1    1    0    0    0  0.17144314275E+01  0.57348507029E+01  0.26956336135E+02  0.27612892741E+02  0.00000000000E+00 0. -1.
</event>
<event>
 5    1  0.1691145E-003  0.9118800E+02  0.7818608E-02  0.1130116E+00
         25   -1    0    0    0    0  0.00000000000E+00  0.00000000000E+00  0.99999998245E-14  0.12500000000E+03  0.12500000000E+03 0.  0.
        -11    1    3    3    0    0  0.25931911421E+02 -0.39180900233E+02  0.40261182694E+02  0.61875437818E+02  0.51100000000E-03 0.  1.
         23    2    1    0    0    0  0.92477026656E+01 -0.22958537628E+02  0.15809001681E+02  0.95630985907E+02  0.91009595521E+02 0.  0.
         11    1    3    3    0    0 -0.16684208755E+02  0.16222362604E+02 -0.24452181013E+02  0.33755548089E+02  0.51100000000E-03 0. -1.
         22    1    1    0    0    0 -0.92477026656E+01  0.22958537628E+02 -0.15809001681E+02  0.29369014093E+02  0.00000000000E+00 0.  1.
</event>
<event>
 5    1  0.1691145E-003  0.9118800E+02  0.7818608E-02  0.1130116E+00
         25   -1    0    0    0    0  0.00000000000E+00  0.00000000000E+00  0.99999998245E-14  0.12500000000E+03  0.12500000000E+03 0.  0.
        -11    1    3    3    0    0 -0.26166463411E+02  0.13561811777E+02  0.15294897935E+02  0.33204524529E+02  0.51100000000E-03 0. -1.
         23    2    1    0    0    0  0.26906341809E+02 -0.12706127404E+02 -0.27685107479E+01  0.95115864495E+02  0.90299314082E+02 0.  0.
         11    1    3    3    0    0  0.53072805220E+02 -0.26267939181E+02 -0.18063408683E+02  0.61911339965E+02  0.51100000000E-03 0.  1.
         22    1    1    0    0    0 -0.26906341809E+02  0.12706127404E+02  0.27685107479E+01  0.29884135505E+02  0.00000000000E+00 0.  1.
</event>
<event>
 5    1  0.1691145E-003  0.9118800E+02  0.7818608E-02  0.1130116E+00
         25   -1    0    0    0    0  0.00000000000E+00  0.00000000000E+00  0.99999998245E-14  0.12500000000E+03  0.12500000000E+03 0.  0.
        -11    1    3    3    0    0 -0.27156269265E+02 -0.39716759611E+02  0.14790245337E+02  0.50335229331E+02  0.51100000000E-03 0.  1.
         23    2    1    0    0    0 -0.15982503222E+02  0.16432078400E+00  0.27095641171E+02  0.93541437079E+02  0.88092901359E+02 0.  0.
         11    1    3    3    0    0  0.11173766043E+02  0.39881080395E+02  0.12305395834E+02  0.43206207748E+02  0.51100000000E-03 0. -1.
         22    1    1    0    0    0  0.15982503222E+02 -0.16432078400E+00 -0.27095641171E+02  0.31458562921E+02  0.00000000000E+00 0.  1.
</event>
<event>
 5    1  0.1691145E-003  0.9118800E+02  0.7818608E-02  0.1130116E+00
         25   -1    0    0    0    0  0.00000000000E+00  0.00000000000E+00  0.99999998245E-14  0.12500000000E+03  0.12500000000E+03 0.  0.
        -11    1    3    3    0    0  0.23953499297E+02  0.37394182285E+02 -0.83125485913E+01  0.45179569073E+02  0.51100000000E-03 0. -1.
         23    2    1    0    0    0 -0.22109317372E+02  0.16943096768E+02 -0.94346399687E+01  0.95590768897E+02  0.90954341426E+02 0.  0.
         11    1    3    3    0    0 -0.46062816669E+02 -0.20451085517E+02 -0.11220913774E+01  0.50411199823E+02  0.51100000000E-03 0.  1.
         22    1    1    0    0    0  0.22109317372E+02 -0.16943096768E+02  0.94346399687E+01  0.29409231103E+02  0.00000000000E+00 0.  1.
</event>
<event>
 5    1  0.1691145E-003  0.9118800E+02  0.7818608E-02  0.1130116E+00
         25   -1    0    0    0    0  0.00000000000E+00  0.00000000000E+00  0.99999998245E-14  0.12500000000E+03  0.12500000000E+03 0.  0.
        -11    1    3    3    0    0  0.29619106008E+02  0.72629096680E+01 -0.32907204273E+02  0.44865637084E+02  0.51100000000E-03 0. -1.
         23    2    1    0    0    0  0.17551724185E+02  0.21179038310E+02  0.13180990608E+02  0.94498308260E+02  0.89440354790E+02 0.  0.
         11    1    3    3    0    0 -0.12067381823E+02  0.13916128642E+02  0.46088194881E+02  0.49632671176E+02  0.51100000000E-03 0.  1.
         22    1    1    0    0    0 -0.17551724185E+02 -0.21179038310E+02 -0.13180990608E+02  0.30501691740E+02  0.00000000000E+00 0.  1.
</event>
<event>
 5    1  0.1691145E-003  0.9118800E+02  0.7818608E-02  0.1130116E+00
         25   -1    0    0    0    0  0.00000000000E+00  0.00000000000E+00  0.99999998245E-14  0.12500000000E+03  0.12500000000E+03 0.  0.
        -11    1    3    3    0    0  0.43115541096E+01  0.33975060954E+02  0.17899997578E+02  0.38643294104E+02  0.51100000000E-03 0.  1.
         23    2    1    0    0    0 -0.27655565091E+02  0.85060647649E+01 -0.16170466715E+02  0.91853847703E+02  0.85664823153E+02 0.  0.
         11    1    3    3    0    0 -0.31967119201E+02 -0.25468996189E+02 -0.34070464293E+02  0.53210553599E+02  0.51100000000E-03 0. -1.
         22    1    1    0    0    0  0.27655565091E+02 -0.85060647649E+01  0.16170466715E+02  0.33146152297E+02  0.00000000000E+00 0. -1.
</event>
<event>
 5    1  0.1691145E-003  0.9118800E+02  0.7818608E-02  0.1130116E+00
         25   -1    0    0    0    0  0.00000000000E+00  0.00000000000E+00  0.99999998245E-14  0.12500000000E+03  0.12500000000E+03 0.  0.
        -11    1    3    3    0    0  0.37146918881E+02 -0.17871346941E+02 -0.12113552853E+02  0.42965297472E+02  0.51100000000E-03 0. -1.
         23    2    1    0    0    0 -0.22321311288E+00  0.14933923368E+02 -0.26369224894E+02  0.94694754369E+02  0.89714483737E+02 0.  0.
         11    1    3    3    0    0 -0.37370131994E+02  0.32805270308E+02 -0.14255672041E+02  0.51729456897E+02  0.51100000000E-03 0.  1.
         22    1    1    0    0    0  0.22321311288E+00 -0.14933923368E+02  0.26369224894E+02  0.30305245631E+02  0.00000000000E+00 0.  1.
</event>
<event>
 5    1  0.1691145E-003  0.9118800E+02  0.7818608E-02  0.1130116E+00
         25   -1    0    0    0    0  0.00000000000E+00  0.00000000000E+00  0.99999998245E-14  0.12500000000E+03  0.12500000000E+03 0.  0.
        -11    1    3    3    0    0 -0.24455841857E+02  0.74572454094E+01  0.56783200473E+02  0.62273835327E+02  0.51100000000E-03 0.  1.
         23    2    1    0    0    0 -0.79542437335E+01  0.48175964337E+01  0.27244865059E+02  0.96211774962E+02  0.91803832929E+02 0.  0.
         11    1    3    3    0    0  0.16501598124E+02 -0.26396489756E+01 -0.29538335415E+02  0.33937939635E+02  0.51100000000E-03 0. -1.
         22    1    1    0    0    0  0.79542437335E+01 -0.48175964337E+01 -0.27244865059E+02  0.28788225038E+02  0.00000000000E+00 0.  1.
</event>
<event>
 5    1  0.1691145E-003  0.9118800E+02  0.7818608E-02  0.1130116E+00
         25   -1    0    0    0    0  0.00000000000E+00  0.00000000000E+00  0.99999998245E-14  0.12500000000E+03  0.12500000000E+03 0.  0.
        -11    1    3    3    0    0  0.34789198599E+01  0.57028809520E+01  0.42472336210E+02  0.42994477295E+02  0.51100000000E-03 0.  1.
         23    2    1    0    0    0 -0.29210932404E+02 -0.35212675546E+01  0.24670169042E+01  0.95474348958E+02  0.90794202675E+02 0.  0.
         11    1    3    3    0    0 -0.32689852263E+02 -0.92241485066E+01 -0.40005319305E+02  0.52479871662E+02  0.51100000000E-03 0. -1.
         22    1    1    0    0    0  0.29210932404E+02  0.35212675546E+01 -0.24670169042E+01  0.29525651042E+02  0.00000000000E+00 0. -1.
</event>
<event>
 5    1  0.1691145E-003  0.9118800E+02  0.7818608E-02  0.1130116E+00
         25   -1    0    0    0    0  0.00000000000E+00  0.00000000000E+00  0.99999998245E-14  0.12500000000E+03  0.12500000000E+03 0.  0.
        -11    1    3    3    0    0 -0.66504349247E+01 -0.14122109502E+02 -0.31869967945E+02  0.35487421977E+02  0.51100000000E-03 0.  1.
         23    2    1    0    0    0  0.19494767716E+02  0.10996873020E+02  0.17392883896E+02  0.96654107974E+02  0.92404150305E+02 0.  0.
         11    1    3    3    0    0  0.26145202640E+02  0.25118982522E+02  0.49262851842E+02  0.61166685997E+02  0.51100000000E-03 0. -1.
         22    1    1    0    0    0 -0.19494767716E+02 -0.10996873020E+02 -0.17392883896E+02  0.28345892026E+02  0.00000000000E+00 0. -1.
</event>
<event>
 5    1  0.1691145E-003  0.9118800E+02  0.7818608E-02  0.1130116E+00
         25   -1    0    0    0    0  0.00000000000E+00  0.00000000000E+00  0.99999998245E-14  0.12500000000E+03  0.12500000000E+03 0.  0.
        -11    1    3    3    0    0  0.33678590510E+02 -0.53114592809E+01 -0.64151873095E+01  0.34693136020E+02  0.51100000000E-03 0. -1.
         23    2    1    0    0    0 -0.21669239547E+02  0.19608711323E+02 -0.45713194372E+01  0.95420370799E+02  0.90719858353E+02 0.  0.
         11    1    3    3    0    0 -0.55347830056E+02  0.24920170604E+02  0.18438678723E+01  0.60727234779E+02  0.51100000000E-03 0.  1.
         22    1    1    0    0    0  0.21669239547E+02 -0.19608711323E+02  0.45713194372E+01  0.29579629201E+02  0.00000000000E+00 0.  1.
</event>
<event>
 5    1  0.1691145E-003  0.9118800E+02  0.7818608E-02  0.1130116E+00
         25   -1    0    0    0    0  0.00000000000E+00  0.00000000000E+00  0.99999998245E-14  0.12500000000E+03  0.12500000000E+03 0.  0.
        -11    1    3    3    0    0  0.32784034740E+02 -0.28428048762E+02 -0.24191759021E+02  0.49680862463E+02  0.51100000000E-03 0. -1.
         23    2    1    0    0    0  0.20800669779E+01  0.53091420682E+01 -0.28902240453E+02  0.95540652225E+02  0.90885439188E+02 0.  0.
         11    1    3    3    0    0 -0.30703967762E+02  0.33737190830E+02 -0.47104814311E+01  0.45859789762E+02  0.51100000000E-03 0.  1.
         22    1    1    0    0    0 -0.20800669779E+01 -0.53091420682E+01  0.28902240453E+02  0.29459347775E+02  0.00000000000E+00 0. -1.
</event>
<event>
 5    1  0.1691145E-003  0.9118800E+02  0.7818608E-02  0.1130116E+00
         25   -1    0    0    0    0  0.00000000000E+00  0.00000000000E+00  0.99999998245E-14  0.12500000000E+03  0.12500000000E+03 0.  0.
        -11    1    3    3    0    0 -0.79780500489E+01  0.37158641040E+02 -0.37249250760E+02  0.53215792477E+02  0.51100000000E-03 0. -1.
         23    2    1    0    0    0  0.17539457702E+02  0.36032866088E+01 -0.18176132630E+02  0.99485532570E+02  0.96158115323E+02 0.  0.
         11    1    3    3    0    0  0.25517507751E+02 -0.33555354431E+02  0.19073118130E+02  0.46269740093E+02  0.51100000000E-03 0.  1.
         22    1    1    0    0    0 -0.17539457702E+02 -0.36032866088E+01  0.18176132630E+02  0.25514467430E+02  0.00000000000E+00 0. -1.
</event>
<event>
 5    1  0.1691145E-003  0.9118800E+02  0.7818608E-02  0.1130116E+00
         25   -1    0    0    0    0  0.00000000000E+00  0.00000000000E+00  0.99999998245E-14  0.12500000000E+03  0.12500000000E+03 0.  0.
        -11    1    3    3    0    0  0.35688151153E+02 -0.61180756585E+00  0.39944857743E+02  0.53568741833E+02  0.51100000000E-03 0. -1.
         23    2    1    0    0    0  0.94037937140E+01 -0.22675579437E+02  0.12856562397E+02  0.97288911323E+02  0.93258928960E+02 0.  0.
         11    1    3    3    0    0 -0.26284357439E+02 -0.22063771871E+02 -0.27088295346E+02  0.43720169490E+02  0.51100000000E-03 0.  1.
         22    1    1    0    0    0 -0.94037937140E+01  0.22675579437E+02 -0.12856562397E+02  0.27711088677E+02  0.00000000000E+00 0. -1.
</event>
<event>
 5    1  0.1691145E-003  0.9118800E+02  0.7818608E-02  0.1130116E+00
         25   -1    0    0    0    0  0.00000000000E+00  0.00000000000E+00  0.99999998245E-14  0.12500000000E+03  0.12500000000E+03 0.  0.
        -11    1    3    3    0    0  0.19254978496E+02  0.10211564640E+02  0.16137000342E+02  0.27118868516E+02  0.51100000000E-03 0.  1.
         23    2    1    0    0    0  0.43564031646E+02 -0.16672305874E+02 -0.16128991383E+02  0.75644807776E+02  0.57325404003E+02 0.  0.
         11    1    3    3    0    0  0.24309053150E+02 -0.26883870514E+02 -0.32265991725E+02  0.48525939260E+02  0.51100000000E-03 0. -1.
         22    1    1    0    0    0 -0.43564031646E+02  0.16672305874E+02  0.16128991383E+02  0.49355192224E+02  0.00000000000E+00 0.  1.
</event>
<event>
 5    1  0.1691145E-003  0.9118800E+02  0.7818608E-02  0.1130116E+00
         25   -1    0    0    0    0  0.00000000000E+00  0.00000000000E+00  0.99999998245E-14  0.12500000000E+03  0.12500000000E+03 0.  0.
        -11    1    3    3    0    0 -0.21249713275E+02  0.26483207304E+02 -0.18059678169E+02  0.38458582386E+02  0.51100000000E-03 0.  1.
         23    2    1    0    0    0  0.15371358400E+02 -0.18424666215E+02 -0.15444805086E+02  0.96464250696E+02  0.92146962370E+02 0.  0.
         11    1    3    3    0    0  0.36621071674E+02 -0.44907873519E+02  0.26148730830E+01  0.58005668310E+02  0.51100000000E-03 0. -1.
         22    1    1    0    0    0 -0.15371358400E+02  0.18424666215E+02  0.15444805086E+02  0.28535749304E+02  0.00000000000E+00 0. -1.
</event>
<event>
 5    1  0.1691145E-003  0.9118800E+02  0.7818608E-02  0.1130116E+00
         25   -1    0    0    0    0  0.00000000000E+00  0.00000000000E+00  0.99999998245E-14  0.12500000000E+03  0.12500000000E+03 0.  0.
        -11    1    3    3    0    0 -0.17169899775E+02 -0.11914710517E+02 -0.38763847809E+02  0.44038638514E+02  0.51100000000E-03 0.  1.
         23    2    1    0    0    0 -0.16293805561E+02 -0.18226001013E+01  0.17390498084E+02  0.10109938506E+03  0.98233631031E+02 0.  0.
         11    1    3    3    0    0  0.87609421396E+00  0.10092110415E+02  0.56154345893E+02  0.57060746548E+02  0.51100000000E-03 0. -1.
         22    1    1    0    0    0  0.16293805561E+02  0.18226001013E+01 -0.17390498084E+02  0.23900614938E+02  0.00000000000E+00 0. -1.
</event>
<event>
 5    1  0.1691145E-003  0.9118800E+02  0.7818608E-02  0.1130116E+00
         25   -1    0    0    0    0  0.00000000000E+00  0.00000000000E+00  0.99999998245E-14  0.12500000000E+03  0.12500000000E+03 0.  0.
        -11    1    3    3    0    0 -0.24598996365E+02 -0.20058980654E+02  0.50808942287E+02  0.59908446346E+02  0.51100000000E-03 0. -1.
         23    2    1    0    0    0 -0.22208893517E+02 -0.10623170811E+02  0.17022192199E+02  0.95069384627E+02  0.90234949752E+02 0.  0.
         11    1    3    3    0    0  0.23901028474E+01  0.94358098434E+01 -0.33786750088E+02  0.35160938281E+02  0.51100000000E-03 0.  1.
         22    1    1    0    0    0  0.22208893517E+02  0.10623170811E+02 -0.17022192199E+02  0.29930615373E+02  0.00000000000E+00 0. -1.
</event>
<event>
 5    1  0.1691145E-003  0.9118800E+02  0.7818608E-02  0.1130116E+00
         25   -1    0    0    0    0  0.00000000000E+00  0.00000000000E+00  0.99999998245E-14  0.12500000000E+03  0.12500000000E+03 0.  0.
        -11    1    3    3    0    0  0.21412816775E+02  0.26194552326E+01  0.28218529874E+01  0.21756220318E+02  0.51100000000E-03 0. -1.
         23    2    1    0    0    0 -0.30455815203E+02  0.28756711174E+01  0.31553714053E+02  0.81051586666E+02  0.68102104714E+02 0.  0.
         11    1    3    3    0    0 -0.51868631978E+02  0.25621588479E+00  0.28731861066E+02  0.59295366348E+02  0.51100000000E-03 0.  1.
         22    1    1    0    0    0  0.30455815203E+02 -0.28756711174E+01 -0.31553714053E+02  0.43948413334E+02  0.00000000000E+00 0.  1.
</event>
<event>
 5    1  0.1691145E-003  0.9118800E+02  0.7818608E-02  0.1130116E+00
         25   -1    0    0    0    0  0.00000000000E+00  0.00000000000E+00  0.99999998245E-14  0.12500000000E+03  0.12500000000E+03 0.  0.
        -11    1    3    3    0    0 -0.56482849183E+02 -0.94901625693E+01  0.19103317288E+02  0.60376420639E+02  0.51100000000E-03 0.  1.
         23    2    1    0    0    0 -0.27676793072E+02  0.68998304879E+01  0.73131313425E+01  0.95553532885E+02  0.90903152978E+02 0.  0.
         11    1    3    3    0    0  0.28806056112E+02  0.16389993057E+02 -0.11790185946E+02  0.35177112247E+02  0.51100000000E-03 0. -1.
         22    1    1    0    0    0  0.27676793072E+02 -0.68998304879E+01 -0.73131313425E+01  0.29446467115E+02  0.00000000000E+00 0.  1.
</event>
<event>
 5    1  0.1691145E-003  0.9118800E+02  0.7818608E-02  0.1130116E+00
         25   -1    0    0    0    0  0.00000000000E+00  0.00000000000E+00  0.99999998245E-14  0.12500000000E+03  0.12500000000E+03 0.  0.
        -11    1    3    3    0    0  0.85083227628E+01  0.26707813555E+02  0.43309941147E+02  0.51589241742E+02  0.51100000000E-03 0. -1.
         23    2    1    0    0    0 -0.76610633287E+01 -0.12780142085E+02  0.19518824842E+02  0.10044376971E+03  0.97395802920E+02 0.  0.
         11    1    3    3    0    0 -0.16169386092E+02 -0.39487955640E+02 -0.23791116305E+02  0.48854527963E+02  0.51100000000E-03 0.  1.
         22    1    1    0    0    0  0.76610633287E+01  0.12780142085E+02 -0.19518824842E+02  0.24556230294E+02  0.00000000000E+00 0. -1.
</event>
<event>
 5    1  0.1691145E-003  0.9118800E+02  0.7818608E-02  0.1130116E+00
         25   -1    0    0    0    0  0.00000000000E+00  0.00000000000E+00  0.99999998245E-14  0.12500000000E+03  0.12500000000E+03 0.  0.
        -11    1    3    3    0    0  0.20924018944E+02  0.23495308780E+02 -0.18313549525E+02  0.36403711348E+02  0.51100000000E-03 0.  1.
         23    2    1    0    0    0 -0.29100356101E+02  0.15892909782E+02  0.38036174979E+01  0.91625117040E+02  0.85330412280E+02 0.  0.
         11    1    3    3    0    0 -0.50024375046E+02 -0.76023989976E+01  0.22117167023E+02  0.55221405692E+02  0.51100000000E-03 0. -1.
         22    1    1    0    0    0  0.29100356101E+02 -0.15892909782E+02 -0.38036174979E+01  0.33374882960E+02  0.00000000000E+00 0. -1.
</event>
<event>
 5    1  0.1691145E-003  0.9118800E+02  0.7818608E-02  0.1130116E+00
         25   -1    0    0    0    0  0.00000000000E+00  0.00000000000E+00  0.99999998245E-14  0.12500000000E+03  0.12500000000E+03 0.  0.
        -11    1    3    3    0    0 -0.33613096007E+02 -0.17433809441E+02 -0.13104208256E+02  0.40068668672E+02  0.51100000000E-03 0. -1.
         23    2    1    0    0    0  0.70683543740E+01 -0.15022138603E+02  0.24423323468E+02  0.95468237252E+02  0.90785788057E+02 0.  0.
         11    1    3    3    0    0  0.40681450381E+02  0.24116708388E+01  0.37527531724E+02  0.55399568581E+02  0.51100000000E-03 0.  1.
         22    1    1    0    0    0 -0.70683543740E+01  0.15022138603E+02 -0.24423323468E+02  0.29531762748E+02  0.00000000000E+00 0.  1.
</event>
<event>
 5    1  0.1691145E-003  0.9118800E+02  0.7818608E-02  0.1130116E+00
         25   -1    0    0    0    0  0.00000000000E+00  0.00000000000E+00  0.99999998245E-14  0.12500000000E+03  0.12500000000E+03 0.  0.
        -11    1    3    3    0    0 -0.33549765138E+02 -0.23395126853E+02 -0.32711324203E+01  0.41031926702E+02  0.51100000000E-03 0.  1.
         23    2    1    0    0    0  0.12368453147E+02  0.80836873995E+01 -0.20878327391E+02  0.99422095671E+02  0.96075615625E+02 0.  0.
         11    1    3    3    0    0  0.45918218286E+02  0.31478814252E+02 -0.17607194971E+02  0.58390168969E+02  0.51100000000E-03 0. -1.
         22    1    1    0    0    0 -0.12368453147E+02 -0.80836873995E+01  0.20878327391E+02  0.25577904329E+02  0.00000000000E+00 0. -1.
</event>
<event>
 5    1  0.1691145E-003  0.9118800E+02  0.7818608E-02  0.1130116E+00
         25   -1    0    0    0    0  0.00000000000E+00  0.00000000000E+00  0.99999998245E-14  0.12500000000E+03  0.12500000000E+03 0.  0.
        -11    1    3    3    0    0  0.28931701634E+02  0.24684905742E+01  0.22726369255E+02  0.36873088627E+02  0.51100000000E-03 0.  1.
         23    2    1    0    0    0 -0.24683010234E+02 -0.14579512989E+02  0.10678109630E+02  0.94408576063E+02  0.89314858875E+02 0.  0.
         11    1    3    3    0    0 -0.53614711868E+02 -0.17048003563E+02 -0.12048259625E+02  0.57535487436E+02  0.51100000000E-03 0. -1.
         22    1    1    0    0    0  0.24683010234E+02  0.14579512989E+02 -0.10678109630E+02  0.30591423937E+02  0.00000000000E+00 0.  1.
</event>
<event>
 5    1  0.1691145E-003  0.9118800E+02  0.7818608E-02  0.1130116E+00
         25   -1    0    0    0    0  0.00000000000E+00  0.00000000000E+00  0.99999998245E-14  0.12500000000E+03  0.12500000000E+03 0.  0.
        -11    1    3    3    0    0  0.61483436022E+02 -0.38039619821E+01  0.46161775840E+01  0.61773717126E+02  0.51100000000E-03 0. -1.
         23    2    1    0    0    0  0.28083213593E+02  0.49624100399E+01  0.15941263117E+01  0.96437198355E+02  0.92110257782E+02 0.  0.
         11    1    3    3    0    0 -0.33400222429E+02  0.87663720221E+01 -0.30220512723E+01  0.34663481228E+02  0.51100000000E-03 0.  1.
         22    1    1    0    0    0 -0.28083213593E+02 -0.49624100399E+01 -0.15941263117E+01  0.28562801645E+02  0.00000000000E+00 0. -1.
</event>
<event>
 5    1  0.1691145E-003  0.9118800E+02  0.7818608E-02  0.1130116E+00
         25   -1    0    0    0    0  0.00000000000E+00  0.00000000000E+00  0.99999998245E-14  0.12500000000E+03  0.12500000000E+03 0.  0.
        -11    1    3    3    0    0 -0.54383523952E+02  0.90598454393E+01  0.13421018968E+02  0.56743036817E+02  0.51100000000E-03 0. -1.
         23    2    1    0    0    0 -0.17362493226E+02  0.12432635747E+02  0.21404086044E+02  0.94764896196E+02  0.89812159806E+02 0.  0.
         11    1    3    3    0    0  0.37021030726E+02  0.33727903079E+01  0.79830670765E+01  0.38021859379E+02  0.51100000000E-03 0.  1.
         22    1    1    0    0    0  0.17362493226E+02 -0.12432635747E+02 -0.21404086044E+02  0.30235103804E+02  0.00000000000E+00 0. -1.
</event>
<event>
 5    1  0.1691145E-003  0.9118800E+02  0.7818608E-02  0.1130116E+00
         25   -1    0    0    0    0  0.00000000000E+00  0.00000000000E+00  0.99999998245E-14  0.12500000000E+03  0.12500000000E+03 0.  0.
        -11    1    3    3    0    0  0.19441920382E+01  0.40103989427E+01  0.33164265390E+02  0.33462392047E+02  0.51100000000E-03 0.  1.
         23    2    1    0    0    0  0.21972970081E+02  0.63882523979E-01 -0.22981625087E+02  0.93204236339E+02  0.87613121647E+02 0.  0.
         11    1    3    3    0    0  0.20028778043E+02 -0.39465164187E+01 -0.56145890477E+02  0.59741844292E+02  0.51100000000E-03 0. -1.
         22    1    1    0    0    0 -0.21972970081E+02 -0.63882523979E-01  0.22981625087E+02  0.31795763661E+02  0.00000000000E+00 0. -1.
</event>
<event>
 5    1  0.1691145E-003  0.9118800E+02  0.7818608E-02  0.1130116E+00
         25   -1    0    0    0    0  0.00000000000E+00  0.00000000000E+00  0.99999998245E-14  0.12500000000E+03  0.12500000000E+03 0.  0.
        -11    1    3    3    0    0  0.18400726422E+02  0.54309909882E+02  0.20618720317E+02  0.60936726791E+02  0.51100000000E-03 0.  1.
         23    2    1    0    0    0 -0.89170592640E+00  0.27833545733E+02  0.82181266020E+01  0.95964865898E+02  0.91467023972E+02 0.  0.
         11    1    3    3    0    0 -0.19292432348E+02 -0.26476364150E+02 -0.12400593715E+02  0.35028139106E+02  0.51100000000E-03 0. -1.
         22    1    1    0    0    0  0.89170592640E+00 -0.27833545733E+02 -0.82181266020E+01  0.29035134102E+02  0.00000000000E+00 0.  1.
</event>
<event>
 5    1  0.1691145E-003  0.9118800E+02  0.7818608E-02  0.1130116E+00
         25   -1    0    0    0    0  0.00000000000E+00  0.00000000000E+00  0.99999998245E-14  0.12500000000E+03  0.12500000000E+03 0.  0.
        -11    1    3    3    0    0 -0.30678947106E+02  0.13246210095E+02 -0.50915878333E+00  0.33420339920E+02  0.51100000000E-03 0.  1.
         23    2    1    0    0    0  0.20361577943E+02 -0.18288179562E+02 -0.12996142559E+02  0.94702292340E+02  0.89724985846E+02 0.  0.
         11    1    3    3    0    0  0.51040525049E+02 -0.31534389658E+02 -0.12486983776E+02  0.61281952420E+02  0.51100000000E-03 0. -1.
         22    1    1    0    0    0 -0.20361577943E+02  0.18288179562E+02  0.12996142559E+02  0.30297707660E+02  0.00000000000E+00 0. -1.
</event>
<event>
 5    1  0.1691145E-003  0.9118800E+02  0.7818608E-02  0.1130116E+00
         25   -1    0    0    0    0  0.00000000000E+00  0.00000000000E+00  0.99999998245E-14  0.12500000000E+03  0.12500000000E+03 0.  0.
        -11    1    3    3    0    0  0.35300854880E+02 -0.20922983411E+02 -0.32700487931E+02  0.52471358866E+02  0.51100000000E-03 0.  1.
         23    2    1    0    0    0  0.34809983310E+02 -0.63269772880E+01  0.14254998595E+01  0.89590995079E+02  0.82296711780E+02 0.  0.
         11    1    3    3    0    0 -0.49087156958E+00  0.14596006123E+02  0.34125987790E+02  0.37119636213E+02  0.51100000000E-03 0. -1.
         22    1    1    0    0    0 -0.34809983310E+02  0.63269772880E+01 -0.14254998595E+01  0.35409004921E+02  0.00000000000E+00 0. -1.
</event>
<event>
 5    1  0.1691145E-003  0.9118800E+02  0.7818608E-02  0.1130116E+00
         25   -1    0    0    0    0  0.00000000000E+00  0.00000000000E+00  0.99999998245E-14  0.12500000000E+03  0.12500000000E+03 0.  0.
        -11    1    3    3    0    0 -0.16054979820E+02  0.10926675211E+02  0.40269982812E+02  0.44708233293E+02  0.51100000000E-03 0.  1.
         23    2    1    0    0    0 -0.22670545696E+02  0.21059369673E+02 -0.68085073245E+01  0.93317095064E+02  0.87773992538E+02 0.  0.
         11    1    3    3    0    0 -0.66155658762E+01  0.10132694462E+02 -0.47078490137E+02  0.48608861772E+02  0.51100000000E-03 0. -1.
         22    1    1    0    0    0  0.22670545696E+02 -0.21059369673E+02  0.68085073245E+01  0.31682904936E+02  0.00000000000E+00 0.  1.
</event>
<event>
 5    1  0.1691145E-003  0.9118800E+02  0.7818608E-02  0.1130116E+00
         25   -1    0    0    0    0  0.00000000000E+00  0.00000000000E+00  0.99999998245E-14  0.12500000000E+03  0.12500000000E+03 0.  0.
        -11    1    3    3    0    0 -0.38958222598E+02  0.32665418327E+02 -0.30297189783E+01  0.50930853712E+02  0.51100000000E-03 0. -1.
         23    2    1    0    0    0 -0.18972068758E+02 -0.42868339664E+01  0.18516917972E+02  0.98144970870E+02  0.94399378798E+02 0.  0.
         11    1    3    3    0    0  0.19986153840E+02 -0.36952252294E+02  0.21546636950E+02  0.47214117158E+02  0.51100000000E-03 0.  1.
         22    1    1    0    0    0  0.18972068758E+02  0.42868339664E+01 -0.18516917972E+02  0.26855029130E+02  0.00000000000E+00 0. -1.
</event>
<event>
 5    1  0.1691145E-003  0.9118800E+02  0.7818608E-02  0.1130116E+00
         25   -1    0    0    0    0  0.00000000000E+00  0.00000000000E+00  0.99999998245E-14  0.12500000000E+03  0.12500000000E+03 0.  0.
        -11    1    3    3    0    0 -0.40357607417E+02 -0.32009784521E+02 -0.21113604110E+01  0.51554055365E+02  0.51100000000E-03 0. -1.
         23    2    1    0    0    0 -0.69093967088E+00 -0.26039871347E+02  0.14747350612E+02  0.95066128759E+02  0.90230439374E+02 0.  0.
         11    1    3    3    0    0  0.39666667746E+02  0.59699131733E+01  0.16858711023E+02  0.43512073394E+02  0.51100000000E-03 0.  1.
         22    1    1    0    0    0  0.69093967088E+00  0.26039871347E+02 -0.14747350612E+02  0.29933871241E+02  0.00000000000E+00 0. -1.
</event>
<event>
 5    1  0.1691145E-003  0.9118800E+02  0.7818608E-02  0.1130116E+00
         25   -1    0    0    0    0  0.00000000000E+00  0.00000000000E+00  0.99999998245E-14  0.12500000000E+03  0.12500000000E+03 0.  0.
        -11    1    3    3    0    0  0.21528618620E+02 -0.34662242217E+02  0.46063620680E+02  0.61537058799E+02  0.51100000000E-03 0. -1.
         23    2    1    0    0    0  0.30942371660E+01 -0.17952778616E+02  0.24551921458E+02  0.94427571066E+02  0.89341439246E+02 0.  0.
         11    1    3    3    0    0 -0.18434381454E+02  0.16709463602E+02 -0.21511699223E+02  0.32890512267E+02  0.51100000000E-03 0.  1.
         22    1    1    0    0    0 -0.30942371660E+01  0.17952778616E+02 -0.24551921458E+02  0.30572428934E+02  0.00000000000E+00 0. -1.
</event>
<event>
 5    1  0.1691145E-003  0.9118800E+02  0.7818608E-02  0.1130116E+00
         25   -1    0    0    0    0  0.00000000000E+00  0.00000000000E+00  0.99999998245E-14  0.12500000000E+03  0.12500000000E+03 0.  0.
        -11    1    3    3    0    0  0.46317407221E+02  0.23276885213E+02 -0.34439617188E+02  0.62235061092E+02  0.51100000000E-03 0. -1.
         23    2    1    0    0    0  0.19798519306E+02  0.76146125094E+01 -0.18184044107E+02  0.97060365957E+02  0.92952092441E+02 0.  0.
         11    1    3    3    0    0 -0.26518887914E+02 -0.15662272703E+02  0.16255573082E+02  0.34825304864E+02  0.51100000000E-03 0.  1.
         22    1    1    0    0    0 -0.19798519306E+02 -0.76146125094E+01  0.18184044107E+02  0.27939634043E+02  0.00000000000E+00 0. -1.
</event>
<event>
 5    1  0.1691145E-003  0.9118800E+02  0.7818608E-02  0.1130116E+00
         25   -1    0    0    0    0  0.00000000000E+00  0.00000000000E+00  0.99999998245E-14  0.12500000000E+03  0.12500000000E+03 0.  0.
        -11    1    3    3    0    0 -0.38568280380E+01 -0.37415874605E+02  0.18931242637E+02  0.42109556434E+02  0.51100000000E-03 0. -1.
         23    2    1    0    0    0 -0.24408643898E+02 -0.31754970625E+01 -0.16393818028E+02  0.95425975112E+02  0.90727580030E+02 0.  0.
         11    1    3    3    0    0 -0.20551815860E+02  0.34240377543E+02 -0.35325060665E+02  0.53316418678E+02  0.51100000000E-03 0.  1.
         22    1    1    0    0    0  0.24408643898E+02  0.31754970625E+01  0.16393818028E+02  0.29574024888E+02  0.00000000000E+00 0.  1.
</event>
<event>
 5    1  0.1691145E-003  0.9118800E+02  0.7818608E-02  0.1130116E+00
         25   -1    0    0    0    0  0.00000000000E+00  0.00000000000E+00  0.99999998245E-14  0.12500000000E+03  0.12500000000E+03 0.  0.
        -11    1    3    3    0    0  0.59371956744E+01 -0.46253505999E+00 -0.33452907150E+02  0.33978835003E+02  0.51100000000E-03 0.  1.
         23    2    1    0    0    0 -0.87806594591E+01  0.18845777091E+02  0.22131756602E+02  0.94634263635E+02  0.89630161825E+02 0.  0.
         11    1    3    3    0    0 -0.14717855134E+02  0.19308312151E+02  0.55584663752E+02  0.60655428632E+02  0.51100000000E-03 0. -1.
         22    1    1    0    0    0  0.87806594591E+01 -0.18845777091E+02 -0.22131756602E+02  0.30365736365E+02  0.00000000000E+00 0. -1.
</event>
<event>
 5    1  0.1691145E-003  0.9118800E+02  0.7818608E-02  0.1130116E+00
         25   -1    0    0    0    0  0.00000000000E+00  0.00000000000E+00  0.99999998245E-14  0.12500000000E+03  0.12500000000E+03 0.  0.
        -11    1    3    3    0    0 -0.23800240840E+02  0.52592450123E+02  0.87242400343E+01  0.58382614180E+02  0.51100000000E-03 0. -1.
         23    2    1    0    0    0  0.36870613096E+01  0.25959249292E+02  0.10638410917E+02  0.96704190562E+02  0.92471874861E+02 0.  0.
         11    1    3    3    0    0  0.27487302150E+02 -0.26633200831E+02  0.19141708830E+01  0.38321576382E+02  0.51100000000E-03 0.  1.
         22    1    1    0    0    0 -0.36870613096E+01 -0.25959249292E+02 -0.10638410917E+02  0.28295809438E+02  0.00000000000E+00 0. -1.
</event>
<event>
 5    1  0.1691145E-003  0.9118800E+02  0.7818608E-02  0.1130116E+00
         25   -1    0    0    0    0  0.00000000000E+00  0.00000000000E+00  0.99999998245E-14  0.12500000000E+03  0.12500000000E+03 0.  0.
        -11    1    3    3    0    0 -0.30542766360E+01  0.44812469669E+02  0.39178343546E+02  0.59602253707E+02  0.51100000000E-03 0.  1.
         23    2    1    0    0    0 -0.12130684899E+02  0.24278598019E+02  0.10794099246E+02  0.95791843324E+02  0.91230262693E+02 0.  0.
         11    1    3    3    0    0 -0.90764082628E+01 -0.20533871650E+02 -0.28384244300E+02  0.36189589617E+02  0.51100000000E-03 0. -1.
         22    1    1    0    0    0  0.12130684899E+02 -0.24278598019E+02 -0.10794099246E+02  0.29208156676E+02  0.00000000000E+00 0.  1.
</event>
<event>
 5    1  0.1691145E-003  0.9118800E+02  0.7818608E-02  0.1130116E+00
         25   -1    0    0    0    0  0.00000000000E+00  0.00000000000E+00  0.99999998245E-14  0.12500000000E+03  0.12500000000E+03 0.  0.
        -11    1    3    3    0    0  0.13342743694E+02  0.12932191920E+02  0.28781425373E+02  0.34258441937E+02  0.51100000000E-03 0.  1.
         23    2    1    0    0    0 -0.23482607694E+02 -0.24844549181E+01 -0.17669261485E+02  0.95507489395E+02  0.90839816978E+02 0.  0.
         11    1    3    3    0    0 -0.36825351389E+02 -0.15416646838E+02 -0.46450686859E+02  0.61249047458E+02  0.51100000000E-03 0. -1.
         22    1    1    0    0    0  0.23482607694E+02  0.24844549181E+01  0.17669261485E+02  0.29492510605E+02  0.00000000000E+00 0. -1.
</event>
<event>
 5    1  0.1691145E-003  0.9118800E+02  0.7818608E-02  0.1130116E+00
         25   -1    0    0    0    0  0.00000000000E+00  0.00000000000E+00  0.99999998245E-14  0.12500000000E+03  0.12500000000E+03 0.  0.
        -11    1    3    3    0    0  0.25918397630E+02 -0.39496297456E+01  0.28320500487E+02  0.38592922394E+02  0.51100000000E-03 0.  1.
         23    2    1    0    0    0 -0.11611179990E+02  0.25456316706E+02  0.26741036906E+02  0.86296943069E+02  0.77131289159E+02 0.  0.
         11    1    3    3    0    0 -0.37529577621E+02  0.29405946451E+02 -0.15794635810E+01  0.47704020675E+02  0.51100000000E-03 0. -1.
         22    1    1    0    0    0  0.11611179990E+02 -0.25456316706E+02 -0.26741036906E+02  0.38703056931E+02  0.00000000000E+00 0. -1.
</event>
<event>
 5    1  0.1691145E-003  0.9118800E+02  0.7818608E-02  0.1130116E+00
         25   -1    0    0    0    0  0.00000000000E+00  0.00000000000E+00  0.99999998245E-14  0.12500000000E+03  0.12500000000E+03 0.  0.
        -11    1    3    3    0    0  0.19700463283E+02 -0.44047922199E+01 -0.56697850077E+02  0.60184355540E+02  0.51100000000E-03 0.  1.
         23    2    1    0    0    0  0.17055903315E+02  0.69127257465E+01 -0.24918959101E+02  0.94021876464E+02  0.88772006376E+02 0.  0.
         11    1    3    3    0    0 -0.26445599679E+01  0.11317517966E+02  0.31778890976E+02  0.33837520924E+02  0.51100000000E-03 0. -1.
         22    1    1    0    0    0 -0.17055903315E+02 -0.69127257465E+01  0.24918959101E+02  0.30978123536E+02  0.00000000000E+00 0.  1.
</event>
<event>
 5    1  0.1691145E-003  0.9118800E+02  0.7818608E-02  0.1130116E+00
         25   -1    0    0    0    0  0.00000000000E+00  0.00000000000E+00  0.99999998245E-14  0.12500000000E+03  0.12500000000E+03 0.  0.
        -11    1    3    3    0    0  0.19171533219E+02 -0.31440779393E+02 -0.95994560169E+01  0.38055483847E+02  0.51100000000E-03 0. -1.
         23    2    1    0    0    0 -0.17057808406E+02 -0.18534122465E+01  0.23892067550E+02  0.95585125253E+02  0.90946584946E+02 0.  0.
         11    1    3    3    0    0 -0.36229341625E+02  0.29587367146E+02  0.33491523567E+02  0.57529641406E+02  0.51100000000E-03 0.  1.
         22    1    1    0    0    0  0.17057808406E+02  0.18534122465E+01 -0.23892067550E+02  0.29414874747E+02  0.00000000000E+00 0.  1.
</event>
