<event>
 5    1  0.8778268E-005  0.9118800E+02  0.7818608E-02  0.1130116E+00
         25   -1    0    0    0    0  0.00000000000E+00  0.00000000000E+00  0.99999998245E-14  0.12500000000E+03  0.12500000000E+03 0.  0.
        -11    1    3    3    0    0  0.26475704316E+02  0.16713577934E+02  0.46659923567E+02  0.56191236629E+02  0.51100000000E-03 0.  1.
         23    2    1    0    0    0 -0.62127081489E+01  0.13784579140E+02  0.25852227851E+02  0.95050875647E+02  0.90209306127E+02 0.  0.
         11    1    3    3    0    0 -0.32688412465E+02 -0.29289987945E+01 -0.20807695715E+02  0.38859639018E+02  0.51100000000E-03 0. -1.
         22    1    1    0    0    0  0.62127081489E+01 -0.13784579140E+02 -0.25852227851E+02  0.29949124353E+02  0.00000000000E+00 0.  1.
</event>
<event>
 5    1  0.8778268E-005  0.9118800E+02  0.7818608E-02  0.1130116E+00
         25   -1    0    0    0    0  0.00000000000E+00  0.00000000000E+00  0.99999998245E-14  0.12500000000E+03  0.12500000000E+03 0.  0.
        -11    1    3    3    0    0 -0.69119516399E+00  0.54847044402E+02 -0.46386439482E+01  0.55047189286E+02  0.51100000000E-03 0. -1.
         23    2    1    0    0    0  0.19544810354E+02  0.26691081125E+02 -0.10666961045E+02  0.90240864779E+02  0.83277945428E+02 0.  0.
         11    1    3    3    0    0  0.20236005518E+02 -0.28155963277E+02 -0.60283170966E+01  0.35193675492E+02  0.51100000000E-03 0.  1.
         22    1    1    0    0    0 -0.19544810354E+02 -0.26691081125E+02  0.10666961045E+02  0.34759135221E+02  0.00000000000E+00 0. -1.
</event>
<event>
 5    1  0.8778268E-005  0.9118800E+02  0.7818608E-02  0.1130116E+00
         25   -1    0    0    0    0  0.00000000000E+00  0.00000000000E+00  0.99999998245E-14  0.12500000000E+03  0.12500000000E+03 0.  0.
        -11    1    3    3    0    0  0.20720138028E+02  0.10020164493E+02  0.32322459240E+02  0.39679581499E+02  0.51100000000E-03 0.  1.
         23    2    1    0    0    0 -0.28672126842E+02  0.79055520329E+00  0.10604544869E+02  0.94419414541E+02  0.89330026504E+02 0.  0.
         11    1    3    3    0    0 -0.49392264869E+02 -0.92296092901E+01 -0.21717914371E+02  0.54739833042E+02  0.51100000000E-03 0. -1.
         22    1    1    0    0    0  0.28672126842E+02 -0.79055520329E+00 -0.10604544869E+02  0.30580585459E+02  0.00000000000E+00 0. -1.
</event>
<event>
 5    1  0.8778268E-005  0.9118800E+02  0.7818608E-02  0.1130116E+00
         25   -1    0    0    0    0  0.00000000000E+00  0.00000000000E+00  0.99999998245E-14  0.12500000000E+03  0.12500000000E+03 0.  0.
        -11    1    3    3    0    0 -0.43721990040E+01  0.90752908848E+01 -0.33808558878E+02  0.35277410370E+02  0.51100000000E-03 0.  1.
         23    2    1    0    0    0 -0.81346546838E+01  0.11225341712E+02  0.26155466383E+02  0.95397815535E+02  0.90688774849E+02 0.  0.
         11    1    3    3    0    0 -0.37624556798E+01  0.21500508276E+01  0.59964025261E+02  0.60120405164E+02  0.51100000000E-03 0. -1.
         22    1    1    0    0    0  0.81346546838E+01 -0.11225341712E+02 -0.26155466383E+02  0.29602184465E+02  0.00000000000E+00 0. -1.
</event>
<event>
 5    1  0.8778268E-005  0.9118800E+02  0.7818608E-02  0.1130116E+00
         25   -1    0    0    0    0  0.00000000000E+00  0.00000000000E+00  0.99999998245E-14  0.12500000000E+03  0.12500000000E+03 0.  0.
        -11    1    3    3    0    0  0.36527808216E+02  0.18885343163E+02 -0.11105086973E+02  0.42594130069E+02  0.51100000000E-03 0.  1.
         23    2    1    0    0    0  0.89472608065E+01 -0.13631227825E+02  0.22730356835E+02  0.97026209234E+02  0.92906147851E+02 0.  0.
         11    1    3    3    0    0 -0.27580547409E+02 -0.32516570988E+02  0.33835443808E+02  0.54432079165E+02  0.51100000000E-03 0. -1.
         22    1    1    0    0    0 -0.89472608065E+01  0.13631227825E+02 -0.22730356835E+02  0.27973790766E+02  0.00000000000E+00 0. -1.
</event>
<event>
 5    1  0.8778268E-005  0.9118800E+02  0.7818608E-02  0.1130116E+00
         25   -1    0    0    0    0  0.00000000000E+00  0.00000000000E+00  0.99999998245E-14  0.12500000000E+03  0.12500000000E+03 0.  0.
        -11    1    3    3    0    0 -0.25067628700E+02  0.50623467580E+02  0.20183084039E+02  0.59987318327E+02  0.51100000000E-03 0. -1.
         23    2    1    0    0    0  0.47007571048E+00  0.26557702636E+02  0.10930310729E+02  0.96277113079E+02  0.91892754174E+02 0.  0.
         11    1    3    3    0    0  0.25537704411E+02 -0.24065764945E+02 -0.92527733095E+01  0.36289794752E+02  0.51100000000E-03 0.  1.
         22    1    1    0    0    0 -0.47007571048E+00 -0.26557702636E+02 -0.10930310729E+02  0.28722886921E+02  0.00000000000E+00 0. -1.
</event>
<event>
 5    1  0.8778268E-005  0.9118800E+02  0.7818608E-02  0.1130116E+00
         25   -1    0    0    0    0  0.00000000000E+00  0.00000000000E+00  0.99999998245E-14  0.12500000000E+03  0.12500000000E+03 0.  0.
        -11    1    3    3    0    0 -0.33486474407E+02 -0.62116000400E+00 -0.76274034278E+01  0.34349775709E+02  0.51100000000E-03 0. -1.
         23    2    1    0    0    0  0.26318713533E+02  0.10184403903E+02  0.47817409475E+01  0.96377250108E+02  0.92028867900E+02 0.  0.
         11    1    3    3    0    0  0.59805187940E+02  0.10805563907E+02  0.12409144375E+02  0.62027474399E+02  0.51100000000E-03 0.  1.
         22    1    1    0    0    0 -0.26318713533E+02 -0.10184403903E+02 -0.47817409475E+01  0.28622749892E+02  0.00000000000E+00 0.  1.
</event>
<event>
 5    1  0.8778268E-005  0.9118800E+02  0.7818608E-02  0.1130116E+00
         25   -1    0    0    0    0  0.00000000000E+00  0.00000000000E+00  0.99999998245E-14  0.12500000000E+03  0.12500000000E+03 0.  0.
        -11    1    3    3    0    0  0.11492093909E+02  0.34646797590E+02  0.15633141353E+02  0.39709745838E+02  0.51100000000E-03 0.  1.
         23    2    1    0    0    0 -0.23274292613E+02 -0.10194268129E+02  0.12871383593E+02  0.96516876665E+02  0.92218323376E+02 0.  0.
         11    1    3    3    0    0 -0.34766386522E+02 -0.44841065719E+02 -0.27617577595E+01  0.56807130827E+02  0.51100000000E-03 0. -1.
         22    1    1    0    0    0  0.23274292613E+02  0.10194268129E+02 -0.12871383593E+02  0.28483123335E+02  0.00000000000E+00 0. -1.
</event>
<event>
 5    1  0.8778268E-005  0.9118800E+02  0.7818608E-02  0.1130116E+00
         25   -1    0    0    0    0  0.00000000000E+00  0.00000000000E+00  0.99999998245E-14  0.12500000000E+03  0.12500000000E+03 0.  0.
        -11    1    3    3    0    0 -0.24331819342E+02 -0.29458987162E+02 -0.40873897604E+02  0.55951272217E+02  0.51100000000E-03 0.  1.
         23    2    1    0    0    0 -0.22776531638E+02  0.29801947579E+01 -0.14048668363E+02  0.98073859597E+02  0.94305168995E+02 0.  0.
         11    1    3    3    0    0  0.15552877040E+01  0.32439181920E+02  0.26825229240E+02  0.42122587380E+02  0.51100000000E-03 0. -1.
         22    1    1    0    0    0  0.22776531638E+02 -0.29801947579E+01  0.14048668363E+02  0.26926140403E+02  0.00000000000E+00 0.  1.
</event>
<event>
 5    1  0.8778268E-005  0.9118800E+02  0.7818608E-02  0.1130116E+00
         25   -1    0    0    0    0  0.00000000000E+00  0.00000000000E+00  0.99999998245E-14  0.12500000000E+03  0.12500000000E+03 0.  0.
        -11    1    3    3    0    0 -0.12950946005E+02  0.72266166336E+01 -0.30784970728E+02  0.34171119581E+02  0.51100000000E-03 0.  1.
         23    2    1    0    0    0  0.24069150262E+02 -0.11375440135E+02  0.13782797774E+02  0.95021838831E+02  0.90169061810E+02 0.  0.
         11    1    3    3    0    0  0.37020096268E+02 -0.18602056769E+02  0.44567768502E+02  0.60850719250E+02  0.51100000000E-03 0. -1.
         22    1    1    0    0    0 -0.24069150262E+02  0.11375440135E+02 -0.13782797774E+02  0.29978161169E+02  0.00000000000E+00 0. -1.
</event>
<event>
 5    1  0.8778268E-005  0.9118800E+02  0.7818608E-02  0.1130116E+00
         25   -1    0    0    0    0  0.00000000000E+00  0.00000000000E+00  0.99999998245E-14  0.12500000000E+03  0.12500000000E+03 0.  0.
        -11    1    3    3    0    0 -0.76241949021E+01 -0.12113699114E+02  0.33962181793E+02  0.36855119678E+02  0.51100000000E-03 0.  1.
         23    2    1    0    0    0 -0.46155207343E+01 -0.13339903430E+02 -0.25205009374E+02  0.96111445991E+02  0.91667123320E+02 0.  0.
         11    1    3    3    0    0  0.30086741677E+01 -0.12262043164E+01 -0.59167191167E+02  0.59256326313E+02  0.51100000000E-03 0. -1.
         22    1    1    0    0    0  0.46155207343E+01  0.13339903430E+02  0.25205009374E+02  0.28888554009E+02  0.00000000000E+00 0. -1.
</event>
<event>
 5    1  0.8778268E-005  0.9118800E+02  0.7818608E-02  0.1130116E+00
         25   -1    0    0    0    0  0.00000000000E+00  0.00000000000E+00  0.99999998245E-14  0.12500000000E+03  0.12500000000E+03 0.  0.
        -11    1    3    3    0    0  0.44654553315E+02 -0.23327670795E+01  0.28070399128E+02  0.52796005924E+02  0.51100000000E-03 0.  1.
         23    2    1    0    0    0  0.21803015251E+02  0.21429694712E+02  0.28652953499E+01  0.94294736495E+02  0.89155393127E+02 0.  0.
         11    1    3    3    0    0 -0.22851538064E+02  0.23762461792E+02 -0.25205103778E+02  0.41498730571E+02  0.51100000000E-03 0. -1.
         22    1    1    0    0    0 -0.21803015251E+02 -0.21429694712E+02 -0.28652953499E+01  0.30705263505E+02  0.00000000000E+00 0. -1.
</event>
<event>
 5    1  0.8778268E-005  0.9118800E+02  0.7818608E-02  0.1130116E+00
         25   -1    0    0    0    0  0.00000000000E+00  0.00000000000E+00  0.99999998245E-14  0.12500000000E+03  0.12500000000E+03 0.  0.
        -11    1    3    3    0    0  0.29528745700E+02 -0.23485734125E+02  0.17357351045E+02  0.41530761678E+02  0.51100000000E-03 0. -1.
         23    2    1    0    0    0  0.32857028294E+01  0.24858871359E+02  0.13114943755E+02  0.96702277865E+02  0.92469289314E+02 0.  0.
         11    1    3    3    0    0 -0.26243042871E+02  0.48344605484E+02 -0.42424072893E+01  0.55171516187E+02  0.51100000000E-03 0.  1.
         22    1    1    0    0    0 -0.32857028294E+01 -0.24858871359E+02 -0.13114943755E+02  0.28297722135E+02  0.00000000000E+00 0.  1.
</event>
<event>
 5    1  0.8778268E-005  0.9118800E+02  0.7818608E-02  0.1130116E+00
         25   -1    0    0    0    0  0.00000000000E+00  0.00000000000E+00  0.99999998245E-14  0.12500000000E+03  0.12500000000E+03 0.  0.
        -11    1    3    3    0    0 -0.18989532537E+01 -0.10710007349E+02  0.47675324837E+02  0.48900377089E+02  0.51100000000E-03 0.  1.
         23    2    1    0    0    0 -0.24486838194E+02  0.10205610910E+02  0.12408710184E+02  0.95712872671E+02  0.91121996070E+02 0.  0.
         11    1    3    3    0    0 -0.22587884940E+02  0.20915618260E+02 -0.35266614653E+02  0.46812495582E+02  0.51100000000E-03 0. -1.
         22    1    1    0    0    0  0.24486838194E+02 -0.10205610910E+02 -0.12408710184E+02  0.29287127329E+02  0.00000000000E+00 0. -1.
</event>
<event>
 5    1  0.8778268E-005  0.9118800E+02  0.7818608E-02  0.1130116E+00
         25   -1    0    0    0    0  0.00000000000E+00  0.00000000000E+00  0.99999998245E-14  0.12500000000E+03  0.12500000000E+03 0.  0.
        -11    1    3    3    0    0  0.14483398055E+02  0.12967538689E+02  0.27116987127E+02  0.33365504192E+02  0.51100000000E-03 0. -1.
         23    2    1    0    0    0 -0.19241593415E+02 -0.10977022600E+02 -0.19358861696E+02  0.95580627667E+02  0.90940403104E+02 0.  0.
         11    1    3    3    0    0 -0.33724991470E+02 -0.23944561289E+02 -0.46475848822E+02  0.62215123475E+02  0.51100000000E-03 0.  1.
         22    1    1    0    0    0  0.19241593415E+02  0.10977022600E+02  0.19358861696E+02  0.29419372333E+02  0.00000000000E+00 0.  1.
</event>
<event>
 5    1  0.8778268E-005  0.9118800E+02  0.7818608E-02  0.1130116E+00
         25   -1    0    0    0    0  0.00000000000E+00  0.00000000000E+00  0.99999998245E-14  0.12500000000E+03  0.12500000000E+03 0.  0.
        -11    1    3    3    0    0 -0.12902581501E+02 -0.88884545625E+01  0.46845875573E+02  0.49396531177E+02  0.51100000000E-03 0.  1.
         23    2    1    0    0    0 -0.28317791150E+02  0.25489576718E+00  0.32964717747E+01  0.96489844027E+02  0.92181673920E+02 0.  0.
         11    1    3    3    0    0 -0.15415209648E+02  0.91433503297E+01 -0.43549403798E+02  0.47093312850E+02  0.51100000000E-03 0. -1.
         22    1    1    0    0    0  0.28317791150E+02 -0.25489576718E+00 -0.32964717747E+01  0.28510155973E+02  0.00000000000E+00 0. -1.
</event>
<event>
 5    1  0.8778268E-005  0.9118800E+02  0.7818608E-02  0.1130116E+00
         25   -1    0    0    0    0  0.00000000000E+00  0.00000000000E+00  0.99999998245E-14  0.12500000000E+03  0.12500000000E+03 0.  0.
        -11    1    3    3    0    0  0.27042437925E+02 -0.19607444451E+02 -0.72421776773E+00  0.33410624335E+02  0.51100000000E-03 0.  1.
         23    2    1    0    0    0 -0.26346423776E+02  0.12453997805E+02 -0.28222091887E+01  0.95722005331E+02  0.91134523276E+02 0.  0.
         11    1    3    3    0    0 -0.53388861701E+02  0.32061442256E+02 -0.20979914210E+01  0.62311380996E+02  0.51100000000E-03 0. -1.
         22    1    1    0    0    0  0.26346423776E+02 -0.12453997805E+02  0.28222091887E+01  0.29277994669E+02  0.00000000000E+00 0. -1.
</event>
<event>
 5    1  0.8778268E-005  0.9118800E+02  0.7818608E-02  0.1130116E+00
         25   -1    0    0    0    0  0.00000000000E+00  0.00000000000E+00  0.99999998245E-14  0.12500000000E+03  0.12500000000E+03 0.  0.
        -11    1    3    3    0    0  0.23115979863E+02  0.56487502132E+02  0.11844665233E+02  0.62173004728E+02  0.51100000000E-03 0. -1.
         23    2    1    0    0    0  0.69771942844E+01  0.27727589458E+02  0.75329899750E+01  0.95432342075E+02  0.90736351694E+02 0.  0.
         11    1    3    3    0    0 -0.16138785579E+02 -0.28759912674E+02 -0.43116752580E+01  0.33259337347E+02  0.51100000000E-03 0.  1.
         22    1    1    0    0    0 -0.69771942844E+01 -0.27727589458E+02 -0.75329899750E+01  0.29567657925E+02  0.00000000000E+00 0. -1.
</event>
<event>
 5    1  0.8778268E-005  0.9118800E+02  0.7818608E-02  0.1130116E+00
         25   -1    0    0    0    0  0.00000000000E+00  0.00000000000E+00  0.99999998245E-14  0.12500000000E+03  0.12500000000E+03 0.  0.
        -11    1    3    3    0    0  0.12189929261E+02  0.11546903820E+02  0.44880261836E+02  0.47918297820E+02  0.51100000000E-03 0. -1.
         23    2    1    0    0    0  0.25174500031E+02 -0.14745622103E+02  0.85673461846E+01  0.94592957334E+02  0.89572536715E+02 0.  0.
         11    1    3    3    0    0  0.12984570770E+02 -0.26292525922E+02 -0.36312915651E+02  0.46674659515E+02  0.51100000000E-03 0.  1.
         22    1    1    0    0    0 -0.25174500031E+02  0.14745622103E+02 -0.85673461846E+01  0.30407042666E+02  0.00000000000E+00 0. -1.
</event>
<event>
 5    1  0.8778268E-005  0.9118800E+02  0.7818608E-02  0.1130116E+00
         25   -1    0    0    0    0  0.00000000000E+00  0.00000000000E+00  0.99999998245E-14  0.12500000000E+03  0.12500000000E+03 0.  0.
        -11    1    3    3    0    0  0.13874190602E+02  0.36007502685E+02  0.99680299384E+01  0.39854673949E+02  0.51100000000E-03 0.  1.
         23    2    1    0    0    0  0.16113007763E+02 -0.14972999954E+02 -0.16653406922E+02  0.97410949474E+02  0.93422360110E+02 0.  0.
         11    1    3    3    0    0  0.22388171608E+01 -0.50980502639E+02 -0.26621436861E+02  0.57556275526E+02  0.51100000000E-03 0. -1.
         22    1    1    0    0    0 -0.16113007763E+02  0.14972999954E+02  0.16653406922E+02  0.27589050526E+02  0.00000000000E+00 0. -1.
</event>
<event>
 5    1  0.8778268E-005  0.9118800E+02  0.7818608E-02  0.1130116E+00
         25   -1    0    0    0    0  0.00000000000E+00  0.00000000000E+00  0.99999998245E-14  0.12500000000E+03  0.12500000000E+03 0.  0.
        -11    1    3    3    0    0 -0.20921443891E+02 -0.45174329045E+02 -0.25827482447E+02  0.56084629525E+02  0.51100000000E-03 0.  1.
         23    2    1    0    0    0  0.16900369266E+01 -0.28498722593E+02  0.29456432508E+01  0.96299647591E+02  0.91923402339E+02 0.  0.
         11    1    3    3    0    0  0.22611480818E+02  0.16675606451E+02  0.28773125698E+02  0.40215018066E+02  0.51100000000E-03 0. -1.
         22    1    1    0    0    0 -0.16900369266E+01  0.28498722593E+02 -0.29456432508E+01  0.28700352409E+02  0.00000000000E+00 0.  1.
</event>
<event>
 5    1  0.8778268E-005  0.9118800E+02  0.7818608E-02  0.1130116E+00
         25   -1    0    0    0    0  0.00000000000E+00  0.00000000000E+00  0.99999998245E-14  0.12500000000E+03  0.12500000000E+03 0.  0.
        -11    1    3    3    0    0  0.12269750855E+02  0.41739534624E+02 -0.16965281539E+02  0.46696427215E+02  0.51100000000E-03 0. -1.
         23    2    1    0    0    0 -0.79387606846E+01 -0.47205088506E+01 -0.25322337679E+02  0.98045818310E+02  0.94267993389E+02 0.  0.
         11    1    3    3    0    0 -0.20208511539E+02 -0.46460043475E+02 -0.83570561403E+01  0.51349391096E+02  0.51100000000E-03 0.  1.
         22    1    1    0    0    0  0.79387606846E+01  0.47205088506E+01  0.25322337679E+02  0.26954181690E+02  0.00000000000E+00 0.  1.
</event>
<event>
 5    1  0.8778268E-005  0.9118800E+02  0.7818608E-02  0.1130116E+00
         25   -1    0    0    0    0  0.00000000000E+00  0.00000000000E+00  0.99999998245E-14  0.12500000000E+03  0.12500000000E+03 0.  0.
        -11    1    3    3    0    0  0.39947396523E+02  0.16169877029E+01  0.20880229051E+02  0.45104247069E+02  0.51100000000E-03 0.  1.
         23    2    1    0    0    0  0.15677255364E+02 -0.11483324291E+02 -0.21721572561E+02  0.95854335021E+02  0.91315846135E+02 0.  0.
         11    1    3    3    0    0 -0.24270141160E+02 -0.13100311994E+02 -0.42601801612E+02  0.50750087952E+02  0.51100000000E-03 0. -1.
         22    1    1    0    0    0 -0.15677255364E+02  0.11483324291E+02  0.21721572561E+02  0.29145664979E+02  0.00000000000E+00 0. -1.
</event>
<event>
 5    1  0.8778268E-005  0.9118800E+02  0.7818608E-02  0.1130116E+00
         25   -1    0    0    0    0  0.00000000000E+00  0.00000000000E+00  0.99999998245E-14  0.12500000000E+03  0.12500000000E+03 0.  0.
        -11    1    3    3    0    0 -0.92610017981E+01 -0.25844174825E+02  0.36276974288E+02  0.45494025877E+02  0.51100000000E-03 0. -1.
         23    2    1    0    0    0  0.25591739914E+02  0.25486430392E+01  0.11451769993E+02  0.96847277767E+02  0.92665092898E+02 0.  0.
         11    1    3    3    0    0  0.34852741712E+02  0.28392817865E+02 -0.24825204295E+02  0.51353251890E+02  0.51100000000E-03 0.  1.
         22    1    1    0    0    0 -0.25591739914E+02 -0.25486430392E+01 -0.11451769993E+02  0.28152722233E+02  0.00000000000E+00 0.  1.
</event>
<event>
 5    1  0.8778268E-005  0.9118800E+02  0.7818608E-02  0.1130116E+00
         25   -1    0    0    0    0  0.00000000000E+00  0.00000000000E+00  0.99999998245E-14  0.12500000000E+03  0.12500000000E+03 0.  0.
        -11    1    3    3    0    0 -0.32179719880E+02  0.26405218761E+02 -0.46493939420E+02  0.62405579498E+02  0.51100000000E-03 0.  1.
         23    2    1    0    0    0 -0.19400083488E+02  0.13078942085E+02 -0.24487634460E+02  0.91131634127E+02  0.84604423831E+02 0.  0.
         11    1    3    3    0    0  0.12779636392E+02 -0.13326276676E+02  0.22006304960E+02  0.28726054630E+02  0.51100000000E-03 0. -1.
         22    1    1    0    0    0  0.19400083488E+02 -0.13078942085E+02  0.24487634460E+02  0.33868365873E+02  0.00000000000E+00 0.  1.
</event>
<event>
 5    1  0.8778268E-005  0.9118800E+02  0.7818608E-02  0.1130116E+00
         25   -1    0    0    0    0  0.00000000000E+00  0.00000000000E+00  0.99999998245E-14  0.12500000000E+03  0.12500000000E+03 0.  0.
        -11    1    3    3    0    0  0.23015376653E+02  0.44187780350E+02  0.92701731980E+01  0.50677446720E+02  0.51100000000E-03 0. -1.
         23    2    1    0    0    0  0.28576250082E+02 -0.55696949378E+00  0.51930722593E+01  0.95950382390E+02  0.91447228485E+02 0.  0.
         11    1    3    3    0    0  0.55608734288E+01 -0.44744749843E+02 -0.40771009387E+01  0.45272935670E+02  0.51100000000E-03 0.  1.
         22    1    1    0    0    0 -0.28576250082E+02  0.55696949378E+00 -0.51930722593E+01  0.29049617610E+02  0.00000000000E+00 0.  1.
</event>
<event>
 5    1  0.8778268E-005  0.9118800E+02  0.7818608E-02  0.1130116E+00
         25   -1    0    0    0    0  0.00000000000E+00  0.00000000000E+00  0.99999998245E-14  0.12500000000E+03  0.12500000000E+03 0.  0.
        -11    1    3    3    0    0  0.29192860057E+02  0.31575761001E+02  0.60961370197E+01  0.43432875198E+02  0.51100000000E-03 0. -1.
         23    2    1    0    0    0 -0.16060361117E+02 -0.98420003062E+01  0.73221481114E+01  0.10479074415E+03  0.10282356751E+03 0.  0.
         11    1    3    3    0    0 -0.45253221174E+02 -0.41417761308E+02  0.12260110917E+01  0.61357868948E+02  0.51100000000E-03 0.  1.
         22    1    1    0    0    0  0.16060361117E+02  0.98420003062E+01 -0.73221481114E+01  0.20209255854E+02  0.00000000000E+00 0.  1.
</event>
<event>
 5    1  0.8778268E-005  0.9118800E+02  0.7818608E-02  0.1130116E+00
         25   -1    0    0    0    0  0.00000000000E+00  0.00000000000E+00  0.99999998245E-14  0.12500000000E+03  0.12500000000E+03 0.  0.
        -11    1    3    3    0    0  0.96723128899E+01  0.40037077619E+02  0.36813411813E+02  0.55242633088E+02  0.51100000000E-03 0.  1.
         23    2    1    0    0    0  0.15833832501E+02  0.20333824208E+02 -0.19439270156E+01  0.99155203409E+02  0.95727743378E+02 0.  0.
         11    1    3    3    0    0  0.61615196113E+01 -0.19703253411E+02 -0.38757338828E+02  0.43912570321E+02  0.51100000000E-03 0. -1.
         22    1    1    0    0    0 -0.15833832501E+02 -0.20333824208E+02  0.19439270156E+01  0.25844796591E+02  0.00000000000E+00 0.  1.
</event>
<event>
 5    1  0.8778268E-005  0.9118800E+02  0.7818608E-02  0.1130116E+00
         25   -1    0    0    0    0  0.00000000000E+00  0.00000000000E+00  0.99999998245E-14  0.12500000000E+03  0.12500000000E+03 0.  0.
        -11    1    3    3    0    0  0.30297484407E+02  0.45630394678E+02  0.29169359926E+02  0.62055797784E+02  0.51100000000E-03 0. -1.
         23    2    1    0    0    0  0.19106916381E+02  0.19922864748E+02  0.12278596210E+02  0.94788103034E+02  0.89844453132E+02 0.  0.
         11    1    3    3    0    0 -0.11190568026E+02 -0.25707529930E+02 -0.16890763716E+02  0.32732305250E+02  0.51100000000E-03 0.  1.
         22    1    1    0    0    0 -0.19106916381E+02 -0.19922864748E+02 -0.12278596210E+02  0.30211896966E+02  0.00000000000E+00 0. -1.
</event>
<event>
 5    1  0.8778268E-005  0.9118800E+02  0.7818608E-02  0.1130116E+00
         25   -1    0    0    0    0  0.00000000000E+00  0.00000000000E+00  0.99999998245E-14  0.12500000000E+03  0.12500000000E+03 0.  0.
        -11    1    3    3    0    0  0.15830523132E+02  0.25895005417E+02  0.50436977899E+02  0.58864637160E+02  0.51100000000E-03 0.  1.
         23    2    1    0    0    0  0.20375657671E+02  0.84370132336E+01  0.15955794579E+02  0.97779823688E+02  0.93914620384E+02 0.  0.
         11    1    3    3    0    0  0.45451345387E+01 -0.17457992183E+02 -0.34481183320E+02  0.38915186527E+02  0.51100000000E-03 0. -1.
         22    1    1    0    0    0 -0.20375657671E+02 -0.84370132336E+01 -0.15955794579E+02  0.27220176312E+02  0.00000000000E+00 0.  1.
</event>
<event>
 5    1  0.8778268E-005  0.9118800E+02  0.7818608E-02  0.1130116E+00
         25   -1    0    0    0    0  0.00000000000E+00  0.00000000000E+00  0.99999998245E-14  0.12500000000E+03  0.12500000000E+03 0.  0.
        -11    1    3    3    0    0  0.13701617360E+02 -0.50354733240E+02  0.26717507101E+02  0.58627286001E+02  0.51100000000E-03 0.  1.
         23    2    1    0    0    0  0.19842587567E+02 -0.23850704130E+02  0.47125921783E+01  0.93618589995E+02  0.88202310053E+02 0.  0.
         11    1    3    3    0    0  0.61409702079E+01  0.26504029109E+02 -0.22004914923E+02  0.34991303993E+02  0.51100000000E-03 0. -1.
         22    1    1    0    0    0 -0.19842587567E+02  0.23850704130E+02 -0.47125921783E+01  0.31381410005E+02  0.00000000000E+00 0.  1.
</event>
<event>
 5    1  0.8778268E-005  0.9118800E+02  0.7818608E-02  0.1130116E+00
         25   -1    0    0    0    0  0.00000000000E+00  0.00000000000E+00  0.99999998245E-14  0.12500000000E+03  0.12500000000E+03 0.  0.
        -11    1    3    3    0    0  0.46879528788E+01  0.27154354568E+02  0.20844209541E+02  0.34551656196E+02  0.51100000000E-03 0. -1.
         23    2    1    0    0    0 -0.12345952996E+02 -0.25737476659E+02 -0.53079335071E+01  0.95965289423E+02  0.91467602766E+02 0.  0.
         11    1    3    3    0    0 -0.17033905875E+02 -0.52891831227E+02 -0.26152143048E+02  0.61413633228E+02  0.51100000000E-03 0.  1.
         22    1    1    0    0    0  0.12345952996E+02  0.25737476659E+02  0.53079335071E+01  0.29034710577E+02  0.00000000000E+00 0.  1.
</event>
<event>
 5    1  0.8778268E-005  0.9118800E+02  0.7818608E-02  0.1130116E+00
         25   -1    0    0    0    0  0.00000000000E+00  0.00000000000E+00  0.99999998245E-14  0.12500000000E+03  0.12500000000E+03 0.  0.
        -11    1    3    3    0    0 -0.53708716115E+02  0.24689625244E+02  0.48792102143E+01  0.59312818800E+02  0.51100000000E-03 0. -1.
         23    2    1    0    0    0 -0.30684262760E+02 -0.47007959314E+00  0.71400533205E+01  0.93492456183E+02  0.88023372156E+02 0.  0.
         11    1    3    3    0    0  0.23024453355E+02 -0.25159704837E+02  0.22608431062E+01  0.34179637383E+02  0.51100000000E-03 0.  1.
         22    1    1    0    0    0  0.30684262760E+02  0.47007959314E+00 -0.71400533205E+01  0.31507543817E+02  0.00000000000E+00 0. -1.
</event>
<event>
 5    1  0.8778268E-005  0.9118800E+02  0.7818608E-02  0.1130116E+00
         25   -1    0    0    0    0  0.00000000000E+00  0.00000000000E+00  0.99999998245E-14  0.12500000000E+03  0.12500000000E+03 0.  0.
        -11    1    3    3    0    0  0.12487047485E+01  0.33153605645E+02 -0.10185569561E+02  0.34705426930E+02  0.51100000000E-03 0.  1.
         23    2    1    0    0    0  0.18875317111E+02 -0.22565836410E+02  0.51693906065E+01  0.95129995511E+02  0.90318873320E+02 0.  0.
         11    1    3    3    0    0  0.17626612362E+02 -0.55719442055E+02  0.15354960168E+02  0.60424568582E+02  0.51100000000E-03 0. -1.
         22    1    1    0    0    0 -0.18875317111E+02  0.22565836410E+02 -0.51693906065E+01  0.29870004489E+02  0.00000000000E+00 0. -1.
</event>
<event>
 5    1  0.8778268E-005  0.9118800E+02  0.7818608E-02  0.1130116E+00
         25   -1    0    0    0    0  0.00000000000E+00  0.00000000000E+00  0.99999998245E-14  0.12500000000E+03  0.12500000000E+03 0.  0.
        -11    1    3    3    0    0 -0.25313281384E+02  0.35154317937E+01  0.25318986397E+02  0.35974595863E+02  0.51100000000E-03 0.  1.
         23    2    1    0    0    0  0.28676609755E+02  0.68400048510E+01  0.43559553193E+00  0.95515709999E+02  0.90851128224E+02 0.  0.
         11    1    3    3    0    0  0.53989891139E+02  0.33245730573E+01 -0.24883390865E+02  0.59541114135E+02  0.51100000000E-03 0. -1.
         22    1    1    0    0    0 -0.28676609755E+02 -0.68400048510E+01 -0.43559553193E+00  0.29484290001E+02  0.00000000000E+00 0. -1.
</event>
<event>
 5    1  0.8778268E-005  0.9118800E+02  0.7818608E-02  0.1130116E+00
         25   -1    0    0    0    0  0.00000000000E+00  0.00000000000E+00  0.99999998245E-14  0.12500000000E+03  0.12500000000E+03 0.  0.
        -11    1    3    3    0    0 -0.45862352710E+02  0.38518564229E+02  0.59519471689E+01  0.60186882805E+02  0.51100000000E-03 0.  1.
         23    2    1    0    0    0 -0.33821637613E+02  0.18144173862E+02 -0.50545930118E+01  0.86287429349E+02  0.77115869555E+02 0.  0.
         11    1    3    3    0    0  0.12040715098E+02 -0.20374390367E+02 -0.11006540181E+02  0.26100546544E+02  0.51100000000E-03 0. -1.
         22    1    1    0    0    0  0.33821637613E+02 -0.18144173862E+02  0.50545930118E+01  0.38712570651E+02  0.00000000000E+00 0.  1.
</event>
<event>
 5    1  0.8778268E-005  0.9118800E+02  0.7818608E-02  0.1130116E+00
         25   -1    0    0    0    0  0.00000000000E+00  0.00000000000E+00  0.99999998245E-14  0.12500000000E+03  0.12500000000E+03 0.  0.
        -11    1    3    3    0    0  0.27984623611E+02  0.44118583017E+02  0.31090756966E+02  0.60796576343E+02  0.51100000000E-03 0.  1.
         23    2    1    0    0    0  0.19147288255E+02  0.21762721578E+02  0.62845472745E+01  0.95339753331E+02  0.90608710027E+02 0.  0.
         11    1    3    3    0    0 -0.88373353562E+01 -0.22355861439E+02 -0.24806209692E+02  0.34543176988E+02  0.51100000000E-03 0. -1.
         22    1    1    0    0    0 -0.19147288255E+02 -0.21762721578E+02 -0.62845472745E+01  0.29660246669E+02  0.00000000000E+00 0.  1.
</event>
<event>
 5    1  0.8778268E-005  0.9118800E+02  0.7818608E-02  0.1130116E+00
         25   -1    0    0    0    0  0.00000000000E+00  0.00000000000E+00  0.99999998245E-14  0.12500000000E+03  0.12500000000E+03 0.  0.
        -11    1    3    3    0    0  0.47569983819E+02  0.12819376027E+02  0.37764679107E+02  0.62075846757E+02  0.51100000000E-03 0. -1.
         23    2    1    0    0    0  0.25420195402E+02  0.52661423637E+01  0.13685866429E+02  0.95653423886E+02  0.91040408455E+02 0.  0.
         11    1    3    3    0    0 -0.22149788416E+02 -0.75532336635E+01 -0.24078812678E+02  0.33577577130E+02  0.51100000000E-03 0.  1.
         22    1    1    0    0    0 -0.25420195402E+02 -0.52661423637E+01 -0.13685866429E+02  0.29346576114E+02  0.00000000000E+00 0. -1.
</event>
<event>
 5    1  0.8778268E-005  0.9118800E+02  0.7818608E-02  0.1130116E+00
         25   -1    0    0    0    0  0.00000000000E+00  0.00000000000E+00  0.99999998245E-14  0.12500000000E+03  0.12500000000E+03 0.  0.
        -11    1    3    3    0    0  0.17321379803E+02  0.57587596417E+02  0.79647464337E+01  0.60661343913E+02  0.51100000000E-03 0.  1.
         23    2    1    0    0    0  0.14141247275E+02  0.26816126195E+02 -0.51276001511E+01  0.94253101263E+02  0.89096999477E+02 0.  0.
         11    1    3    3    0    0 -0.31801325283E+01 -0.30771470222E+02 -0.13092346585E+02  0.33591757350E+02  0.51100000000E-03 0. -1.
         22    1    1    0    0    0 -0.14141247275E+02 -0.26816126195E+02  0.51276001511E+01  0.30746898737E+02  0.00000000000E+00 0.  1.
</event>
<event>
 5    1  0.8778268E-005  0.9118800E+02  0.7818608E-02  0.1130116E+00
         25   -1    0    0    0    0  0.00000000000E+00  0.00000000000E+00  0.99999998245E-14  0.12500000000E+03  0.12500000000E+03 0.  0.
        -11    1    3    3    0    0  0.26650407522E+02 -0.49863844141E+01  0.20101185533E+02  0.33751531975E+02  0.51100000000E-03 0. -1.
         23    2    1    0    0    0 -0.55842098443E+01  0.20706090765E+02 -0.23111070726E+02  0.93471486168E+02  0.87993588073E+02 0.  0.
         11    1    3    3    0    0 -0.32234617366E+02  0.25692475179E+02 -0.43212256259E+02  0.59719954193E+02  0.51100000000E-03 0.  1.
         22    1    1    0    0    0  0.55842098443E+01 -0.20706090765E+02  0.23111070726E+02  0.31528513832E+02  0.00000000000E+00 0.  1.
</event>
<event>
 5    1  0.8778268E-005  0.9118800E+02  0.7818608E-02  0.1130116E+00
         25   -1    0    0    0    0  0.00000000000E+00  0.00000000000E+00  0.99999998245E-14  0.12500000000E+03  0.12500000000E+03 0.  0.
        -11    1    3    3    0    0 -0.43616383243E+02 -0.37665897596E+02 -0.23861636613E+02  0.62373763964E+02  0.51100000000E-03 0.  1.
         23    2    1    0    0    0 -0.20472315351E+02 -0.15365484185E+02 -0.12936852841E+02  0.96319414903E+02  0.91950278552E+02 0.  0.
         11    1    3    3    0    0  0.23144067893E+02  0.22300413412E+02  0.10924783772E+02  0.33945650939E+02  0.51100000000E-03 0. -1.
         22    1    1    0    0    0  0.20472315351E+02  0.15365484185E+02  0.12936852841E+02  0.28680585097E+02  0.00000000000E+00 0.  1.
</event>
<event>
 5    1  0.8778268E-005  0.9118800E+02  0.7818608E-02  0.1130116E+00
         25   -1    0    0    0    0  0.00000000000E+00  0.00000000000E+00  0.99999998245E-14  0.12500000000E+03  0.12500000000E+03 0.  0.
        -11    1    3    3    0    0  0.14613774791E+02  0.12019947305E+02 -0.50993274778E+02  0.54390767780E+02  0.51100000000E-03 0.  1.
         23    2    1    0    0    0  0.71978121143E+01 -0.17201279759E+02 -0.20986178060E+02  0.96926664000E+02  0.92772118657E+02 0.  0.
         11    1    3    3    0    0 -0.74159626768E+01 -0.29221227064E+02  0.30007096718E+02  0.42535896220E+02  0.51100000000E-03 0. -1.
         22    1    1    0    0    0 -0.71978121143E+01  0.17201279759E+02  0.20986178060E+02  0.28073336000E+02  0.00000000000E+00 0. -1.
</event>
<event>
 5    1  0.8778268E-005  0.9118800E+02  0.7818608E-02  0.1130116E+00
         25   -1    0    0    0    0  0.00000000000E+00  0.00000000000E+00  0.99999998245E-14  0.12500000000E+03  0.12500000000E+03 0.  0.
        -11    1    3    3    0    0 -0.35583300630E+02 -0.43030345726E+00 -0.42186645984E+02  0.55191208942E+02  0.51100000000E-03 0.  1.
         23    2    1    0    0    0 -0.17526383015E+02  0.20995339408E+02 -0.24150287149E+02  0.88514184292E+02  0.80644566296E+02 0.  0.
         11    1    3    3    0    0  0.18056917615E+02  0.21425642865E+02  0.18036358835E+02  0.33322975351E+02  0.51100000000E-03 0. -1.
         22    1    1    0    0    0  0.17526383015E+02 -0.20995339408E+02  0.24150287149E+02  0.36485815708E+02  0.00000000000E+00 0.  1.
</event>
<event>
 5    1  0.8778268E-005  0.9118800E+02  0.7818608E-02  0.1130116E+00
         25   -1    0    0    0    0  0.00000000000E+00  0.00000000000E+00  0.99999998245E-14  0.12500000000E+03  0.12500000000E+03 0.  0.
        -11    1    3    3    0    0  0.10643855496E+02  0.39833351426E+02 -0.37191871006E+02  0.55526775657E+02  0.51100000000E-03 0.  1.
         23    2    1    0    0    0  0.22689846757E+02  0.18517928587E+02 -0.61296784438E+01  0.95078172134E+02  0.90247122024E+02 0.  0.
         11    1    3    3    0    0  0.12045991261E+02 -0.21315422839E+02  0.31062192562E+02  0.39551396477E+02  0.51100000000E-03 0. -1.
         22    1    1    0    0    0 -0.22689846757E+02 -0.18517928587E+02  0.61296784438E+01  0.29921827866E+02  0.00000000000E+00 0.  1.
</event>
<event>
 5    1  0.8778268E-005  0.9118800E+02  0.7818608E-02  0.1130116E+00
         25   -1    0    0    0    0  0.00000000000E+00  0.00000000000E+00  0.99999998245E-14  0.12500000000E+03  0.12500000000E+03 0.  0.
        -11    1    3    3    0    0 -0.30080302003E+02  0.11894935016E+02  0.56530530205E+01  0.32837037874E+02  0.51100000000E-03 0. -1.
         23    2    1    0    0    0  0.27306731334E+02 -0.81444480001E+01 -0.85303895489E+01  0.95255132288E+02  0.90491895062E+02 0.  0.
         11    1    3    3    0    0  0.57387033337E+02 -0.20039383016E+02 -0.14183442569E+02  0.62418094414E+02  0.51100000000E-03 0.  1.
         22    1    1    0    0    0 -0.27306731334E+02  0.81444480001E+01  0.85303895489E+01  0.29744867712E+02  0.00000000000E+00 0.  1.
</event>
<event>
 5    1  0.8778268E-005  0.9118800E+02  0.7818608E-02  0.1130116E+00
         25   -1    0    0    0    0  0.00000000000E+00  0.00000000000E+00  0.99999998245E-14  0.12500000000E+03  0.12500000000E+03 0.  0.
        -11    1    3    3    0    0 -0.75939632718E+01 -0.24619540681E+02 -0.50654313326E+02  0.56830005457E+02  0.51100000000E-03 0.  1.
         23    2    1    0    0    0 -0.56355381427E+01 -0.26902479639E+02 -0.13017396493E+02  0.94586922018E+02  0.89564113933E+02 0.  0.
         11    1    3    3    0    0  0.19584251291E+01 -0.22829389573E+01  0.37636916833E+02  0.37756916561E+02  0.51100000000E-03 0. -1.
         22    1    1    0    0    0  0.56355381427E+01  0.26902479639E+02  0.13017396493E+02  0.30413077982E+02  0.00000000000E+00 0.  1.
</event>
<event>
 5    1  0.8778268E-005  0.9118800E+02  0.7818608E-02  0.1130116E+00
         25   -1    0    0    0    0  0.00000000000E+00  0.00000000000E+00  0.99999998245E-14  0.12500000000E+03  0.12500000000E+03 0.  0.
        -11    1    3    3    0    0 -0.34906649071E+02 -0.16396981167E+02  0.13068917549E+02  0.40720163886E+02  0.51100000000E-03 0.  1.
         23    2    1    0    0    0 -0.13105916169E+02  0.29496093010E+02  0.24150088042E+01  0.92633090833E+02  0.86794427865E+02 0.  0.
         11    1    3    3    0    0  0.21800732902E+02  0.45893074177E+02 -0.10653908744E+02  0.51912926947E+02  0.51100000000E-03 0. -1.
         22    1    1    0    0    0  0.13105916169E+02 -0.29496093010E+02 -0.24150088042E+01  0.32366909167E+02  0.00000000000E+00 0. -1.
</event>
<event>
 5    1  0.8778268E-005  0.9118800E+02  0.7818608E-02  0.1130116E+00
         25   -1    0    0    0    0  0.00000000000E+00  0.00000000000E+00  0.99999998245E-14  0.12500000000E+03  0.12500000000E+03 0.  0.
        -11    1    3    3    0    0 -0.43944464589E+01  0.10778834476E+02 -0.45028009061E+02  0.46508236180E+02  0.51100000000E-03 0. -1.
         23    2    1    0    0    0 -0.82468147779E+01  0.28971649124E+02 -0.37900522475E+00  0.94875092500E+02  0.89965399599E+02 0.  0.
         11    1    3    3    0    0 -0.38523683191E+01  0.18192814648E+02  0.44649003836E+02  0.48366856320E+02  0.51100000000E-03 0.  1.
         22    1    1    0    0    0  0.82468147779E+01 -0.28971649124E+02  0.37900522475E+00  0.30124907500E+02  0.00000000000E+00 0. -1.
</event>
<event>
 5    1  0.8778268E-005  0.9118800E+02  0.7818608E-02  0.1130116E+00
         25   -1    0    0    0    0  0.00000000000E+00  0.00000000000E+00  0.99999998245E-14  0.12500000000E+03  0.12500000000E+03 0.  0.
        -11    1    3    3    0    0 -0.37203031018E+02 -0.14827868893E+02  0.21585564069E+02  0.45495799688E+02  0.51100000000E-03 0. -1.
         23    2    1    0    0    0 -0.19017759490E+02  0.24213760514E+02 -0.11335079002E+01  0.94189835859E+02  0.89008196054E+02 0.  0.
         11    1    3    3    0    0  0.18185271528E+02  0.39041629406E+02 -0.22719071969E+02  0.48694036171E+02  0.51100000000E-03 0.  1.
         22    1    1    0    0    0  0.19017759490E+02 -0.24213760514E+02  0.11335079002E+01  0.30810164141E+02  0.00000000000E+00 0.  1.
</event>
<event>
 5    1  0.8778268E-005  0.9118800E+02  0.7818608E-02  0.1130116E+00
         25   -1    0    0    0    0  0.00000000000E+00  0.00000000000E+00  0.99999998245E-14  0.12500000000E+03  0.12500000000E+03 0.  0.
        -11    1    3    3    0    0 -0.68183320727E+01 -0.52971175142E+01  0.31299257299E+02  0.32468332478E+02  0.51100000000E-03 0. -1.
         23    2    1    0    0    0 -0.56596902332E+01  0.83909774492E+01 -0.28985397201E+02  0.94298308728E+02  0.89160401423E+02 0.  0.
         11    1    3    3    0    0  0.11586418396E+01  0.13688094963E+02 -0.60284654499E+02  0.61829976249E+02  0.51100000000E-03 0.  1.
         22    1    1    0    0    0  0.56596902332E+01 -0.83909774492E+01  0.28985397201E+02  0.30701691272E+02  0.00000000000E+00 0.  1.
</event>
<event>
 5    1  0.8778268E-005  0.9118800E+02  0.7818608E-02  0.1130116E+00
         25   -1    0    0    0    0  0.00000000000E+00  0.00000000000E+00  0.99999998245E-14  0.12500000000E+03  0.12500000000E+03 0.  0.
        -11    1    3    3    0    0  0.27238505722E+02 -0.52204324805E+01  0.55819142800E+02  0.62329493921E+02  0.51100000000E-03 0.  1.
         23    2    1    0    0    0  0.11379308207E+02 -0.54356506876E+01  0.25918337512E+02  0.96176482292E+02  0.91755765884E+02 0.  0.
         11    1    3    3    0    0 -0.15859197515E+02 -0.21521820710E+00 -0.29900805288E+02  0.33846988371E+02  0.51100000000E-03 0. -1.
         22    1    1    0    0    0 -0.11379308207E+02  0.54356506876E+01 -0.25918337512E+02  0.28823517708E+02  0.00000000000E+00 0.  1.
</event>
<event>
 5    1  0.8778268E-005  0.9118800E+02  0.7818608E-02  0.1130116E+00
         25   -1    0    0    0    0  0.00000000000E+00  0.00000000000E+00  0.99999998245E-14  0.12500000000E+03  0.12500000000E+03 0.  0.
        -11    1    3    3    0    0  0.10469062211E+02  0.54943688133E+02 -0.25134962385E+02  0.61320277752E+02  0.51100000000E-03 0. -1.
         23    2    1    0    0    0  0.56482483608E+01  0.28262017264E+02 -0.35806884079E+01  0.95957519754E+02  0.91456984088E+02 0.  0.
         11    1    3    3    0    0 -0.48208138501E+01 -0.26681670869E+02  0.21554273977E+02  0.34637242001E+02  0.51100000000E-03 0.  1.
         22    1    1    0    0    0 -0.56482483608E+01 -0.28262017264E+02  0.35806884079E+01  0.29042480246E+02  0.00000000000E+00 0. -1.
</event>
<event>
 5    1  0.8778268E-005  0.9118800E+02  0.7818608E-02  0.1130116E+00
         25   -1    0    0    0    0  0.00000000000E+00  0.00000000000E+00  0.99999998245E-14  0.12500000000E+03  0.12500000000E+03 0.  0.
        -11    1    3    3    0    0  0.44988097569E+02 -0.18135661183E+02  0.38909336537E+02  0.62183338600E+02  0.51100000000E-03 0. -1.
         23    2    1    0    0    0  0.24817503954E+02 -0.89935607185E+01  0.15587634217E+02  0.94344380982E+02  0.89224969854E+02 0.  0.
         11    1    3    3    0    0 -0.20170593616E+02  0.91421004642E+01 -0.23321702320E+02  0.32161042382E+02  0.51100000000E-03 0.  1.
         22    1    1    0    0    0 -0.24817503954E+02  0.89935607185E+01 -0.15587634217E+02  0.30655619018E+02  0.00000000000E+00 0. -1.
</event>
<event>
 5    1  0.8778268E-005  0.9118800E+02  0.7818608E-02  0.1130116E+00
         25   -1    0    0    0    0  0.00000000000E+00  0.00000000000E+00  0.99999998245E-14  0.12500000000E+03  0.12500000000E+03 0.  0.
        -11    1    3    3    0    0 -0.15681536142E+02 -0.51907995539E+02 -0.23388671480E+01  0.54275416870E+02  0.51100000000E-03 0. -1.
         23    2    1    0    0    0 -0.28160320475E+02 -0.35497620008E+02 -0.13502483782E+02  0.77719964639E+02  0.61684610397E+02 0.  0.
         11    1    3    3    0    0 -0.12478784333E+02  0.16410375531E+02 -0.11163616634E+02  0.23444547769E+02  0.51100000000E-03 0.  1.
         22    1    1    0    0    0  0.28160320475E+02  0.35497620008E+02  0.13502483782E+02  0.47280035361E+02  0.00000000000E+00 0. -1.
</event>
<event>
 5    1  0.8778268E-005  0.9118800E+02  0.7818608E-02  0.1130116E+00
         25   -1    0    0    0    0  0.00000000000E+00  0.00000000000E+00  0.99999998245E-14  0.12500000000E+03  0.12500000000E+03 0.  0.
        -11    1    3    3    0    0 -0.60880926611E+00  0.40243209983E+02  0.20941089627E+02  0.45369767836E+02  0.51100000000E-03 0.  1.
         23    2    1    0    0    0 -0.18091445154E+01 -0.14410359485E+02 -0.92123488089E+01  0.10780119670E+03  0.10642038891E+03 0.  0.
         11    1    3    3    0    0 -0.12003352493E+01 -0.54653569468E+02 -0.30153438436E+02  0.62431428864E+02  0.51100000000E-03 0. -1.
         22    1    1    0    0    0  0.18091445154E+01  0.14410359485E+02  0.92123488089E+01  0.17198803299E+02  0.00000000000E+00 0. -1.
</event>
<event>
 5    1  0.8778268E-005  0.9118800E+02  0.7818608E-02  0.1130116E+00
         25   -1    0    0    0    0  0.00000000000E+00  0.00000000000E+00  0.99999998245E-14  0.12500000000E+03  0.12500000000E+03 0.  0.
        -11    1    3    3    0    0 -0.32493505652E+02  0.45443922535E+02 -0.76492450645E+01  0.56386957315E+02  0.51100000000E-03 0.  1.
         23    2    1    0    0    0 -0.18013386041E+02  0.17842093958E+02  0.15563416247E+02  0.95250339183E+02  0.90485273916E+02 0.  0.
         11    1    3    3    0    0  0.14480119611E+02 -0.27601828578E+02  0.23212661312E+02  0.38863381868E+02  0.51100000000E-03 0. -1.
         22    1    1    0    0    0  0.18013386041E+02 -0.17842093958E+02 -0.15563416247E+02  0.29749660817E+02  0.00000000000E+00 0.  1.
</event>
<event>
 5    1  0.8778268E-005  0.9118800E+02  0.7818608E-02  0.1130116E+00
         25   -1    0    0    0    0  0.00000000000E+00  0.00000000000E+00  0.99999998245E-14  0.12500000000E+03  0.12500000000E+03 0.  0.
        -11    1    3    3    0    0 -0.16384510702E+02  0.11190825333E+01  0.55171373890E+02  0.57563747566E+02  0.51100000000E-03 0.  1.
         23    2    1    0    0    0 -0.22400793263E+02 -0.49330409580E+01  0.17610495620E+02  0.96081839825E+02  0.91626742583E+02 0.  0.
         11    1    3    3    0    0 -0.60162825608E+01 -0.60521234913E+01 -0.37560878270E+02  0.38518092259E+02  0.51100000000E-03 0. -1.
         22    1    1    0    0    0  0.22400793263E+02  0.49330409580E+01 -0.17610495620E+02  0.28918160175E+02  0.00000000000E+00 0.  1.
</event>
<event>
 5    1  0.8778268E-005  0.9118800E+02  0.7818608E-02  0.1130116E+00
         25   -1    0    0    0    0  0.00000000000E+00  0.00000000000E+00  0.99999998245E-14  0.12500000000E+03  0.12500000000E+03 0.  0.
        -11    1    3    3    0    0  0.28179681865E+01 -0.34812902294E+02  0.10509689776E+02  0.36473726027E+02  0.51100000000E-03 0.  1.
         23    2    1    0    0    0  0.62803402217E+00  0.86006265668E+01 -0.28711500501E+02  0.95021416560E+02  0.90168476420E+02 0.  0.
         11    1    3    3    0    0 -0.21899341643E+01  0.43413528861E+02 -0.39221190277E+02  0.58547690533E+02  0.51100000000E-03 0. -1.
         22    1    1    0    0    0 -0.62803402217E+00 -0.86006265668E+01  0.28711500501E+02  0.29978583440E+02  0.00000000000E+00 0. -1.
</event>
<event>
 5    1  0.8778268E-005  0.9118800E+02  0.7818608E-02  0.1130116E+00
         25   -1    0    0    0    0  0.00000000000E+00  0.00000000000E+00  0.99999998245E-14  0.12500000000E+03  0.12500000000E+03 0.  0.
        -11    1    3    3    0    0 -0.75906451077E+01 -0.68791325101E+01 -0.35905921502E+02  0.37338660346E+02  0.51100000000E-03 0.  1.
         23    2    1    0    0    0 -0.22424260639E+02  0.26169907263E+02  0.28875603893E+01  0.90416051175E+02  0.83540485956E+02 0.  0.
         11    1    3    3    0    0 -0.14833615531E+02  0.33049039773E+02  0.38793481892E+02  0.53077390829E+02  0.51100000000E-03 0. -1.
         22    1    1    0    0    0  0.22424260639E+02 -0.26169907263E+02 -0.28875603893E+01  0.34583948825E+02  0.00000000000E+00 0.  1.
</event>
<event>
 5    1  0.8778268E-005  0.9118800E+02  0.7818608E-02  0.1130116E+00
         25   -1    0    0    0    0  0.00000000000E+00  0.00000000000E+00  0.99999998245E-14  0.12500000000E+03  0.12500000000E+03 0.  0.
        -11    1    3    3    0    0  0.86825415992E+01 -0.40526320608E+02  0.42991158345E+02  0.59716068916E+02  0.51100000000E-03 0. -1.
         23    2    1    0    0    0  0.83810896957E+01 -0.77105932893E+01  0.25877415675E+02  0.96727459340E+02  0.92503323372E+02 0.  0.
         11    1    3    3    0    0 -0.30145190358E+00  0.32815727318E+02 -0.17113742670E+02  0.37011390424E+02  0.51100000000E-03 0.  1.
         22    1    1    0    0    0 -0.83810896957E+01  0.77105932893E+01 -0.25877415675E+02  0.28272540660E+02  0.00000000000E+00 0. -1.
</event>
<event>
 5    1  0.8778268E-005  0.9118800E+02  0.7818608E-02  0.1130116E+00
         25   -1    0    0    0    0  0.00000000000E+00  0.00000000000E+00  0.99999998245E-14  0.12500000000E+03  0.12500000000E+03 0.  0.
        -11    1    3    3    0    0  0.34465312381E+02  0.14870286924E+02  0.59990484048E+00  0.37541218371E+02  0.51100000000E-03 0. -1.
         23    2    1    0    0    0 -0.22276425699E+02  0.65788936919E+01 -0.15467074213E+02  0.97093882949E+02  0.92997154458E+02 0.  0.
         11    1    3    3    0    0 -0.56741738080E+02 -0.82913932320E+01 -0.16066979054E+02  0.59552664578E+02  0.51100000000E-03 0.  1.
         22    1    1    0    0    0  0.22276425699E+02 -0.65788936919E+01  0.15467074213E+02  0.27906117051E+02  0.00000000000E+00 0.  1.
</event>
<event>
 5    1  0.8778268E-005  0.9118800E+02  0.7818608E-02  0.1130116E+00
         25   -1    0    0    0    0  0.00000000000E+00  0.00000000000E+00  0.99999998245E-14  0.12500000000E+03  0.12500000000E+03 0.  0.
        -11    1    3    3    0    0  0.49031284466E+02  0.67304544198E+01  0.58484773492E+01  0.49835434789E+02  0.51100000000E-03 0. -1.
         23    2    1    0    0    0  0.13079695630E+02  0.10215578804E+02 -0.23399573555E+02  0.96312432473E+02  0.91940785934E+02 0.  0.
         11    1    3    3    0    0 -0.35951588835E+02  0.34851243844E+01 -0.29248050904E+02  0.46476997684E+02  0.51100000000E-03 0.  1.
         22    1    1    0    0    0 -0.13079695630E+02 -0.10215578804E+02  0.23399573555E+02  0.28687567527E+02  0.00000000000E+00 0. -1.
</event>
<event>
 5    1  0.8778268E-005  0.9118800E+02  0.7818608E-02  0.1130116E+00
         25   -1    0    0    0    0  0.00000000000E+00  0.00000000000E+00  0.99999998245E-14  0.12500000000E+03  0.12500000000E+03 0.  0.
        -11    1    3    3    0    0  0.32624037283E+02 -0.37828446444E+02  0.28983850920E+02  0.57752772950E+02  0.51100000000E-03 0. -1.
         23    2    1    0    0    0 -0.26804731755E+00 -0.20806680489E+02  0.20587743212E+02  0.95728085596E+02  0.91142862578E+02 0.  0.
         11    1    3    3    0    0 -0.32892084601E+02  0.17021765956E+02 -0.83961077084E+01  0.37975312646E+02  0.51100000000E-03 0.  1.
         22    1    1    0    0    0  0.26804731755E+00  0.20806680489E+02 -0.20587743212E+02  0.29271914404E+02  0.00000000000E+00 0. -1.
</event>
<event>
 5    1  0.8778268E-005  0.9118800E+02  0.7818608E-02  0.1130116E+00
         25   -1    0    0    0    0  0.00000000000E+00  0.00000000000E+00  0.99999998245E-14  0.12500000000E+03  0.12500000000E+03 0.  0.
        -11    1    3    3    0    0  0.58581965357E+01 -0.28833007565E+01  0.24227969930E+02  0.25092357743E+02  0.51100000000E-03 0.  1.
         23    2    1    0    0    0  0.26147176226E+02  0.40116479343E+01 -0.30950182261E+02  0.84285359811E+02  0.73799322170E+02 0.  0.
         11    1    3    3    0    0  0.20288979690E+02  0.68949486908E+01 -0.55178152191E+02  0.59193002068E+02  0.51100000000E-03 0. -1.
         22    1    1    0    0    0 -0.26147176226E+02 -0.40116479343E+01  0.30950182261E+02  0.40714640189E+02  0.00000000000E+00 0. -1.
</event>
<event>
 5    1  0.8778268E-005  0.9118800E+02  0.7818608E-02  0.1130116E+00
         25   -1    0    0    0    0  0.00000000000E+00  0.00000000000E+00  0.99999998245E-14  0.12500000000E+03  0.12500000000E+03 0.  0.
        -11    1    3    3    0    0  0.46589441998E+01  0.16170467688E+02  0.49842684849E+02  0.52606872360E+02  0.51100000000E-03 0.  1.
         23    2    1    0    0    0 -0.15697563597E+02 -0.10260671066E+02  0.22252216317E+02  0.95899209553E+02  0.91377253123E+02 0.  0.
         11    1    3    3    0    0 -0.20356507797E+02 -0.26431138754E+02 -0.27590468532E+02  0.43292337192E+02  0.51100000000E-03 0. -1.
         22    1    1    0    0    0  0.15697563597E+02  0.10260671066E+02 -0.22252216317E+02  0.29100790447E+02  0.00000000000E+00 0. -1.
</event>
<event>
 5    1  0.8778268E-005  0.9118800E+02  0.7818608E-02  0.1130116E+00
         25   -1    0    0    0    0  0.00000000000E+00  0.00000000000E+00  0.99999998245E-14  0.12500000000E+03  0.12500000000E+03 0.  0.
        -11    1    3    3    0    0  0.31487657181E+02  0.27415780040E+01  0.21401655671E+02  0.38170927031E+02  0.51100000000E-03 0. -1.
         23    2    1    0    0    0 -0.10068023941E+02  0.28159689019E+02 -0.66229838683E+01  0.94369996620E+02  0.89260848948E+02 0.  0.
         11    1    3    3    0    0 -0.41555681122E+02  0.25418111015E+02 -0.28024639539E+02  0.56199069589E+02  0.51100000000E-03 0.  1.
         22    1    1    0    0    0  0.10068023941E+02 -0.28159689019E+02  0.66229838683E+01  0.30630003380E+02  0.00000000000E+00 0. -1.
</event>
<event>
 5    1  0.8778268E-005  0.9118800E+02  0.7818608E-02  0.1130116E+00
         25   -1    0    0    0    0  0.00000000000E+00  0.00000000000E+00  0.99999998245E-14  0.12500000000E+03  0.12500000000E+03 0.  0.
        -11    1    3    3    0    0 -0.43933120113E+02  0.13337453921E+02 -0.22691038694E+02  0.51214157781E+02  0.51100000000E-03 0.  1.
         23    2    1    0    0    0 -0.49168968020E+01 -0.25943295217E+01 -0.30433313003E+02  0.94063080952E+02  0.88830007531E+02 0.  0.
         11    1    3    3    0    0  0.39016223311E+02 -0.15931783442E+02 -0.77422743092E+01  0.42848923171E+02  0.51100000000E-03 0. -1.
         22    1    1    0    0    0  0.49168968020E+01  0.25943295217E+01  0.30433313003E+02  0.30936919048E+02  0.00000000000E+00 0. -1.
</event>
<event>
 5    1  0.8778268E-005  0.9118800E+02  0.7818608E-02  0.1130116E+00
         25   -1    0    0    0    0  0.00000000000E+00  0.00000000000E+00  0.99999998245E-14  0.12500000000E+03  0.12500000000E+03 0.  0.
        -11    1    3    3    0    0  0.25674348758E+01 -0.35751271110E+02 -0.28838491451E+02  0.46004387805E+02  0.51100000000E-03 0.  1.
         23    2    1    0    0    0  0.19203292587E+02 -0.16865568750E+02  0.14126247516E+02  0.95797864388E+02  0.91238512137E+02 0.  0.
         11    1    3    3    0    0  0.16635857711E+02  0.18885702360E+02  0.42964738968E+02  0.49793476583E+02  0.51100000000E-03 0. -1.
         22    1    1    0    0    0 -0.19203292587E+02  0.16865568750E+02 -0.14126247516E+02  0.29202135612E+02  0.00000000000E+00 0. -1.
</event>
<event>
 5    1  0.8778268E-005  0.9118800E+02  0.7818608E-02  0.1130116E+00
         25   -1    0    0    0    0  0.00000000000E+00  0.00000000000E+00  0.99999998245E-14  0.12500000000E+03  0.12500000000E+03 0.  0.
        -11    1    3    3    0    0  0.12764003045E+02 -0.53447422374E+01  0.43873119956E+02  0.46003659618E+02  0.51100000000E-03 0.  1.
         23    2    1    0    0    0  0.20730973497E+02 -0.76109219588E+01 -0.10176411957E+02  0.10068418713E+03  0.97703872915E+02 0.  0.
         11    1    3    3    0    0  0.79669704523E+01 -0.22661797214E+01 -0.54049531913E+02  0.54680527512E+02  0.51100000000E-03 0. -1.
         22    1    1    0    0    0 -0.20730973497E+02  0.76109219588E+01  0.10176411957E+02  0.24315812870E+02  0.00000000000E+00 0. -1.
</event>
<event>
 5    1  0.8778268E-005  0.9118800E+02  0.7818608E-02  0.1130116E+00
         25   -1    0    0    0    0  0.00000000000E+00  0.00000000000E+00  0.99999998245E-14  0.12500000000E+03  0.12500000000E+03 0.  0.
        -11    1    3    3    0    0 -0.13823408227E+02  0.53663283261E+02 -0.72442813992E+00  0.55419846461E+02  0.51100000000E-03 0. -1.
         23    2    1    0    0    0  0.11002332846E+02  0.25490710905E+02 -0.12185079823E+02  0.94679976240E+02  0.89693890873E+02 0.  0.
         11    1    3    3    0    0  0.24825741073E+02 -0.28172572356E+02 -0.11460651683E+02  0.39260129779E+02  0.51100000000E-03 0.  1.
         22    1    1    0    0    0 -0.11002332846E+02 -0.25490710905E+02  0.12185079823E+02  0.30320023760E+02  0.00000000000E+00 0. -1.
</event>
<event>
 5    1  0.8778268E-005  0.9118800E+02  0.7818608E-02  0.1130116E+00
         25   -1    0    0    0    0  0.00000000000E+00  0.00000000000E+00  0.99999998245E-14  0.12500000000E+03  0.12500000000E+03 0.  0.
        -11    1    3    3    0    0 -0.39560270484E+02 -0.12464064519E+02  0.26223505211E+02  0.49071785487E+02  0.51100000000E-03 0.  1.
         23    2    1    0    0    0 -0.20156471936E+02  0.22091404476E+02  0.31512614245E+01  0.94929350502E+02  0.90040755359E+02 0.  0.
         11    1    3    3    0    0  0.19403798548E+02  0.34555468995E+02 -0.23072243786E+02  0.45857565015E+02  0.51100000000E-03 0. -1.
         22    1    1    0    0    0  0.20156471936E+02 -0.22091404476E+02 -0.31512614245E+01  0.30070649498E+02  0.00000000000E+00 0.  1.
</event>
<event>
 5    1  0.8778268E-005  0.9118800E+02  0.7818608E-02  0.1130116E+00
         25   -1    0    0    0    0  0.00000000000E+00  0.00000000000E+00  0.99999998245E-14  0.12500000000E+03  0.12500000000E+03 0.  0.
        -11    1    3    3    0    0 -0.17389946082E+02  0.29865162222E+00 -0.32289007656E+02  0.36675324582E+02  0.51100000000E-03 0.  1.
         23    2    1    0    0    0  0.25020534137E+02 -0.31770201808E+01  0.11096333950E+02  0.97445522817E+02  0.93468608121E+02 0.  0.
         11    1    3    3    0    0  0.42410480219E+02 -0.34756718030E+01  0.43385341606E+02  0.60770198234E+02  0.51100000000E-03 0. -1.
         22    1    1    0    0    0 -0.25020534137E+02  0.31770201808E+01 -0.11096333950E+02  0.27554477183E+02  0.00000000000E+00 0. -1.
</event>
<event>
 5    1  0.8778268E-005  0.9118800E+02  0.7818608E-02  0.1130116E+00
         25   -1    0    0    0    0  0.00000000000E+00  0.00000000000E+00  0.99999998245E-14  0.12500000000E+03  0.12500000000E+03 0.  0.
        -11    1    3    3    0    0 -0.33749395302E+02  0.23053254818E+02  0.15399741289E+02  0.43676381180E+02  0.51100000000E-03 0.  1.
         23    2    1    0    0    0 -0.15417125120E+02  0.36810359589E+02 -0.15532929652E+02  0.82175214845E+02  0.70134183613E+02 0.  0.
         11    1    3    3    0    0  0.18332270181E+02  0.13757104771E+02 -0.30932670942E+02  0.38498833665E+02  0.51100000000E-03 0. -1.
         22    1    1    0    0    0  0.15417125120E+02 -0.36810359589E+02  0.15532929652E+02  0.42824785155E+02  0.00000000000E+00 0.  1.
</event>
<event>
 5    1  0.8778268E-005  0.9118800E+02  0.7818608E-02  0.1130116E+00
         25   -1    0    0    0    0  0.00000000000E+00  0.00000000000E+00  0.99999998245E-14  0.12500000000E+03  0.12500000000E+03 0.  0.
        -11    1    3    3    0    0  0.12038949508E+02  0.10807124907E+02  0.51551099883E+02  0.54030048615E+02  0.51100000000E-03 0. -1.
         23    2    1    0    0    0 -0.24100729887E+01 -0.16876542441E+02  0.23217777163E+02  0.96195637258E+02  0.91781857218E+02 0.  0.
         11    1    3    3    0    0 -0.14449022497E+02 -0.27683667349E+02 -0.28333322719E+02  0.42165588642E+02  0.51100000000E-03 0.  1.
         22    1    1    0    0    0  0.24100729887E+01  0.16876542441E+02 -0.23217777163E+02  0.28804362742E+02  0.00000000000E+00 0. -1.
</event>
<event>
 5    1  0.8778268E-005  0.9118800E+02  0.7818608E-02  0.1130116E+00
         25   -1    0    0    0    0  0.00000000000E+00  0.00000000000E+00  0.99999998245E-14  0.12500000000E+03  0.12500000000E+03 0.  0.
        -11    1    3    3    0    0  0.38715329459E+02 -0.82176334394E+01  0.77825447107E+01  0.40335768703E+02  0.51100000000E-03 0.  1.
         23    2    1    0    0    0  0.14759801953E+01 -0.38143023872E+01 -0.30677499025E+02  0.94051068408E+02  0.88813102085E+02 0.  0.
         11    1    3    3    0    0 -0.37239349263E+02  0.44033310522E+01 -0.38460043736E+02  0.53715299705E+02  0.51100000000E-03 0. -1.
         22    1    1    0    0    0 -0.14759801953E+01  0.38143023872E+01  0.30677499025E+02  0.30948931592E+02  0.00000000000E+00 0. -1.
</event>
<event>
 5    1  0.8778268E-005  0.9118800E+02  0.7818608E-02  0.1130116E+00
         25   -1    0    0    0    0  0.00000000000E+00  0.00000000000E+00  0.99999998245E-14  0.12500000000E+03  0.12500000000E+03 0.  0.
        -11    1    3    3    0    0 -0.19598648083E+02  0.20918863615E+02  0.44033052144E+02  0.52541560150E+02  0.51100000000E-03 0.  1.
         23    2    1    0    0    0 -0.21953980672E+02 -0.11457445473E+02  0.15316595015E+02  0.95882163422E+02  0.91353931802E+02 0.  0.
         11    1    3    3    0    0 -0.23553325896E+01 -0.32376309087E+02 -0.28716457129E+02  0.43340603273E+02  0.51100000000E-03 0. -1.
         22    1    1    0    0    0  0.21953980672E+02  0.11457445473E+02 -0.15316595015E+02  0.29117836578E+02  0.00000000000E+00 0.  1.
</event>
<event>
 5    1  0.8778268E-005  0.9118800E+02  0.7818608E-02  0.1130116E+00
         25   -1    0    0    0    0  0.00000000000E+00  0.00000000000E+00  0.99999998245E-14  0.12500000000E+03  0.12500000000E+03 0.  0.
        -11    1    3    3    0    0 -0.10296382866E+01  0.45010071201E+01 -0.36896246457E+02  0.37184031828E+02  0.51100000000E-03 0. -1.
         23    2    1    0    0    0  0.22883579909E+02  0.31782516343E+01  0.17102298572E+02  0.96255467836E+02  0.91863305836E+02 0.  0.
         11    1    3    3    0    0  0.23913218195E+02 -0.13227554858E+01  0.53998545029E+02  0.59071436008E+02  0.51100000000E-03 0.  1.
         22    1    1    0    0    0 -0.22883579909E+02 -0.31782516343E+01 -0.17102298572E+02  0.28744532164E+02  0.00000000000E+00 0.  1.
</event>
<event>
 5    1  0.8778268E-005  0.9118800E+02  0.7818608E-02  0.1130116E+00
         25   -1    0    0    0    0  0.00000000000E+00  0.00000000000E+00  0.99999998245E-14  0.12500000000E+03  0.12500000000E+03 0.  0.
        -11    1    3    3    0    0  0.12034114853E+02 -0.11749108419E+01  0.18642231896E+02  0.22220106798E+02  0.51100000000E-03 0. -1.
         23    2    1    0    0    0  0.29057964531E+02 -0.87313996405E+01 -0.34808989519E+02  0.78823508214E+02  0.63881742724E+02 0.  0.
         11    1    3    3    0    0  0.17023849678E+02 -0.75564887986E+01 -0.53451221415E+02  0.56603401416E+02  0.51100000000E-03 0.  1.
         22    1    1    0    0    0 -0.29057964531E+02  0.87313996405E+01  0.34808989519E+02  0.46176491786E+02  0.00000000000E+00 0.  1.
</event>
<event>
 5    1  0.8778268E-005  0.9118800E+02  0.7818608E-02  0.1130116E+00
         25   -1    0    0    0    0  0.00000000000E+00  0.00000000000E+00  0.99999998245E-14  0.12500000000E+03  0.12500000000E+03 0.  0.
        -11    1    3    3    0    0  0.28267916319E+02 -0.25141948967E+02  0.19931139723E+02  0.42760297261E+02  0.51100000000E-03 0.  1.
         23    2    1    0    0    0 -0.21887444519E+02 -0.16349406626E+02 -0.62507066903E+00  0.97673199274E+02  0.93772596309E+02 0.  0.
         11    1    3    3    0    0 -0.50155360838E+02  0.87925423412E+01 -0.20556210392E+02  0.54912902014E+02  0.51100000000E-03 0. -1.
         22    1    1    0    0    0  0.21887444519E+02  0.16349406626E+02  0.62507066903E+00  0.27326800726E+02  0.00000000000E+00 0. -1.
</event>
<event>
 5    1  0.8778268E-005  0.9118800E+02  0.7818608E-02  0.1130116E+00
         25   -1    0    0    0    0  0.00000000000E+00  0.00000000000E+00  0.99999998245E-14  0.12500000000E+03  0.12500000000E+03 0.  0.
        -11    1    3    3    0    0 -0.16418863518E+02  0.24838332859E+02  0.16912100686E+02  0.34242386136E+02  0.51100000000E-03 0. -1.
         23    2    1    0    0    0  0.27194918070E+02 -0.16651061235E+01 -0.14465816191E+02  0.94152050549E+02  0.88955115858E+02 0.  0.
         11    1    3    3    0    0  0.43613781588E+02 -0.26503438983E+02 -0.31377916876E+02  0.59909664413E+02  0.51100000000E-03 0.  1.
         22    1    1    0    0    0 -0.27194918070E+02  0.16651061235E+01  0.14465816191E+02  0.30847949451E+02  0.00000000000E+00 0.  1.
</event>
<event>
 5    1  0.8778268E-005  0.9118800E+02  0.7818608E-02  0.1130116E+00
         25   -1    0    0    0    0  0.00000000000E+00  0.00000000000E+00  0.99999998245E-14  0.12500000000E+03  0.12500000000E+03 0.  0.
        -11    1    3    3    0    0  0.26599359895E+02 -0.24867095818E+02  0.11286062300E+02  0.38121825819E+02  0.51100000000E-03 0.  1.
         23    2    1    0    0    0 -0.15903402386E+02 -0.82757422873E+01 -0.23461486243E+02  0.95472936912E+02  0.90792258634E+02 0.  0.
         11    1    3    3    0    0 -0.42502762282E+02  0.16591353531E+02 -0.34747548544E+02  0.57351111093E+02  0.51100000000E-03 0. -1.
         22    1    1    0    0    0  0.15903402386E+02  0.82757422873E+01  0.23461486243E+02  0.29527063088E+02  0.00000000000E+00 0. -1.
</event>
<event>
 5    1  0.8778268E-005  0.9118800E+02  0.7818608E-02  0.1130116E+00
         25   -1    0    0    0    0  0.00000000000E+00  0.00000000000E+00  0.99999998245E-14  0.12500000000E+03  0.12500000000E+03 0.  0.
        -11    1    3    3    0    0  0.28532704409E+02 -0.18938968361E+02 -0.23604104481E+02  0.41592709603E+02  0.51100000000E-03 0.  1.
         23    2    1    0    0    0  0.16374816426E+02  0.14366800300E+02  0.18346634182E+02  0.96519505804E+02  0.92221887050E+02 0.  0.
         11    1    3    3    0    0 -0.12157887983E+02  0.33305768661E+02  0.41950738663E+02  0.54926796201E+02  0.51100000000E-03 0. -1.
         22    1    1    0    0    0 -0.16374816426E+02 -0.14366800300E+02 -0.18346634182E+02  0.28480494196E+02  0.00000000000E+00 0. -1.
</event>
<event>
 5    1  0.8778268E-005  0.9118800E+02  0.7818608E-02  0.1130116E+00
         25   -1    0    0    0    0  0.00000000000E+00  0.00000000000E+00  0.99999998245E-14  0.12500000000E+03  0.12500000000E+03 0.  0.
        -11    1    3    3    0    0 -0.21686643022E+02  0.41054912872E+02  0.62795583140E+01  0.46853486630E+02  0.51100000000E-03 0.  1.
         23    2    1    0    0    0  0.11316681703E+01  0.12743264906E+02 -0.26349322141E+02  0.95709075627E+02  0.91116787185E+02 0.  0.
         11    1    3    3    0    0  0.22818311193E+02 -0.28311647966E+02 -0.32628880455E+02  0.48855588997E+02  0.51100000000E-03 0. -1.
         22    1    1    0    0    0 -0.11316681703E+01 -0.12743264906E+02  0.26349322141E+02  0.29290924373E+02  0.00000000000E+00 0.  1.
</event>
<event>
 5    1  0.8778268E-005  0.9118800E+02  0.7818608E-02  0.1130116E+00
         25   -1    0    0    0    0  0.00000000000E+00  0.00000000000E+00  0.99999998245E-14  0.12500000000E+03  0.12500000000E+03 0.  0.
        -11    1    3    3    0    0 -0.17892850717E+02  0.12183276357E+02  0.54647580856E+02  0.58778775279E+02  0.51100000000E-03 0.  1.
         23    2    1    0    0    0 -0.20268406557E+01  0.18951443663E+02  0.20671060085E+02  0.96883136288E+02  0.92713451408E+02 0.  0.
         11    1    3    3    0    0  0.15866010061E+02  0.67681673061E+01 -0.33976520771E+02  0.38104361009E+02  0.51100000000E-03 0. -1.
         22    1    1    0    0    0  0.20268406557E+01 -0.18951443663E+02 -0.20671060085E+02  0.28116863712E+02  0.00000000000E+00 0.  1.
</event>
<event>
 5    1  0.8778268E-005  0.9118800E+02  0.7818608E-02  0.1130116E+00
         25   -1    0    0    0    0  0.00000000000E+00  0.00000000000E+00  0.99999998245E-14  0.12500000000E+03  0.12500000000E+03 0.  0.
        -11    1    3    3    0    0 -0.14259661191E+02  0.23086080335E+02 -0.33112847003E+02  0.42810812646E+02  0.51100000000E-03 0.  1.
         23    2    1    0    0    0  0.20517783899E+02 -0.12988758912E+02 -0.16658793331E+02  0.95551694286E+02  0.90900624704E+02 0.  0.
         11    1    3    3    0    0  0.34777445089E+02 -0.36074839247E+02  0.16454053672E+02  0.52740881640E+02  0.51100000000E-03 0. -1.
         22    1    1    0    0    0 -0.20517783899E+02  0.12988758912E+02  0.16658793331E+02  0.29448305714E+02  0.00000000000E+00 0. -1.
</event>
<event>
 5    1  0.8778268E-005  0.9118800E+02  0.7818608E-02  0.1130116E+00
         25   -1    0    0    0    0  0.00000000000E+00  0.00000000000E+00  0.99999998245E-14  0.12500000000E+03  0.12500000000E+03 0.  0.
        -11    1    3    3    0    0  0.18329010156E+02 -0.28595893566E+02 -0.14874758798E+02  0.37080132034E+02  0.51100000000E-03 0.  1.
         23    2    1    0    0    0  0.67018832064E+01  0.26078464919E+02  0.71198072466E+01  0.97148730258E+02  0.93070847017E+02 0.  0.
         11    1    3    3    0    0 -0.11627126949E+02  0.54674358485E+02  0.21994566045E+02  0.60068598224E+02  0.51100000000E-03 0. -1.
         22    1    1    0    0    0 -0.67018832064E+01 -0.26078464919E+02 -0.71198072466E+01  0.27851269742E+02  0.00000000000E+00 0. -1.
</event>
<event>
 5    1  0.8778268E-005  0.9118800E+02  0.7818608E-02  0.1130116E+00
         25   -1    0    0    0    0  0.00000000000E+00  0.00000000000E+00  0.99999998245E-14  0.12500000000E+03  0.12500000000E+03 0.  0.
        -11    1    3    3    0    0  0.41166602701E+01 -0.40572921104E+02  0.43732979288E+01  0.41015052770E+02  0.51100000000E-03 0.  1.
         23    2    1    0    0    0 -0.22459329883E+02  0.63185372257E+01  0.16702937935E+02  0.96306210652E+02  0.91932326540E+02 0.  0.
         11    1    3    3    0    0 -0.26575990154E+02  0.46891458330E+02  0.12329640006E+02  0.55291157882E+02  0.51100000000E-03 0. -1.
         22    1    1    0    0    0  0.22459329883E+02 -0.63185372257E+01 -0.16702937935E+02  0.28693789348E+02  0.00000000000E+00 0.  1.
</event>
<event>
 5    1  0.8778268E-005  0.9118800E+02  0.7818608E-02  0.1130116E+00
         25   -1    0    0    0    0  0.00000000000E+00  0.00000000000E+00  0.99999998245E-14  0.12500000000E+03  0.12500000000E+03 0.  0.
        -11    1    3    3    0    0  0.21710851875E+02 -0.26499782044E+02  0.24414905052E+02  0.42067649405E+02  0.51100000000E-03 0.  1.
         23    2    1    0    0    0 -0.17629960449E+02  0.79525300218E+01  0.23757049729E+02  0.94365776475E+02  0.89254938903E+02 0.  0.
         11    1    3    3    0    0 -0.39340812324E+02  0.34452312066E+02 -0.65785532303E+00  0.52298127069E+02  0.51100000000E-03 0. -1.
         22    1    1    0    0    0  0.17629960449E+02 -0.79525300218E+01 -0.23757049729E+02  0.30634223525E+02  0.00000000000E+00 0.  1.
</event>
<event>
 5    1  0.8778268E-005  0.9118800E+02  0.7818608E-02  0.1130116E+00
         25   -1    0    0    0    0  0.00000000000E+00  0.00000000000E+00  0.99999998245E-14  0.12500000000E+03  0.12500000000E+03 0.  0.
        -11    1    3    3    0    0 -0.51950357549E+02 -0.14625792517E+02  0.23059617773E+02  0.58689857968E+02  0.51100000000E-03 0. -1.
         23    2    1    0    0    0 -0.15245846339E+02 -0.11994607770E+02  0.22227544159E+02  0.95497963367E+02  0.90826707756E+02 0.  0.
         11    1    3    3    0    0  0.36704511210E+02  0.26311847470E+01 -0.83207361329E+00  0.36808105399E+02  0.51100000000E-03 0.  1.
         22    1    1    0    0    0  0.15245846339E+02  0.11994607770E+02 -0.22227544159E+02  0.29502036633E+02  0.00000000000E+00 0. -1.
</event>
<event>
 5    1  0.8778268E-005  0.9118800E+02  0.7818608E-02  0.1130116E+00
         25   -1    0    0    0    0  0.00000000000E+00  0.00000000000E+00  0.99999998245E-14  0.12500000000E+03  0.12500000000E+03 0.  0.
        -11    1    3    3    0    0 -0.14580284255E+02 -0.18334365423E+02  0.24605239812E+02  0.33972804872E+02  0.51100000000E-03 0. -1.
         23    2    1    0    0    0  0.18749176343E+02  0.14527779748E+01 -0.22953928718E+02  0.95326358144E+02  0.90590228701E+02 0.  0.
         11    1    3    3    0    0  0.33329460598E+02  0.19787143398E+02 -0.47559168530E+02  0.61353553272E+02  0.51100000000E-03 0.  1.
         22    1    1    0    0    0 -0.18749176343E+02 -0.14527779748E+01  0.22953928718E+02  0.29673641856E+02  0.00000000000E+00 0.  1.
</event>
<event>
 5    1  0.8778268E-005  0.9118800E+02  0.7818608E-02  0.1130116E+00
         25   -1    0    0    0    0  0.00000000000E+00  0.00000000000E+00  0.99999998245E-14  0.12500000000E+03  0.12500000000E+03 0.  0.
        -11    1    3    3    0    0  0.41437650604E+02  0.21370444211E+02  0.18788206686E+02  0.50267001940E+02  0.51100000000E-03 0.  1.
         23    2    1    0    0    0  0.16338905767E+02 -0.17420663638E+02  0.15374060071E+02  0.96595755840E+02  0.92325180531E+02 0.  0.
         11    1    3    3    0    0 -0.25098744837E+02 -0.38791107849E+02 -0.34141466153E+01  0.46328753900E+02  0.51100000000E-03 0. -1.
         22    1    1    0    0    0 -0.16338905767E+02  0.17420663638E+02 -0.15374060071E+02  0.28404244160E+02  0.00000000000E+00 0. -1.
</event>
<event>
 5    1  0.8778268E-005  0.9118800E+02  0.7818608E-02  0.1130116E+00
         25   -1    0    0    0    0  0.00000000000E+00  0.00000000000E+00  0.99999998245E-14  0.12500000000E+03  0.12500000000E+03 0.  0.
        -11    1    3    3    0    0 -0.19428879373E+01 -0.29779883820E+02 -0.44164130231E+02  0.53301845120E+02  0.51100000000E-03 0.  1.
         23    2    1    0    0    0 -0.21761743599E+02 -0.15652577318E+02 -0.77590353745E+01  0.97093382664E+02  0.92996482009E+02 0.  0.
         11    1    3    3    0    0 -0.19818855662E+02  0.14127306501E+02  0.36405094857E+02  0.43791537544E+02  0.51100000000E-03 0. -1.
         22    1    1    0    0    0  0.21761743599E+02  0.15652577318E+02  0.77590353745E+01  0.27906617336E+02  0.00000000000E+00 0.  1.
</event>
<event>
 5    1  0.8778268E-005  0.9118800E+02  0.7818608E-02  0.1130116E+00
         25   -1    0    0    0    0  0.00000000000E+00  0.00000000000E+00  0.99999998245E-14  0.12500000000E+03  0.12500000000E+03 0.  0.
        -11    1    3    3    0    0 -0.32536597305E+02  0.23761812247E+02  0.10600215022E+02  0.41660754245E+02  0.51100000000E-03 0. -1.
         23    2    1    0    0    0  0.12399369290E+02 -0.25819238298E+01  0.26085351657E+02  0.96002478373E+02  0.91518411225E+02 0.  0.
         11    1    3    3    0    0  0.44935966595E+02 -0.26343736077E+02  0.15485136635E+02  0.54341724128E+02  0.51100000000E-03 0.  1.
         22    1    1    0    0    0 -0.12399369290E+02  0.25819238298E+01 -0.26085351657E+02  0.28997521627E+02  0.00000000000E+00 0. -1.
</event>
<event>
 5    1  0.8778268E-005  0.9118800E+02  0.7818608E-02  0.1130116E+00
         25   -1    0    0    0    0  0.00000000000E+00  0.00000000000E+00  0.99999998245E-14  0.12500000000E+03  0.12500000000E+03 0.  0.
        -11    1    3    3    0    0 -0.26477976578E+02  0.15378192563E+02 -0.25205277728E+02  0.39659526923E+02  0.51100000000E-03 0.  1.
         23    2    1    0    0    0 -0.33958135338E+01  0.91782000436E+01  0.26570028133E+02  0.96685033982E+02  0.92445976092E+02 0.  0.
         11    1    3    3    0    0  0.23082163045E+02 -0.61999925196E+01  0.51775305861E+02  0.57025507059E+02  0.51100000000E-03 0. -1.
         22    1    1    0    0    0  0.33958135338E+01 -0.91782000436E+01 -0.26570028133E+02  0.28314966018E+02  0.00000000000E+00 0. -1.
</event>
<event>
 5    1  0.8778268E-005  0.9118800E+02  0.7818608E-02  0.1130116E+00
         25   -1    0    0    0    0  0.00000000000E+00  0.00000000000E+00  0.99999998245E-14  0.12500000000E+03  0.12500000000E+03 0.  0.
        -11    1    3    3    0    0 -0.17239724748E+02  0.28753442853E+02  0.10111209848E+02  0.35017212198E+02  0.51100000000E-03 0. -1.
         23    2    1    0    0    0  0.10692964554E+02 -0.22039146276E+02  0.19437104858E+02  0.93729174863E+02  0.88358891549E+02 0.  0.
         11    1    3    3    0    0  0.27932689302E+02 -0.50792589128E+02  0.93258950099E+01  0.58711962665E+02  0.51100000000E-03 0.  1.
         22    1    1    0    0    0 -0.10692964554E+02  0.22039146276E+02 -0.19437104858E+02  0.31270825137E+02  0.00000000000E+00 0.  1.
</event>
<event>
 5    1  0.8778268E-005  0.9118800E+02  0.7818608E-02  0.1130116E+00
         25   -1    0    0    0    0  0.00000000000E+00  0.00000000000E+00  0.99999998245E-14  0.12500000000E+03  0.12500000000E+03 0.  0.
        -11    1    3    3    0    0 -0.30672346656E+02 -0.24553416215E+02  0.24070297334E+01  0.39363141257E+02  0.51100000000E-03 0.  1.
         23    2    1    0    0    0  0.11933715912E+02  0.56860128234E+00  0.27639756398E+02  0.94888656346E+02  0.89984243546E+02 0.  0.
         11    1    3    3    0    0  0.42606062568E+02  0.25122017497E+02  0.25232726665E+02  0.55525515089E+02  0.51100000000E-03 0. -1.
         22    1    1    0    0    0 -0.11933715912E+02 -0.56860128234E+00 -0.27639756398E+02  0.30111343654E+02  0.00000000000E+00 0. -1.
</event>
<event>
 5    1  0.8778268E-005  0.9118800E+02  0.7818608E-02  0.1130116E+00
         25   -1    0    0    0    0  0.00000000000E+00  0.00000000000E+00  0.99999998245E-14  0.12500000000E+03  0.12500000000E+03 0.  0.
        -11    1    3    3    0    0  0.18973155712E+01 -0.49420027117E+02 -0.23825278248E+02  0.54896108883E+02  0.51100000000E-03 0.  1.
         23    2    1    0    0    0  0.80865091963E-01 -0.88820232690E+01 -0.27939246178E+02  0.95682797652E+02  0.91080730196E+02 0.  0.
         11    1    3    3    0    0 -0.18164504793E+01  0.40538003848E+02 -0.41139679293E+01  0.40786688769E+02  0.51100000000E-03 0. -1.
         22    1    1    0    0    0 -0.80865091963E-01  0.88820232690E+01  0.27939246178E+02  0.29317202348E+02  0.00000000000E+00 0. -1.
</event>
<event>
 5    1  0.8778268E-005  0.9118800E+02  0.7818608E-02  0.1130116E+00
         25   -1    0    0    0    0  0.00000000000E+00  0.00000000000E+00  0.99999998245E-14  0.12500000000E+03  0.12500000000E+03 0.  0.
        -11    1    3    3    0    0  0.34765964141E+02 -0.37830022938E+01  0.30396058821E+01  0.35103027977E+02  0.51100000000E-03 0.  1.
         23    2    1    0    0    0 -0.21436915287E+02  0.76748099186E+01  0.19762894157E+02  0.94850107301E+02  0.89930677887E+02 0.  0.
         11    1    3    3    0    0 -0.56202879428E+02  0.11457812212E+02  0.16723288275E+02  0.59747079323E+02  0.51100000000E-03 0. -1.
         22    1    1    0    0    0  0.21436915287E+02 -0.76748099186E+01 -0.19762894157E+02  0.30149892699E+02  0.00000000000E+00 0. -1.
</event>
<event>
 5    1  0.8778268E-005  0.9118800E+02  0.7818608E-02  0.1130116E+00
         25   -1    0    0    0    0  0.00000000000E+00  0.00000000000E+00  0.99999998245E-14  0.12500000000E+03  0.12500000000E+03 0.  0.
        -11    1    3    3    0    0  0.27786108051E+02  0.47235503655E+01  0.20098674325E+02  0.34616996382E+02  0.51100000000E-03 0. -1.
         23    2    1    0    0    0 -0.11746450662E+02  0.43308589602E+01 -0.26478818545E+02  0.95710696935E+02  0.91119011374E+02 0.  0.
         11    1    3    3    0    0 -0.39532558713E+02 -0.39269140526E+00 -0.46577492870E+02  0.61093700553E+02  0.51100000000E-03 0.  1.
         22    1    1    0    0    0  0.11746450662E+02 -0.43308589602E+01  0.26478818545E+02  0.29289303065E+02  0.00000000000E+00 0.  1.
</event>
<event>
 5    1  0.8778268E-005  0.9118800E+02  0.7818608E-02  0.1130116E+00
         25   -1    0    0    0    0  0.00000000000E+00  0.00000000000E+00  0.99999998245E-14  0.12500000000E+03  0.12500000000E+03 0.  0.
        -11    1    3    3    0    0 -0.40897961117E+02  0.22139285464E+02 -0.40333946143E+02  0.61559876511E+02  0.51100000000E-03 0.  1.
         23    2    1    0    0    0 -0.25315024812E+02  0.95844593027E+01 -0.14330340386E+02  0.94372055293E+02  0.89263731847E+02 0.  0.
         11    1    3    3    0    0  0.15582936304E+02 -0.12554826162E+02  0.26003605756E+02  0.32812178782E+02  0.51100000000E-03 0. -1.
         22    1    1    0    0    0  0.25315024812E+02 -0.95844593027E+01  0.14330340386E+02  0.30627944707E+02  0.00000000000E+00 0.  1.
</event>
<event>
 5    1  0.8778268E-005  0.9118800E+02  0.7818608E-02  0.1130116E+00
         25   -1    0    0    0    0  0.00000000000E+00  0.00000000000E+00  0.99999998245E-14  0.12500000000E+03  0.12500000000E+03 0.  0.
        -11    1    3    3    0    0  0.42863073720E+02  0.28000831430E+02 -0.28984156635E+02  0.58833417253E+02  0.51100000000E-03 0.  1.
         23    2    1    0    0    0  0.11231538821E+02  0.24681237571E+02 -0.88508021377E+01  0.96475490349E+02  0.92162208021E+02 0.  0.
         11    1    3    3    0    0 -0.31631534899E+02 -0.33195938596E+01  0.20133354497E+02  0.37642073097E+02  0.51100000000E-03 0. -1.
         22    1    1    0    0    0 -0.11231538821E+02 -0.24681237571E+02  0.88508021377E+01  0.28524509651E+02  0.00000000000E+00 0.  1.
</event>
<event>
 5    1  0.8778268E-005  0.9118800E+02  0.7818608E-02  0.1130116E+00
         25   -1    0    0    0    0  0.00000000000E+00  0.00000000000E+00  0.99999998245E-14  0.12500000000E+03  0.12500000000E+03 0.  0.
        -11    1    3    3    0    0  0.43133052288E+02 -0.27502932329E+02  0.34184947325E+02  0.61526271708E+02  0.51100000000E-03 0.  1.
         23    2    1    0    0    0  0.24201888620E+02 -0.62027007601E+01  0.15827343310E+02  0.95424508360E+02  0.90725559188E+02 0.  0.
         11    1    3    3    0    0 -0.18931163668E+02  0.21300231569E+02 -0.18357604015E+02  0.33898236653E+02  0.51100000000E-03 0. -1.
         22    1    1    0    0    0 -0.24201888620E+02  0.62027007601E+01 -0.15827343310E+02  0.29575491640E+02  0.00000000000E+00 0.  1.
</event>
<event>
 5    1  0.8778268E-005  0.9118800E+02  0.7818608E-02  0.1130116E+00
         25   -1    0    0    0    0  0.00000000000E+00  0.00000000000E+00  0.99999998245E-14  0.12500000000E+03  0.12500000000E+03 0.  0.
        -11    1    3    3    0    0 -0.13300970158E+01 -0.16692024179E+02  0.43861544473E+02  0.46949205671E+02  0.51100000000E-03 0. -1.
         23    2    1    0    0    0 -0.22741434400E+02  0.12663465340E+02  0.85851527016E+01  0.97591223306E+02  0.93663257612E+02 0.  0.
         11    1    3    3    0    0 -0.21411337384E+02  0.29355489519E+02 -0.35276391772E+02  0.50642017635E+02  0.51100000000E-03 0.  1.
         22    1    1    0    0    0  0.22741434400E+02 -0.12663465340E+02 -0.85851527016E+01  0.27408776694E+02  0.00000000000E+00 0. -1.
</event>
<event>
 5    1  0.8778268E-005  0.9118800E+02  0.7818608E-02  0.1130116E+00
         25   -1    0    0    0    0  0.00000000000E+00  0.00000000000E+00  0.99999998245E-14  0.12500000000E+03  0.12500000000E+03 0.  0.
        -11    1    3    3    0    0 -0.19786524739E+02  0.15991981219E+02 -0.23416492258E+02  0.34577190957E+02  0.51100000000E-03 0. -1.
         23    2    1    0    0    0  0.27770062351E+01 -0.22206807037E+02  0.18764892508E+02  0.95794260269E+02  0.91233574233E+02 0.  0.
         11    1    3    3    0    0  0.22563530974E+02 -0.38198788256E+02  0.42181384765E+02  0.61217069312E+02  0.51100000000E-03 0.  1.
         22    1    1    0    0    0 -0.27770062351E+01  0.22206807037E+02 -0.18764892508E+02  0.29205739731E+02  0.00000000000E+00 0.  1.
</event>
<event>
 5    1  0.8778268E-005  0.9118800E+02  0.7818608E-02  0.1130116E+00
         25   -1    0    0    0    0  0.00000000000E+00  0.00000000000E+00  0.99999998245E-14  0.12500000000E+03  0.12500000000E+03 0.  0.
        -11    1    3    3    0    0 -0.27062082216E+02  0.35982520282E+01 -0.24152964900E+02  0.36450918030E+02  0.51100000000E-03 0.  1.
         23    2    1    0    0    0  0.28301500581E+02 -0.20800975830E+01 -0.15159280527E+02  0.92826944081E+02  0.87073164754E+02 0.  0.
         11    1    3    3    0    0  0.55363582797E+02 -0.56783496112E+01  0.89936843730E+01  0.56376026051E+02  0.51100000000E-03 0. -1.
         22    1    1    0    0    0 -0.28301500581E+02  0.20800975830E+01  0.15159280527E+02  0.32173055919E+02  0.00000000000E+00 0. -1.
</event>
<event>
 5    1  0.8778268E-005  0.9118800E+02  0.7818608E-02  0.1130116E+00
         25   -1    0    0    0    0  0.00000000000E+00  0.00000000000E+00  0.99999998245E-14  0.12500000000E+03  0.12500000000E+03 0.  0.
        -11    1    3    3    0    0  0.33998802792E+02 -0.40021669117E+01  0.29682466362E+02  0.45309874651E+02  0.51100000000E-03 0.  1.
         23    2    1    0    0    0 -0.16363643644E+02 -0.74467331542E+01  0.22344849679E+02  0.96320478122E+02  0.91951723913E+02 0.  0.
         11    1    3    3    0    0 -0.50362446436E+02 -0.34445662426E+01 -0.73376166829E+01  0.51010603471E+02  0.51100000000E-03 0. -1.
         22    1    1    0    0    0  0.16363643644E+02  0.74467331542E+01 -0.22344849679E+02  0.28679521878E+02  0.00000000000E+00 0. -1.
</event>
<event>
 5    1  0.8778268E-005  0.9118800E+02  0.7818608E-02  0.1130116E+00
         25   -1    0    0    0    0  0.00000000000E+00  0.00000000000E+00  0.99999998245E-14  0.12500000000E+03  0.12500000000E+03 0.  0.
        -11    1    3    3    0    0  0.26219692593E+02 -0.62189099214E+00  0.15867056567E+02  0.30653262672E+02  0.51100000000E-03 0. -1.
         23    2    1    0    0    0 -0.25046720698E+02  0.25254969181E+02  0.66308109592E+01  0.88818245758E+02  0.81114495865E+02 0.  0.
         11    1    3    3    0    0 -0.51266413291E+02  0.25876860173E+02 -0.92362456080E+01  0.58164983086E+02  0.51100000000E-03 0.  1.
         22    1    1    0    0    0  0.25046720698E+02 -0.25254969181E+02 -0.66308109592E+01  0.36181754242E+02  0.00000000000E+00 0.  1.
</event>
<event>
 5    1  0.8778268E-005  0.9118800E+02  0.7818608E-02  0.1130116E+00
         25   -1    0    0    0    0  0.00000000000E+00  0.00000000000E+00  0.99999998245E-14  0.12500000000E+03  0.12500000000E+03 0.  0.
        -11    1    3    3    0    0  0.25003925330E+02 -0.40069281896E+02  0.34068907566E+02  0.58236020611E+02  0.51100000000E-03 0. -1.
         23    2    1    0    0    0  0.99138076574E+01 -0.27888266516E+02  0.24858503896E+01  0.95297837727E+02  0.90550866543E+02 0.  0.
         11    1    3    3    0    0 -0.15090117673E+02  0.12181015380E+02 -0.31583057177E+02  0.37061817116E+02  0.51100000000E-03 0.  1.
         22    1    1    0    0    0 -0.99138076574E+01  0.27888266516E+02 -0.24858503896E+01  0.29702162273E+02  0.00000000000E+00 0. -1.
</event>
<event>
 5    1  0.8778268E-005  0.9118800E+02  0.7818608E-02  0.1130116E+00
         25   -1    0    0    0    0  0.00000000000E+00  0.00000000000E+00  0.99999998245E-14  0.12500000000E+03  0.12500000000E+03 0.  0.
        -11    1    3    3    0    0  0.41449369053E+02 -0.28190504065E+02 -0.36040632421E+02  0.61738820040E+02  0.51100000000E-03 0.  1.
         23    2    1    0    0    0  0.14413844833E+02 -0.16154378643E+02 -0.20586921682E+02  0.95124521484E+02  0.90311297029E+02 0.  0.
         11    1    3    3    0    0 -0.27035524220E+02  0.12036125423E+02  0.15453710739E+02  0.33385701444E+02  0.51100000000E-03 0. -1.
         22    1    1    0    0    0 -0.14413844833E+02  0.16154378643E+02  0.20586921682E+02  0.29875478516E+02  0.00000000000E+00 0.  1.
</event>
<event>
 5    1  0.8778268E-005  0.9118800E+02  0.7818608E-02  0.1130116E+00
         25   -1    0    0    0    0  0.00000000000E+00  0.00000000000E+00  0.99999998245E-14  0.12500000000E+03  0.12500000000E+03 0.  0.
        -11    1    3    3    0    0  0.31089388218E+02  0.43968103633E+02  0.24326204659E+02  0.59088987386E+02  0.51100000000E-03 0.  1.
         23    2    1    0    0    0  0.14119090706E+02  0.25736696614E+02 -0.23072904505E+01  0.95554289546E+02  0.90904193448E+02 0.  0.
         11    1    3    3    0    0 -0.16970297512E+02 -0.18231407020E+02 -0.26633495110E+02  0.36465302160E+02  0.51100000000E-03 0. -1.
         22    1    1    0    0    0 -0.14119090706E+02 -0.25736696614E+02  0.23072904505E+01  0.29445710454E+02  0.00000000000E+00 0.  1.
</event>
<event>
 5    1  0.8778268E-005  0.9118800E+02  0.7818608E-02  0.1130116E+00
         25   -1    0    0    0    0  0.00000000000E+00  0.00000000000E+00  0.99999998245E-14  0.12500000000E+03  0.12500000000E+03 0.  0.
        -11    1    3    3    0    0 -0.28574361452E+02  0.18207365878E+02 -0.44879909906E+02  0.56233518635E+02  0.51100000000E-03 0.  1.
         23    2    1    0    0    0 -0.13003555159E+01 -0.50283702033E+01 -0.29196025131E+02  0.95345602100E+02  0.90616778386E+02 0.  0.
         11    1    3    3    0    0  0.27274005936E+02 -0.23235736082E+02  0.15683884776E+02  0.39112083465E+02  0.51100000000E-03 0. -1.
         22    1    1    0    0    0  0.13003555159E+01  0.50283702033E+01  0.29196025131E+02  0.29654397900E+02  0.00000000000E+00 0.  1.
</event>
<event>
 5    1  0.8778268E-005  0.9118800E+02  0.7818608E-02  0.1130116E+00
         25   -1    0    0    0    0  0.00000000000E+00  0.00000000000E+00  0.99999998245E-14  0.12500000000E+03  0.12500000000E+03 0.  0.
        -11    1    3    3    0    0 -0.83909039697E+01  0.12981857342E+02  0.58356777490E+01  0.16522440030E+02  0.51100000000E-03 0. -1.
         23    2    1    0    0    0  0.19340164283E+01 -0.40613397280E+02 -0.23035410843E+02  0.78268654942E+02  0.62786652527E+02 0.  0.
         11    1    3    3    0    0  0.10324920398E+02 -0.53595254623E+02 -0.28871088592E+02  0.61746214913E+02  0.51100000000E-03 0.  1.
         22    1    1    0    0    0 -0.19340164283E+01  0.40613397280E+02  0.23035410843E+02  0.46731345058E+02  0.00000000000E+00 0.  1.
</event>
<event>
 5    1  0.8778268E-005  0.9118800E+02  0.7818608E-02  0.1130116E+00
         25   -1    0    0    0    0  0.00000000000E+00  0.00000000000E+00  0.99999998245E-14  0.12500000000E+03  0.12500000000E+03 0.  0.
        -11    1    3    3    0    0  0.71508717059E+01 -0.24298426977E+02 -0.21780231698E+02  0.33405493752E+02  0.51100000000E-03 0.  1.
         23    2    1    0    0    0 -0.18752499601E+02 -0.96900088029E+00  0.26232792066E+02  0.92739271807E+02  0.86947213594E+02 0.  0.
         11    1    3    3    0    0 -0.25903371307E+02  0.23329426097E+02  0.48013023764E+02  0.59333778055E+02  0.51100000000E-03 0. -1.
         22    1    1    0    0    0  0.18752499601E+02  0.96900088029E+00 -0.26232792066E+02  0.32260728193E+02  0.00000000000E+00 0. -1.
</event>
<event>
 5    1  0.8778268E-005  0.9118800E+02  0.7818608E-02  0.1130116E+00
         25   -1    0    0    0    0  0.00000000000E+00  0.00000000000E+00  0.99999998245E-14  0.12500000000E+03  0.12500000000E+03 0.  0.
        -11    1    3    3    0    0  0.44904961195E+02  0.89265202727E+01 -0.34884607271E+02  0.57559309662E+02  0.51100000000E-03 0. -1.
         23    2    1    0    0    0  0.21654912309E+02  0.20597718477E+02 -0.10202279514E+02  0.93420137099E+02  0.87920613480E+02 0.  0.
         11    1    3    3    0    0 -0.23250048885E+02  0.11671198204E+02  0.24682327757E+02  0.35860827437E+02  0.51100000000E-03 0.  1.
         22    1    1    0    0    0 -0.21654912309E+02 -0.20597718477E+02  0.10202279514E+02  0.31579862901E+02  0.00000000000E+00 0. -1.
</event>
<event>
 5    1  0.8778268E-005  0.9118800E+02  0.7818608E-02  0.1130116E+00
         25   -1    0    0    0    0  0.00000000000E+00  0.00000000000E+00  0.99999998245E-14  0.12500000000E+03  0.12500000000E+03 0.  0.
        -11    1    3    3    0    0 -0.11564024516E+02  0.39475378323E+02 -0.11338873396E+02  0.42668515406E+02  0.51100000000E-03 0. -1.
         23    2    1    0    0    0  0.13250274380E+02 -0.14535292585E+01 -0.28517028934E+02  0.93521380944E+02  0.88064437976E+02 0.  0.
         11    1    3    3    0    0  0.24814298896E+02 -0.40928907582E+02 -0.17178155538E+02  0.50852865539E+02  0.51100000000E-03 0.  1.
         22    1    1    0    0    0 -0.13250274380E+02  0.14535292585E+01  0.28517028934E+02  0.31478619056E+02  0.00000000000E+00 0.  1.
</event>
<event>
 5    1  0.8778268E-005  0.9118800E+02  0.7818608E-02  0.1130116E+00
         25   -1    0    0    0    0  0.00000000000E+00  0.00000000000E+00  0.99999998245E-14  0.12500000000E+03  0.12500000000E+03 0.  0.
        -11    1    3    3    0    0 -0.36331669183E+02  0.46349736284E+02 -0.82741480491E+01  0.59470578990E+02  0.51100000000E-03 0. -1.
         23    2    1    0    0    0 -0.20293376644E+02  0.18893081146E+02  0.92419477385E+01  0.95773586453E+02  0.91205244440E+02 0.  0.
         11    1    3    3    0    0  0.16038292539E+02 -0.27456655138E+02  0.17516095788E+02  0.36303007463E+02  0.51100000000E-03 0.  1.
         22    1    1    0    0    0  0.20293376644E+02 -0.18893081146E+02 -0.92419477385E+01  0.29226413547E+02  0.00000000000E+00 0. -1.
</event>
<event>
 5    1  0.8778268E-005  0.9118800E+02  0.7818608E-02  0.1130116E+00
         25   -1    0    0    0    0  0.00000000000E+00  0.00000000000E+00  0.99999998245E-14  0.12500000000E+03  0.12500000000E+03 0.  0.
        -11    1    3    3    0    0 -0.26773937325E+02  0.55196978156E+02 -0.10778413946E+02  0.62287433122E+02  0.51100000000E-03 0.  1.
         23    2    1    0    0    0 -0.11322382516E+02  0.25529168875E+02 -0.84660373834E+01  0.95817666333E+02  0.91265637472E+02 0.  0.
         11    1    3    3    0    0  0.15451554809E+02 -0.29667809281E+02  0.23123765626E+01  0.33530233211E+02  0.51100000000E-03 0. -1.
         22    1    1    0    0    0  0.11322382516E+02 -0.25529168875E+02  0.84660373834E+01  0.29182333667E+02  0.00000000000E+00 0.  1.
</event>
<event>
 5    1  0.8778268E-005  0.9118800E+02  0.7818608E-02  0.1130116E+00
         25   -1    0    0    0    0  0.00000000000E+00  0.00000000000E+00  0.99999998245E-14  0.12500000000E+03  0.12500000000E+03 0.  0.
        -11    1    3    3    0    0  0.39123170826E+02  0.15552244547E+02  0.65926364909E+01  0.42614054748E+02  0.51100000000E-03 0.  1.
         23    2    1    0    0    0 -0.18858630842E+02 -0.81430991683E+00  0.11223448580E+02  0.10303919728E+03  0.10067174043E+03 0.  0.
         11    1    3    3    0    0 -0.57981801668E+02 -0.16366554464E+02  0.46308120889E+01  0.60425142536E+02  0.51100000000E-03 0. -1.
         22    1    1    0    0    0  0.18858630842E+02  0.81430991683E+00 -0.11223448580E+02  0.21960802715E+02  0.00000000000E+00 0. -1.
</event>
<event>
 5    1  0.8778268E-005  0.9118800E+02  0.7818608E-02  0.1130116E+00
         25   -1    0    0    0    0  0.00000000000E+00  0.00000000000E+00  0.99999998245E-14  0.12500000000E+03  0.12500000000E+03 0.  0.
        -11    1    3    3    0    0 -0.34653710999E+02  0.14604761618E+02 -0.38488562553E+02  0.53810298229E+02  0.51100000000E-03 0.  1.
         23    2    1    0    0    0 -0.71772049354E+01  0.27360677133E+02 -0.26010223499E+02  0.86572787633E+02  0.77577038537E+02 0.  0.
         11    1    3    3    0    0  0.27476506064E+02  0.12755915515E+02  0.12478339054E+02  0.32762489403E+02  0.51100000000E-03 0. -1.
         22    1    1    0    0    0  0.71772049354E+01 -0.27360677133E+02  0.26010223499E+02  0.38427212367E+02  0.00000000000E+00 0.  1.
</event>
<event>
 5    1  0.8778268E-005  0.9118800E+02  0.7818608E-02  0.1130116E+00
         25   -1    0    0    0    0  0.00000000000E+00  0.00000000000E+00  0.99999998245E-14  0.12500000000E+03  0.12500000000E+03 0.  0.
        -11    1    3    3    0    0  0.32532209065E+02  0.12123017960E+02 -0.41433032851E+02  0.54055604729E+02  0.51100000000E-03 0.  1.
         23    2    1    0    0    0  0.71814229517E+01  0.25051180255E+02 -0.84810369097E+01  0.97594481307E+02  0.93667605535E+02 0.  0.
         11    1    3    3    0    0 -0.25350786113E+02  0.12928162295E+02  0.32951995941E+02  0.43538876578E+02  0.51100000000E-03 0. -1.
         22    1    1    0    0    0 -0.71814229517E+01 -0.25051180255E+02  0.84810369097E+01  0.27405518693E+02  0.00000000000E+00 0.  1.
</event>
<event>
 5    1  0.8778268E-005  0.9118800E+02  0.7818608E-02  0.1130116E+00
         25   -1    0    0    0    0  0.00000000000E+00  0.00000000000E+00  0.99999998245E-14  0.12500000000E+03  0.12500000000E+03 0.  0.
        -11    1    3    3    0    0 -0.72799192105E-01 -0.35194776776E+02  0.15844071827E+02  0.38596790338E+02  0.51100000000E-03 0. -1.
         23    2    1    0    0    0  0.19948558085E+02  0.18572193275E+02  0.16822443807E+01  0.97692468459E+02  0.93798278847E+02 0.  0.
         11    1    3    3    0    0  0.20021357277E+02  0.53766970051E+02 -0.14161827447E+02  0.59095678121E+02  0.51100000000E-03 0.  1.
         22    1    1    0    0    0 -0.19948558085E+02 -0.18572193275E+02 -0.16822443807E+01  0.27307531541E+02  0.00000000000E+00 0.  1.
</event>
<event>
 5    1  0.8778268E-005  0.9118800E+02  0.7818608E-02  0.1130116E+00
         25   -1    0    0    0    0  0.00000000000E+00  0.00000000000E+00  0.99999998245E-14  0.12500000000E+03  0.12500000000E+03 0.  0.
        -11    1    3    3    0    0  0.43174504428E+02 -0.33354772277E+02  0.16016670024E+02  0.56860464166E+02  0.51100000000E-03 0.  1.
         23    2    1    0    0    0  0.11518382975E+02 -0.30216008878E+02  0.16545033318E+02  0.88676199725E+02  0.80895302282E+02 0.  0.
         11    1    3    3    0    0 -0.31656121454E+02  0.31387633983E+01  0.52836329388E+00  0.31815735559E+02  0.51100000000E-03 0. -1.
         22    1    1    0    0    0 -0.11518382975E+02  0.30216008878E+02 -0.16545033318E+02  0.36323800275E+02  0.00000000000E+00 0.  1.
</event>
<event>
 5    1  0.8778268E-005  0.9118800E+02  0.7818608E-02  0.1130116E+00
         25   -1    0    0    0    0  0.00000000000E+00  0.00000000000E+00  0.99999998245E-14  0.12500000000E+03  0.12500000000E+03 0.  0.
        -11    1    3    3    0    0  0.32433896636E+02  0.17770895505E+02 -0.13782817792E+02  0.39468068671E+02  0.51100000000E-03 0. -1.
         23    2    1    0    0    0 -0.23547518792E+02  0.14157919746E+02 -0.10240394965E+02  0.95677687304E+02  0.91073716439E+02 0.  0.
         11    1    3    3    0    0 -0.55981415428E+02 -0.36129757588E+01  0.35424228272E+01  0.56209618633E+02  0.51100000000E-03 0.  1.
         22    1    1    0    0    0  0.23547518792E+02 -0.14157919746E+02  0.10240394965E+02  0.29322312696E+02  0.00000000000E+00 0.  1.
</event>
<event>
 5    1  0.8778268E-005  0.9118800E+02  0.7818608E-02  0.1130116E+00
         25   -1    0    0    0    0  0.00000000000E+00  0.00000000000E+00  0.99999998245E-14  0.12500000000E+03  0.12500000000E+03 0.  0.
        -11    1    3    3    0    0 -0.39021094544E+02  0.18865724198E+02  0.12217401026E+02  0.45031391906E+02  0.51100000000E-03 0. -1.
         23    2    1    0    0    0 -0.16545939278E+02 -0.12924049087E+02 -0.20328859647E+02  0.95775666202E+02  0.91208094764E+02 0.  0.
         11    1    3    3    0    0  0.22475155266E+02 -0.31789773285E+02 -0.32546260673E+02  0.50744274296E+02  0.51100000000E-03 0.  1.
         22    1    1    0    0    0  0.16545939278E+02  0.12924049087E+02  0.20328859647E+02  0.29224333798E+02  0.00000000000E+00 0. -1.
</event>
<event>
 5    1  0.8778268E-005  0.9118800E+02  0.7818608E-02  0.1130116E+00
         25   -1    0    0    0    0  0.00000000000E+00  0.00000000000E+00  0.99999998245E-14  0.12500000000E+03  0.12500000000E+03 0.  0.
        -11    1    3    3    0    0  0.25184332413E+02  0.48426975299E+02  0.15621042902E+02  0.56775342512E+02  0.51100000000E-03 0. -1.
         23    2    1    0    0    0  0.79287773293E+01  0.23631990565E+02 -0.11661736370E+02  0.97480323709E+02  0.93515137422E+02 0.  0.
         11    1    3    3    0    0 -0.17255555084E+02 -0.24794984734E+02 -0.27282779272E+02  0.40704981197E+02  0.51100000000E-03 0.  1.
         22    1    1    0    0    0 -0.79287773293E+01 -0.23631990565E+02  0.11661736370E+02  0.27519676291E+02  0.00000000000E+00 0. -1.
</event>
<event>
 5    1  0.8778268E-005  0.9118800E+02  0.7818608E-02  0.1130116E+00
         25   -1    0    0    0    0  0.00000000000E+00  0.00000000000E+00  0.99999998245E-14  0.12500000000E+03  0.12500000000E+03 0.  0.
        -11    1    3    3    0    0  0.10256296362E+02 -0.28342329682E+02  0.14693062521E+02  0.33531557574E+02  0.51100000000E-03 0.  1.
         23    2    1    0    0    0  0.61357339273E+00  0.29057601264E+02 -0.60338935923E+01  0.95316190686E+02  0.90576198151E+02 0.  0.
         11    1    3    3    0    0 -0.96427229689E+01  0.57399930945E+02 -0.20726956113E+02  0.61784633112E+02  0.51100000000E-03 0. -1.
         22    1    1    0    0    0 -0.61357339273E+00 -0.29057601264E+02  0.60338935923E+01  0.29683809314E+02  0.00000000000E+00 0. -1.
</event>
<event>
 5    1  0.8778268E-005  0.9118800E+02  0.7818608E-02  0.1130116E+00
         25   -1    0    0    0    0  0.00000000000E+00  0.00000000000E+00  0.99999998245E-14  0.12500000000E+03  0.12500000000E+03 0.  0.
        -11    1    3    3    0    0  0.15767852826E+02  0.20022789680E+02  0.36228146541E+01  0.25742223594E+02  0.51100000000E-03 0. -1.
         23    2    1    0    0    0 -0.24896083745E+02 -0.25247358202E+02 -0.10119758194E+02  0.88126519178E+02  0.80041425490E+02 0.  0.
         11    1    3    3    0    0 -0.40663936571E+02 -0.45270147882E+02 -0.13742572849E+02  0.62384295584E+02  0.51100000000E-03 0.  1.
         22    1    1    0    0    0  0.24896083745E+02  0.25247358202E+02  0.10119758194E+02  0.36873480822E+02  0.00000000000E+00 0.  1.
</event>
<event>
 5    1  0.8778268E-005  0.9118800E+02  0.7818608E-02  0.1130116E+00
         25   -1    0    0    0    0  0.00000000000E+00  0.00000000000E+00  0.99999998245E-14  0.12500000000E+03  0.12500000000E+03 0.  0.
        -11    1    3    3    0    0 -0.18896187901E+02  0.10038594936E+02  0.26914979353E+02  0.34383941300E+02  0.51100000000E-03 0. -1.
         23    2    1    0    0    0  0.44780068843E+01 -0.44833080687E+00 -0.28875784925E+02  0.95775618035E+02  0.91208028752E+02 0.  0.
         11    1    3    3    0    0  0.23374194786E+02 -0.10486925743E+02 -0.55790764278E+02  0.61391676735E+02  0.51100000000E-03 0.  1.
         22    1    1    0    0    0 -0.44780068843E+01  0.44833080687E+00  0.28875784925E+02  0.29224381965E+02  0.00000000000E+00 0.  1.
</event>
<event>
 5    1  0.8778268E-005  0.9118800E+02  0.7818608E-02  0.1130116E+00
         25   -1    0    0    0    0  0.00000000000E+00  0.00000000000E+00  0.99999998245E-14  0.12500000000E+03  0.12500000000E+03 0.  0.
        -11    1    3    3    0    0  0.49944545174E+02 -0.30484539070E+02  0.14499439605E+02  0.60282654753E+02  0.51100000000E-03 0. -1.
         23    2    1    0    0    0  0.28452479216E+02 -0.12412284469E+02 -0.36896269174E+01  0.93739454163E+02  0.88373432324E+02 0.  0.
         11    1    3    3    0    0 -0.21492065958E+02  0.18072254601E+02 -0.18189066523E+02  0.33456799410E+02  0.51100000000E-03 0.  1.
         22    1    1    0    0    0 -0.28452479216E+02  0.12412284469E+02  0.36896269174E+01  0.31260545837E+02  0.00000000000E+00 0. -1.
</event>
<event>
 5    1  0.8778268E-005  0.9118800E+02  0.7818608E-02  0.1130116E+00
         25   -1    0    0    0    0  0.00000000000E+00  0.00000000000E+00  0.99999998245E-14  0.12500000000E+03  0.12500000000E+03 0.  0.
        -11    1    3    3    0    0  0.13536814869E+02 -0.58981581148E+02 -0.11110623519E+02  0.61526565212E+02  0.51100000000E-03 0.  1.
         23    2    1    0    0    0  0.13262562883E+02 -0.24260088463E+02 -0.68989209620E+01  0.96503639234E+02  0.92200378571E+02 0.  0.
         11    1    3    3    0    0 -0.27425198659E+00  0.34721492685E+02  0.42117025571E+01  0.34977074022E+02  0.51100000000E-03 0. -1.
         22    1    1    0    0    0 -0.13262562883E+02  0.24260088463E+02  0.68989209620E+01  0.28496360766E+02  0.00000000000E+00 0.  1.
</event>
<event>
 5    1  0.8778268E-005  0.9118800E+02  0.7818608E-02  0.1130116E+00
         25   -1    0    0    0    0  0.00000000000E+00  0.00000000000E+00  0.99999998245E-14  0.12500000000E+03  0.12500000000E+03 0.  0.
        -11    1    3    3    0    0 -0.48615332678E+02 -0.20622159684E+02 -0.30092175826E+01  0.52894039665E+02  0.51100000000E-03 0. -1.
         23    2    1    0    0    0 -0.25088180197E+02  0.14685056295E+02  0.31225311271E+01  0.95762731581E+02  0.91190366241E+02 0.  0.
         11    1    3    3    0    0  0.23527152481E+02  0.35307215979E+02  0.61317487097E+01  0.42868691915E+02  0.51100000000E-03 0.  1.
         22    1    1    0    0    0  0.25088180197E+02 -0.14685056295E+02 -0.31225311271E+01  0.29237268419E+02  0.00000000000E+00 0. -1.
</event>
<event>
 5    1  0.8778268E-005  0.9118800E+02  0.7818608E-02  0.1130116E+00
         25   -1    0    0    0    0  0.00000000000E+00  0.00000000000E+00  0.99999998245E-14  0.12500000000E+03  0.12500000000E+03 0.  0.
        -11    1    3    3    0    0 -0.12506355052E+01 -0.21707338357E+02  0.34995870587E+02  0.41200528955E+02  0.51100000000E-03 0.  1.
         23    2    1    0    0    0 -0.18786085451E+02 -0.15426761357E+02 -0.16272573121E+02  0.95747673452E+02  0.91169722841E+02 0.  0.
         11    1    3    3    0    0 -0.17535449945E+02  0.62805770002E+01 -0.51268443708E+02  0.54547144497E+02  0.51100000000E-03 0. -1.
         22    1    1    0    0    0  0.18786085451E+02  0.15426761357E+02  0.16272573121E+02  0.29252326548E+02  0.00000000000E+00 0. -1.
</event>
<event>
 5    1  0.8778268E-005  0.9118800E+02  0.7818608E-02  0.1130116E+00
         25   -1    0    0    0    0  0.00000000000E+00  0.00000000000E+00  0.99999998245E-14  0.12500000000E+03  0.12500000000E+03 0.  0.
        -11    1    3    3    0    0 -0.92593154211E+01  0.20489926884E+02  0.22179801774E+02  0.31583470879E+02  0.51100000000E-03 0. -1.
         23    2    1    0    0    0 -0.54862663969E+01 -0.25427488867E+02 -0.18528117805E+02  0.93063383735E+02  0.87411932445E+02 0.  0.
         11    1    3    3    0    0  0.37730490242E+01 -0.45917415751E+02 -0.40707919578E+02  0.61479912856E+02  0.51100000000E-03 0.  1.
         22    1    1    0    0    0  0.54862663969E+01  0.25427488867E+02  0.18528117805E+02  0.31936616265E+02  0.00000000000E+00 0.  1.
</event>
<event>
 5    1  0.8778268E-005  0.9118800E+02  0.7818608E-02  0.1130116E+00
         25   -1    0    0    0    0  0.00000000000E+00  0.00000000000E+00  0.99999998245E-14  0.12500000000E+03  0.12500000000E+03 0.  0.
        -11    1    3    3    0    0 -0.95113908643E+01 -0.43478495783E+02  0.35307807230E+02  0.56810979602E+02  0.51100000000E-03 0.  1.
         23    2    1    0    0    0  0.64915623703E+01 -0.27284442647E+02  0.23665951589E+01  0.96854272701E+02  0.92674528190E+02 0.  0.
         11    1    3    3    0    0  0.16002953235E+02  0.16194053136E+02 -0.32941212071E+02  0.40043293098E+02  0.51100000000E-03 0. -1.
         22    1    1    0    0    0 -0.64915623703E+01  0.27284442647E+02 -0.23665951589E+01  0.28145727299E+02  0.00000000000E+00 0.  1.
</event>
<event>
 5    1  0.8778268E-005  0.9118800E+02  0.7818608E-02  0.1130116E+00
         25   -1    0    0    0    0  0.00000000000E+00  0.00000000000E+00  0.99999998245E-14  0.12500000000E+03  0.12500000000E+03 0.  0.
        -11    1    3    3    0    0  0.12321275087E+02 -0.40294630557E+02  0.13749707768E+02  0.44322968487E+02  0.51100000000E-03 0.  1.
         23    2    1    0    0    0 -0.15126746048E+02  0.17508189339E+01  0.24951346384E+02  0.95768963424E+02  0.91198908196E+02 0.  0.
         11    1    3    3    0    0 -0.27448021135E+02  0.42045449491E+02  0.11201638616E+02  0.51445994937E+02  0.51100000000E-03 0. -1.
         22    1    1    0    0    0  0.15126746048E+02 -0.17508189339E+01 -0.24951346384E+02  0.29231036576E+02  0.00000000000E+00 0. -1.
</event>
<event>
 5    1  0.8778268E-005  0.9118800E+02  0.7818608E-02  0.1130116E+00
         25   -1    0    0    0    0  0.00000000000E+00  0.00000000000E+00  0.99999998245E-14  0.12500000000E+03  0.12500000000E+03 0.  0.
        -11    1    3    3    0    0  0.15690841771E+02 -0.23287319214E+02  0.24066812364E+02  0.36982606849E+02  0.51100000000E-03 0. -1.
         23    2    1    0    0    0  0.14481251600E+02  0.19146990201E-01 -0.27686726000E+02  0.93754811393E+02  0.88395151723E+02 0.  0.
         11    1    3    3    0    0 -0.12095901706E+01  0.23306466205E+02 -0.51753538364E+02  0.56772204544E+02  0.51100000000E-03 0.  1.
         22    1    1    0    0    0 -0.14481251600E+02 -0.19146990201E-01  0.27686726000E+02  0.31245188607E+02  0.00000000000E+00 0.  1.
</event>
<event>
 5    1  0.8778268E-005  0.9118800E+02  0.7818608E-02  0.1130116E+00
         25   -1    0    0    0    0  0.00000000000E+00  0.00000000000E+00  0.99999998245E-14  0.12500000000E+03  0.12500000000E+03 0.  0.
        -11    1    3    3    0    0 -0.31764769206E+02 -0.73183378531E+01  0.15014274023E+02  0.35888536559E+02  0.51100000000E-03 0.  1.
         23    2    1    0    0    0  0.16886786244E+02  0.23190581029E+02 -0.32014109463E+01  0.96134525291E+02  0.91698589535E+02 0.  0.
         11    1    3    3    0    0  0.48651555451E+02  0.30508918882E+02 -0.18215684969E+02  0.60245988732E+02  0.51100000000E-03 0. -1.
         22    1    1    0    0    0 -0.16886786244E+02 -0.23190581029E+02  0.32014109463E+01  0.28865474709E+02  0.00000000000E+00 0. -1.
</event>
<event>
 5    1  0.8778268E-005  0.9118800E+02  0.7818608E-02  0.1130116E+00
         25   -1    0    0    0    0  0.00000000000E+00  0.00000000000E+00  0.99999998245E-14  0.12500000000E+03  0.12500000000E+03 0.  0.
        -11    1    3    3    0    0  0.34706498249E+02  0.21520788931E+02 -0.10700498857E+01  0.40851320467E+02  0.51100000000E-03 0. -1.
         23    2    1    0    0    0 -0.16220892320E+02  0.11252110089E+02 -0.20706487076E+02  0.96390806790E+02  0.92047279686E+02 0.  0.
         11    1    3    3    0    0 -0.50927390568E+02 -0.10268678842E+02 -0.19636437190E+02  0.55539486323E+02  0.51100000000E-03 0.  1.
         22    1    1    0    0    0  0.16220892320E+02 -0.11252110089E+02  0.20706487076E+02  0.28609193210E+02  0.00000000000E+00 0.  1.
</event>
<event>
 5    1  0.8778268E-005  0.9118800E+02  0.7818608E-02  0.1130116E+00
         25   -1    0    0    0    0  0.00000000000E+00  0.00000000000E+00  0.99999998245E-14  0.12500000000E+03  0.12500000000E+03 0.  0.
        -11    1    3    3    0    0  0.38688292600E+02  0.23667991700E+02 -0.35666484120E+02  0.57697971413E+02  0.51100000000E-03 0. -1.
         23    2    1    0    0    0  0.98573616555E+01  0.91229084677E+00 -0.28111638523E+02  0.95196240609E+02  0.90410509081E+02 0.  0.
         11    1    3    3    0    0 -0.28830930945E+02 -0.22755700853E+02  0.75548455979E+01  0.37498269196E+02  0.51100000000E-03 0.  1.
         22    1    1    0    0    0 -0.98573616555E+01 -0.91229084677E+00  0.28111638523E+02  0.29803759391E+02  0.00000000000E+00 0.  1.
</event>
<event>
 5    1  0.8778268E-005  0.9118800E+02  0.7818608E-02  0.1130116E+00
         25   -1    0    0    0    0  0.00000000000E+00  0.00000000000E+00  0.99999998245E-14  0.12500000000E+03  0.12500000000E+03 0.  0.
        -11    1    3    3    0    0 -0.10174623954E+02  0.30686831743E+02 -0.40749990637E+02  0.52016981383E+02  0.51100000000E-03 0.  1.
         23    2    1    0    0    0  0.14567318084E+02  0.32550970985E+02 -0.25786263846E+02  0.80992002189E+02  0.67992650685E+02 0.  0.
         11    1    3    3    0    0  0.24741942038E+02  0.18641392424E+01  0.14963726791E+02  0.28975020806E+02  0.51100000000E-03 0. -1.
         22    1    1    0    0    0 -0.14567318084E+02 -0.32550970985E+02  0.25786263846E+02  0.44007997811E+02  0.00000000000E+00 0.  1.
</event>
<event>
 5    1  0.8778268E-005  0.9118800E+02  0.7818608E-02  0.1130116E+00
         25   -1    0    0    0    0  0.00000000000E+00  0.00000000000E+00  0.99999998245E-14  0.12500000000E+03  0.12500000000E+03 0.  0.
        -11    1    3    3    0    0  0.26956254442E+02 -0.36008477275E+02 -0.22470000622E+02  0.50280722125E+02  0.51100000000E-03 0.  1.
         23    2    1    0    0    0  0.30506047180E+01  0.90569723342E+00 -0.29941658656E+02  0.94889712726E+02  0.89985710985E+02 0.  0.
         11    1    3    3    0    0 -0.23905649724E+02  0.36914174509E+02 -0.74716580348E+01  0.44608990601E+02  0.51100000000E-03 0. -1.
         22    1    1    0    0    0 -0.30506047180E+01 -0.90569723342E+00  0.29941658656E+02  0.30110287274E+02  0.00000000000E+00 0.  1.
</event>
<event>
 5    1  0.8778268E-005  0.9118800E+02  0.7818608E-02  0.1130116E+00
         25   -1    0    0    0    0  0.00000000000E+00  0.00000000000E+00  0.99999998245E-14  0.12500000000E+03  0.12500000000E+03 0.  0.
        -11    1    3    3    0    0  0.14688222739E+01  0.55801690763E+01  0.51636969562E+02  0.51958371333E+02  0.51100000000E-03 0. -1.
         23    2    1    0    0    0  0.16190718836E+02  0.19908760491E+02  0.11852753482E+02  0.96733661613E+02  0.92511704142E+02 0.  0.
         11    1    3    3    0    0  0.14721896562E+02  0.14328591414E+02 -0.39784216080E+02  0.44775290280E+02  0.51100000000E-03 0.  1.
         22    1    1    0    0    0 -0.16190718836E+02 -0.19908760491E+02 -0.11852753482E+02  0.28266338387E+02  0.00000000000E+00 0. -1.
</event>
<event>
 5    1  0.8778268E-005  0.9118800E+02  0.7818608E-02  0.1130116E+00
         25   -1    0    0    0    0  0.00000000000E+00  0.00000000000E+00  0.99999998245E-14  0.12500000000E+03  0.12500000000E+03 0.  0.
        -11    1    3    3    0    0 -0.28463466535E+02  0.33826123741E+02  0.13382489122E+02  0.46189464058E+02  0.51100000000E-03 0.  1.
         23    2    1    0    0    0 -0.35725373922E+01 -0.76881194426E+01  0.27185359793E+02  0.96523448400E+02  0.92227230794E+02 0.  0.
         11    1    3    3    0    0  0.24890929143E+02 -0.41514243184E+02  0.13802870671E+02  0.50333984342E+02  0.51100000000E-03 0. -1.
         22    1    1    0    0    0  0.35725373922E+01  0.76881194426E+01 -0.27185359793E+02  0.28476551600E+02  0.00000000000E+00 0. -1.
</event>
<event>
 5    1  0.8778268E-005  0.9118800E+02  0.7818608E-02  0.1130116E+00
         25   -1    0    0    0    0  0.00000000000E+00  0.00000000000E+00  0.99999998245E-14  0.12500000000E+03  0.12500000000E+03 0.  0.
        -11    1    3    3    0    0  0.49229360419E+02  0.27281891062E+02 -0.16166341123E+02  0.58559218683E+02  0.51100000000E-03 0.  1.
         23    2    1    0    0    0  0.21374045064E+02  0.13264931221E+02 -0.23480376475E+02  0.90588718680E+02  0.83798446704E+02 0.  0.
         11    1    3    3    0    0 -0.27855315355E+02 -0.14016959841E+02 -0.73140353516E+01  0.32029499997E+02  0.51100000000E-03 0. -1.
         22    1    1    0    0    0 -0.21374045064E+02 -0.13264931221E+02  0.23480376475E+02  0.34411281320E+02  0.00000000000E+00 0.  1.
</event>
<event>
 5    1  0.8778268E-005  0.9118800E+02  0.7818608E-02  0.1130116E+00
         25   -1    0    0    0    0  0.00000000000E+00  0.00000000000E+00  0.99999998245E-14  0.12500000000E+03  0.12500000000E+03 0.  0.
        -11    1    3    3    0    0  0.29465945277E+02 -0.17876237571E+02 -0.42701942503E+02  0.54874927741E+02  0.51100000000E-03 0. -1.
         23    2    1    0    0    0  0.84203127987E+01 -0.27002423030E+02 -0.96357940363E+01  0.95118884830E+02  0.90303494990E+02 0.  0.
         11    1    3    3    0    0 -0.21045632478E+02 -0.91261854592E+01  0.33066148467E+02  0.40243957089E+02  0.51100000000E-03 0.  1.
         22    1    1    0    0    0 -0.84203127987E+01  0.27002423030E+02  0.96357940363E+01  0.29881115170E+02  0.00000000000E+00 0. -1.
</event>
<event>
 5    1  0.8778268E-005  0.9118800E+02  0.7818608E-02  0.1130116E+00
         25   -1    0    0    0    0  0.00000000000E+00  0.00000000000E+00  0.99999998245E-14  0.12500000000E+03  0.12500000000E+03 0.  0.
        -11    1    3    3    0    0  0.50843621681E+02 -0.83277439236E+01 -0.28726350776E+02  0.58988375242E+02  0.51100000000E-03 0. -1.
         23    2    1    0    0    0  0.13780592861E+02 -0.92391642927E+01 -0.23208598842E+02  0.96470962921E+02  0.92156067246E+02 0.  0.
         11    1    3    3    0    0 -0.37063028820E+02 -0.91142036916E+00  0.55177519343E+01  0.37482587679E+02  0.51100000000E-03 0.  1.
         22    1    1    0    0    0 -0.13780592861E+02  0.92391642927E+01  0.23208598842E+02  0.28529037079E+02  0.00000000000E+00 0.  1.
</event>
<event>
 5    1  0.8778268E-005  0.9118800E+02  0.7818608E-02  0.1130116E+00
         25   -1    0    0    0    0  0.00000000000E+00  0.00000000000E+00  0.99999998245E-14  0.12500000000E+03  0.12500000000E+03 0.  0.
        -11    1    3    3    0    0  0.36586255449E+01 -0.33969946658E+02 -0.24424100978E+02  0.41998565757E+02  0.51100000000E-03 0.  1.
         23    2    1    0    0    0  0.21540437945E+02  0.15582583278E+02 -0.97272247146E+01  0.96690526866E+02  0.92453402947E+02 0.  0.
         11    1    3    3    0    0  0.17881812400E+02  0.49552529936E+02  0.14696876263E+02  0.54691961109E+02  0.51100000000E-03 0. -1.
         22    1    1    0    0    0 -0.21540437945E+02 -0.15582583278E+02  0.97272247146E+01  0.28309473134E+02  0.00000000000E+00 0.  1.
</event>
<event>
 5    1  0.8778268E-005  0.9118800E+02  0.7818608E-02  0.1130116E+00
         25   -1    0    0    0    0  0.00000000000E+00  0.00000000000E+00  0.99999998245E-14  0.12500000000E+03  0.12500000000E+03 0.  0.
        -11    1    3    3    0    0  0.26616029155E+02 -0.11328967769E+02 -0.27218510422E+02  0.39719086451E+02  0.51100000000E-03 0. -1.
         23    2    1    0    0    0 -0.24071116694E+02  0.96206557791E+01 -0.10174331825E+02  0.97152330356E+02  0.93075682050E+02 0.  0.
         11    1    3    3    0    0 -0.50687145849E+02  0.20949623548E+02  0.17044178597E+02  0.57433243905E+02  0.51100000000E-03 0.  1.
         22    1    1    0    0    0  0.24071116694E+02 -0.96206557791E+01  0.10174331825E+02  0.27847669644E+02  0.00000000000E+00 0.  1.
</event>
<event>
 5    1  0.8778268E-005  0.9118800E+02  0.7818608E-02  0.1130116E+00
         25   -1    0    0    0    0  0.00000000000E+00  0.00000000000E+00  0.99999998245E-14  0.12500000000E+03  0.12500000000E+03 0.  0.
        -11    1    3    3    0    0 -0.36168813855E+02 -0.14956070777E+02  0.34913847806E+02  0.52448488230E+02  0.51100000000E-03 0. -1.
         23    2    1    0    0    0 -0.25977330616E+02  0.14663012891E+02  0.71038964325E+01  0.94335835288E+02  0.89212996934E+02 0.  0.
         11    1    3    3    0    0  0.10191483239E+02  0.29619083668E+02 -0.27809951373E+02  0.41887347058E+02  0.51100000000E-03 0.  1.
         22    1    1    0    0    0  0.25977330616E+02 -0.14663012891E+02 -0.71038964325E+01  0.30664164712E+02  0.00000000000E+00 0. -1.
</event>
<event>
 5    1  0.8778268E-005  0.9118800E+02  0.7818608E-02  0.1130116E+00
         25   -1    0    0    0    0  0.00000000000E+00  0.00000000000E+00  0.99999998245E-14  0.12500000000E+03  0.12500000000E+03 0.  0.
        -11    1    3    3    0    0 -0.17621370550E+02  0.40387346334E+02 -0.46055047058E+01  0.44304188491E+02  0.51100000000E-03 0.  1.
         23    2    1    0    0    0  0.17743133588E+02  0.14887567248E+02  0.20027119214E+02  0.94380660489E+02  0.89275781275E+02 0.  0.
         11    1    3    3    0    0  0.35364504138E+02 -0.25499779086E+02  0.24632623920E+02  0.50076471998E+02  0.51100000000E-03 0. -1.
         22    1    1    0    0    0 -0.17743133588E+02 -0.14887567248E+02 -0.20027119214E+02  0.30619339511E+02  0.00000000000E+00 0. -1.
</event>
<event>
 5    1  0.8778268E-005  0.9118800E+02  0.7818608E-02  0.1130116E+00
         25   -1    0    0    0    0  0.00000000000E+00  0.00000000000E+00  0.99999998245E-14  0.12500000000E+03  0.12500000000E+03 0.  0.
        -11    1    3    3    0    0 -0.41761525035E+02 -0.92762875274E+01 -0.62944871864E+01  0.43239970545E+02  0.51100000000E-03 0. -1.
         23    2    1    0    0    0 -0.30489230589E+00  0.11548509646E+02 -0.28185723552E+02  0.94538613845E+02  0.89496667319E+02 0.  0.
         11    1    3    3    0    0  0.41456632729E+02  0.20824797174E+02 -0.21891236365E+02  0.51298643300E+02  0.51100000000E-03 0.  1.
         22    1    1    0    0    0  0.30489230589E+00 -0.11548509646E+02  0.28185723552E+02  0.30461386155E+02  0.00000000000E+00 0.  1.
</event>
<event>
 5    1  0.8778268E-005  0.9118800E+02  0.7818608E-02  0.1130116E+00
         25   -1    0    0    0    0  0.00000000000E+00  0.00000000000E+00  0.99999998245E-14  0.12500000000E+03  0.12500000000E+03 0.  0.
        -11    1    3    3    0    0 -0.27422340423E+02 -0.10569905387E+02 -0.27986459482E+02  0.40582626440E+02  0.51100000000E-03 0.  1.
         23    2    1    0    0    0 -0.22784970780E+02  0.29437168629E+02 -0.37527111864E+01  0.87586304224E+02  0.79193282898E+02 0.  0.
         11    1    3    3    0    0  0.46373696432E+01  0.40007074016E+02  0.24233748295E+02  0.47003677785E+02  0.51100000000E-03 0. -1.
         22    1    1    0    0    0  0.22784970780E+02 -0.29437168629E+02  0.37527111864E+01  0.37413695776E+02  0.00000000000E+00 0. -1.
</event>
<event>
 5    1  0.8778268E-005  0.9118800E+02  0.7818608E-02  0.1130116E+00
         25   -1    0    0    0    0  0.00000000000E+00  0.00000000000E+00  0.99999998245E-14  0.12500000000E+03  0.12500000000E+03 0.  0.
        -11    1    3    3    0    0 -0.19146005213E+02 -0.42934572913E+02  0.33030961401E+02  0.57454255527E+02  0.51100000000E-03 0.  1.
         23    2    1    0    0    0 -0.44974492795E+01 -0.31156733446E+02  0.23529890361E+01  0.93432522330E+02  0.87938220260E+02 0.  0.
         11    1    3    3    0    0  0.14648555934E+02  0.11777839467E+02 -0.30677972365E+02  0.35978266803E+02  0.51100000000E-03 0. -1.
         22    1    1    0    0    0  0.44974492795E+01  0.31156733446E+02 -0.23529890361E+01  0.31567477670E+02  0.00000000000E+00 0.  1.
</event>
<event>
 5    1  0.8778268E-005  0.9118800E+02  0.7818608E-02  0.1130116E+00
         25   -1    0    0    0    0  0.00000000000E+00  0.00000000000E+00  0.99999998245E-14  0.12500000000E+03  0.12500000000E+03 0.  0.
        -11    1    3    3    0    0  0.10312002151E+02  0.33240576834E+02  0.67073235881E+01  0.35443779801E+02  0.51100000000E-03 0. -1.
         23    2    1    0    0    0 -0.19506745149E+02 -0.15767885741E+02 -0.13806760947E+02  0.96368444421E+02  0.92016906627E+02 0.  0.
         11    1    3    3    0    0 -0.29818747300E+02 -0.49008462575E+02 -0.20514084535E+02  0.60924664620E+02  0.51100000000E-03 0.  1.
         22    1    1    0    0    0  0.19506745149E+02  0.15767885741E+02  0.13806760947E+02  0.28631555579E+02  0.00000000000E+00 0.  1.
</event>
<event>
 5    1  0.8778268E-005  0.9118800E+02  0.7818608E-02  0.1130116E+00
         25   -1    0    0    0    0  0.00000000000E+00  0.00000000000E+00  0.99999998245E-14  0.12500000000E+03  0.12500000000E+03 0.  0.
        -11    1    3    3    0    0 -0.14999602029E+02 -0.54763130992E+02 -0.10894151925E+02  0.57815837998E+02  0.51100000000E-03 0. -1.
         23    2    1    0    0    0 -0.17843686206E+02 -0.19247551455E+02 -0.16665820486E+02  0.93909568242E+02  0.88613723883E+02 0.  0.
         11    1    3    3    0    0 -0.28440841766E+01  0.35515579537E+02 -0.57716685616E+01  0.36093730243E+02  0.51100000000E-03 0.  1.
         22    1    1    0    0    0  0.17843686206E+02  0.19247551455E+02  0.16665820486E+02  0.31090431758E+02  0.00000000000E+00 0. -1.
</event>
<event>
 5    1  0.8778268E-005  0.9118800E+02  0.7818608E-02  0.1130116E+00
         25   -1    0    0    0    0  0.00000000000E+00  0.00000000000E+00  0.99999998245E-14  0.12500000000E+03  0.12500000000E+03 0.  0.
        -11    1    3    3    0    0 -0.27400363320E+02 -0.39445660878E+02  0.10103642975E+02  0.49079768477E+02  0.51100000000E-03 0.  1.
         23    2    1    0    0    0 -0.27668150231E+02  0.71995640676E+01  0.44225671005E+01  0.96070441418E+02  0.91611191208E+02 0.  0.
         11    1    3    3    0    0 -0.26778691116E+00  0.46645224946E+02 -0.56810758741E+01  0.46990672941E+02  0.51100000000E-03 0. -1.
         22    1    1    0    0    0  0.27668150231E+02 -0.71995640676E+01 -0.44225671005E+01  0.28929558582E+02  0.00000000000E+00 0.  1.
</event>
<event>
 5    1  0.8778268E-005  0.9118800E+02  0.7818608E-02  0.1130116E+00
         25   -1    0    0    0    0  0.00000000000E+00  0.00000000000E+00  0.99999998245E-14  0.12500000000E+03  0.12500000000E+03 0.  0.
        -11    1    3    3    0    0 -0.11334939194E+02 -0.10477348763E+02 -0.37156995240E+02  0.40235531303E+02  0.51100000000E-03 0.  1.
         23    2    1    0    0    0 -0.21342178044E+02 -0.10174975672E+01  0.17985483554E+02  0.97071493351E+02  0.92967055120E+02 0.  0.
         11    1    3    3    0    0 -0.10007238850E+02  0.94598511963E+01  0.55142478795E+02  0.56835962048E+02  0.51100000000E-03 0. -1.
         22    1    1    0    0    0  0.21342178044E+02  0.10174975672E+01 -0.17985483554E+02  0.27928506649E+02  0.00000000000E+00 0.  1.
</event>
<event>
 5    1  0.8778268E-005  0.9118800E+02  0.7818608E-02  0.1130116E+00
         25   -1    0    0    0    0  0.00000000000E+00  0.00000000000E+00  0.99999998245E-14  0.12500000000E+03  0.12500000000E+03 0.  0.
        -11    1    3    3    0    0 -0.23599275948E+01 -0.15037772909E+02  0.40909121604E+02  0.43649285252E+02  0.51100000000E-03 0.  1.
         23    2    1    0    0    0 -0.26585354706E+02 -0.11168530688E+02 -0.50300371206E+01  0.95728538882E+02  0.91143484246E+02 0.  0.
         11    1    3    3    0    0 -0.24225427111E+02  0.38692422205E+01 -0.45939158725E+02  0.52079253630E+02  0.51100000000E-03 0. -1.
         22    1    1    0    0    0  0.26585354706E+02  0.11168530688E+02  0.50300371206E+01  0.29271461118E+02  0.00000000000E+00 0. -1.
</event>
<event>
 5    1  0.8778268E-005  0.9118800E+02  0.7818608E-02  0.1130116E+00
         25   -1    0    0    0    0  0.00000000000E+00  0.00000000000E+00  0.99999998245E-14  0.12500000000E+03  0.12500000000E+03 0.  0.
        -11    1    3    3    0    0 -0.14452774900E+02  0.27540290031E+01  0.46159078271E+02  0.48447165915E+02  0.51100000000E-03 0.  1.
         23    2    1    0    0    0 -0.16961333461E+02 -0.26241221700E+02  0.29743698105E+02  0.81860967488E+02  0.69571846835E+02 0.  0.
         11    1    3    3    0    0 -0.25085585608E+01 -0.28995250703E+02 -0.16415380166E+02  0.33413801574E+02  0.51100000000E-03 0. -1.
         22    1    1    0    0    0  0.16961333461E+02  0.26241221700E+02 -0.29743698105E+02  0.43139032512E+02  0.00000000000E+00 0.  1.
</event>
<event>
 5    1  0.8778268E-005  0.9118800E+02  0.7818608E-02  0.1130116E+00
         25   -1    0    0    0    0  0.00000000000E+00  0.00000000000E+00  0.99999998245E-14  0.12500000000E+03  0.12500000000E+03 0.  0.
        -11    1    3    3    0    0  0.13771368396E+02  0.72303335541E+01 -0.38868048606E+02  0.41864704866E+02  0.51100000000E-03 0. -1.
         23    2    1    0    0    0 -0.34998651470E+01 -0.29029295087E+02 -0.31882474515E+01  0.95587180497E+02  0.90949409697E+02 0.  0.
         11    1    3    3    0    0 -0.17271233543E+02 -0.36259628641E+02  0.35679801154E+02  0.53722475631E+02  0.51100000000E-03 0.  1.
         22    1    1    0    0    0  0.34998651470E+01  0.29029295087E+02  0.31882474515E+01  0.29412819503E+02  0.00000000000E+00 0.  1.
</event>
<event>
 5    1  0.8778268E-005  0.9118800E+02  0.7818608E-02  0.1130116E+00
         25   -1    0    0    0    0  0.00000000000E+00  0.00000000000E+00  0.99999998245E-14  0.12500000000E+03  0.12500000000E+03 0.  0.
        -11    1    3    3    0    0 -0.29659156193E+02  0.18380305675E+01  0.47226300506E+02  0.55797556955E+02  0.51100000000E-03 0.  1.
         23    2    1    0    0    0 -0.22552297431E+02  0.14428276586E+02  0.88571331255E+01  0.96800175677E+02  0.92601533028E+02 0.  0.
         11    1    3    3    0    0  0.71068587621E+01  0.12590246019E+02 -0.38369167380E+02  0.41002618721E+02  0.51100000000E-03 0. -1.
         22    1    1    0    0    0  0.22552297431E+02 -0.14428276586E+02 -0.88571331255E+01  0.28199824323E+02  0.00000000000E+00 0.  1.
</event>
<event>
 5    1  0.8778268E-005  0.9118800E+02  0.7818608E-02  0.1130116E+00
         25   -1    0    0    0    0  0.00000000000E+00  0.00000000000E+00  0.99999998245E-14  0.12500000000E+03  0.12500000000E+03 0.  0.
        -11    1    3    3    0    0  0.33882267933E+02 -0.42582835577E+01 -0.17980785156E+02  0.38593389255E+02  0.51100000000E-03 0.  1.
         23    2    1    0    0    0 -0.42177537860E+01  0.25225137174E+02  0.13438409429E+02  0.96109035315E+02  0.91663835992E+02 0.  0.
         11    1    3    3    0    0 -0.38100021719E+02  0.29483420732E+02  0.31419194585E+02  0.57515646060E+02  0.51100000000E-03 0. -1.
         22    1    1    0    0    0  0.42177537860E+01 -0.25225137174E+02 -0.13438409429E+02  0.28890964685E+02  0.00000000000E+00 0. -1.
</event>
<event>
 5    1  0.8778268E-005  0.9118800E+02  0.7818608E-02  0.1130116E+00
         25   -1    0    0    0    0  0.00000000000E+00  0.00000000000E+00  0.99999998245E-14  0.12500000000E+03  0.12500000000E+03 0.  0.
        -11    1    3    3    0    0  0.16680454566E+02 -0.17437324772E+02 -0.33511287934E+02  0.41295329990E+02  0.51100000000E-03 0.  1.
         23    2    1    0    0    0 -0.15365383441E+02 -0.22900707025E+02  0.10048734724E+02  0.95648433430E+02  0.91033556217E+02 0.  0.
         11    1    3    3    0    0 -0.32045838008E+02 -0.54633822524E+01  0.43560022659E+02  0.54353103440E+02  0.51100000000E-03 0. -1.
         22    1    1    0    0    0  0.15365383441E+02  0.22900707025E+02 -0.10048734724E+02  0.29351566570E+02  0.00000000000E+00 0. -1.
</event>
<event>
 5    1  0.8778268E-005  0.9118800E+02  0.7818608E-02  0.1130116E+00
         25   -1    0    0    0    0  0.00000000000E+00  0.00000000000E+00  0.99999998245E-14  0.12500000000E+03  0.12500000000E+03 0.  0.
        -11    1    3    3    0    0  0.49594458430E+02 -0.83528284741E+01  0.12701842743E+02  0.51872120256E+02  0.51100000000E-03 0. -1.
         23    2    1    0    0    0  0.15213196739E+02  0.11166789578E+02  0.25363468547E+02  0.93386014468E+02  0.87872086677E+02 0.  0.
         11    1    3    3    0    0 -0.34381261691E+02  0.19519618052E+02  0.12661625804E+02  0.41513894212E+02  0.51100000000E-03 0.  1.
         22    1    1    0    0    0 -0.15213196739E+02 -0.11166789578E+02 -0.25363468547E+02  0.31613985532E+02  0.00000000000E+00 0. -1.
</event>
<event>
 5    1  0.8778268E-005  0.9118800E+02  0.7818608E-02  0.1130116E+00
         25   -1    0    0    0    0  0.00000000000E+00  0.00000000000E+00  0.99999998245E-14  0.12500000000E+03  0.12500000000E+03 0.  0.
        -11    1    3    3    0    0  0.35450465289E+02 -0.36464287410E+01  0.34557449279E+02  0.49641204988E+02  0.51100000000E-03 0. -1.
         23    2    1    0    0    0 -0.46411602201E+01  0.11485719857E+02  0.29764184446E+02  0.92760756762E+02  0.86978096039E+02 0.  0.
         11    1    3    3    0    0 -0.40091625509E+02  0.15132148598E+02 -0.47932648333E+01  0.43119551774E+02  0.51100000000E-03 0.  1.
         22    1    1    0    0    0  0.46411602201E+01 -0.11485719857E+02 -0.29764184446E+02  0.32239243238E+02  0.00000000000E+00 0.  1.
</event>
<event>
 5    1  0.8778268E-005  0.9118800E+02  0.7818608E-02  0.1130116E+00
         25   -1    0    0    0    0  0.00000000000E+00  0.00000000000E+00  0.99999998245E-14  0.12500000000E+03  0.12500000000E+03 0.  0.
        -11    1    3    3    0    0 -0.12579980530E+02  0.36178258520E+02  0.16925308006E+02  0.41875868362E+02  0.51100000000E-03 0. -1.
         23    2    1    0    0    0  0.19475454643E+02  0.13057837230E+02 -0.18640385146E+02  0.95045627947E+02  0.90202034272E+02 0.  0.
         11    1    3    3    0    0  0.32055435173E+02 -0.23120421290E+02 -0.35565693152E+02  0.53169759586E+02  0.51100000000E-03 0.  1.
         22    1    1    0    0    0 -0.19475454643E+02 -0.13057837230E+02  0.18640385146E+02  0.29954372053E+02  0.00000000000E+00 0.  1.
</event>
<event>
 5    1  0.8778268E-005  0.9118800E+02  0.7818608E-02  0.1130116E+00
         25   -1    0    0    0    0  0.00000000000E+00  0.00000000000E+00  0.99999998245E-14  0.12500000000E+03  0.12500000000E+03 0.  0.
        -11    1    3    3    0    0  0.57068817215E+02  0.18580141894E+02 -0.14205947923E+02  0.61675607235E+02  0.51100000000E-03 0. -1.
         23    2    1    0    0    0  0.25675687850E+02  0.16167839331E+01 -0.90436152187E+01  0.97730201448E+02  0.93848550133E+02 0.  0.
         11    1    3    3    0    0 -0.31393129365E+02 -0.16963357961E+02  0.51623327046E+01  0.36054594213E+02  0.51100000000E-03 0.  1.
         22    1    1    0    0    0 -0.25675687850E+02 -0.16167839331E+01  0.90436152187E+01  0.27269798552E+02  0.00000000000E+00 0. -1.
</event>
<event>
 5    1  0.8778268E-005  0.9118800E+02  0.7818608E-02  0.1130116E+00
         25   -1    0    0    0    0  0.00000000000E+00  0.00000000000E+00  0.99999998245E-14  0.12500000000E+03  0.12500000000E+03 0.  0.
        -11    1    3    3    0    0  0.43246940280E+02 -0.23765719352E+02  0.27436547649E+02  0.56461238094E+02  0.51100000000E-03 0.  1.
         23    2    1    0    0    0  0.18450539745E+02 -0.22797119482E+02 -0.27556884888E+01  0.95542829521E+02  0.90888433699E+02 0.  0.
         11    1    3    3    0    0 -0.24796400536E+02  0.96859986917E+00 -0.30192236138E+02  0.39081591428E+02  0.51100000000E-03 0. -1.
         22    1    1    0    0    0 -0.18450539745E+02  0.22797119482E+02  0.27556884888E+01  0.29457170479E+02  0.00000000000E+00 0.  1.
</event>
<event>
 5    1  0.8778268E-005  0.9118800E+02  0.7818608E-02  0.1130116E+00
         25   -1    0    0    0    0  0.00000000000E+00  0.00000000000E+00  0.99999998245E-14  0.12500000000E+03  0.12500000000E+03 0.  0.
        -11    1    3    3    0    0  0.29894665658E+02  0.18645703236E+02  0.10347015797E+02  0.36720757347E+02  0.51100000000E-03 0. -1.
         23    2    1    0    0    0 -0.20236051561E+01 -0.15068012503E+02 -0.25456529725E+02  0.95349116636E+02  0.90621626332E+02 0.  0.
         11    1    3    3    0    0 -0.31918270814E+02 -0.33713715740E+02 -0.35803545522E+02  0.58628359289E+02  0.51100000000E-03 0.  1.
         22    1    1    0    0    0  0.20236051561E+01  0.15068012503E+02  0.25456529725E+02  0.29650883364E+02  0.00000000000E+00 0.  1.
</event>
<event>
 5    1  0.8778268E-005  0.9118800E+02  0.7818608E-02  0.1130116E+00
         25   -1    0    0    0    0  0.00000000000E+00  0.00000000000E+00  0.99999998245E-14  0.12500000000E+03  0.12500000000E+03 0.  0.
        -11    1    3    3    0    0  0.40030156065E+02 -0.26706555582E+02 -0.44756017508E+01  0.48328920089E+02  0.51100000000E-03 0. -1.
         23    2    1    0    0    0 -0.57825064123E+01 -0.20044501669E+02 -0.18932290814E+02  0.96828186728E+02  0.92639336580E+02 0.  0.
         11    1    3    3    0    0 -0.45812662477E+02  0.66620539124E+01 -0.14456689063E+02  0.48499266639E+02  0.51100000000E-03 0.  1.
         22    1    1    0    0    0  0.57825064123E+01  0.20044501669E+02  0.18932290814E+02  0.28171813272E+02  0.00000000000E+00 0.  1.
</event>
<event>
 5    1  0.8778268E-005  0.9118800E+02  0.7818608E-02  0.1130116E+00
         25   -1    0    0    0    0  0.00000000000E+00  0.00000000000E+00  0.99999998245E-14  0.12500000000E+03  0.12500000000E+03 0.  0.
        -11    1    3    3    0    0  0.21271598575E+02  0.72056865617E+01 -0.21882839547E+02  0.31357000680E+02  0.51100000000E-03 0.  1.
         23    2    1    0    0    0 -0.21306472339E+02  0.30812588967E+00  0.23027632537E+02  0.93625925267E+02  0.88212704962E+02 0.  0.
         11    1    3    3    0    0 -0.42578070914E+02 -0.68975606720E+01  0.44910472084E+02  0.62268924586E+02  0.51100000000E-03 0. -1.
         22    1    1    0    0    0  0.21306472339E+02 -0.30812588967E+00 -0.23027632537E+02  0.31374074733E+02  0.00000000000E+00 0. -1.
</event>
<event>
 5    1  0.8778268E-005  0.9118800E+02  0.7818608E-02  0.1130116E+00
         25   -1    0    0    0    0  0.00000000000E+00  0.00000000000E+00  0.99999998245E-14  0.12500000000E+03  0.12500000000E+03 0.  0.
        -11    1    3    3    0    0  0.33678396015E+02  0.36411985187E+02  0.23380962261E+02  0.54833716087E+02  0.51100000000E-03 0. -1.
         23    2    1    0    0    0  0.91641213997E+01  0.12755764084E+02  0.31452471666E+02  0.89843939181E+02  0.82680014486E+02 0.  0.
         11    1    3    3    0    0 -0.24514274615E+02 -0.23656221103E+02  0.80715094047E+01  0.35010223094E+02  0.51100000000E-03 0.  1.
         22    1    1    0    0    0 -0.91641213997E+01 -0.12755764084E+02 -0.31452471666E+02  0.35156060819E+02  0.00000000000E+00 0. -1.
</event>
<event>
 5    1  0.8778268E-005  0.9118800E+02  0.7818608E-02  0.1130116E+00
         25   -1    0    0    0    0  0.00000000000E+00  0.00000000000E+00  0.99999998245E-14  0.12500000000E+03  0.12500000000E+03 0.  0.
        -11    1    3    3    0    0 -0.25946888523E+02  0.34197581982E+01 -0.46659128351E+02  0.53497757233E+02  0.51100000000E-03 0. -1.
         23    2    1    0    0    0  0.11377188753E+00  0.22073932494E+02 -0.17427156553E+02  0.96875682669E+02  0.92703401595E+02 0.  0.
         11    1    3    3    0    0  0.26060660411E+02  0.18654174296E+02  0.29231971798E+02  0.43377925436E+02  0.51100000000E-03 0.  1.
         22    1    1    0    0    0 -0.11377188753E+00 -0.22073932494E+02  0.17427156553E+02  0.28124317331E+02  0.00000000000E+00 0. -1.
</event>
<event>
 5    1  0.8778268E-005  0.9118800E+02  0.7818608E-02  0.1130116E+00
         25   -1    0    0    0    0  0.00000000000E+00  0.00000000000E+00  0.99999998245E-14  0.12500000000E+03  0.12500000000E+03 0.  0.
        -11    1    3    3    0    0 -0.13475787452E+02 -0.29119187171E+02 -0.20521890323E+02  0.38087686877E+02  0.51100000000E-03 0.  1.
         23    2    1    0    0    0 -0.63490095299E-01 -0.19117912728E+02  0.28947196183E+02  0.90309384771E+02  0.83380730345E+02 0.  0.
         11    1    3    3    0    0  0.13412297357E+02  0.10001274443E+02  0.49469086507E+02  0.52221697894E+02  0.51100000000E-03 0. -1.
         22    1    1    0    0    0  0.63490095299E-01  0.19117912728E+02 -0.28947196183E+02  0.34690615229E+02  0.00000000000E+00 0. -1.
</event>
<event>
 5    1  0.8778268E-005  0.9118800E+02  0.7818608E-02  0.1130116E+00
         25   -1    0    0    0    0  0.00000000000E+00  0.00000000000E+00  0.99999998245E-14  0.12500000000E+03  0.12500000000E+03 0.  0.
        -11    1    3    3    0    0 -0.43978621375E+01 -0.42078777872E+02 -0.19552564081E+01  0.42353131719E+02  0.51100000000E-03 0.  1.
         23    2    1    0    0    0  0.27613515686E+02  0.27617706569E+00 -0.91033285477E+01  0.95923323557E+02  0.91410234051E+02 0.  0.
         11    1    3    3    0    0  0.32011377824E+02  0.42354954937E+02 -0.71480721396E+01  0.53570191837E+02  0.51100000000E-03 0. -1.
         22    1    1    0    0    0 -0.27613515686E+02 -0.27617706569E+00  0.91033285477E+01  0.29076676443E+02  0.00000000000E+00 0. -1.
</event>
<event>
 5    1  0.8778268E-005  0.9118800E+02  0.7818608E-02  0.1130116E+00
         25   -1    0    0    0    0  0.00000000000E+00  0.00000000000E+00  0.99999998245E-14  0.12500000000E+03  0.12500000000E+03 0.  0.
        -11    1    3    3    0    0 -0.20750349774E+02  0.13918527649E+02 -0.41268932770E+02  0.48243416544E+02  0.51100000000E-03 0.  1.
         23    2    1    0    0    0 -0.15043533236E+02 -0.22072957302E+02 -0.93132752603E+01  0.96711125290E+02  0.92481248492E+02 0.  0.
         11    1    3    3    0    0  0.57068165382E+01 -0.35991484951E+02  0.31955657509E+02  0.48467708746E+02  0.51100000000E-03 0. -1.
         22    1    1    0    0    0  0.15043533236E+02  0.22072957302E+02  0.93132752603E+01  0.28288874710E+02  0.00000000000E+00 0. -1.
</event>
<event>
 5    1  0.8778268E-005  0.9118800E+02  0.7818608E-02  0.1130116E+00
         25   -1    0    0    0    0  0.00000000000E+00  0.00000000000E+00  0.99999998245E-14  0.12500000000E+03  0.12500000000E+03 0.  0.
        -11    1    3    3    0    0 -0.20847386381E+02  0.44014420563E+02  0.23906051591E+02  0.54252944983E+02  0.51100000000E-03 0.  1.
         23    2    1    0    0    0 -0.30306789942E+02  0.12926272119E+02  0.55100671776E+01  0.91594149198E+02  0.85285035614E+02 0.  0.
         11    1    3    3    0    0 -0.94594035613E+01 -0.31088148444E+02 -0.18395984414E+02  0.37341204215E+02  0.51100000000E-03 0. -1.
         22    1    1    0    0    0  0.30306789942E+02 -0.12926272119E+02 -0.55100671776E+01  0.33405850802E+02  0.00000000000E+00 0.  1.
</event>
<event>
 5    1  0.8778268E-005  0.9118800E+02  0.7818608E-02  0.1130116E+00
         25   -1    0    0    0    0  0.00000000000E+00  0.00000000000E+00  0.99999998245E-14  0.12500000000E+03  0.12500000000E+03 0.  0.
        -11    1    3    3    0    0  0.24853595847E+02  0.16150370510E+02 -0.16312628149E+02  0.33832492245E+02  0.51100000000E-03 0.  1.
         23    2    1    0    0    0 -0.77692702811E+01 -0.24762724525E+02  0.15207503319E+02  0.94919736640E+02  0.90027407827E+02 0.  0.
         11    1    3    3    0    0 -0.32622866128E+02 -0.40913095035E+02  0.31520131468E+02  0.61087244395E+02  0.51100000000E-03 0. -1.
         22    1    1    0    0    0  0.77692702811E+01  0.24762724525E+02 -0.15207503319E+02  0.30080263360E+02  0.00000000000E+00 0. -1.
</event>
<event>
 5    1  0.8778268E-005  0.9118800E+02  0.7818608E-02  0.1130116E+00
         25   -1    0    0    0    0  0.00000000000E+00  0.00000000000E+00  0.99999998245E-14  0.12500000000E+03  0.12500000000E+03 0.  0.
        -11    1    3    3    0    0  0.17167943711E+02  0.19635502705E+02  0.24208451095E+02  0.35585676366E+02  0.51100000000E-03 0.  1.
         23    2    1    0    0    0 -0.16485930571E+02  0.15019564680E+02 -0.22486779749E+02  0.93329374912E+02  0.87791478676E+02 0.  0.
         11    1    3    3    0    0 -0.33653874282E+02 -0.46159380247E+01 -0.46695230844E+02  0.57743698546E+02  0.51100000000E-03 0. -1.
         22    1    1    0    0    0  0.16485930571E+02 -0.15019564680E+02  0.22486779749E+02  0.31670625088E+02  0.00000000000E+00 0.  1.
</event>
<event>
 5    1  0.8778268E-005  0.9118800E+02  0.7818608E-02  0.1130116E+00
         25   -1    0    0    0    0  0.00000000000E+00  0.00000000000E+00  0.99999998245E-14  0.12500000000E+03  0.12500000000E+03 0.  0.
        -11    1    3    3    0    0 -0.48077118071E+02  0.33072606962E+01  0.34474680251E+01  0.48313893358E+02  0.51100000000E-03 0.  1.
         23    2    1    0    0    0 -0.99974843425E+01 -0.11631990452E+02 -0.23239864122E+02  0.97154997227E+02  0.93079263570E+02 0.  0.
         11    1    3    3    0    0  0.38079633729E+02 -0.14939251148E+02 -0.26687332147E+02  0.48841103869E+02  0.51100000000E-03 0. -1.
         22    1    1    0    0    0  0.99974843425E+01  0.11631990452E+02  0.23239864122E+02  0.27845002773E+02  0.00000000000E+00 0.  1.
</event>
<event>
 5    1  0.8778268E-005  0.9118800E+02  0.7818608E-02  0.1130116E+00
         25   -1    0    0    0    0  0.00000000000E+00  0.00000000000E+00  0.99999998245E-14  0.12500000000E+03  0.12500000000E+03 0.  0.
        -11    1    3    3    0    0 -0.51617226498E+01 -0.94155136334E+01  0.50665553703E+02  0.51790864156E+02  0.51100000000E-03 0. -1.
         23    2    1    0    0    0  0.16685504251E+02  0.13292986296E+02  0.20421163456E+02  0.95468094310E+02  0.90785591244E+02 0.  0.
         11    1    3    3    0    0  0.21847226901E+02  0.22708499929E+02 -0.30244390247E+02  0.43677230155E+02  0.51100000000E-03 0.  1.
         22    1    1    0    0    0 -0.16685504251E+02 -0.13292986296E+02 -0.20421163456E+02  0.29531905690E+02  0.00000000000E+00 0. -1.
</event>
<event>
 5    1  0.8778268E-005  0.9118800E+02  0.7818608E-02  0.1130116E+00
         25   -1    0    0    0    0  0.00000000000E+00  0.00000000000E+00  0.99999998245E-14  0.12500000000E+03  0.12500000000E+03 0.  0.
        -11    1    3    3    0    0 -0.12194725465E+02  0.26988819102E+02  0.46086711653E+02  0.54782229573E+02  0.51100000000E-03 0. -1.
         23    2    1    0    0    0  0.16565164950E+02  0.12127172633E+02  0.19710374946E+02  0.96539994968E+02  0.92249654428E+02 0.  0.
         11    1    3    3    0    0  0.28759890415E+02 -0.14861646469E+02 -0.26376336707E+02  0.41757765395E+02  0.51100000000E-03 0.  1.
         22    1    1    0    0    0 -0.16565164950E+02 -0.12127172633E+02 -0.19710374946E+02  0.28460005032E+02  0.00000000000E+00 0. -1.
</event>
<event>
 5    1  0.8778268E-005  0.9118800E+02  0.7818608E-02  0.1130116E+00
         25   -1    0    0    0    0  0.00000000000E+00  0.00000000000E+00  0.99999998245E-14  0.12500000000E+03  0.12500000000E+03 0.  0.
        -11    1    3    3    0    0 -0.49619150372E+02 -0.36886572445E+02 -0.48002399854E+01  0.62013882435E+02  0.51100000000E-03 0.  1.
         23    2    1    0    0    0 -0.23435660686E+02 -0.15105435197E+02 -0.73429071669E+01  0.96167333631E+02  0.91743301705E+02 0.  0.
         11    1    3    3    0    0  0.26183489686E+02  0.21781137249E+02 -0.25426671816E+01  0.34153451196E+02  0.51100000000E-03 0. -1.
         22    1    1    0    0    0  0.23435660686E+02  0.15105435197E+02  0.73429071669E+01  0.28832666369E+02  0.00000000000E+00 0.  1.
</event>
<event>
 5    1  0.8778268E-005  0.9118800E+02  0.7818608E-02  0.1130116E+00
         25   -1    0    0    0    0  0.00000000000E+00  0.00000000000E+00  0.99999998245E-14  0.12500000000E+03  0.12500000000E+03 0.  0.
        -11    1    3    3    0    0  0.10735156479E+02 -0.29327843348E+02  0.89039001302E+01  0.32475304739E+02  0.51100000000E-03 0.  1.
         23    2    1    0    0    0 -0.30485095487E+02  0.12484511800E+02  0.75406475006E+01  0.91205541187E+02  0.84713548483E+02 0.  0.
         11    1    3    3    0    0 -0.41220251966E+02  0.41812355149E+02 -0.13632526296E+01  0.58730236448E+02  0.51100000000E-03 0. -1.
         22    1    1    0    0    0  0.30485095487E+02 -0.12484511800E+02 -0.75406475006E+01  0.33794458813E+02  0.00000000000E+00 0. -1.
</event>
<event>
 5    1  0.8778268E-005  0.9118800E+02  0.7818608E-02  0.1130116E+00
         25   -1    0    0    0    0  0.00000000000E+00  0.00000000000E+00  0.99999998245E-14  0.12500000000E+03  0.12500000000E+03 0.  0.
        -11    1    3    3    0    0 -0.80430848928E+01  0.18324536394E+02  0.24992014976E+02  0.32016880883E+02  0.51100000000E-03 0. -1.
         23    2    1    0    0    0 -0.44246165741E+01 -0.25591017135E+02 -0.17859065510E+02  0.93481376763E+02  0.88007637116E+02 0.  0.
         11    1    3    3    0    0  0.36184683187E+01 -0.43915553529E+02 -0.42851080486E+02  0.61464495880E+02  0.51100000000E-03 0.  1.
         22    1    1    0    0    0  0.44246165741E+01  0.25591017135E+02  0.17859065510E+02  0.31518623237E+02  0.00000000000E+00 0.  1.
</event>
<event>
 5    1  0.8778268E-005  0.9118800E+02  0.7818608E-02  0.1130116E+00
         25   -1    0    0    0    0  0.00000000000E+00  0.00000000000E+00  0.99999998245E-14  0.12500000000E+03  0.12500000000E+03 0.  0.
        -11    1    3    3    0    0 -0.54976717391E+00  0.16940386166E+02  0.29473099424E+02  0.33999154655E+02  0.51100000000E-03 0.  1.
         23    2    1    0    0    0 -0.12012065029E+02 -0.10994730290E+02 -0.24345921085E+02  0.95710109698E+02  0.91118205780E+02 0.  0.
         11    1    3    3    0    0 -0.11462297855E+02 -0.27935116456E+02 -0.53819020509E+02  0.61710955043E+02  0.51100000000E-03 0. -1.
         22    1    1    0    0    0  0.12012065029E+02  0.10994730290E+02  0.24345921085E+02  0.29289890302E+02  0.00000000000E+00 0. -1.
</event>
<event>
 5    1  0.8778268E-005  0.9118800E+02  0.7818608E-02  0.1130116E+00
         25   -1    0    0    0    0  0.00000000000E+00  0.00000000000E+00  0.99999998245E-14  0.12500000000E+03  0.12500000000E+03 0.  0.
        -11    1    3    3    0    0 -0.27390385200E+02 -0.49903105406E+02  0.13749366876E+02  0.58562771624E+02  0.51100000000E-03 0. -1.
         23    2    1    0    0    0 -0.15920422890E+01 -0.19788224256E+02  0.17686516186E+02  0.98412008864E+02  0.94752320373E+02 0.  0.
         11    1    3    3    0    0  0.25798342911E+02  0.30114881150E+02  0.39371493104E+01  0.39849237240E+02  0.51100000000E-03 0.  1.
         22    1    1    0    0    0  0.15920422890E+01  0.19788224256E+02 -0.17686516186E+02  0.26587991136E+02  0.00000000000E+00 0. -1.
</event>
<event>
 5    1  0.8778268E-005  0.9118800E+02  0.7818608E-02  0.1130116E+00
         25   -1    0    0    0    0  0.00000000000E+00  0.00000000000E+00  0.99999998245E-14  0.12500000000E+03  0.12500000000E+03 0.  0.
        -11    1    3    3    0    0 -0.16763275175E+02  0.18298321847E+02 -0.22959213606E+02  0.33807713124E+02  0.51100000000E-03 0. -1.
         23    2    1    0    0    0  0.14655581145E+02 -0.24411819778E+02  0.82793192651E+01  0.95347510542E+02  0.90619410920E+02 0.  0.
         11    1    3    3    0    0  0.31418856320E+02 -0.42710141625E+02  0.31238532871E+02  0.61539797418E+02  0.51100000000E-03 0.  1.
         22    1    1    0    0    0 -0.14655581145E+02  0.24411819778E+02 -0.82793192651E+01  0.29652489458E+02  0.00000000000E+00 0.  1.
</event>
<event>
 5    1  0.8778268E-005  0.9118800E+02  0.7818608E-02  0.1130116E+00
         25   -1    0    0    0    0  0.00000000000E+00  0.00000000000E+00  0.99999998245E-14  0.12500000000E+03  0.12500000000E+03 0.  0.
        -11    1    3    3    0    0  0.54909461479E+01  0.46500926042E+02  0.21041284002E+02  0.51334415796E+02  0.51100000000E-03 0.  1.
         23    2    1    0    0    0  0.92826475950E+01  0.29182031285E+01  0.27750240727E+02  0.95593209691E+02  0.90957695786E+02 0.  0.
         11    1    3    3    0    0  0.37917014471E+01 -0.43582722914E+02  0.67089567257E+01  0.44258793895E+02  0.51100000000E-03 0. -1.
         22    1    1    0    0    0 -0.92826475950E+01 -0.29182031285E+01 -0.27750240727E+02  0.29406790309E+02  0.00000000000E+00 0.  1.
</event>
<event>
 5    1  0.8778268E-005  0.9118800E+02  0.7818608E-02  0.1130116E+00
         25   -1    0    0    0    0  0.00000000000E+00  0.00000000000E+00  0.99999998245E-14  0.12500000000E+03  0.12500000000E+03 0.  0.
        -11    1    3    3    0    0  0.20618775189E+02 -0.20178892385E+02 -0.18273025886E+02  0.34150037532E+02  0.51100000000E-03 0.  1.
         23    2    1    0    0    0 -0.11203853498E+02  0.27277714907E+02  0.35161702773E+01  0.95302129417E+02  0.90556790768E+02 0.  0.
         11    1    3    3    0    0 -0.31822628687E+02  0.47456607292E+02  0.21789196163E+02  0.61152091885E+02  0.51100000000E-03 0. -1.
         22    1    1    0    0    0  0.11203853498E+02 -0.27277714907E+02 -0.35161702773E+01  0.29697870583E+02  0.00000000000E+00 0. -1.
</event>
<event>
 5    1  0.8778268E-005  0.9118800E+02  0.7818608E-02  0.1130116E+00
         25   -1    0    0    0    0  0.00000000000E+00  0.00000000000E+00  0.99999998245E-14  0.12500000000E+03  0.12500000000E+03 0.  0.
        -11    1    3    3    0    0  0.16157895116E+02 -0.44781102504E+02 -0.98461741079E+01  0.48614523147E+02  0.51100000000E-03 0.  1.
         23    2    1    0    0    0  0.11039258042E+02 -0.18297620028E+01 -0.27482296150E+02  0.95326950801E+02  0.90591046468E+02 0.  0.
         11    1    3    3    0    0 -0.51186370740E+01  0.42951340501E+02 -0.17636122042E+02  0.46712427653E+02  0.51100000000E-03 0. -1.
         22    1    1    0    0    0 -0.11039258042E+02  0.18297620028E+01  0.27482296150E+02  0.29673049199E+02  0.00000000000E+00 0.  1.
</event>
<event>
 5    1  0.8778268E-005  0.9118800E+02  0.7818608E-02  0.1130116E+00
         25   -1    0    0    0    0  0.00000000000E+00  0.00000000000E+00  0.99999998245E-14  0.12500000000E+03  0.12500000000E+03 0.  0.
        -11    1    3    3    0    0 -0.49212827680E+02 -0.64978935603E+01  0.28968581816E+02  0.57474374826E+02  0.51100000000E-03 0.  1.
         23    2    1    0    0    0 -0.11306112622E+02 -0.72390626339E+01  0.26287244956E+02  0.95483031020E+02  0.90806154829E+02 0.  0.
         11    1    3    3    0    0  0.37906715057E+02 -0.74116907359E+00 -0.26813368600E+01  0.38008656194E+02  0.51100000000E-03 0. -1.
         22    1    1    0    0    0  0.11306112622E+02  0.72390626339E+01 -0.26287244956E+02  0.29516968980E+02  0.00000000000E+00 0.  1.
</event>
<event>
 5    1  0.8778268E-005  0.9118800E+02  0.7818608E-02  0.1130116E+00
         25   -1    0    0    0    0  0.00000000000E+00  0.00000000000E+00  0.99999998245E-14  0.12500000000E+03  0.12500000000E+03 0.  0.
        -11    1    3    3    0    0 -0.25714937510E+02  0.14820665383E+02  0.32569249782E+02  0.44064341198E+02  0.51100000000E-03 0. -1.
         23    2    1    0    0    0 -0.17890982380E+02 -0.26502657562E+02  0.12462095788E+02  0.90681172226E+02  0.83936243998E+02 0.  0.
         11    1    3    3    0    0  0.78239551302E+01 -0.41323322945E+02 -0.20107153994E+02  0.46616831028E+02  0.51100000000E-03 0.  1.
         22    1    1    0    0    0  0.17890982380E+02  0.26502657562E+02 -0.12462095788E+02  0.34318827774E+02  0.00000000000E+00 0.  1.
</event>
<event>
 5    1  0.8778268E-005  0.9118800E+02  0.7818608E-02  0.1130116E+00
         25   -1    0    0    0    0  0.00000000000E+00  0.00000000000E+00  0.99999998245E-14  0.12500000000E+03  0.12500000000E+03 0.  0.
        -11    1    3    3    0    0 -0.66488497597E+01  0.98590084287E+01  0.59708621897E+02  0.60881251461E+02  0.51100000000E-03 0.  1.
         23    2    1    0    0    0  0.69639243388E+01  0.44547558673E+01  0.27923061624E+02  0.95878900047E+02  0.91349466401E+02 0.  0.
         11    1    3    3    0    0  0.13612774098E+02 -0.54042525614E+01 -0.31785560274E+02  0.34997648586E+02  0.51100000000E-03 0. -1.
         22    1    1    0    0    0 -0.69639243388E+01 -0.44547558673E+01 -0.27923061624E+02  0.29121099953E+02  0.00000000000E+00 0.  1.
</event>
<event>
 5    1  0.8778268E-005  0.9118800E+02  0.7818608E-02  0.1130116E+00
         25   -1    0    0    0    0  0.00000000000E+00  0.00000000000E+00  0.99999998245E-14  0.12500000000E+03  0.12500000000E+03 0.  0.
        -11    1    3    3    0    0 -0.52541926510E+01  0.56452605699E+02  0.19875383650E+02  0.60079398350E+02  0.51100000000E-03 0.  1.
         23    2    1    0    0    0  0.10115430817E+01  0.20817069373E+02  0.19786774749E+02  0.96261697133E+02  0.91871781758E+02 0.  0.
         11    1    3    3    0    0  0.62657357327E+01 -0.35635536325E+02 -0.88608900820E-01  0.36182298784E+02  0.51100000000E-03 0. -1.
         22    1    1    0    0    0 -0.10115430817E+01 -0.20817069373E+02 -0.19786774749E+02  0.28738302867E+02  0.00000000000E+00 0.  1.
</event>
<event>
 5    1  0.8778268E-005  0.9118800E+02  0.7818608E-02  0.1130116E+00
         25   -1    0    0    0    0  0.00000000000E+00  0.00000000000E+00  0.99999998245E-14  0.12500000000E+03  0.12500000000E+03 0.  0.
        -11    1    3    3    0    0 -0.61497045455E+01 -0.29744716750E+02  0.28324684926E+02  0.41531371480E+02  0.51100000000E-03 0. -1.
         23    2    1    0    0    0  0.14257208898E+02 -0.16303205921E+02 -0.19896285503E+02  0.95590397730E+02  0.90953831324E+02 0.  0.
         11    1    3    3    0    0  0.20406913444E+02  0.13441510829E+02 -0.48220970429E+02  0.54059026250E+02  0.51100000000E-03 0.  1.
         22    1    1    0    0    0 -0.14257208898E+02  0.16303205921E+02  0.19896285503E+02  0.29409602270E+02  0.00000000000E+00 0.  1.
</event>
<event>
 5    1  0.8778268E-005  0.9118800E+02  0.7818608E-02  0.1130116E+00
         25   -1    0    0    0    0  0.00000000000E+00  0.00000000000E+00  0.99999998245E-14  0.12500000000E+03  0.12500000000E+03 0.  0.
        -11    1    3    3    0    0 -0.20924611665E+02 -0.66412534453E+01 -0.55038961209E+02  0.59255656876E+02  0.51100000000E-03 0.  1.
         23    2    1    0    0    0 -0.22327274347E+02  0.10455631157E+01 -0.20488236424E+02  0.94678914701E+02  0.89692411469E+02 0.  0.
         11    1    3    3    0    0 -0.14026626817E+01  0.76868165611E+01  0.34550724785E+02  0.35423257824E+02  0.51100000000E-03 0. -1.
         22    1    1    0    0    0  0.22327274347E+02 -0.10455631157E+01  0.20488236424E+02  0.30321085299E+02  0.00000000000E+00 0.  1.
</event>
<event>
 5    1  0.8778268E-005  0.9118800E+02  0.7818608E-02  0.1130116E+00
         25   -1    0    0    0    0  0.00000000000E+00  0.00000000000E+00  0.99999998245E-14  0.12500000000E+03  0.12500000000E+03 0.  0.
        -11    1    3    3    0    0  0.36642037112E+02  0.21981468069E+02 -0.32221083701E+02  0.53516558721E+02  0.51100000000E-03 0. -1.
         23    2    1    0    0    0  0.12437001023E+02  0.28133894900E+02 -0.55334784910E-01  0.94239666799E+02  0.89078149396E+02 0.  0.
         11    1    3    3    0    0 -0.24205036089E+02  0.61524268313E+01  0.32165748916E+02  0.40723108078E+02  0.51100000000E-03 0.  1.
         22    1    1    0    0    0 -0.12437001023E+02 -0.28133894900E+02  0.55334784910E-01  0.30760333201E+02  0.00000000000E+00 0. -1.
</event>
<event>
 5    1  0.8778268E-005  0.9118800E+02  0.7818608E-02  0.1130116E+00
         25   -1    0    0    0    0  0.00000000000E+00  0.00000000000E+00  0.99999998245E-14  0.12500000000E+03  0.12500000000E+03 0.  0.
        -11    1    3    3    0    0 -0.24827981807E+02 -0.72719710440E+01  0.23174848680E+02  0.34733036940E+02  0.51100000000E-03 0. -1.
         23    2    1    0    0    0  0.28644629567E+02  0.10606225823E+02  0.45138953509E+01  0.94123114139E+02  0.88914445029E+02 0.  0.
         11    1    3    3    0    0  0.53472611373E+02  0.17878196867E+02 -0.18660953329E+02  0.59390077199E+02  0.51100000000E-03 0.  1.
         22    1    1    0    0    0 -0.28644629567E+02 -0.10606225823E+02 -0.45138953509E+01  0.30876885861E+02  0.00000000000E+00 0.  1.
</event>
<event>
 5    1  0.8778268E-005  0.9118800E+02  0.7818608E-02  0.1130116E+00
         25   -1    0    0    0    0  0.00000000000E+00  0.00000000000E+00  0.99999998245E-14  0.12500000000E+03  0.12500000000E+03 0.  0.
        -11    1    3    3    0    0 -0.10819289263E+02  0.29105741551E+01  0.39832607033E+02  0.41378316125E+02  0.51100000000E-03 0. -1.
         23    2    1    0    0    0 -0.23928671456E+02 -0.10715476934E+02 -0.11714226491E+02  0.96283700345E+02  0.91901714273E+02 0.  0.
         11    1    3    3    0    0 -0.13109382193E+02 -0.13626051089E+02 -0.51546833524E+02  0.54905384220E+02  0.51100000000E-03 0.  1.
         22    1    1    0    0    0  0.23928671456E+02  0.10715476934E+02  0.11714226491E+02  0.28716299655E+02  0.00000000000E+00 0.  1.
</event>
<event>
 5    1  0.8778268E-005  0.9118800E+02  0.7818608E-02  0.1130116E+00
         25   -1    0    0    0    0  0.00000000000E+00  0.00000000000E+00  0.99999998245E-14  0.12500000000E+03  0.12500000000E+03 0.  0.
        -11    1    3    3    0    0 -0.46364060514E+01 -0.22203742124E+01  0.59092898414E+02  0.59316076791E+02  0.51100000000E-03 0. -1.
         23    2    1    0    0    0 -0.30364497490E+01 -0.14848314841E+02  0.24334555589E+02  0.96331845605E+02  0.91967175672E+02 0.  0.
         11    1    3    3    0    0  0.15999563024E+01 -0.12627940629E+02 -0.34758342824E+02  0.37015768813E+02  0.51100000000E-03 0.  1.
         22    1    1    0    0    0  0.30364497490E+01  0.14848314841E+02 -0.24334555589E+02  0.28668154395E+02  0.00000000000E+00 0. -1.
</event>
<event>
 5    1  0.8778268E-005  0.9118800E+02  0.7818608E-02  0.1130116E+00
         25   -1    0    0    0    0  0.00000000000E+00  0.00000000000E+00  0.99999998245E-14  0.12500000000E+03  0.12500000000E+03 0.  0.
        -11    1    3    3    0    0 -0.16856920532E+02  0.34913512572E+02 -0.11083322332E+02  0.40323059954E+02  0.51100000000E-03 0. -1.
         23    2    1    0    0    0 -0.12999772090E+02 -0.20562502595E+02 -0.15575099297E+02  0.96114115809E+02  0.91670763891E+02 0.  0.
         11    1    3    3    0    0  0.38571484420E+01 -0.55476015167E+02 -0.44917769654E+01  0.55791055855E+02  0.51100000000E-03 0.  1.
         22    1    1    0    0    0  0.12999772090E+02  0.20562502595E+02  0.15575099297E+02  0.28885884191E+02  0.00000000000E+00 0.  1.
</event>
<event>
 5    1  0.8778268E-005  0.9118800E+02  0.7818608E-02  0.1130116E+00
         25   -1    0    0    0    0  0.00000000000E+00  0.00000000000E+00  0.99999998245E-14  0.12500000000E+03  0.12500000000E+03 0.  0.
        -11    1    3    3    0    0 -0.31946624790E+02  0.16320093426E+02 -0.45279938609E+01  0.36158470841E+02  0.51100000000E-03 0.  1.
         23    2    1    0    0    0  0.14396151699E+02 -0.12144608928E+01  0.26639563950E+02  0.94695042214E+02  0.89714884793E+02 0.  0.
         11    1    3    3    0    0  0.46342776489E+02 -0.17534554319E+02  0.31167557811E+02  0.58536571372E+02  0.51100000000E-03 0. -1.
         22    1    1    0    0    0 -0.14396151699E+02  0.12144608928E+01 -0.26639563950E+02  0.30304957786E+02  0.00000000000E+00 0. -1.
</event>
<event>
 5    1  0.8778268E-005  0.9118800E+02  0.7818608E-02  0.1130116E+00
         25   -1    0    0    0    0  0.00000000000E+00  0.00000000000E+00  0.99999998245E-14  0.12500000000E+03  0.12500000000E+03 0.  0.
        -11    1    3    3    0    0  0.10540793994E+02  0.39596569058E+02 -0.12200485915E+02  0.42753344618E+02  0.51100000000E-03 0. -1.
         23    2    1    0    0    0 -0.10173952680E+02 -0.61205994538E+01 -0.27352420428E+02  0.95181784861E+02  0.90390520605E+02 0.  0.
         11    1    3    3    0    0 -0.20714746675E+02 -0.45717168512E+02 -0.15151934513E+02  0.52428440243E+02  0.51100000000E-03 0.  1.
         22    1    1    0    0    0  0.10173952680E+02  0.61205994538E+01  0.27352420428E+02  0.29818215139E+02  0.00000000000E+00 0.  1.
</event>
<event>
 5    1  0.8778268E-005  0.9118800E+02  0.7818608E-02  0.1130116E+00
         25   -1    0    0    0    0  0.00000000000E+00  0.00000000000E+00  0.99999998245E-14  0.12500000000E+03  0.12500000000E+03 0.  0.
        -11    1    3    3    0    0 -0.61465541738E+02  0.62961457387E+00 -0.78170957950E+01  0.61963829954E+02  0.51100000000E-03 0. -1.
         23    2    1    0    0    0 -0.25817524057E+02  0.51041066707E+01 -0.63808952226E+01  0.97920260762E+02  0.94101355945E+02 0.  0.
         11    1    3    3    0    0  0.35648017681E+02  0.44744920968E+01  0.14362005725E+01  0.35956430808E+02  0.51100000000E-03 0.  1.
         22    1    1    0    0    0  0.25817524057E+02 -0.51041066707E+01  0.63808952226E+01  0.27079739238E+02  0.00000000000E+00 0. -1.
</event>
<event>
 5    1  0.8778268E-005  0.9118800E+02  0.7818608E-02  0.1130116E+00
         25   -1    0    0    0    0  0.00000000000E+00  0.00000000000E+00  0.99999998245E-14  0.12500000000E+03  0.12500000000E+03 0.  0.
        -11    1    3    3    0    0 -0.44410670360E+01  0.25170297675E+02 -0.52379804034E+02  0.58283023535E+02  0.51100000000E-03 0. -1.
         23    2    1    0    0    0 -0.11500735782E+02 -0.14553683835E+01 -0.26484621571E+02  0.96089444827E+02  0.91637116971E+02 0.  0.
         11    1    3    3    0    0 -0.70596687464E+01 -0.26625666059E+02  0.25895182463E+02  0.37806421292E+02  0.51100000000E-03 0.  1.
         22    1    1    0    0    0  0.11500735782E+02  0.14553683835E+01  0.26484621571E+02  0.28910555173E+02  0.00000000000E+00 0. -1.
</event>
<event>
 5    1  0.8778268E-005  0.9118800E+02  0.7818608E-02  0.1130116E+00
         25   -1    0    0    0    0  0.00000000000E+00  0.00000000000E+00  0.99999998245E-14  0.12500000000E+03  0.12500000000E+03 0.  0.
        -11    1    3    3    0    0  0.26546555615E+02 -0.26226143768E+02  0.15540485139E+02  0.40423222417E+02  0.51100000000E-03 0.  1.
         23    2    1    0    0    0  0.24517010321E+02  0.16729927718E+02 -0.13580488303E+02  0.92359473977E+02  0.86399470451E+02 0.  0.
         11    1    3    3    0    0 -0.20295452941E+01  0.42956071486E+02 -0.29120973442E+02  0.51936251560E+02  0.51100000000E-03 0. -1.
         22    1    1    0    0    0 -0.24517010321E+02 -0.16729927718E+02  0.13580488303E+02  0.32640526023E+02  0.00000000000E+00 0. -1.
</event>
<event>
 5    1  0.8778268E-005  0.9118800E+02  0.7818608E-02  0.1130116E+00
         25   -1    0    0    0    0  0.00000000000E+00  0.00000000000E+00  0.99999998245E-14  0.12500000000E+03  0.12500000000E+03 0.  0.
        -11    1    3    3    0    0 -0.37520839290E+02  0.21036634223E+02  0.96727465116E+01  0.44089855815E+02  0.51100000000E-03 0. -1.
         23    2    1    0    0    0 -0.19360099917E+02 -0.15836591078E+02 -0.18472795252E+02  0.93905703897E+02  0.88608272606E+02 0.  0.
         11    1    3    3    0    0  0.18160739373E+02 -0.36873225301E+02 -0.28145541764E+02  0.49815848081E+02  0.51100000000E-03 0.  1.
         22    1    1    0    0    0  0.19360099917E+02  0.15836591078E+02  0.18472795252E+02  0.31094296103E+02  0.00000000000E+00 0.  1.
</event>
<event>
 5    1  0.8778268E-005  0.9118800E+02  0.7818608E-02  0.1130116E+00
         25   -1    0    0    0    0  0.00000000000E+00  0.00000000000E+00  0.99999998245E-14  0.12500000000E+03  0.12500000000E+03 0.  0.
        -11    1    3    3    0    0 -0.31762335418E+02 -0.96031297656E+01 -0.47779537151E+02  0.58171730447E+02  0.51100000000E-03 0. -1.
         23    2    1    0    0    0 -0.10328820785E+02  0.10070342431E+02 -0.28451423839E+02  0.93100472513E+02  0.87464953714E+02 0.  0.
         11    1    3    3    0    0  0.21433514633E+02  0.19673472197E+02  0.19328113313E+02  0.34928742066E+02  0.51100000000E-03 0.  1.
         22    1    1    0    0    0  0.10328820785E+02 -0.10070342431E+02  0.28451423839E+02  0.31899527487E+02  0.00000000000E+00 0. -1.
</event>
<event>
 5    1  0.8778268E-005  0.9118800E+02  0.7818608E-02  0.1130116E+00
         25   -1    0    0    0    0  0.00000000000E+00  0.00000000000E+00  0.99999998245E-14  0.12500000000E+03  0.12500000000E+03 0.  0.
        -11    1    3    3    0    0 -0.34254889061E+02 -0.45116719294E+02  0.10684443680E+01  0.56657368083E+02  0.51100000000E-03 0.  1.
         23    2    1    0    0    0 -0.27493452476E+02 -0.55187226567E+01 -0.15632636988E+01  0.96914594142E+02  0.92755854454E+02 0.  0.
         11    1    3    3    0    0  0.67614365850E+01  0.39597996637E+02 -0.26317080668E+01  0.40257226059E+02  0.51100000000E-03 0. -1.
         22    1    1    0    0    0  0.27493452476E+02  0.55187226567E+01  0.15632636988E+01  0.28085405858E+02  0.00000000000E+00 0.  1.
</event>
<event>
 5    1  0.8778268E-005  0.9118800E+02  0.7818608E-02  0.1130116E+00
         25   -1    0    0    0    0  0.00000000000E+00  0.00000000000E+00  0.99999998245E-14  0.12500000000E+03  0.12500000000E+03 0.  0.
        -11    1    3    3    0    0 -0.51658854493E+02  0.24186630337E+02  0.13778788329E+02  0.58681217972E+02  0.51100000000E-03 0.  1.
         23    2    1    0    0    0 -0.42883807205E+02  0.88960752283E+01 -0.23577007095E+00  0.81202549590E+02  0.68378632609E+02 0.  0.
         11    1    3    3    0    0  0.87750472878E+01 -0.15290555108E+02 -0.14014558400E+02  0.22521331618E+02  0.51100000000E-03 0. -1.
         22    1    1    0    0    0  0.42883807205E+02 -0.88960752283E+01  0.23577007095E+00  0.43797450410E+02  0.00000000000E+00 0.  1.
</event>
<event>
 5    1  0.8778268E-005  0.9118800E+02  0.7818608E-02  0.1130116E+00
         25   -1    0    0    0    0  0.00000000000E+00  0.00000000000E+00  0.99999998245E-14  0.12500000000E+03  0.12500000000E+03 0.  0.
        -11    1    3    3    0    0  0.20035641967E+02  0.95768528398E+01  0.25355175464E+02  0.33705014203E+02  0.51100000000E-03 0.  1.
         23    2    1    0    0    0  0.79091401439E+01  0.13153511234E+02 -0.30437219950E+02  0.90911971106E+02  0.84279254722E+02 0.  0.
         11    1    3    3    0    0 -0.12126501824E+02  0.35766583939E+01 -0.55792395414E+02  0.57206956903E+02  0.51100000000E-03 0. -1.
         22    1    1    0    0    0 -0.79091401439E+01 -0.13153511234E+02  0.30437219950E+02  0.34088028894E+02  0.00000000000E+00 0. -1.
</event>
<event>
 5    1  0.8778268E-005  0.9118800E+02  0.7818608E-02  0.1130116E+00
         25   -1    0    0    0    0  0.00000000000E+00  0.00000000000E+00  0.99999998245E-14  0.12500000000E+03  0.12500000000E+03 0.  0.
        -11    1    3    3    0    0  0.12137490446E+02 -0.43583445749E+02  0.21721546672E+01  0.45294079899E+02  0.51100000000E-03 0. -1.
         23    2    1    0    0    0 -0.19118693328E+02 -0.93873872645E+01 -0.19209088627E+02  0.96318358483E+02  0.91948842411E+02 0.  0.
         11    1    3    3    0    0 -0.31256183774E+02  0.34196058485E+02 -0.21381243294E+02  0.51024278585E+02  0.51100000000E-03 0.  1.
         22    1    1    0    0    0  0.19118693328E+02  0.93873872645E+01  0.19209088627E+02  0.28681641517E+02  0.00000000000E+00 0. -1.
</event>
<event>
 5    1  0.8778268E-005  0.9118800E+02  0.7818608E-02  0.1130116E+00
         25   -1    0    0    0    0  0.00000000000E+00  0.00000000000E+00  0.99999998245E-14  0.12500000000E+03  0.12500000000E+03 0.  0.
        -11    1    3    3    0    0 -0.48132533917E+02  0.11079492531E+02  0.10614770989E+02  0.50518999786E+02  0.51100000000E-03 0. -1.
         23    2    1    0    0    0 -0.20085159603E+02 -0.21133126617E+02 -0.38011235189E+01  0.95598108617E+02  0.90964427961E+02 0.  0.
         11    1    3    3    0    0  0.28047374314E+02 -0.32212619148E+02 -0.14415894508E+02  0.45079108831E+02  0.51100000000E-03 0.  1.
         22    1    1    0    0    0  0.20085159603E+02  0.21133126617E+02  0.38011235189E+01  0.29401891383E+02  0.00000000000E+00 0. -1.
</event>
<event>
 5    1  0.8778268E-005  0.9118800E+02  0.7818608E-02  0.1130116E+00
         25   -1    0    0    0    0  0.00000000000E+00  0.00000000000E+00  0.99999998245E-14  0.12500000000E+03  0.12500000000E+03 0.  0.
        -11    1    3    3    0    0  0.27754933800E+02  0.66324086024E+01 -0.22682492049E+02  0.36452992195E+02  0.51100000000E-03 0.  1.
         23    2    1    0    0    0  0.22609814247E+01 -0.21864223083E+02  0.21065089109E+02  0.94555061715E+02  0.89519637113E+02 0.  0.
         11    1    3    3    0    0 -0.25493952375E+02 -0.28496631685E+02  0.43747581158E+02  0.58102069520E+02  0.51100000000E-03 0. -1.
         22    1    1    0    0    0 -0.22609814247E+01  0.21864223083E+02 -0.21065089109E+02  0.30444938285E+02  0.00000000000E+00 0. -1.
</event>
<event>
 5    1  0.8778268E-005  0.9118800E+02  0.7818608E-02  0.1130116E+00
         25   -1    0    0    0    0  0.00000000000E+00  0.00000000000E+00  0.99999998245E-14  0.12500000000E+03  0.12500000000E+03 0.  0.
        -11    1    3    3    0    0  0.29522695382E+02  0.43681047377E+02  0.22620287946E+02  0.57369860289E+02  0.51100000000E-03 0. -1.
         23    2    1    0    0    0  0.22849646079E+00  0.15650323421E+02  0.22101060538E+02  0.97917871009E+02  0.94098181450E+02 0.  0.
         11    1    3    3    0    0 -0.29294198921E+02 -0.28030723956E+02 -0.51922740885E+00  0.40548010719E+02  0.51100000000E-03 0.  1.
         22    1    1    0    0    0 -0.22849646079E+00 -0.15650323421E+02 -0.22101060538E+02  0.27082128991E+02  0.00000000000E+00 0. -1.
</event>
<event>
 5    1  0.8778268E-005  0.9118800E+02  0.7818608E-02  0.1130116E+00
         25   -1    0    0    0    0  0.00000000000E+00  0.00000000000E+00  0.99999998245E-14  0.12500000000E+03  0.12500000000E+03 0.  0.
        -11    1    3    3    0    0 -0.26030668476E+02 -0.60674920611E+01  0.26489866015E+02  0.37631411919E+02  0.51100000000E-03 0. -1.
         23    2    1    0    0    0  0.19640831777E+02 -0.25552052954E+02  0.27914718710E+01  0.92650935125E+02  0.86820123136E+02 0.  0.
         11    1    3    3    0    0  0.45671500254E+02 -0.19484560893E+02 -0.23698394144E+02  0.55019523207E+02  0.51100000000E-03 0.  1.
         22    1    1    0    0    0 -0.19640831777E+02  0.25552052954E+02 -0.27914718710E+01  0.32349064875E+02  0.00000000000E+00 0.  1.
</event>
<event>
 5    1  0.8778268E-005  0.9118800E+02  0.7818608E-02  0.1130116E+00
         25   -1    0    0    0    0  0.00000000000E+00  0.00000000000E+00  0.99999998245E-14  0.12500000000E+03  0.12500000000E+03 0.  0.
        -11    1    3    3    0    0 -0.96109274284E+01  0.11046813787E+02 -0.23583390184E+02  0.27759292385E+02  0.51100000000E-03 0.  1.
         23    2    1    0    0    0 -0.15817830198E+02  0.17530793091E+02  0.32651164597E+02  0.84705695091E+02  0.74507877253E+02 0.  0.
         11    1    3    3    0    0 -0.62069027695E+01  0.64839793042E+01  0.56234554780E+02  0.56946402706E+02  0.51100000000E-03 0. -1.
         22    1    1    0    0    0  0.15817830198E+02 -0.17530793091E+02 -0.32651164597E+02  0.40294304909E+02  0.00000000000E+00 0. -1.
</event>
<event>
 5    1  0.8778268E-005  0.9118800E+02  0.7818608E-02  0.1130116E+00
         25   -1    0    0    0    0  0.00000000000E+00  0.00000000000E+00  0.99999998245E-14  0.12500000000E+03  0.12500000000E+03 0.  0.
        -11    1    3    3    0    0 -0.55651996317E+01 -0.24483506322E+02  0.21468274206E+02  0.33034835045E+02  0.51100000000E-03 0. -1.
         23    2    1    0    0    0  0.11487150813E+02  0.19629055834E+02 -0.19065988360E+02  0.95322291549E+02  0.90584617277E+02 0.  0.
         11    1    3    3    0    0  0.17052350445E+02  0.44112562157E+02 -0.40534262566E+02  0.62287456504E+02  0.51100000000E-03 0.  1.
         22    1    1    0    0    0 -0.11487150813E+02 -0.19629055834E+02  0.19065988360E+02  0.29677708451E+02  0.00000000000E+00 0.  1.
</event>
<event>
 5    1  0.8778268E-005  0.9118800E+02  0.7818608E-02  0.1130116E+00
         25   -1    0    0    0    0  0.00000000000E+00  0.00000000000E+00  0.99999998245E-14  0.12500000000E+03  0.12500000000E+03 0.  0.
        -11    1    3    3    0    0 -0.48576990823E+02  0.30385312623E+01  0.37103992290E+02  0.61201821491E+02  0.51100000000E-03 0.  1.
         23    2    1    0    0    0 -0.18367434099E+02  0.40042666201E+01  0.24906824127E+02  0.93795085730E+02  0.88452085517E+02 0.  0.
         11    1    3    3    0    0  0.30209556724E+02  0.96573535774E+00 -0.12197168163E+02  0.32593264239E+02  0.51100000000E-03 0. -1.
         22    1    1    0    0    0  0.18367434099E+02 -0.40042666201E+01 -0.24906824127E+02  0.31204914270E+02  0.00000000000E+00 0.  1.
</event>
<event>
 5    1  0.8778268E-005  0.9118800E+02  0.7818608E-02  0.1130116E+00
         25   -1    0    0    0    0  0.00000000000E+00  0.00000000000E+00  0.99999998245E-14  0.12500000000E+03  0.12500000000E+03 0.  0.
        -11    1    3    3    0    0  0.39194438343E+02  0.36866851010E+02  0.11574180221E+02  0.55039352726E+02  0.51100000000E-03 0.  1.
         23    2    1    0    0    0  0.92001410912E+01  0.10950743093E+02 -0.16161376265E+02  0.10341872448E+03  0.10114188608E+03 0.  0.
         11    1    3    3    0    0 -0.29994297252E+02 -0.25916107917E+02 -0.27735556487E+02  0.48379371752E+02  0.51100000000E-03 0. -1.
         22    1    1    0    0    0 -0.92001410912E+01 -0.10950743093E+02  0.16161376265E+02  0.21581275522E+02  0.00000000000E+00 0.  1.
</event>
<event>
 5    1  0.8778268E-005  0.9118800E+02  0.7818608E-02  0.1130116E+00
         25   -1    0    0    0    0  0.00000000000E+00  0.00000000000E+00  0.99999998245E-14  0.12500000000E+03  0.12500000000E+03 0.  0.
        -11    1    3    3    0    0 -0.96997941010E+01  0.58201042191E+02  0.14738964560E+01  0.59022196577E+02  0.51100000000E-03 0. -1.
         23    2    1    0    0    0 -0.17784991602E+02  0.23352754970E+02 -0.45365504299E+01  0.95297518945E+02  0.90550426483E+02 0.  0.
         11    1    3    3    0    0 -0.80851975014E+01 -0.34848287221E+02 -0.60104468859E+01  0.36275322368E+02  0.51100000000E-03 0.  1.
         22    1    1    0    0    0  0.17784991602E+02 -0.23352754970E+02  0.45365504299E+01  0.29702481055E+02  0.00000000000E+00 0. -1.
</event>
<event>
 5    1  0.8778268E-005  0.9118800E+02  0.7818608E-02  0.1130116E+00
         25   -1    0    0    0    0  0.00000000000E+00  0.00000000000E+00  0.99999998245E-14  0.12500000000E+03  0.12500000000E+03 0.  0.
        -11    1    3    3    0    0  0.21412016547E-01  0.26479197762E+02  0.21444057132E+02  0.34073390778E+02  0.51100000000E-03 0.  1.
         23    2    1    0    0    0 -0.29756457294E+02 -0.15553896575E+02  0.20630613703E+02  0.85591971996E+02  0.75980214524E+02 0.  0.
         11    1    3    3    0    0 -0.29777869310E+02 -0.42033094338E+02 -0.81344342817E+00  0.51518581218E+02  0.51100000000E-03 0. -1.
         22    1    1    0    0    0  0.29756457294E+02  0.15553896575E+02 -0.20630613703E+02  0.39408028004E+02  0.00000000000E+00 0. -1.
</event>
<event>
 5    1  0.8778268E-005  0.9118800E+02  0.7818608E-02  0.1130116E+00
         25   -1    0    0    0    0  0.00000000000E+00  0.00000000000E+00  0.99999998245E-14  0.12500000000E+03  0.12500000000E+03 0.  0.
        -11    1    3    3    0    0  0.36290918107E+02  0.19798472169E+02  0.41775762416E+02  0.58772651488E+02  0.51100000000E-03 0.  1.
         23    2    1    0    0    0  0.24831973473E+01  0.11481574957E+02  0.24911515319E+02  0.97457733788E+02  0.93484937007E+02 0.  0.
         11    1    3    3    0    0 -0.33807720759E+02 -0.83168972112E+01 -0.16864247097E+02  0.38685082300E+02  0.51100000000E-03 0. -1.
         22    1    1    0    0    0 -0.24831973473E+01 -0.11481574957E+02 -0.24911515319E+02  0.27542266212E+02  0.00000000000E+00 0.  1.
</event>
<event>
 5    1  0.8778268E-005  0.9118800E+02  0.7818608E-02  0.1130116E+00
         25   -1    0    0    0    0  0.00000000000E+00  0.00000000000E+00  0.99999998245E-14  0.12500000000E+03  0.12500000000E+03 0.  0.
        -11    1    3    3    0    0 -0.18571324776E+01  0.34310363571E+02  0.13011755070E+02  0.36741744102E+02  0.51100000000E-03 0.  1.
         23    2    1    0    0    0 -0.21741339687E+02 -0.17785041343E+02 -0.71145663072E+01  0.96023965063E+02  0.91547754017E+02 0.  0.
         11    1    3    3    0    0 -0.19884207209E+02 -0.52095404914E+02 -0.20126321377E+02  0.59282220960E+02  0.51100000000E-03 0. -1.
         22    1    1    0    0    0  0.21741339687E+02  0.17785041343E+02  0.71145663072E+01  0.28976034937E+02  0.00000000000E+00 0. -1.
</event>
<event>
 5    1  0.8778268E-005  0.9118800E+02  0.7818608E-02  0.1130116E+00
         25   -1    0    0    0    0  0.00000000000E+00  0.00000000000E+00  0.99999998245E-14  0.12500000000E+03  0.12500000000E+03 0.  0.
        -11    1    3    3    0    0 -0.26159013388E+02 -0.50276696753E+01 -0.37030611155E+02  0.45616198949E+02  0.51100000000E-03 0.  1.
         23    2    1    0    0    0  0.40596327986E+01  0.26325268886E+02 -0.15295110948E+02  0.94284518248E+02  0.89141065519E+02 0.  0.
         11    1    3    3    0    0  0.30218646187E+02  0.31352938561E+02  0.21735500207E+02  0.48668319298E+02  0.51100000000E-03 0. -1.
         22    1    1    0    0    0 -0.40596327986E+01 -0.26325268886E+02  0.15295110948E+02  0.30715481752E+02  0.00000000000E+00 0.  1.
</event>
<event>
 5    1  0.8778268E-005  0.9118800E+02  0.7818608E-02  0.1130116E+00
         25   -1    0    0    0    0  0.00000000000E+00  0.00000000000E+00  0.99999998245E-14  0.12500000000E+03  0.12500000000E+03 0.  0.
        -11    1    3    3    0    0 -0.28770707996E+02  0.33688583594E+02 -0.19413520404E+02  0.48368988803E+02  0.51100000000E-03 0.  1.
         23    2    1    0    0    0 -0.27656162565E+02 -0.96416334682E+01 -0.37886240748E+00  0.95708909879E+02  0.91116559799E+02 0.  0.
         11    1    3    3    0    0  0.11145454304E+01 -0.43330217062E+02  0.19034657996E+02  0.47339921075E+02  0.51100000000E-03 0. -1.
         22    1    1    0    0    0  0.27656162565E+02  0.96416334682E+01  0.37886240748E+00  0.29291090121E+02  0.00000000000E+00 0. -1.
</event>
<event>
 5    1  0.8778268E-005  0.9118800E+02  0.7818608E-02  0.1130116E+00
         25   -1    0    0    0    0  0.00000000000E+00  0.00000000000E+00  0.99999998245E-14  0.12500000000E+03  0.12500000000E+03 0.  0.
        -11    1    3    3    0    0  0.12824736266E+02 -0.13221185116E+02 -0.26123116068E+02  0.31963898222E+02  0.51100000000E-03 0. -1.
         23    2    1    0    0    0 -0.33466559274E+01  0.10848414493E+02  0.28784122229E+02  0.94057894458E+02  0.88822708889E+02 0.  0.
         11    1    3    3    0    0 -0.16171392193E+02  0.24069599610E+02  0.54907238297E+02  0.62093996236E+02  0.51100000000E-03 0.  1.
         22    1    1    0    0    0  0.33466559274E+01 -0.10848414493E+02 -0.28784122229E+02  0.30942105542E+02  0.00000000000E+00 0.  1.
</event>
<event>
 5    1  0.8778268E-005  0.9118800E+02  0.7818608E-02  0.1130116E+00
         25   -1    0    0    0    0  0.00000000000E+00  0.00000000000E+00  0.99999998245E-14  0.12500000000E+03  0.12500000000E+03 0.  0.
        -11    1    3    3    0    0  0.13794806889E+02 -0.23834755226E+02 -0.34226932417E+02  0.43930344373E+02  0.51100000000E-03 0.  1.
         23    2    1    0    0    0 -0.27036789270E+02 -0.21440781401E+01 -0.10315245017E+02  0.95982947688E+02  0.91491731441E+02 0.  0.
         11    1    3    3    0    0 -0.40831596159E+02  0.21690677086E+02  0.23911687400E+02  0.52052603315E+02  0.51100000000E-03 0. -1.
         22    1    1    0    0    0  0.27036789270E+02  0.21440781401E+01  0.10315245017E+02  0.29017052312E+02  0.00000000000E+00 0.  1.
</event>
<event>
 5    1  0.8778268E-005  0.9118800E+02  0.7818608E-02  0.1130116E+00
         25   -1    0    0    0    0  0.00000000000E+00  0.00000000000E+00  0.99999998245E-14  0.12500000000E+03  0.12500000000E+03 0.  0.
        -11    1    3    3    0    0  0.45896041634E+02  0.39905451543E+02  0.18538115814E+01  0.60846760950E+02  0.51100000000E-03 0. -1.
         23    2    1    0    0    0  0.20315453833E+02  0.18280488387E+02  0.10953752109E+02  0.95557197733E+02  0.90908192332E+02 0.  0.
         11    1    3    3    0    0 -0.25580587801E+02 -0.21624963156E+02  0.90999405277E+01  0.34710436782E+02  0.51100000000E-03 0.  1.
         22    1    1    0    0    0 -0.20315453833E+02 -0.18280488387E+02 -0.10953752109E+02  0.29442802267E+02  0.00000000000E+00 0. -1.
</event>
<event>
 5    1  0.8778268E-005  0.9118800E+02  0.7818608E-02  0.1130116E+00
         25   -1    0    0    0    0  0.00000000000E+00  0.00000000000E+00  0.99999998245E-14  0.12500000000E+03  0.12500000000E+03 0.  0.
        -11    1    3    3    0    0  0.55083640020E+01 -0.21265529028E+02  0.53756536318E+02  0.58071765911E+02  0.51100000000E-03 0. -1.
         23    2    1    0    0    0 -0.42266522243E+01  0.49124284487E+01  0.28647515328E+02  0.95628641898E+02  0.91006376010E+02 0.  0.
         11    1    3    3    0    0 -0.97350162263E+01  0.26177957477E+02 -0.25109020990E+02  0.37556875988E+02  0.51100000000E-03 0.  1.
         22    1    1    0    0    0  0.42266522243E+01 -0.49124284487E+01 -0.28647515328E+02  0.29371358102E+02  0.00000000000E+00 0. -1.
</event>
<event>
 5    1  0.8778268E-005  0.9118800E+02  0.7818608E-02  0.1130116E+00
         25   -1    0    0    0    0  0.00000000000E+00  0.00000000000E+00  0.99999998245E-14  0.12500000000E+03  0.12500000000E+03 0.  0.
        -11    1    3    3    0    0 -0.33437351564E+02  0.68977513172E+01 -0.72262457690E+01  0.34897766133E+02  0.51100000000E-03 0.  1.
         23    2    1    0    0    0  0.22573545955E+02 -0.10304406387E+02 -0.17832289696E+02  0.94442900599E+02  0.89362884633E+02 0.  0.
         11    1    3    3    0    0  0.56010897519E+02 -0.17202157705E+02 -0.10606043927E+02  0.59545134467E+02  0.51100000000E-03 0. -1.
         22    1    1    0    0    0 -0.22573545955E+02  0.10304406387E+02  0.17832289696E+02  0.30557099401E+02  0.00000000000E+00 0. -1.
</event>
<event>
 5    1  0.8778268E-005  0.9118800E+02  0.7818608E-02  0.1130116E+00
         25   -1    0    0    0    0  0.00000000000E+00  0.00000000000E+00  0.99999998245E-14  0.12500000000E+03  0.12500000000E+03 0.  0.
        -11    1    3    3    0    0  0.12859224641E+02  0.52787825738E+00  0.47797692996E+02  0.49500078483E+02  0.51100000000E-03 0.  1.
         23    2    1    0    0    0 -0.11781454879E+02 -0.21745301229E+02  0.15602465327E+02  0.95757945884E+02  0.91183805969E+02 0.  0.
         11    1    3    3    0    0 -0.24640679520E+02 -0.22273179487E+02 -0.32195227668E+02  0.46257867402E+02  0.51100000000E-03 0. -1.
         22    1    1    0    0    0  0.11781454879E+02  0.21745301229E+02 -0.15602465327E+02  0.29242054116E+02  0.00000000000E+00 0.  1.
</event>
<event>
 5    1  0.8778268E-005  0.9118800E+02  0.7818608E-02  0.1130116E+00
         25   -1    0    0    0    0  0.00000000000E+00  0.00000000000E+00  0.99999998245E-14  0.12500000000E+03  0.12500000000E+03 0.  0.
        -11    1    3    3    0    0 -0.51007714173E+01  0.49030292678E+02 -0.30071248844E+02  0.57743116269E+02  0.51100000000E-03 0. -1.
         23    2    1    0    0    0  0.99017051398E+01  0.34909143885E+02 -0.81833171612E+01  0.87802435950E+02  0.79533697183E+02 0.  0.
         11    1    3    3    0    0  0.15002476557E+02 -0.14121148793E+02  0.21887931683E+02  0.30059319681E+02  0.51100000000E-03 0.  1.
         22    1    1    0    0    0 -0.99017051398E+01 -0.34909143885E+02  0.81833171612E+01  0.37197564050E+02  0.00000000000E+00 0. -1.
</event>
<event>
 5    1  0.8778268E-005  0.9118800E+02  0.7818608E-02  0.1130116E+00
         25   -1    0    0    0    0  0.00000000000E+00  0.00000000000E+00  0.99999998245E-14  0.12500000000E+03  0.12500000000E+03 0.  0.
        -11    1    3    3    0    0  0.42193193908E+02  0.26365906021E+02 -0.18992912522E+02  0.53255585048E+02  0.51100000000E-03 0.  1.
         23    2    1    0    0    0  0.14357925487E+02  0.19914296114E+02  0.13869321758E+02  0.96802707577E+02  0.92604950700E+02 0.  0.
         11    1    3    3    0    0 -0.27835268421E+02 -0.64516099071E+01  0.32862234279E+02  0.43547122529E+02  0.51100000000E-03 0. -1.
         22    1    1    0    0    0 -0.14357925487E+02 -0.19914296114E+02 -0.13869321758E+02  0.28197292423E+02  0.00000000000E+00 0. -1.
</event>
<event>
 5    1  0.8778268E-005  0.9118800E+02  0.7818608E-02  0.1130116E+00
         25   -1    0    0    0    0  0.00000000000E+00  0.00000000000E+00  0.99999998245E-14  0.12500000000E+03  0.12500000000E+03 0.  0.
        -11    1    3    3    0    0  0.13309706847E+02 -0.45700313920E+02  0.39716149036E+02  0.61992253413E+02  0.51100000000E-03 0. -1.
         23    2    1    0    0    0  0.90344099892E+01 -0.22799100113E+02  0.13722921030E+02  0.96897720886E+02  0.92733112864E+02 0.  0.
         11    1    3    3    0    0 -0.42752968581E+01  0.22901213806E+02 -0.25993228006E+02  0.34905467472E+02  0.51100000000E-03 0.  1.
         22    1    1    0    0    0 -0.90344099892E+01  0.22799100113E+02 -0.13722921030E+02  0.28102279114E+02  0.00000000000E+00 0. -1.
</event>
<event>
 5    1  0.8778268E-005  0.9118800E+02  0.7818608E-02  0.1130116E+00
         25   -1    0    0    0    0  0.00000000000E+00  0.00000000000E+00  0.99999998245E-14  0.12500000000E+03  0.12500000000E+03 0.  0.
        -11    1    3    3    0    0  0.23025246152E+02  0.16133503407E+02  0.21436532655E+02  0.35355011315E+02  0.51100000000E-03 0. -1.
         23    2    1    0    0    0 -0.38309183897E+01 -0.30685075961E+02 -0.15897682462E+01  0.94035872602E+02  0.88791712173E+02 0.  0.
         11    1    3    3    0    0 -0.26856164542E+02 -0.46818579368E+02 -0.23026300901E+02  0.58680861287E+02  0.51100000000E-03 0.  1.
         22    1    1    0    0    0  0.38309183897E+01  0.30685075961E+02  0.15897682462E+01  0.30964127398E+02  0.00000000000E+00 0.  1.
</event>
<event>
 5    1  0.8778268E-005  0.9118800E+02  0.7818608E-02  0.1130116E+00
         25   -1    0    0    0    0  0.00000000000E+00  0.00000000000E+00  0.99999998245E-14  0.12500000000E+03  0.12500000000E+03 0.  0.
        -11    1    3    3    0    0 -0.30549796687E+02 -0.87827831319E+01 -0.18314248925E+02  0.36685679374E+02  0.51100000000E-03 0.  1.
         23    2    1    0    0    0  0.79511432736E+01  0.34534451024E+01  0.26557305817E+02  0.97063689315E+02  0.92956561516E+02 0.  0.
         11    1    3    3    0    0  0.38500939961E+02  0.12236228234E+02  0.44871554742E+02  0.60378009941E+02  0.51100000000E-03 0. -1.
         22    1    1    0    0    0 -0.79511432736E+01 -0.34534451024E+01 -0.26557305817E+02  0.27936310685E+02  0.00000000000E+00 0. -1.
</event>
<event>
 5    1  0.8778268E-005  0.9118800E+02  0.7818608E-02  0.1130116E+00
         25   -1    0    0    0    0  0.00000000000E+00  0.00000000000E+00  0.99999998245E-14  0.12500000000E+03  0.12500000000E+03 0.  0.
        -11    1    3    3    0    0  0.19605195573E+02 -0.10835669224E+02 -0.28457099503E+02  0.36215769126E+02  0.51100000000E-03 0. -1.
         23    2    1    0    0    0 -0.18240959126E+02  0.23910928795E+02 -0.45987935937E-01  0.94925638485E+02  0.90035601965E+02 0.  0.
         11    1    3    3    0    0 -0.37846154699E+02  0.34746598019E+02  0.28411111567E+02  0.58709869359E+02  0.51100000000E-03 0.  1.
         22    1    1    0    0    0  0.18240959126E+02 -0.23910928795E+02  0.45987935937E-01  0.30074361515E+02  0.00000000000E+00 0.  1.
</event>
<event>
 5    1  0.8778268E-005  0.9118800E+02  0.7818608E-02  0.1130116E+00
         25   -1    0    0    0    0  0.00000000000E+00  0.00000000000E+00  0.99999998245E-14  0.12500000000E+03  0.12500000000E+03 0.  0.
        -11    1    3    3    0    0  0.33421866883E+02  0.88836848719E+01 -0.83129126745E+01  0.35567478970E+02  0.51100000000E-03 0.  1.
         23    2    1    0    0    0 -0.27550609958E+02  0.44218818668E+01 -0.31109113735E+01  0.96923908429E+02  0.92768405761E+02 0.  0.
         11    1    3    3    0    0 -0.60972476841E+02 -0.44618030051E+01  0.52020013010E+01  0.61356429460E+02  0.51100000000E-03 0. -1.
         22    1    1    0    0    0  0.27550609958E+02 -0.44218818668E+01  0.31109113735E+01  0.28076091571E+02  0.00000000000E+00 0. -1.
</event>
<event>
 4    1  0.8778268E-005  0.9118800E+02  0.7818608E-02  0.1130116E+00
         25   -1    0    0    0    0  0.00000000000E+00  0.00000000000E+00  0.99999998245E-14  0.12500000000E+03  0.12500000000E+03 0.  0.
        -11    1    1    0    0    0  0.62493751540E+01  0.74083993105E+01  0.89312553421E+01  0.13179772092E+02  0.51100000000E-03 0.  1.
         11    1    1    0    0    0 -0.42740831956E+02  0.30630739843E+02 -0.22800228997E+02  0.57313797486E+02  0.51100000000E-03 0. -1.
         22    1    1    0    0    0  0.36491456802E+02 -0.38039139154E+02  0.13868973655E+02  0.54506430422E+02  0.00000000000E+00 0. -1.
</event>
<event>
 5    1  0.8778268E-005  0.9118800E+02  0.7818608E-02  0.1130116E+00
         25   -1    0    0    0    0  0.00000000000E+00  0.00000000000E+00  0.99999998245E-14  0.12500000000E+03  0.12500000000E+03 0.  0.
        -11    1    3    3    0    0  0.17945230008E+02 -0.19555201318E+02 -0.23867267737E+02  0.35694308343E+02  0.51100000000E-03 0.  1.
         23    2    1    0    0    0 -0.24172786615E+02 -0.36768108197E+01  0.15964047816E+02  0.95799086090E+02  0.91240185897E+02 0.  0.
         11    1    3    3    0    0 -0.42118016623E+02  0.15878390498E+02  0.39831315553E+02  0.60104777747E+02  0.51100000000E-03 0. -1.
         22    1    1    0    0    0  0.24172786615E+02  0.36768108197E+01 -0.15964047816E+02  0.29200913910E+02  0.00000000000E+00 0. -1.
</event>
<event>
 5    1  0.8778268E-005  0.9118800E+02  0.7818608E-02  0.1130116E+00
         25   -1    0    0    0    0  0.00000000000E+00  0.00000000000E+00  0.99999998245E-14  0.12500000000E+03  0.12500000000E+03 0.  0.
        -11    1    3    3    0    0 -0.88954992376E+01 -0.20857917902E+02 -0.15948486207E+02  0.27722497334E+02  0.51100000000E-03 0.  1.
         23    2    1    0    0    0  0.18538292908E+02  0.31339628521E+02 -0.91513768485E+00  0.88576407415E+02  0.80740955245E+02 0.  0.
         11    1    3    3    0    0  0.27433792146E+02  0.52197546423E+02  0.15033348522E+02  0.60853910081E+02  0.51100000000E-03 0. -1.
         22    1    1    0    0    0 -0.18538292908E+02 -0.31339628521E+02  0.91513768485E+00  0.36423592585E+02  0.00000000000E+00 0. -1.
</event>
<event>
 5    1  0.8778268E-005  0.9118800E+02  0.7818608E-02  0.1130116E+00
         25   -1    0    0    0    0  0.00000000000E+00  0.00000000000E+00  0.99999998245E-14  0.12500000000E+03  0.12500000000E+03 0.  0.
        -11    1    3    3    0    0  0.40145578145E+01  0.32193927434E+02  0.27349511179E+02  0.42433022518E+02  0.51100000000E-03 0. -1.
         23    2    1    0    0    0  0.71245489626E+01  0.16342793276E+02 -0.23337594177E+02  0.95631830293E+02  0.91010755261E+02 0.  0.
         11    1    3    3    0    0  0.31099911481E+01 -0.15851134158E+02 -0.50687105356E+02  0.53198807775E+02  0.51100000000E-03 0.  1.
         22    1    1    0    0    0 -0.71245489626E+01 -0.16342793276E+02  0.23337594177E+02  0.29368169707E+02  0.00000000000E+00 0.  1.
</event>
<event>
 5    1  0.8778268E-005  0.9118800E+02  0.7818608E-02  0.1130116E+00
         25   -1    0    0    0    0  0.00000000000E+00  0.00000000000E+00  0.99999998245E-14  0.12500000000E+03  0.12500000000E+03 0.  0.
        -11    1    3    3    0    0  0.16903615344E+02  0.15361153849E+02 -0.29295575757E+02  0.37147382391E+02  0.51100000000E-03 0. -1.
         23    2    1    0    0    0 -0.57135412153E+01 -0.29620512940E+02 -0.11867252355E+01  0.94810139834E+02  0.89875107557E+02 0.  0.
         11    1    3    3    0    0 -0.22617156559E+02 -0.44981666790E+02  0.28108850522E+02  0.57662757443E+02  0.51100000000E-03 0.  1.
         22    1    1    0    0    0  0.57135412153E+01  0.29620512940E+02  0.11867252355E+01  0.30189860166E+02  0.00000000000E+00 0.  1.
</event>
<event>
 5    1  0.8778268E-005  0.9118800E+02  0.7818608E-02  0.1130116E+00
         25   -1    0    0    0    0  0.00000000000E+00  0.00000000000E+00  0.99999998245E-14  0.12500000000E+03  0.12500000000E+03 0.  0.
        -11    1    3    3    0    0 -0.27934024282E+02  0.48225625437E+02 -0.13376539651E+02  0.57314504924E+02  0.51100000000E-03 0.  1.
         23    2    1    0    0    0 -0.13453913812E+02  0.12934618467E+02 -0.21720694216E+02  0.96362599472E+02  0.92008966237E+02 0.  0.
         11    1    3    3    0    0  0.14480110470E+02 -0.35291006970E+02 -0.83441545651E+01  0.39048094548E+02  0.51100000000E-03 0. -1.
         22    1    1    0    0    0  0.13453913812E+02 -0.12934618467E+02  0.21720694216E+02  0.28637400528E+02  0.00000000000E+00 0.  1.
</event>
<event>
 5    1  0.8778268E-005  0.9118800E+02  0.7818608E-02  0.1130116E+00
         25   -1    0    0    0    0  0.00000000000E+00  0.00000000000E+00  0.99999998245E-14  0.12500000000E+03  0.12500000000E+03 0.  0.
        -11    1    3    3    0    0  0.58642945586E+02  0.13065640731E+02  0.29194119027E+01  0.60151716525E+02  0.51100000000E-03 0.  1.
         23    2    1    0    0    0  0.19493329411E+02 -0.57945978515E+01  0.62229301898E+01  0.10373283950E+03  0.10152935474E+03 0.  0.
         11    1    3    3    0    0 -0.39149616176E+02 -0.18860238582E+02  0.33035182871E+01  0.43581122971E+02  0.51100000000E-03 0. -1.
         22    1    1    0    0    0 -0.19493329411E+02  0.57945978515E+01 -0.62229301898E+01  0.21267160504E+02  0.00000000000E+00 0.  1.
</event>
<event>
 5    1  0.8778268E-005  0.9118800E+02  0.7818608E-02  0.1130116E+00
         25   -1    0    0    0    0  0.00000000000E+00  0.00000000000E+00  0.99999998245E-14  0.12500000000E+03  0.12500000000E+03 0.  0.
        -11    1    3    3    0    0 -0.22005589399E+02 -0.79140699584E+01  0.41462229693E+02  0.47602467998E+02  0.51100000000E-03 0.  1.
         23    2    1    0    0    0 -0.74691199798E+01  0.26746278723E+02  0.17565519305E+02  0.92141231805E+02  0.86083145571E+02 0.  0.
         11    1    3    3    0    0  0.14536469419E+02  0.34660348681E+02 -0.23896710388E+02  0.44538763808E+02  0.51100000000E-03 0. -1.
         22    1    1    0    0    0  0.74691199798E+01 -0.26746278723E+02 -0.17565519305E+02  0.32858768195E+02  0.00000000000E+00 0.  1.
</event>
<event>
 5    1  0.8778268E-005  0.9118800E+02  0.7818608E-02  0.1130116E+00
         25   -1    0    0    0    0  0.00000000000E+00  0.00000000000E+00  0.99999998245E-14  0.12500000000E+03  0.12500000000E+03 0.  0.
        -11    1    3    3    0    0 -0.52192312723E+02  0.19957984521E+02 -0.21313099590E+02  0.59804739511E+02  0.51100000000E-03 0.  1.
         23    2    1    0    0    0 -0.17021400808E+02  0.19087690322E+02 -0.14368750966E+02  0.95665225216E+02  0.91056610436E+02 0.  0.
         11    1    3    3    0    0  0.35170911916E+02 -0.87029419971E+00  0.69443486233E+01  0.35860485705E+02  0.51100000000E-03 0. -1.
         22    1    1    0    0    0  0.17021400808E+02 -0.19087690322E+02  0.14368750966E+02  0.29334774784E+02  0.00000000000E+00 0.  1.
</event>
<event>
 5    1  0.8778268E-005  0.9118800E+02  0.7818608E-02  0.1130116E+00
         25   -1    0    0    0    0  0.00000000000E+00  0.00000000000E+00  0.99999998245E-14  0.12500000000E+03  0.12500000000E+03 0.  0.
        -11    1    3    3    0    0  0.20586013502E+02  0.61120259369E+01  0.33068185913E+02  0.39428996091E+02  0.51100000000E-03 0.  1.
         23    2    1    0    0    0  0.14088946394E+02  0.11244640649E+02 -0.22815502317E+02  0.95922732250E+02  0.91409425458E+02 0.  0.
         11    1    3    3    0    0 -0.64970671076E+01  0.51326147123E+01 -0.55883688229E+02  0.56493736159E+02  0.51100000000E-03 0. -1.
         22    1    1    0    0    0 -0.14088946394E+02 -0.11244640649E+02  0.22815502317E+02  0.29077267750E+02  0.00000000000E+00 0. -1.
</event>
<event>
 5    1  0.8778268E-005  0.9118800E+02  0.7818608E-02  0.1130116E+00
         25   -1    0    0    0    0  0.00000000000E+00  0.00000000000E+00  0.99999998245E-14  0.12500000000E+03  0.12500000000E+03 0.  0.
        -11    1    3    3    0    0 -0.47486722682E+02  0.90339859984E+01  0.62236323784E+01  0.48737412060E+02  0.51100000000E-03 0.  1.
         23    2    1    0    0    0 -0.46619377113E+01  0.14675014276E+02  0.24841352449E+02  0.95773599285E+02  0.91205262027E+02 0.  0.
         11    1    3    3    0    0  0.42824784971E+02  0.56410282780E+01  0.18617720070E+02  0.47036187225E+02  0.51100000000E-03 0. -1.
         22    1    1    0    0    0  0.46619377113E+01 -0.14675014276E+02 -0.24841352449E+02  0.29226400715E+02  0.00000000000E+00 0.  1.
</event>
<event>
 5    1  0.8778268E-005  0.9118800E+02  0.7818608E-02  0.1130116E+00
         25   -1    0    0    0    0  0.00000000000E+00  0.00000000000E+00  0.99999998245E-14  0.12500000000E+03  0.12500000000E+03 0.  0.
        -11    1    3    3    0    0 -0.28404117328E+02  0.28303025234E+02 -0.45429245357E+01  0.40354594313E+02  0.51100000000E-03 0. -1.
         23    2    1    0    0    0  0.11965979712E+02  0.76874384291E+01  0.26243637990E+02  0.95150210805E+02  0.90346846659E+02 0.  0.
         11    1    3    3    0    0  0.40370097040E+02 -0.20615586805E+02  0.30786562525E+02  0.54795616492E+02  0.51100000000E-03 0.  1.
         22    1    1    0    0    0 -0.11965979712E+02 -0.76874384291E+01 -0.26243637990E+02  0.29849789195E+02  0.00000000000E+00 0.  1.
</event>
<event>
 5    1  0.8778268E-005  0.9118800E+02  0.7818608E-02  0.1130116E+00
         25   -1    0    0    0    0  0.00000000000E+00  0.00000000000E+00  0.99999998245E-14  0.12500000000E+03  0.12500000000E+03 0.  0.
        -11    1    3    3    0    0 -0.42218264859E+02 -0.25759813540E+02  0.22697470410E+02  0.54416220418E+02  0.51100000000E-03 0.  1.
         23    2    1    0    0    0 -0.39775795956E+01 -0.27856552924E+02  0.13433197703E+02  0.93818924316E+02  0.88485767664E+02 0.  0.
         11    1    3    3    0    0  0.38240685263E+02 -0.20967393837E+01 -0.92642727065E+01  0.39402703898E+02  0.51100000000E-03 0. -1.
         22    1    1    0    0    0  0.39775795956E+01  0.27856552924E+02 -0.13433197703E+02  0.31181075684E+02  0.00000000000E+00 0.  1.
</event>
<event>
 5    1  0.8778268E-005  0.9118800E+02  0.7818608E-02  0.1130116E+00
         25   -1    0    0    0    0  0.00000000000E+00  0.00000000000E+00  0.99999998245E-14  0.12500000000E+03  0.12500000000E+03 0.  0.
        -11    1    3    3    0    0  0.12652584860E+02 -0.16125257135E+02 -0.29962941530E+02  0.36302750401E+02  0.51100000000E-03 0.  1.
         23    2    1    0    0    0 -0.17535178152E+02 -0.10820087099E+02  0.20877037963E+02  0.95667296890E+02  0.91059454328E+02 0.  0.
         11    1    3    3    0    0 -0.30187763012E+02  0.53051700366E+01  0.50839979492E+02  0.59364546489E+02  0.51100000000E-03 0. -1.
         22    1    1    0    0    0  0.17535178152E+02  0.10820087099E+02 -0.20877037963E+02  0.29332703110E+02  0.00000000000E+00 0. -1.
</event>
<event>
 5    1  0.8778268E-005  0.9118800E+02  0.7818608E-02  0.1130116E+00
         25   -1    0    0    0    0  0.00000000000E+00  0.00000000000E+00  0.99999998245E-14  0.12500000000E+03  0.12500000000E+03 0.  0.
        -11    1    3    3    0    0  0.28258988184E+02  0.22574793803E+02 -0.40370836824E+02  0.54203285828E+02  0.51100000000E-03 0.  1.
         23    2    1    0    0    0 -0.15560200174E+01 -0.15324752327E+01 -0.31326600703E+02  0.93597363323E+02  0.88172222558E+02 0.  0.
         11    1    3    3    0    0 -0.29815008202E+02 -0.24107269036E+02  0.90442361203E+01  0.39394077495E+02  0.51100000000E-03 0. -1.
         22    1    1    0    0    0  0.15560200174E+01  0.15324752327E+01  0.31326600703E+02  0.31402636677E+02  0.00000000000E+00 0. -1.
</event>
<event>
 5    1  0.8778268E-005  0.9118800E+02  0.7818608E-02  0.1130116E+00
         25   -1    0    0    0    0  0.00000000000E+00  0.00000000000E+00  0.99999998245E-14  0.12500000000E+03  0.12500000000E+03 0.  0.
        -11    1    3    3    0    0 -0.12740366082E+02 -0.54132330916E+02 -0.17735941490E+02  0.58371138409E+02  0.51100000000E-03 0.  1.
         23    2    1    0    0    0  0.85558714672E+01 -0.26912378996E+02 -0.10711394823E+01  0.96740020885E+02  0.92520296267E+02 0.  0.
         11    1    3    3    0    0  0.21296237549E+02  0.27219951920E+02  0.16664802007E+02  0.38368882476E+02  0.51100000000E-03 0. -1.
         22    1    1    0    0    0 -0.85558714672E+01  0.26912378996E+02  0.10711394823E+01  0.28259979115E+02  0.00000000000E+00 0.  1.
</event>
<event>
 5    1  0.8778268E-005  0.9118800E+02  0.7818608E-02  0.1130116E+00
         25   -1    0    0    0    0  0.00000000000E+00  0.00000000000E+00  0.99999998245E-14  0.12500000000E+03  0.12500000000E+03 0.  0.
        -11    1    3    3    0    0  0.47934559080E+02  0.62523958581E+00  0.31156891436E+02  0.57173986768E+02  0.51100000000E-03 0.  1.
         23    2    1    0    0    0  0.15878873586E+02 -0.15394458805E+02  0.21192248226E+02  0.94369306683E+02  0.89259882762E+02 0.  0.
         11    1    3    3    0    0 -0.32055685494E+02 -0.16019698391E+02 -0.99646432105E+01  0.37195319915E+02  0.51100000000E-03 0. -1.
         22    1    1    0    0    0 -0.15878873586E+02  0.15394458805E+02 -0.21192248226E+02  0.30630693317E+02  0.00000000000E+00 0.  1.
</event>
<event>
 5    1  0.8778268E-005  0.9118800E+02  0.7818608E-02  0.1130116E+00
         25   -1    0    0    0    0  0.00000000000E+00  0.00000000000E+00  0.99999998245E-14  0.12500000000E+03  0.12500000000E+03 0.  0.
        -11    1    3    3    0    0  0.36977608469E+01 -0.15941299968E+02  0.53203140815E+02  0.55663027881E+02  0.51100000000E-03 0.  1.
         23    2    1    0    0    0 -0.15721793139E+02 -0.15941018986E+02  0.16498606536E+02  0.97188224015E+02  0.93123874510E+02 0.  0.
         11    1    3    3    0    0 -0.19419553986E+02  0.28098149251E-03 -0.36704534279E+02  0.41525196134E+02  0.51100000000E-03 0. -1.
         22    1    1    0    0    0  0.15721793139E+02  0.15941018986E+02 -0.16498606536E+02  0.27811775985E+02  0.00000000000E+00 0.  1.
</event>
<event>
 5    1  0.8778268E-005  0.9118800E+02  0.7818608E-02  0.1130116E+00
         25   -1    0    0    0    0  0.00000000000E+00  0.00000000000E+00  0.99999998245E-14  0.12500000000E+03  0.12500000000E+03 0.  0.
        -11    1    3    3    0    0  0.91419257902E+01 -0.19639849652E+02  0.47460380001E+02  0.52170740570E+02  0.51100000000E-03 0. -1.
         23    2    1    0    0    0  0.51951981531E+01 -0.28725752592E+02  0.54872591749E+01  0.95296987373E+02  0.90549692674E+02 0.  0.
         11    1    3    3    0    0 -0.39467276371E+01 -0.90859029398E+01 -0.41973120826E+02  0.43126246804E+02  0.51100000000E-03 0.  1.
         22    1    1    0    0    0 -0.51951981531E+01  0.28725752592E+02 -0.54872591749E+01  0.29703012627E+02  0.00000000000E+00 0. -1.
</event>
<event>
 5    1  0.8778268E-005  0.9118800E+02  0.7818608E-02  0.1130116E+00
         25   -1    0    0    0    0  0.00000000000E+00  0.00000000000E+00  0.99999998245E-14  0.12500000000E+03  0.12500000000E+03 0.  0.
        -11    1    3    3    0    0  0.20451531550E+01  0.32733655321E+02 -0.98261657506E+01  0.34237820838E+02  0.51100000000E-03 0. -1.
         23    2    1    0    0    0  0.16532339006E+02 -0.18722072096E+02  0.17721864950E+02  0.94374867937E+02  0.89267670431E+02 0.  0.
         11    1    3    3    0    0  0.14487185851E+02 -0.51455727418E+02  0.27548030701E+02  0.60137047098E+02  0.51100000000E-03 0.  1.
         22    1    1    0    0    0 -0.16532339006E+02  0.18722072096E+02 -0.17721864950E+02  0.30625132063E+02  0.00000000000E+00 0.  1.
</event>
<event>
 5    1  0.8778268E-005  0.9118800E+02  0.7818608E-02  0.1130116E+00
         25   -1    0    0    0    0  0.00000000000E+00  0.00000000000E+00  0.99999998245E-14  0.12500000000E+03  0.12500000000E+03 0.  0.
        -11    1    3    3    0    0 -0.23199742790E+02 -0.29337210237E+02 -0.35751598792E+01  0.37572353379E+02  0.51100000000E-03 0.  1.
         23    2    1    0    0    0  0.13738626966E+02  0.68884147705E+01  0.24229243867E+02  0.96307555222E+02  0.91934154727E+02 0.  0.
         11    1    3    3    0    0  0.36938369757E+02  0.36225625008E+02  0.27804403747E+02  0.58735201842E+02  0.51100000000E-03 0. -1.
         22    1    1    0    0    0 -0.13738626966E+02 -0.68884147705E+01 -0.24229243867E+02  0.28692444778E+02  0.00000000000E+00 0. -1.
</event>
<event>
 5    1  0.8778268E-005  0.9118800E+02  0.7818608E-02  0.1130116E+00
         25   -1    0    0    0    0  0.00000000000E+00  0.00000000000E+00  0.99999998245E-14  0.12500000000E+03  0.12500000000E+03 0.  0.
        -11    1    3    3    0    0  0.24004564691E+02  0.48022468281E+02  0.17630321040E+02  0.56508448980E+02  0.51100000000E-03 0.  1.
         23    2    1    0    0    0  0.21839442841E+02  0.90829767129E+01  0.17615647789E+02  0.95508089642E+02  0.90840642944E+02 0.  0.
         11    1    3    3    0    0 -0.21651218509E+01 -0.38939491568E+02 -0.14673251329E-01  0.38999640662E+02  0.51100000000E-03 0. -1.
         22    1    1    0    0    0 -0.21839442841E+02 -0.90829767129E+01 -0.17615647789E+02  0.29491910358E+02  0.00000000000E+00 0.  1.
</event>
<event>
 5    1  0.8778268E-005  0.9118800E+02  0.7818608E-02  0.1130116E+00
         25   -1    0    0    0    0  0.00000000000E+00  0.00000000000E+00  0.99999998245E-14  0.12500000000E+03  0.12500000000E+03 0.  0.
        -11    1    3    3    0    0  0.31685563445E+02 -0.23423646361E+01 -0.41200811677E+02  0.52028535305E+02  0.51100000000E-03 0.  1.
         23    2    1    0    0    0 -0.96778195865E-01 -0.22378108116E+02 -0.18818803185E+02  0.95760703801E+02  0.91187586602E+02 0.  0.
         11    1    3    3    0    0 -0.31782341641E+02 -0.20035743480E+02  0.22382008492E+02  0.43732168496E+02  0.51100000000E-03 0. -1.
         22    1    1    0    0    0  0.96778195865E-01  0.22378108116E+02  0.18818803185E+02  0.29239296199E+02  0.00000000000E+00 0. -1.
</event>
<event>
 5    1  0.8778268E-005  0.9118800E+02  0.7818608E-02  0.1130116E+00
         25   -1    0    0    0    0  0.00000000000E+00  0.00000000000E+00  0.99999998245E-14  0.12500000000E+03  0.12500000000E+03 0.  0.
        -11    1    3    3    0    0  0.39744495487E+02  0.61832285470E+01  0.10168008806E+02  0.41487897514E+02  0.51100000000E-03 0.  1.
         23    2    1    0    0    0 -0.37845295216E-01 -0.29323919435E+02  0.66768327747E+01  0.94925529444E+02  0.90035450579E+02 0.  0.
         11    1    3    3    0    0 -0.39782340782E+02 -0.35507147982E+02 -0.34911760311E+01  0.53437631930E+02  0.51100000000E-03 0. -1.
         22    1    1    0    0    0  0.37845295216E-01  0.29323919435E+02 -0.66768327747E+01  0.30074470556E+02  0.00000000000E+00 0. -1.
</event>
<event>
 5    1  0.8778268E-005  0.9118800E+02  0.7818608E-02  0.1130116E+00
         25   -1    0    0    0    0  0.00000000000E+00  0.00000000000E+00  0.99999998245E-14  0.12500000000E+03  0.12500000000E+03 0.  0.
        -11    1    3    3    0    0 -0.45627628067E+01 -0.56040485710E+02  0.78877945620E+01  0.56776510515E+02  0.51100000000E-03 0. -1.
         23    2    1    0    0    0 -0.20179153101E+02 -0.19700069724E+02  0.26680502236E+01  0.96673167155E+02  0.92429929075E+02 0.  0.
         11    1    3    3    0    0 -0.15616390294E+02  0.36340415985E+02 -0.52197443384E+01  0.39896656640E+02  0.51100000000E-03 0.  1.
         22    1    1    0    0    0  0.20179153101E+02  0.19700069724E+02 -0.26680502236E+01  0.28326832845E+02  0.00000000000E+00 0. -1.
</event>
<event>
 5    1  0.8778268E-005  0.9118800E+02  0.7818608E-02  0.1130116E+00
         25   -1    0    0    0    0  0.00000000000E+00  0.00000000000E+00  0.99999998245E-14  0.12500000000E+03  0.12500000000E+03 0.  0.
        -11    1    3    3    0    0  0.22124583440E+02  0.44385087388E+02  0.35077751937E+02  0.60745220849E+02  0.51100000000E-03 0.  1.
         23    2    1    0    0    0  0.86914426278E+01  0.19631002515E+02  0.31808871629E+01  0.10329664824E+03  0.10099090087E+03 0.  0.
         11    1    3    3    0    0 -0.13433140812E+02 -0.24754084873E+02 -0.31896864774E+02  0.42551427386E+02  0.51100000000E-03 0. -1.
         22    1    1    0    0    0 -0.86914426278E+01 -0.19631002515E+02 -0.31808871629E+01  0.21703351765E+02  0.00000000000E+00 0.  1.
</event>
<event>
 5    1  0.8778268E-005  0.9118800E+02  0.7818608E-02  0.1130116E+00
         25   -1    0    0    0    0  0.00000000000E+00  0.00000000000E+00  0.99999998245E-14  0.12500000000E+03  0.12500000000E+03 0.  0.
        -11    1    3    3    0    0 -0.47973765005E+02 -0.21291839374E+02 -0.13697978271E+01  0.52504294101E+02  0.51100000000E-03 0. -1.
         23    2    1    0    0    0 -0.16870750957E+02 -0.80927642330E+01  0.23864093261E+02  0.94674927569E+02  0.89686854624E+02 0.  0.
         11    1    3    3    0    0  0.31103014048E+02  0.13199075141E+02  0.25233891088E+02  0.42170633469E+02  0.51100000000E-03 0.  1.
         22    1    1    0    0    0  0.16870750957E+02  0.80927642330E+01 -0.23864093261E+02  0.30325072431E+02  0.00000000000E+00 0. -1.
</event>
<event>
 5    1  0.8778268E-005  0.9118800E+02  0.7818608E-02  0.1130116E+00
         25   -1    0    0    0    0  0.00000000000E+00  0.00000000000E+00  0.99999998245E-14  0.12500000000E+03  0.12500000000E+03 0.  0.
        -11    1    3    3    0    0 -0.17801010083E+02  0.51950448011E+02 -0.29665452994E+02  0.62416056509E+02  0.51100000000E-03 0.  1.
         23    2    1    0    0    0 -0.61511915194E+01  0.24753155491E+02 -0.14412691156E+02  0.95703557721E+02  0.91109217043E+02 0.  0.
         11    1    3    3    0    0  0.11649818564E+02 -0.27197292520E+02  0.15252761838E+02  0.33287501212E+02  0.51100000000E-03 0. -1.
         22    1    1    0    0    0  0.61511915194E+01 -0.24753155491E+02  0.14412691156E+02  0.29296442279E+02  0.00000000000E+00 0.  1.
</event>
<event>
 5    1  0.8778268E-005  0.9118800E+02  0.7818608E-02  0.1130116E+00
         25   -1    0    0    0    0  0.00000000000E+00  0.00000000000E+00  0.99999998245E-14  0.12500000000E+03  0.12500000000E+03 0.  0.
        -11    1    3    3    0    0 -0.66316505899E+01 -0.25657879075E+02  0.50422077495E+02  0.56962193140E+02  0.51100000000E-03 0.  1.
         23    2    1    0    0    0  0.22744510164E+01 -0.33630040932E+02  0.38122123018E+02  0.74113370676E+02  0.53882675036E+02 0.  0.
         11    1    3    3    0    0  0.89061016063E+01 -0.79721618572E+01 -0.12299954477E+02  0.17151177536E+02  0.51100000000E-03 0. -1.
         22    1    1    0    0    0 -0.22744510164E+01  0.33630040932E+02 -0.38122123018E+02  0.50886629324E+02  0.00000000000E+00 0.  1.
</event>
<event>
 5    1  0.8778268E-005  0.9118800E+02  0.7818608E-02  0.1130116E+00
         25   -1    0    0    0    0  0.00000000000E+00  0.00000000000E+00  0.99999998245E-14  0.12500000000E+03  0.12500000000E+03 0.  0.
        -11    1    3    3    0    0  0.18141501510E+02  0.10921494484E+02 -0.36791171388E+02  0.42449775161E+02  0.51100000000E-03 0.  1.
         23    2    1    0    0    0 -0.25911583436E+02  0.69238306543E+01 -0.25247721584E+02  0.88165274098E+02  0.80101925848E+02 0.  0.
         11    1    3    3    0    0 -0.44053084947E+02 -0.39976638299E+01  0.11543449805E+02  0.45715498937E+02  0.51100000000E-03 0. -1.
         22    1    1    0    0    0  0.25911583436E+02 -0.69238306543E+01  0.25247721584E+02  0.36834725902E+02  0.00000000000E+00 0.  1.
</event>
<event>
 5    1  0.8778268E-005  0.9118800E+02  0.7818608E-02  0.1130116E+00
         25   -1    0    0    0    0  0.00000000000E+00  0.00000000000E+00  0.99999998245E-14  0.12500000000E+03  0.12500000000E+03 0.  0.
        -11    1    3    3    0    0 -0.15303679354E+01  0.41037897483E+02  0.24873537745E+01  0.41141681844E+02  0.51100000000E-03 0. -1.
         23    2    1    0    0    0  0.27378310522E+02 -0.30874140627E+01  0.12348794602E+02  0.94807339621E+02  0.89871212884E+02 0.  0.
         11    1    3    3    0    0  0.28908678458E+02 -0.44125311546E+02  0.98614408277E+01  0.53665657777E+02  0.51100000000E-03 0.  1.
         22    1    1    0    0    0 -0.27378310522E+02  0.30874140627E+01 -0.12348794602E+02  0.30192660379E+02  0.00000000000E+00 0.  1.
</event>
<event>
 5    1  0.8778268E-005  0.9118800E+02  0.7818608E-02  0.1130116E+00
         25   -1    0    0    0    0  0.00000000000E+00  0.00000000000E+00  0.99999998245E-14  0.12500000000E+03  0.12500000000E+03 0.  0.
        -11    1    3    3    0    0  0.27975713118E+02  0.18808294472E+02  0.73851936971E+01  0.34509905123E+02  0.51100000000E-03 0. -1.
         23    2    1    0    0    0 -0.29860821619E+02  0.34047375632E+01 -0.89396938928E+00  0.94932408030E+02  0.90044999902E+02 0.  0.
         11    1    3    3    0    0 -0.57836534737E+02 -0.15403556908E+02 -0.82791630864E+01  0.60422502907E+02  0.51100000000E-03 0.  1.
         22    1    1    0    0    0  0.29860821619E+02 -0.34047375632E+01  0.89396938928E+00  0.30067591970E+02  0.00000000000E+00 0.  1.
</event>
<event>
 5    1  0.8778268E-005  0.9118800E+02  0.7818608E-02  0.1130116E+00
         25   -1    0    0    0    0  0.00000000000E+00  0.00000000000E+00  0.99999998245E-14  0.12500000000E+03  0.12500000000E+03 0.  0.
        -11    1    3    3    0    0  0.21578944866E+01  0.11327836704E+02 -0.50526472463E+02  0.51825677157E+02  0.51100000000E-03 0. -1.
         23    2    1    0    0    0 -0.13906960775E+02  0.20576513373E+02 -0.69047452980E+01  0.99222646214E+02  0.95815768815E+02 0.  0.
         11    1    3    3    0    0 -0.16064855261E+02  0.92486766684E+01  0.43621727165E+02  0.47396969057E+02  0.51100000000E-03 0.  1.
         22    1    1    0    0    0  0.13906960775E+02 -0.20576513373E+02  0.69047452980E+01  0.25777353786E+02  0.00000000000E+00 0. -1.
</event>
<event>
 5    1  0.8778268E-005  0.9118800E+02  0.7818608E-02  0.1130116E+00
         25   -1    0    0    0    0  0.00000000000E+00  0.00000000000E+00  0.99999998245E-14  0.12500000000E+03  0.12500000000E+03 0.  0.
        -11    1    3    3    0    0  0.19177183807E+02 -0.50207108413E+02  0.22885353063E+02  0.58414531574E+02  0.51100000000E-03 0. -1.
         23    2    1    0    0    0  0.23783484378E+02 -0.21797001854E+02  0.48578478601E+01  0.92375437094E+02  0.86422562294E+02 0.  0.
         11    1    3    3    0    0  0.46063005713E+01  0.28410106559E+02 -0.18027505203E+02  0.33960905520E+02  0.51100000000E-03 0.  1.
         22    1    1    0    0    0 -0.23783484378E+02  0.21797001854E+02 -0.48578478601E+01  0.32624562906E+02  0.00000000000E+00 0. -1.
</event>
<event>
 5    1  0.8778268E-005  0.9118800E+02  0.7818608E-02  0.1130116E+00
         25   -1    0    0    0    0  0.00000000000E+00  0.00000000000E+00  0.99999998245E-14  0.12500000000E+03  0.12500000000E+03 0.  0.
        -11    1    3    3    0    0 -0.18477518170E+02  0.34054537921E+02 -0.48674291744E+02  0.62211871116E+02  0.51100000000E-03 0.  1.
         23    2    1    0    0    0 -0.11067849565E+02  0.12319637913E+02 -0.23012101041E+02  0.96648147034E+02  0.92396086272E+02 0.  0.
         11    1    3    3    0    0  0.74096686043E+01 -0.21734900008E+02  0.25662190703E+02  0.34436275918E+02  0.51100000000E-03 0. -1.
         22    1    1    0    0    0  0.11067849565E+02 -0.12319637913E+02  0.23012101041E+02  0.28351852966E+02  0.00000000000E+00 0.  1.
</event>
<event>
 5    1  0.8778268E-005  0.9118800E+02  0.7818608E-02  0.1130116E+00
         25   -1    0    0    0    0  0.00000000000E+00  0.00000000000E+00  0.99999998245E-14  0.12500000000E+03  0.12500000000E+03 0.  0.
        -11    1    3    3    0    0  0.28474856313E+02 -0.48378863810E+01 -0.99998155836E+01  0.30564994661E+02  0.51100000000E-03 0. -1.
         23    2    1    0    0    0 -0.27575729142E+02 -0.58114898233E+01  0.16253974946E+02  0.92467155777E+02  0.86555120844E+02 0.  0.
         11    1    3    3    0    0 -0.56050585454E+02 -0.97360344230E+00  0.26253790530E+02  0.61902161116E+02  0.51100000000E-03 0.  1.
         22    1    1    0    0    0  0.27575729142E+02  0.58114898233E+01 -0.16253974946E+02  0.32532844223E+02  0.00000000000E+00 0.  1.
</event>
<event>
 5    1  0.8778268E-005  0.9118800E+02  0.7818608E-02  0.1130116E+00
         25   -1    0    0    0    0  0.00000000000E+00  0.00000000000E+00  0.99999998245E-14  0.12500000000E+03  0.12500000000E+03 0.  0.
        -11    1    3    3    0    0  0.40801570173E+02  0.10353946780E+01 -0.16090108832E+02  0.43871765102E+02  0.51100000000E-03 0. -1.
         23    2    1    0    0    0  0.15322907049E+02 -0.47882723201E+01  0.26602397682E+02  0.93929007182E+02  0.88641140536E+02 0.  0.
         11    1    3    3    0    0 -0.25478663124E+02 -0.58236669981E+01  0.42692506514E+02  0.50057242080E+02  0.51100000000E-03 0.  1.
         22    1    1    0    0    0 -0.15322907049E+02  0.47882723201E+01 -0.26602397682E+02  0.31070992818E+02  0.00000000000E+00 0.  1.
</event>
<event>
 5    1  0.8778268E-005  0.9118800E+02  0.7818608E-02  0.1130116E+00
         25   -1    0    0    0    0  0.00000000000E+00  0.00000000000E+00  0.99999998245E-14  0.12500000000E+03  0.12500000000E+03 0.  0.
        -11    1    3    3    0    0 -0.25513549460E+02  0.16830772071E+02 -0.32890639061E+02  0.44900002591E+02  0.51100000000E-03 0.  1.
         23    2    1    0    0    0 -0.32684741566E+02 -0.35386125209E+01  0.80198487426E+01  0.91160199710E+02  0.84646617932E+02 0.  0.
         11    1    3    3    0    0 -0.71711921060E+01 -0.20369384592E+02  0.40910487803E+02  0.46260197119E+02  0.51100000000E-03 0. -1.
         22    1    1    0    0    0  0.32684741566E+02  0.35386125209E+01 -0.80198487426E+01  0.33839800290E+02  0.00000000000E+00 0. -1.
</event>
<event>
 5    1  0.8778268E-005  0.9118800E+02  0.7818608E-02  0.1130116E+00
         25   -1    0    0    0    0  0.00000000000E+00  0.00000000000E+00  0.99999998245E-14  0.12500000000E+03  0.12500000000E+03 0.  0.
        -11    1    3    3    0    0 -0.17379162101E+02 -0.20620442463E+02 -0.29988041911E+02  0.40330144813E+02  0.51100000000E-03 0.  1.
         23    2    1    0    0    0  0.16555500268E+02  0.20089117301E+02 -0.12356029593E+02  0.96184575478E+02  0.91766790668E+02 0.  0.
         11    1    3    3    0    0  0.33934662369E+02  0.40709559764E+02  0.17632012318E+02  0.55854430665E+02  0.51100000000E-03 0. -1.
         22    1    1    0    0    0 -0.16555500268E+02 -0.20089117301E+02  0.12356029593E+02  0.28815424522E+02  0.00000000000E+00 0. -1.
</event>
<event>
 5    1  0.8778268E-005  0.9118800E+02  0.7818608E-02  0.1130116E+00
         25   -1    0    0    0    0  0.00000000000E+00  0.00000000000E+00  0.99999998245E-14  0.12500000000E+03  0.12500000000E+03 0.  0.
        -11    1    3    3    0    0 -0.94359415717E+01 -0.11140367121E+02 -0.35819585683E+02  0.38680582877E+02  0.51100000000E-03 0. -1.
         23    2    1    0    0    0 -0.19297911458E+02 -0.54070595507E+01  0.20610512720E+02  0.96252149399E+02  0.91858790269E+02 0.  0.
         11    1    3    3    0    0 -0.98619698860E+01  0.57333075707E+01  0.56430098403E+02  0.57571566522E+02  0.51100000000E-03 0.  1.
         22    1    1    0    0    0  0.19297911458E+02  0.54070595507E+01 -0.20610512720E+02  0.28747850601E+02  0.00000000000E+00 0.  1.
</event>
<event>
 5    1  0.8778268E-005  0.9118800E+02  0.7818608E-02  0.1130116E+00
         25   -1    0    0    0    0  0.00000000000E+00  0.00000000000E+00  0.99999998245E-14  0.12500000000E+03  0.12500000000E+03 0.  0.
        -11    1    3    3    0    0  0.19441935554E+02  0.29477638704E+02 -0.11959700298E+02  0.37282093197E+02  0.51100000000E-03 0.  1.
         23    2    1    0    0    0  0.12265803170E+02 -0.25710165998E+02  0.62468121886E+01  0.95836920163E+02  0.91292004255E+02 0.  0.
         11    1    3    3    0    0 -0.71761323841E+01 -0.55187804702E+02  0.18206512486E+02  0.58554826966E+02  0.51100000000E-03 0. -1.
         22    1    1    0    0    0 -0.12265803170E+02  0.25710165998E+02 -0.62468121886E+01  0.29163079837E+02  0.00000000000E+00 0. -1.
</event>
<event>
 5    1  0.8778268E-005  0.9118800E+02  0.7818608E-02  0.1130116E+00
         25   -1    0    0    0    0  0.00000000000E+00  0.00000000000E+00  0.99999998245E-14  0.12500000000E+03  0.12500000000E+03 0.  0.
        -11    1    3    3    0    0  0.20043138683E+02  0.26965083287E+02  0.84929647942E+01  0.34655065664E+02  0.51100000000E-03 0. -1.
         23    2    1    0    0    0 -0.34351354503E+01 -0.28995252011E+02  0.12047489303E+01  0.95777128568E+02  0.91210098903E+02 0.  0.
         11    1    3    3    0    0 -0.23478274133E+02 -0.55960335298E+02 -0.72882158639E+01  0.61122062904E+02  0.51100000000E-03 0.  1.
         22    1    1    0    0    0  0.34351354503E+01  0.28995252011E+02 -0.12047489303E+01  0.29222871432E+02  0.00000000000E+00 0.  1.
</event>
<event>
 5    1  0.8778268E-005  0.9118800E+02  0.7818608E-02  0.1130116E+00
         25   -1    0    0    0    0  0.00000000000E+00  0.00000000000E+00  0.99999998245E-14  0.12500000000E+03  0.12500000000E+03 0.  0.
        -11    1    3    3    0    0  0.35547997101E+02  0.20685275494E+01  0.11604342836E+02  0.37451297401E+02  0.51100000000E-03 0.  1.
         23    2    1    0    0    0 -0.15080025483E+02 -0.24873625733E+02  0.27100438225E+00  0.95910863385E+02  0.91393193653E+02 0.  0.
         11    1    3    3    0    0 -0.50628022584E+02 -0.26942153282E+02 -0.11333338453E+02  0.58459565984E+02  0.51100000000E-03 0. -1.
         22    1    1    0    0    0  0.15080025483E+02  0.24873625733E+02 -0.27100438225E+00  0.29089136615E+02  0.00000000000E+00 0. -1.
</event>
<event>
 5    1  0.8778268E-005  0.9118800E+02  0.7818608E-02  0.1130116E+00
         25   -1    0    0    0    0  0.00000000000E+00  0.00000000000E+00  0.99999998245E-14  0.12500000000E+03  0.12500000000E+03 0.  0.
        -11    1    3    3    0    0 -0.20531590680E+02 -0.31981791012E+02  0.18981955187E+02  0.42481711302E+02  0.51100000000E-03 0.  1.
         23    2    1    0    0    0 -0.14543530945E+02 -0.49524976537E+01 -0.25707432888E+02  0.95051483659E+02  0.90210148624E+02 0.  0.
         11    1    3    3    0    0  0.59880597351E+01  0.27029293358E+02 -0.44689388075E+02  0.52569772356E+02  0.51100000000E-03 0. -1.
         22    1    1    0    0    0  0.14543530945E+02  0.49524976537E+01  0.25707432888E+02  0.29948516341E+02  0.00000000000E+00 0.  1.
</event>
<event>
 5    1  0.8778268E-005  0.9118800E+02  0.7818608E-02  0.1130116E+00
         25   -1    0    0    0    0  0.00000000000E+00  0.00000000000E+00  0.99999998245E-14  0.12500000000E+03  0.12500000000E+03 0.  0.
        -11    1    3    3    0    0 -0.24442239569E+01 -0.25070798998E+02  0.23819902247E+02  0.34668529482E+02  0.51100000000E-03 0.  1.
         23    2    1    0    0    0  0.17921231240E+02  0.11532300857E+02 -0.20344200262E+02  0.95537295159E+02  0.90880821903E+02 0.  0.
         11    1    3    3    0    0  0.20365455197E+02  0.36603099856E+02 -0.44164102509E+02  0.60868765677E+02  0.51100000000E-03 0. -1.
         22    1    1    0    0    0 -0.17921231240E+02 -0.11532300857E+02  0.20344200262E+02  0.29462704841E+02  0.00000000000E+00 0. -1.
</event>
<event>
 5    1  0.8778268E-005  0.9118800E+02  0.7818608E-02  0.1130116E+00
         25   -1    0    0    0    0  0.00000000000E+00  0.00000000000E+00  0.99999998245E-14  0.12500000000E+03  0.12500000000E+03 0.  0.
        -11    1    3    3    0    0  0.32571949386E+01  0.18288712091E+02 -0.31566952931E+02  0.36627296194E+02  0.51100000000E-03 0.  1.
         23    2    1    0    0    0 -0.13543137479E+01  0.11793333894E+02  0.26880449316E+02  0.95615047295E+02  0.90987701497E+02 0.  0.
         11    1    3    3    0    0 -0.46115086864E+01 -0.64953781967E+01  0.58447402247E+02  0.58987751101E+02  0.51100000000E-03 0. -1.
         22    1    1    0    0    0  0.13543137479E+01 -0.11793333894E+02 -0.26880449316E+02  0.29384952705E+02  0.00000000000E+00 0. -1.
</event>
<event>
 5    1  0.8778268E-005  0.9118800E+02  0.7818608E-02  0.1130116E+00
         25   -1    0    0    0    0  0.00000000000E+00  0.00000000000E+00  0.99999998245E-14  0.12500000000E+03  0.12500000000E+03 0.  0.
        -11    1    3    3    0    0  0.37295262028E+01  0.50013826979E+02  0.34554315657E+02  0.60903965270E+02  0.51100000000E-03 0. -1.
         23    2    1    0    0    0 -0.65459392065E+01  0.35531384468E+02  0.21335920012E+02  0.83041090516E+02  0.71660816553E+02 0.  0.
         11    1    3    3    0    0 -0.10275465409E+02 -0.14482442511E+02 -0.13218395645E+02  0.22137125246E+02  0.51100000000E-03 0.  1.
         22    1    1    0    0    0  0.65459392065E+01 -0.35531384468E+02 -0.21335920012E+02  0.41958909484E+02  0.00000000000E+00 0. -1.
</event>
<event>
 5    1  0.8778268E-005  0.9118800E+02  0.7818608E-02  0.1130116E+00
         25   -1    0    0    0    0  0.00000000000E+00  0.00000000000E+00  0.99999998245E-14  0.12500000000E+03  0.12500000000E+03 0.  0.
        -11    1    3    3    0    0 -0.25364700578E+02  0.35299874028E+02  0.44870626017E+02  0.62472571751E+02  0.51100000000E-03 0.  1.
         23    2    1    0    0    0 -0.10999985490E+02  0.16477093099E+02  0.22042170921E+02  0.95363003244E+02  0.90640778963E+02 0.  0.
         11    1    3    3    0    0  0.14364715088E+02 -0.18822780929E+02 -0.22828455096E+02  0.32890431493E+02  0.51100000000E-03 0. -1.
         22    1    1    0    0    0  0.10999985490E+02 -0.16477093099E+02 -0.22042170921E+02  0.29636996756E+02  0.00000000000E+00 0.  1.
</event>
<event>
 5    1  0.8778268E-005  0.9118800E+02  0.7818608E-02  0.1130116E+00
         25   -1    0    0    0    0  0.00000000000E+00  0.00000000000E+00  0.99999998245E-14  0.12500000000E+03  0.12500000000E+03 0.  0.
        -11    1    3    3    0    0 -0.43727548193E+02 -0.11265757454E+02  0.40988814333E+02  0.60984413277E+02  0.51100000000E-03 0. -1.
         23    2    1    0    0    0 -0.26197648738E+02 -0.27026078415E+01  0.11687698040E+02  0.96186406437E+02  0.91769284672E+02 0.  0.
         11    1    3    3    0    0  0.17529899455E+02  0.85631496130E+01 -0.29301116293E+02  0.35201993160E+02  0.51100000000E-03 0.  1.
         22    1    1    0    0    0  0.26197648738E+02  0.27026078415E+01 -0.11687698040E+02  0.28813593563E+02  0.00000000000E+00 0. -1.
</event>
<event>
 5    1  0.8778268E-005  0.9118800E+02  0.7818608E-02  0.1130116E+00
         25   -1    0    0    0    0  0.00000000000E+00  0.00000000000E+00  0.99999998245E-14  0.12500000000E+03  0.12500000000E+03 0.  0.
        -11    1    3    3    0    0  0.14656361128E+02 -0.12387468220E+02 -0.35861348985E+02  0.40673021055E+02  0.51100000000E-03 0. -1.
         23    2    1    0    0    0  0.28189357495E+02 -0.55198586654E+01  0.14180727717E+02  0.92965616062E+02  0.87272011639E+02 0.  0.
         11    1    3    3    0    0  0.13532996367E+02  0.68676095547E+01  0.50042076703E+02  0.52292595008E+02  0.51100000000E-03 0.  1.
         22    1    1    0    0    0 -0.28189357495E+02  0.55198586654E+01 -0.14180727717E+02  0.32034383938E+02  0.00000000000E+00 0.  1.
</event>
<event>
 5    1  0.8778268E-005  0.9118800E+02  0.7818608E-02  0.1130116E+00
         25   -1    0    0    0    0  0.00000000000E+00  0.00000000000E+00  0.99999998245E-14  0.12500000000E+03  0.12500000000E+03 0.  0.
        -11    1    3    3    0    0 -0.12581588331E+01  0.50104119379E+02  0.17692790481E+02  0.53151110785E+02  0.51100000000E-03 0.  1.
         23    2    1    0    0    0 -0.23991971814E+02  0.16714254253E+02  0.71662043119E+01  0.94894593658E+02  0.89992490879E+02 0.  0.
         11    1    3    3    0    0 -0.22733812981E+02 -0.33389865126E+02 -0.10526586169E+02  0.41743482873E+02  0.51100000000E-03 0. -1.
         22    1    1    0    0    0  0.23991971814E+02 -0.16714254253E+02 -0.71662043119E+01  0.30105406342E+02  0.00000000000E+00 0.  1.
</event>
<event>
 5    1  0.8778268E-005  0.9118800E+02  0.7818608E-02  0.1130116E+00
         25   -1    0    0    0    0  0.00000000000E+00  0.00000000000E+00  0.99999998245E-14  0.12500000000E+03  0.12500000000E+03 0.  0.
        -11    1    3    3    0    0 -0.85777333328E+01 -0.35832693637E+02  0.46720265188E+02  0.59500778330E+02  0.51100000000E-03 0. -1.
         23    2    1    0    0    0  0.96678873143E+01 -0.17127427678E+02  0.22303495287E+02  0.95263444618E+02  0.90503376481E+02 0.  0.
         11    1    3    3    0    0  0.18245620647E+02  0.18705265959E+02 -0.24416769901E+02  0.35762666288E+02  0.51100000000E-03 0.  1.
         22    1    1    0    0    0 -0.96678873143E+01  0.17127427678E+02 -0.22303495287E+02  0.29736555382E+02  0.00000000000E+00 0. -1.
</event>
<event>
 5    1  0.8778268E-005  0.9118800E+02  0.7818608E-02  0.1130116E+00
         25   -1    0    0    0    0  0.00000000000E+00  0.00000000000E+00  0.99999998245E-14  0.12500000000E+03  0.12500000000E+03 0.  0.
        -11    1    3    3    0    0 -0.14635584732E+02  0.24552510055E+02 -0.86506826518E-01  0.28583799155E+02  0.51100000000E-03 0.  1.
         23    2    1    0    0    0  0.21525178350E+02 -0.24364140463E+02 -0.11574679845E+02  0.90490322270E+02  0.83651542529E+02 0.  0.
         11    1    3    3    0    0  0.36160763082E+02 -0.48916650518E+02 -0.11488173018E+02  0.61906523115E+02  0.51100000000E-03 0. -1.
         22    1    1    0    0    0 -0.21525178350E+02  0.24364140463E+02  0.11574679845E+02  0.34509677730E+02  0.00000000000E+00 0. -1.
</event>
<event>
 5    1  0.8778268E-005  0.9118800E+02  0.7818608E-02  0.1130116E+00
         25   -1    0    0    0    0  0.00000000000E+00  0.00000000000E+00  0.99999998245E-14  0.12500000000E+03  0.12500000000E+03 0.  0.
        -11    1    3    3    0    0  0.39149245383E+02  0.33107838476E+02 -0.88390779152E+01  0.52028085505E+02  0.51100000000E-03 0.  1.
         23    2    1    0    0    0  0.20999951062E+02 -0.64523319830E+01 -0.18109599938E+02  0.96529170322E+02  0.92234985665E+02 0.  0.
         11    1    3    3    0    0 -0.18149294321E+02 -0.39560170459E+02 -0.92705220232E+01  0.44501084818E+02  0.51100000000E-03 0. -1.
         22    1    1    0    0    0 -0.20999951062E+02  0.64523319830E+01  0.18109599938E+02  0.28470829678E+02  0.00000000000E+00 0.  1.
</event>
<event>
 5    1  0.8778268E-005  0.9118800E+02  0.7818608E-02  0.1130116E+00
         25   -1    0    0    0    0  0.00000000000E+00  0.00000000000E+00  0.99999998245E-14  0.12500000000E+03  0.12500000000E+03 0.  0.
        -11    1    3    3    0    0 -0.10071209438E+01 -0.15446065964E+02  0.36198582373E+02  0.39369183538E+02  0.51100000000E-03 0. -1.
         23    2    1    0    0    0  0.28053482274E+02 -0.36442215921E+00 -0.93171684358E+01  0.95437518730E+02  0.90743482865E+02 0.  0.
         11    1    3    3    0    0  0.29060603218E+02  0.15081643805E+02 -0.45515750809E+02  0.56068335192E+02  0.51100000000E-03 0.  1.
         22    1    1    0    0    0 -0.28053482274E+02  0.36442215921E+00  0.93171684358E+01  0.29562481270E+02  0.00000000000E+00 0.  1.
</event>
<event>
 5    1  0.8778268E-005  0.9118800E+02  0.7818608E-02  0.1130116E+00
         25   -1    0    0    0    0  0.00000000000E+00  0.00000000000E+00  0.99999998245E-14  0.12500000000E+03  0.12500000000E+03 0.  0.
        -11    1    3    3    0    0 -0.28481115682E+02 -0.47449420341E+02 -0.15350864193E+02  0.57430570891E+02  0.51100000000E-03 0. -1.
         23    2    1    0    0    0 -0.43556362645E+01 -0.19055379726E+02 -0.22314336963E+02  0.95335059449E+02  0.90602234312E+02 0.  0.
         11    1    3    3    0    0  0.24125479417E+02  0.28394040615E+02 -0.69634727701E+01  0.37904488558E+02  0.51100000000E-03 0.  1.
         22    1    1    0    0    0  0.43556362645E+01  0.19055379726E+02  0.22314336963E+02  0.29664940551E+02  0.00000000000E+00 0. -1.
</event>
<event>
 5    1  0.8778268E-005  0.9118800E+02  0.7818608E-02  0.1130116E+00
         25   -1    0    0    0    0  0.00000000000E+00  0.00000000000E+00  0.99999998245E-14  0.12500000000E+03  0.12500000000E+03 0.  0.
        -11    1    3    3    0    0 -0.24974782040E+02 -0.39692363311E+02 -0.39302874506E+02  0.61187738869E+02  0.51100000000E-03 0.  1.
         23    2    1    0    0    0 -0.78766771183E+01 -0.25516749804E+02 -0.14026904704E+02  0.94835441018E+02  0.89910290037E+02 0.  0.
         11    1    3    3    0    0  0.17098104921E+02  0.14175613507E+02  0.25275969802E+02  0.33647702149E+02  0.51100000000E-03 0. -1.
         22    1    1    0    0    0  0.78766771183E+01  0.25516749804E+02  0.14026904704E+02  0.30164558982E+02  0.00000000000E+00 0.  1.
</event>
<event>
 5    1  0.8778268E-005  0.9118800E+02  0.7818608E-02  0.1130116E+00
         25   -1    0    0    0    0  0.00000000000E+00  0.00000000000E+00  0.99999998245E-14  0.12500000000E+03  0.12500000000E+03 0.  0.
        -11    1    3    3    0    0 -0.16786693545E+02  0.11853280485E+02 -0.58128912528E+02  0.61654390033E+02  0.51100000000E-03 0. -1.
         23    2    1    0    0    0 -0.40149700791E+01  0.11723516072E+02 -0.27780157412E+02  0.94581289317E+02  0.89556252318E+02 0.  0.
         11    1    3    3    0    0  0.12771723466E+02 -0.12976441322E+00  0.30348755116E+02  0.32926899284E+02  0.51100000000E-03 0.  1.
         22    1    1    0    0    0  0.40149700791E+01 -0.11723516072E+02  0.27780157412E+02  0.30418710683E+02  0.00000000000E+00 0. -1.
</event>
<event>
 5    1  0.8778268E-005  0.9118800E+02  0.7818608E-02  0.1130116E+00
         25   -1    0    0    0    0  0.00000000000E+00  0.00000000000E+00  0.99999998245E-14  0.12500000000E+03  0.12500000000E+03 0.  0.
        -11    1    3    3    0    0  0.33938870979E+02 -0.13690126739E+02  0.20766649800E+02  0.42077550756E+02  0.51100000000E-03 0. -1.
         23    2    1    0    0    0  0.99337716300E+01  0.27087156322E+02 -0.46283856748E+01  0.95779873197E+02  0.91213860237E+02 0.  0.
         11    1    3    3    0    0 -0.24005099349E+02  0.40777283061E+02 -0.25395035474E+02  0.53702322441E+02  0.51100000000E-03 0.  1.
         22    1    1    0    0    0 -0.99337716300E+01 -0.27087156322E+02  0.46283856748E+01  0.29220126803E+02  0.00000000000E+00 0.  1.
</event>
<event>
 5    1  0.8778268E-005  0.9118800E+02  0.7818608E-02  0.1130116E+00
         25   -1    0    0    0    0  0.00000000000E+00  0.00000000000E+00  0.99999998245E-14  0.12500000000E+03  0.12500000000E+03 0.  0.
        -11    1    3    3    0    0 -0.27191606958E+00 -0.15593649097E+02  0.36750316470E+02  0.39922695193E+02  0.51100000000E-03 0.  1.
         23    2    1    0    0    0  0.20198320764E+02  0.17078162830E+02 -0.63977717753E+01  0.97786633964E+02  0.93923684398E+02 0.  0.
         11    1    3    3    0    0  0.20470236834E+02  0.32671811926E+02 -0.43148088246E+02  0.57863938771E+02  0.51100000000E-03 0. -1.
         22    1    1    0    0    0 -0.20198320764E+02 -0.17078162830E+02  0.63977717753E+01  0.27213366036E+02  0.00000000000E+00 0. -1.
</event>
<event>
 5    1  0.8778268E-005  0.9118800E+02  0.7818608E-02  0.1130116E+00
         25   -1    0    0    0    0  0.00000000000E+00  0.00000000000E+00  0.99999998245E-14  0.12500000000E+03  0.12500000000E+03 0.  0.
        -11    1    3    3    0    0 -0.44391731746E+02  0.58349774939E+01  0.36780468723E+02  0.57943728647E+02  0.51100000000E-03 0. -1.
         23    2    1    0    0    0 -0.25151173048E+02  0.14876957477E+02  0.62980488417E+01  0.95107345574E+02  0.90287520696E+02 0.  0.
         11    1    3    3    0    0  0.19240558698E+02  0.90419799828E+01 -0.30482419881E+02  0.37163616927E+02  0.51100000000E-03 0.  1.
         22    1    1    0    0    0  0.25151173048E+02 -0.14876957477E+02 -0.62980488417E+01  0.29892654426E+02  0.00000000000E+00 0. -1.
</event>
<event>
 5    1  0.8778268E-005  0.9118800E+02  0.7818608E-02  0.1130116E+00
         25   -1    0    0    0    0  0.00000000000E+00  0.00000000000E+00  0.99999998245E-14  0.12500000000E+03  0.12500000000E+03 0.  0.
        -11    1    3    3    0    0  0.14106778429E+02 -0.31683313157E+02  0.18001195523E+02  0.39075268019E+02  0.51100000000E-03 0. -1.
         23    2    1    0    0    0 -0.29076528998E+02  0.30695532827E+00  0.13307031037E+02  0.93021634889E+02  0.87352210747E+02 0.  0.
         11    1    3    3    0    0 -0.43183307427E+02  0.31990268485E+02 -0.46941644868E+01  0.53946366871E+02  0.51100000000E-03 0.  1.
         22    1    1    0    0    0  0.29076528998E+02 -0.30695532827E+00 -0.13307031037E+02  0.31978365111E+02  0.00000000000E+00 0.  1.
</event>
<event>
 5    1  0.8778268E-005  0.9118800E+02  0.7818608E-02  0.1130116E+00
         25   -1    0    0    0    0  0.00000000000E+00  0.00000000000E+00  0.99999998245E-14  0.12500000000E+03  0.12500000000E+03 0.  0.
        -11    1    3    3    0    0 -0.24641173993E+01  0.27238519139E+02 -0.32942506587E+02  0.42816089732E+02  0.51100000000E-03 0.  1.
         23    2    1    0    0    0 -0.15785383343E+01  0.89849207592E+00  0.21563917189E+02  0.10335972283E+03  0.10106894037E+03 0.  0.
         11    1    3    3    0    0  0.88557906494E+00 -0.26340027063E+02  0.54506423777E+02  0.60543633102E+02  0.51100000000E-03 0. -1.
         22    1    1    0    0    0  0.15785383343E+01 -0.89849207592E+00 -0.21563917189E+02  0.21640277166E+02  0.00000000000E+00 0. -1.
</event>
<event>
 5    1  0.8778268E-005  0.9118800E+02  0.7818608E-02  0.1130116E+00
         25   -1    0    0    0    0  0.00000000000E+00  0.00000000000E+00  0.99999998245E-14  0.12500000000E+03  0.12500000000E+03 0.  0.
        -11    1    3    3    0    0 -0.82652527236E+01  0.13115155464E+02  0.35694457560E+02  0.38915498277E+02  0.51100000000E-03 0.  1.
         23    2    1    0    0    0  0.14127407597E+02 -0.22611107943E+02 -0.54044891141E+01  0.97796060021E+02  0.93936228396E+02 0.  0.
         11    1    3    3    0    0  0.22392660321E+02 -0.35726263407E+02 -0.41098946674E+02  0.58880561743E+02  0.51100000000E-03 0. -1.
         22    1    1    0    0    0 -0.14127407597E+02  0.22611107943E+02  0.54044891141E+01  0.27203939979E+02  0.00000000000E+00 0. -1.
</event>
<event>
 5    1  0.8778268E-005  0.9118800E+02  0.7818608E-02  0.1130116E+00
         25   -1    0    0    0    0  0.00000000000E+00  0.00000000000E+00  0.99999998245E-14  0.12500000000E+03  0.12500000000E+03 0.  0.
        -11    1    3    3    0    0  0.19316018724E+02 -0.14867551120E+02 -0.28716818258E+02  0.37667071917E+02  0.51100000000E-03 0.  1.
         23    2    1    0    0    0 -0.26786011621E+02 -0.69986599363E+01  0.69166571326E+01  0.96463850902E+02  0.92146420037E+02 0.  0.
         11    1    3    3    0    0 -0.46102030344E+02  0.78688911837E+01  0.35633475391E+02  0.58796778985E+02  0.51100000000E-03 0. -1.
         22    1    1    0    0    0  0.26786011621E+02  0.69986599363E+01 -0.69166571326E+01  0.28536149098E+02  0.00000000000E+00 0. -1.
</event>
<event>
 5    1  0.8778268E-005  0.9118800E+02  0.7818608E-02  0.1130116E+00
         25   -1    0    0    0    0  0.00000000000E+00  0.00000000000E+00  0.99999998245E-14  0.12500000000E+03  0.12500000000E+03 0.  0.
        -11    1    3    3    0    0 -0.89335860472E+01  0.47705947677E+02 -0.42227840437E+01  0.48718562261E+02  0.51100000000E-03 0.  1.
         23    2    1    0    0    0 -0.15415787799E+02  0.70303900639E+01  0.21762769198E+02  0.97419372359E+02  0.93433629330E+02 0.  0.
         11    1    3    3    0    0 -0.64822017518E+01 -0.40675557613E+02  0.25985553242E+02  0.48700810098E+02  0.51100000000E-03 0. -1.
         22    1    1    0    0    0  0.15415787799E+02 -0.70303900639E+01 -0.21762769198E+02  0.27580627641E+02  0.00000000000E+00 0.  1.
</event>
<event>
 5    1  0.8778268E-005  0.9118800E+02  0.7818608E-02  0.1130116E+00
         25   -1    0    0    0    0  0.00000000000E+00  0.00000000000E+00  0.99999998245E-14  0.12500000000E+03  0.12500000000E+03 0.  0.
        -11    1    3    3    0    0 -0.18173671725E+02 -0.20600229133E+02 -0.49748958886E+02  0.56829663863E+02  0.51100000000E-03 0. -1.
         23    2    1    0    0    0 -0.53074066148E+01 -0.27527183265E+02 -0.18261289592E+02  0.91542727531E+02  0.85209634917E+02 0.  0.
         11    1    3    3    0    0  0.12866265110E+02 -0.69269541325E+01  0.31487669293E+02  0.34713063668E+02  0.51100000000E-03 0.  1.
         22    1    1    0    0    0  0.53074066148E+01  0.27527183265E+02  0.18261289592E+02  0.33457272469E+02  0.00000000000E+00 0. -1.
</event>
<event>
 5    1  0.8778268E-005  0.9118800E+02  0.7818608E-02  0.1130116E+00
         25   -1    0    0    0    0  0.00000000000E+00  0.00000000000E+00  0.99999998245E-14  0.12500000000E+03  0.12500000000E+03 0.  0.
        -11    1    3    3    0    0 -0.37845908706E+02 -0.24829452587E+02 -0.31831888548E+02  0.55336097173E+02  0.51100000000E-03 0. -1.
         23    2    1    0    0    0 -0.22951671547E+02  0.92715848396E+01 -0.12867667909E+02  0.97101641811E+02  0.93007582770E+02 0.  0.
         11    1    3    3    0    0  0.14894237159E+02  0.34101037427E+02  0.18964220640E+02  0.41765544637E+02  0.51100000000E-03 0.  1.
         22    1    1    0    0    0  0.22951671547E+02 -0.92715848396E+01  0.12867667909E+02  0.27898358189E+02  0.00000000000E+00 0. -1.
</event>
<event>
 5    1  0.8778268E-005  0.9118800E+02  0.7818608E-02  0.1130116E+00
         25   -1    0    0    0    0  0.00000000000E+00  0.00000000000E+00  0.99999998245E-14  0.12500000000E+03  0.12500000000E+03 0.  0.
        -11    1    3    3    0    0  0.34379186212E+02 -0.41508791493E+02 -0.15220511764E+02  0.56005108646E+02  0.51100000000E-03 0. -1.
         23    2    1    0    0    0  0.26167338131E+02 -0.22567472848E+01 -0.47735636790E+00  0.98731190315E+02  0.95172462292E+02 0.  0.
         11    1    3    3    0    0 -0.82118480810E+01  0.39252044208E+02  0.14743155396E+02  0.42726081669E+02  0.51100000000E-03 0.  1.
         22    1    1    0    0    0 -0.26167338131E+02  0.22567472848E+01  0.47735636790E+00  0.26268809685E+02  0.00000000000E+00 0. -1.
</event>
<event>
 5    1  0.8778268E-005  0.9118800E+02  0.7818608E-02  0.1130116E+00
         25   -1    0    0    0    0  0.00000000000E+00  0.00000000000E+00  0.99999998245E-14  0.12500000000E+03  0.12500000000E+03 0.  0.
        -11    1    3    3    0    0  0.10011931605E+02 -0.21016868586E+02  0.54943409818E+02  0.59671817655E+02  0.51100000000E-03 0. -1.
         23    2    1    0    0    0 -0.79604700126E+01 -0.85091267463E+01  0.29742223268E+02  0.93056703900E+02  0.87402379688E+02 0.  0.
         11    1    3    3    0    0 -0.17972401618E+02  0.12507741839E+02 -0.25201186550E+02  0.33384886245E+02  0.51100000000E-03 0.  1.
         22    1    1    0    0    0  0.79604700126E+01  0.85091267463E+01 -0.29742223268E+02  0.31943296100E+02  0.00000000000E+00 0. -1.
</event>
<event>
 5    1  0.8778268E-005  0.9118800E+02  0.7818608E-02  0.1130116E+00
         25   -1    0    0    0    0  0.00000000000E+00  0.00000000000E+00  0.99999998245E-14  0.12500000000E+03  0.12500000000E+03 0.  0.
        -11    1    3    3    0    0  0.17250357847E+02 -0.43877284411E+02  0.36447517640E+02  0.59592050439E+02  0.51100000000E-03 0. -1.
         23    2    1    0    0    0  0.11939701497E+02 -0.74212622579E+01  0.21417566284E+02  0.99380793321E+02  0.96021863814E+02 0.  0.
         11    1    3    3    0    0 -0.53106563495E+01  0.36456022153E+02 -0.15029951357E+02  0.39788742882E+02  0.51100000000E-03 0.  1.
         22    1    1    0    0    0 -0.11939701497E+02  0.74212622579E+01 -0.21417566284E+02  0.25619206679E+02  0.00000000000E+00 0. -1.
</event>
<event>
 5    1  0.8778268E-005  0.9118800E+02  0.7818608E-02  0.1130116E+00
         25   -1    0    0    0    0  0.00000000000E+00  0.00000000000E+00  0.99999998245E-14  0.12500000000E+03  0.12500000000E+03 0.  0.
        -11    1    3    3    0    0  0.28351352459E+02 -0.18773096560E+02 -0.77900272482E+01  0.34884278200E+02  0.51100000000E-03 0. -1.
         23    2    1    0    0    0 -0.28897204867E+02  0.16824659803E+00  0.22490583365E+01  0.96014917295E+02  0.91535399293E+02 0.  0.
         11    1    3    3    0    0 -0.57248557326E+02  0.18941343158E+02  0.10039085585E+02  0.61130639095E+02  0.51100000000E-03 0.  1.
         22    1    1    0    0    0  0.28897204867E+02 -0.16824659803E+00 -0.22490583365E+01  0.28985082705E+02  0.00000000000E+00 0.  1.
</event>
<event>
 5    1  0.8778268E-005  0.9118800E+02  0.7818608E-02  0.1130116E+00
         25   -1    0    0    0    0  0.00000000000E+00  0.00000000000E+00  0.99999998245E-14  0.12500000000E+03  0.12500000000E+03 0.  0.
        -11    1    3    3    0    0  0.29285649146E+02  0.15413515682E+02  0.39351156277E+02  0.51417304599E+02  0.51100000000E-03 0.  1.
         23    2    1    0    0    0  0.22616783695E+02  0.16254514260E+02 -0.53652151195E+01  0.96636049785E+02  0.92379718803E+02 0.  0.
         11    1    3    3    0    0 -0.66688654511E+01  0.84099857802E+00 -0.44716371397E+02  0.45218745186E+02  0.51100000000E-03 0. -1.
         22    1    1    0    0    0 -0.22616783695E+02 -0.16254514260E+02  0.53652151195E+01  0.28363950215E+02  0.00000000000E+00 0.  1.
</event>
<event>
 5    1  0.8778268E-005  0.9118800E+02  0.7818608E-02  0.1130116E+00
         25   -1    0    0    0    0  0.00000000000E+00  0.00000000000E+00  0.99999998245E-14  0.12500000000E+03  0.12500000000E+03 0.  0.
        -11    1    3    3    0    0  0.12857956156E+02  0.38897252696E+02  0.90135849255E+01  0.41947205119E+02  0.51100000000E-03 0.  1.
         23    2    1    0    0    0  0.24315011211E+02 -0.13172472295E+02 -0.45831991049E+01  0.96968954522E+02  0.92829082892E+02 0.  0.
         11    1    3    3    0    0  0.11457055055E+02 -0.52069724991E+02 -0.13596784030E+02  0.55021749404E+02  0.51100000000E-03 0. -1.
         22    1    1    0    0    0 -0.24315011211E+02  0.13172472295E+02  0.45831991049E+01  0.28031045478E+02  0.00000000000E+00 0. -1.
</event>
<event>
 5    1  0.8778268E-005  0.9118800E+02  0.7818608E-02  0.1130116E+00
         25   -1    0    0    0    0  0.00000000000E+00  0.00000000000E+00  0.99999998245E-14  0.12500000000E+03  0.12500000000E+03 0.  0.
        -11    1    3    3    0    0  0.45745979247E+02  0.38932116248E+01  0.31981422312E+02  0.55952328703E+02  0.51100000000E-03 0.  1.
         23    2    1    0    0    0  0.28343904250E+02 -0.82552956532E+01 -0.13281780885E+01  0.95448504751E+02  0.90758614950E+02 0.  0.
         11    1    3    3    0    0 -0.17402074997E+02 -0.12148507278E+02 -0.33309600400E+02  0.39496176047E+02  0.51100000000E-03 0. -1.
         22    1    1    0    0    0 -0.28343904250E+02  0.82552956532E+01  0.13281780885E+01  0.29551495249E+02  0.00000000000E+00 0.  1.
</event>
<event>
 5    1  0.8778268E-005  0.9118800E+02  0.7818608E-02  0.1130116E+00
         25   -1    0    0    0    0  0.00000000000E+00  0.00000000000E+00  0.99999998245E-14  0.12500000000E+03  0.12500000000E+03 0.  0.
        -11    1    3    3    0    0  0.41057625655E+02 -0.18900973656E+02  0.28001967929E+02  0.53170345473E+02  0.51100000000E-03 0. -1.
         23    2    1    0    0    0  0.14969099595E+01 -0.25518757008E+02  0.15129154237E+02  0.95295808265E+02  0.90548064951E+02 0.  0.
         11    1    3    3    0    0 -0.39560715696E+02 -0.66177833525E+01 -0.12872813692E+02  0.42125462792E+02  0.51100000000E-03 0.  1.
         22    1    1    0    0    0 -0.14969099595E+01  0.25518757008E+02 -0.15129154237E+02  0.29704191735E+02  0.00000000000E+00 0.  1.
</event>
<event>
 5    1  0.8778268E-005  0.9118800E+02  0.7818608E-02  0.1130116E+00
         25   -1    0    0    0    0  0.00000000000E+00  0.00000000000E+00  0.99999998245E-14  0.12500000000E+03  0.12500000000E+03 0.  0.
        -11    1    3    3    0    0  0.20972711112E+02 -0.25135580413E+02 -0.10138781416E+02  0.34270204303E+02  0.51100000000E-03 0. -1.
         23    2    1    0    0    0 -0.22654366255E+02  0.10565711469E+02  0.14840481576E+02  0.95929491531E+02  0.91418668130E+02 0.  0.
         11    1    3    3    0    0 -0.43627077367E+02  0.35701291882E+02  0.24979262991E+02  0.61659287228E+02  0.51100000000E-03 0.  1.
         22    1    1    0    0    0  0.22654366255E+02 -0.10565711469E+02 -0.14840481576E+02  0.29070508469E+02  0.00000000000E+00 0.  1.
</event>
<event>
 5    1  0.8778268E-005  0.9118800E+02  0.7818608E-02  0.1130116E+00
         25   -1    0    0    0    0  0.00000000000E+00  0.00000000000E+00  0.99999998245E-14  0.12500000000E+03  0.12500000000E+03 0.  0.
        -11    1    3    3    0    0 -0.35417678450E+01  0.29394208931E+02 -0.19699307170E+02  0.35561585192E+02  0.51100000000E-03 0. -1.
         23    2    1    0    0    0 -0.98470950658E+01 -0.71877254837E+01  0.27093090114E+02  0.95290334724E+02  0.90540508509E+02 0.  0.
         11    1    3    3    0    0 -0.63053272207E+01 -0.36581934414E+02  0.46792397284E+02  0.59728749532E+02  0.51100000000E-03 0.  1.
         22    1    1    0    0    0  0.98470950658E+01  0.71877254837E+01 -0.27093090114E+02  0.29709665276E+02  0.00000000000E+00 0.  1.
</event>
<event>
 5    1  0.8778268E-005  0.9118800E+02  0.7818608E-02  0.1130116E+00
         25   -1    0    0    0    0  0.00000000000E+00  0.00000000000E+00  0.99999998245E-14  0.12500000000E+03  0.12500000000E+03 0.  0.
        -11    1    3    3    0    0  0.57023891132E+00  0.32082798541E+02 -0.35502253853E+02  0.47854374550E+02  0.51100000000E-03 0.  1.
         23    2    1    0    0    0 -0.24762166831E+02  0.23734352736E+02 -0.20494681408E+01  0.90638906804E+02  0.83873277633E+02 0.  0.
         11    1    3    3    0    0 -0.25332405742E+02 -0.83484458042E+01  0.33452785712E+02  0.42784532254E+02  0.51100000000E-03 0. -1.
         22    1    1    0    0    0  0.24762166831E+02 -0.23734352736E+02  0.20494681408E+01  0.34361093196E+02  0.00000000000E+00 0.  1.
</event>
<event>
 5    1  0.8778268E-005  0.9118800E+02  0.7818608E-02  0.1130116E+00
         25   -1    0    0    0    0  0.00000000000E+00  0.00000000000E+00  0.99999998245E-14  0.12500000000E+03  0.12500000000E+03 0.  0.
        -11    1    3    3    0    0  0.41381586771E+02 -0.22323635668E+02  0.10166132316E+02  0.48105412166E+02  0.51100000000E-03 0.  1.
         23    2    1    0    0    0  0.24091165881E+02  0.13530065378E+02 -0.13323849337E+02  0.94324734658E+02  0.89197442029E+02 0.  0.
         11    1    3    3    0    0 -0.17290420890E+02  0.35853701047E+02 -0.23489981653E+02  0.46219322492E+02  0.51100000000E-03 0. -1.
         22    1    1    0    0    0 -0.24091165881E+02 -0.13530065378E+02  0.13323849337E+02  0.30675265342E+02  0.00000000000E+00 0.  1.
</event>
<event>
 5    1  0.8778268E-005  0.9118800E+02  0.7818608E-02  0.1130116E+00
         25   -1    0    0    0    0  0.00000000000E+00  0.00000000000E+00  0.99999998245E-14  0.12500000000E+03  0.12500000000E+03 0.  0.
        -11    1    3    3    0    0 -0.17948125544E+02  0.30426601365E+02  0.33889000447E+02  0.48952810264E+02  0.51100000000E-03 0.  1.
         23    2    1    0    0    0 -0.26095390491E+01  0.32182967938E+02 -0.63863676975E+01  0.92085887347E+02  0.86002743193E+02 0.  0.
         11    1    3    3    0    0  0.15338586495E+02  0.17563665739E+01 -0.40275368145E+02  0.43133077083E+02  0.51100000000E-03 0. -1.
         22    1    1    0    0    0  0.26095390491E+01 -0.32182967938E+02  0.63863676975E+01  0.32914112653E+02  0.00000000000E+00 0.  1.
</event>
<event>
 5    1  0.8778268E-005  0.9118800E+02  0.7818608E-02  0.1130116E+00
         25   -1    0    0    0    0  0.00000000000E+00  0.00000000000E+00  0.99999998245E-14  0.12500000000E+03  0.12500000000E+03 0.  0.
        -11    1    3    3    0    0  0.45203117207E+02 -0.29989337017E+02 -0.64802431350E+01  0.54632185489E+02  0.51100000000E-03 0.  1.
         23    2    1    0    0    0  0.10403559154E+02 -0.22613563883E+02  0.14757505536E+02  0.96062286127E+02  0.91600062946E+02 0.  0.
         11    1    3    3    0    0 -0.34799558053E+02  0.73757731345E+01  0.21237748671E+02  0.41430100638E+02  0.51100000000E-03 0. -1.
         22    1    1    0    0    0 -0.10403559154E+02  0.22613563883E+02 -0.14757505536E+02  0.28937713873E+02  0.00000000000E+00 0.  1.
</event>
<event>
 5    1  0.8778268E-005  0.9118800E+02  0.7818608E-02  0.1130116E+00
         25   -1    0    0    0    0  0.00000000000E+00  0.00000000000E+00  0.99999998245E-14  0.12500000000E+03  0.12500000000E+03 0.  0.
        -11    1    3    3    0    0 -0.38188259826E+02  0.13641213255E+02  0.91759678777E+01  0.41576727557E+02  0.51100000000E-03 0.  1.
         23    2    1    0    0    0 -0.77575398744E+01 -0.24610986367E+02 -0.13966180046E+02  0.95658318727E+02  0.91047128904E+02 0.  0.
         11    1    3    3    0    0  0.30430719951E+02 -0.38252199622E+02 -0.23142147924E+02  0.54081591170E+02  0.51100000000E-03 0. -1.
         22    1    1    0    0    0  0.77575398744E+01  0.24610986367E+02  0.13966180046E+02  0.29341681273E+02  0.00000000000E+00 0. -1.
</event>
<event>
 5    1  0.8778268E-005  0.9118800E+02  0.7818608E-02  0.1130116E+00
         25   -1    0    0    0    0  0.00000000000E+00  0.00000000000E+00  0.99999998245E-14  0.12500000000E+03  0.12500000000E+03 0.  0.
        -11    1    3    3    0    0  0.34555683274E+02  0.10401108912E+02  0.36891739875E+02  0.51606964495E+02  0.51100000000E-03 0.  1.
         23    2    1    0    0    0 -0.73387347020E+01 -0.27720483713E+00  0.28398607164E+02  0.95667172684E+02  0.91059283826E+02 0.  0.
         11    1    3    3    0    0 -0.41894417976E+02 -0.10678313749E+02 -0.84931327119E+01  0.44060208188E+02  0.51100000000E-03 0. -1.
         22    1    1    0    0    0  0.73387347020E+01  0.27720483713E+00 -0.28398607164E+02  0.29332827316E+02  0.00000000000E+00 0.  1.
</event>
<event>
 5    1  0.8778268E-005  0.9118800E+02  0.7818608E-02  0.1130116E+00
         25   -1    0    0    0    0  0.00000000000E+00  0.00000000000E+00  0.99999998245E-14  0.12500000000E+03  0.12500000000E+03 0.  0.
        -11    1    3    3    0    0 -0.15300654125E+02 -0.16679248720E+02 -0.24762893600E+02  0.33548595413E+02  0.51100000000E-03 0. -1.
         23    2    1    0    0    0 -0.78356889604E+01  0.24894339778E+02  0.17718823023E+02  0.93455065957E+02  0.87970259118E+02 0.  0.
         11    1    3    3    0    0  0.74649651647E+01  0.41573588498E+02  0.42481716622E+02  0.59906470543E+02  0.51100000000E-03 0.  1.
         22    1    1    0    0    0  0.78356889604E+01 -0.24894339778E+02 -0.17718823023E+02  0.31544934043E+02  0.00000000000E+00 0.  1.
</event>
<event>
 5    1  0.8778268E-005  0.9118800E+02  0.7818608E-02  0.1130116E+00
         25   -1    0    0    0    0  0.00000000000E+00  0.00000000000E+00  0.99999998245E-14  0.12500000000E+03  0.12500000000E+03 0.  0.
        -11    1    3    3    0    0 -0.14925443802E+01 -0.15899581658E+02  0.58539119798E+02  0.60678273975E+02  0.51100000000E-03 0.  1.
         23    2    1    0    0    0  0.42925350860E+01  0.19734917670E+01  0.28522381188E+02  0.96088985562E+02  0.91636490496E+02 0.  0.
         11    1    3    3    0    0  0.57850794662E+01  0.17873073425E+02 -0.30016738610E+02  0.35410711587E+02  0.51100000000E-03 0. -1.
         22    1    1    0    0    0 -0.42925350860E+01 -0.19734917670E+01 -0.28522381188E+02  0.28911014438E+02  0.00000000000E+00 0.  1.
</event>
<event>
 5    1  0.8778268E-005  0.9118800E+02  0.7818608E-02  0.1130116E+00
         25   -1    0    0    0    0  0.00000000000E+00  0.00000000000E+00  0.99999998245E-14  0.12500000000E+03  0.12500000000E+03 0.  0.
        -11    1    3    3    0    0 -0.28298249618E+02  0.25276631794E+02 -0.16483582893E+02  0.41369161842E+02  0.51100000000E-03 0. -1.
         23    2    1    0    0    0  0.24512909190E+02  0.11851046334E+02 -0.23009571633E+01  0.97675571002E+02  0.93775757798E+02 0.  0.
         11    1    3    3    0    0  0.52811158808E+02 -0.13425585460E+02  0.14182625729E+02  0.56306409160E+02  0.51100000000E-03 0.  1.
         22    1    1    0    0    0 -0.24512909190E+02 -0.11851046334E+02  0.23009571633E+01  0.27324428998E+02  0.00000000000E+00 0.  1.
</event>
<event>
 5    1  0.8778268E-005  0.9118800E+02  0.7818608E-02  0.1130116E+00
         25   -1    0    0    0    0  0.00000000000E+00  0.00000000000E+00  0.99999998245E-14  0.12500000000E+03  0.12500000000E+03 0.  0.
        -11    1    3    3    0    0 -0.91337950787E+01 -0.13797580936E+02  0.37506981343E+02  0.40994793596E+02  0.51100000000E-03 0.  1.
         23    2    1    0    0    0  0.33517138250E+01 -0.21905785561E+02 -0.16727089896E+02  0.97235040735E+02  0.93186695315E+02 0.  0.
         11    1    3    3    0    0  0.12485508904E+02 -0.81082046245E+01 -0.54234071239E+02  0.56240247139E+02  0.51100000000E-03 0. -1.
         22    1    1    0    0    0 -0.33517138250E+01  0.21905785561E+02  0.16727089896E+02  0.27764959265E+02  0.00000000000E+00 0. -1.
</event>
<event>
 5    1  0.8778268E-005  0.9118800E+02  0.7818608E-02  0.1130116E+00
         25   -1    0    0    0    0  0.00000000000E+00  0.00000000000E+00  0.99999998245E-14  0.12500000000E+03  0.12500000000E+03 0.  0.
        -11    1    3    3    0    0  0.23992539122E+02 -0.41091357196E+02 -0.19014124010E+02  0.51241374706E+02  0.51100000000E-03 0. -1.
         23    2    1    0    0    0 -0.15072619197E+02 -0.24269153361E+02 -0.10098220481E+02  0.94699014683E+02  0.89720419475E+02 0.  0.
         11    1    3    3    0    0 -0.39065158319E+02  0.16822203835E+02  0.89159035283E+01  0.43457639976E+02  0.51100000000E-03 0.  1.
         22    1    1    0    0    0  0.15072619197E+02  0.24269153361E+02  0.10098220481E+02  0.30300985317E+02  0.00000000000E+00 0. -1.
</event>
<event>
 5    1  0.8778268E-005  0.9118800E+02  0.7818608E-02  0.1130116E+00
         25   -1    0    0    0    0  0.00000000000E+00  0.00000000000E+00  0.99999998245E-14  0.12500000000E+03  0.12500000000E+03 0.  0.
        -11    1    3    3    0    0 -0.30458567323E+02  0.54010532232E+01  0.21110838784E+02  0.37450810588E+02  0.51100000000E-03 0.  1.
         23    2    1    0    0    0  0.16240795324E+02 -0.22939920691E+02 -0.21231715920E+01  0.96812924031E+02  0.92618740047E+02 0.  0.
         11    1    3    3    0    0  0.46699362647E+02 -0.28340973914E+02 -0.23234010376E+02  0.59362113443E+02  0.51100000000E-03 0. -1.
         22    1    1    0    0    0 -0.16240795324E+02  0.22939920691E+02  0.21231715920E+01  0.28187075969E+02  0.00000000000E+00 0. -1.
</event>
<event>
 5    1  0.8778268E-005  0.9118800E+02  0.7818608E-02  0.1130116E+00
         25   -1    0    0    0    0  0.00000000000E+00  0.00000000000E+00  0.99999998245E-14  0.12500000000E+03  0.12500000000E+03 0.  0.
        -11    1    3    3    0    0 -0.33986612400E+02 -0.39456535678E+02 -0.29957992985E+02  0.60078193832E+02  0.51100000000E-03 0.  1.
         23    2    1    0    0    0 -0.22247959461E+02 -0.73818769507E+01 -0.12344042833E+02  0.98507752060E+02  0.94878543491E+02 0.  0.
         11    1    3    3    0    0  0.11738652940E+02  0.32074658728E+02  0.17613950152E+02  0.38429558227E+02  0.51100000000E-03 0. -1.
         22    1    1    0    0    0  0.22247959461E+02  0.73818769507E+01  0.12344042833E+02  0.26492247940E+02  0.00000000000E+00 0.  1.
</event>
<event>
 5    1  0.8778268E-005  0.9118800E+02  0.7818608E-02  0.1130116E+00
         25   -1    0    0    0    0  0.00000000000E+00  0.00000000000E+00  0.99999998245E-14  0.12500000000E+03  0.12500000000E+03 0.  0.
        -11    1    3    3    0    0 -0.18200957290E+02  0.27443184044E+02  0.12545009082E+02  0.35238905345E+02  0.51100000000E-03 0. -1.
         23    2    1    0    0    0  0.24274648125E+02 -0.15236264951E+02  0.45382016946E+01  0.95982805341E+02  0.91491536959E+02 0.  0.
         11    1    3    3    0    0  0.42475605415E+02 -0.42679448995E+02 -0.80068073878E+01  0.60743899996E+02  0.51100000000E-03 0.  1.
         22    1    1    0    0    0 -0.24274648125E+02  0.15236264951E+02 -0.45382016946E+01  0.29017194659E+02  0.00000000000E+00 0.  1.
</event>
<event>
 5    1  0.8778268E-005  0.9118800E+02  0.7818608E-02  0.1130116E+00
         25   -1    0    0    0    0  0.00000000000E+00  0.00000000000E+00  0.99999998245E-14  0.12500000000E+03  0.12500000000E+03 0.  0.
        -11    1    3    3    0    0 -0.31863727932E+02  0.19473803786E+02  0.40225277916E+02  0.54887149455E+02  0.51100000000E-03 0. -1.
         23    2    1    0    0    0 -0.11781956896E+02 -0.12531094769E+02  0.22653154408E+02  0.96556929683E+02  0.92272598429E+02 0.  0.
         11    1    3    3    0    0  0.20081771036E+02 -0.32004898555E+02 -0.17572123508E+02  0.41669780229E+02  0.51100000000E-03 0.  1.
         22    1    1    0    0    0  0.11781956896E+02  0.12531094769E+02 -0.22653154408E+02  0.28443070317E+02  0.00000000000E+00 0. -1.
</event>
<event>
 5    1  0.8778268E-005  0.9118800E+02  0.7818608E-02  0.1130116E+00
         25   -1    0    0    0    0  0.00000000000E+00  0.00000000000E+00  0.99999998245E-14  0.12500000000E+03  0.12500000000E+03 0.  0.
        -11    1    3    3    0    0 -0.18125825968E+02  0.24664596934E+02 -0.42568681610E+02  0.52430721559E+02  0.51100000000E-03 0. -1.
         23    2    1    0    0    0 -0.25411982785E+02 -0.62139892883E+01 -0.13053330727E+02  0.95763516371E+02  0.91191441993E+02 0.  0.
         11    1    3    3    0    0 -0.72861568164E+01 -0.30878586222E+02  0.29515350882E+02  0.43332794812E+02  0.51100000000E-03 0.  1.
         22    1    1    0    0    0  0.25411982785E+02  0.62139892883E+01  0.13053330727E+02  0.29236483629E+02  0.00000000000E+00 0. -1.
</event>
<event>
 5    1  0.8778268E-005  0.9118800E+02  0.7818608E-02  0.1130116E+00
         25   -1    0    0    0    0  0.00000000000E+00  0.00000000000E+00  0.99999998245E-14  0.12500000000E+03  0.12500000000E+03 0.  0.
        -11    1    3    3    0    0 -0.95731515476E+01  0.36602565175E+02 -0.12267455239E+02  0.39772898640E+02  0.51100000000E-03 0.  1.
         23    2    1    0    0    0  0.27993593127E+02 -0.44161457815E+01 -0.79714177942E+01  0.95560450048E+02  0.90912664200E+02 0.  0.
         11    1    3    3    0    0  0.37566744675E+02 -0.41018710957E+02  0.42960374446E+01  0.55787551407E+02  0.51100000000E-03 0. -1.
         22    1    1    0    0    0 -0.27993593127E+02  0.44161457815E+01  0.79714177942E+01  0.29439549952E+02  0.00000000000E+00 0. -1.
</event>
<event>
 5    1  0.8778268E-005  0.9118800E+02  0.7818608E-02  0.1130116E+00
         25   -1    0    0    0    0  0.00000000000E+00  0.00000000000E+00  0.99999998245E-14  0.12500000000E+03  0.12500000000E+03 0.  0.
        -11    1    3    3    0    0  0.10494282484E+02 -0.34203139122E+02 -0.39031011348E+01  0.35989149606E+02  0.51100000000E-03 0.  1.
         23    2    1    0    0    0  0.28296720372E+01  0.24881287149E+02 -0.13834841261E+02  0.96390765009E+02  0.92047222948E+02 0.  0.
         11    1    3    3    0    0 -0.76646104467E+01  0.59084426271E+02 -0.99317401258E+01  0.60401615403E+02  0.51100000000E-03 0. -1.
         22    1    1    0    0    0 -0.28296720372E+01 -0.24881287149E+02  0.13834841261E+02  0.28609234991E+02  0.00000000000E+00 0. -1.
</event>
<event>
 5    1  0.8778268E-005  0.9118800E+02  0.7818608E-02  0.1130116E+00
         25   -1    0    0    0    0  0.00000000000E+00  0.00000000000E+00  0.99999998245E-14  0.12500000000E+03  0.12500000000E+03 0.  0.
        -11    1    3    3    0    0  0.27029328899E+02 -0.11517799090E+02 -0.53426028385E+02  0.60972000343E+02  0.51100000000E-03 0. -1.
         23    2    1    0    0    0  0.12322845250E+02  0.41933981800E+01 -0.26788608101E+02  0.95216336234E+02  0.90438288675E+02 0.  0.
         11    1    3    3    0    0 -0.14706483649E+02  0.15711197270E+02  0.26637420284E+02  0.34244335891E+02  0.51100000000E-03 0.  1.
         22    1    1    0    0    0 -0.12322845250E+02 -0.41933981800E+01  0.26788608101E+02  0.29783663766E+02  0.00000000000E+00 0. -1.
</event>
<event>
 5    1  0.8778268E-005  0.9118800E+02  0.7818608E-02  0.1130116E+00
         25   -1    0    0    0    0  0.00000000000E+00  0.00000000000E+00  0.99999998245E-14  0.12500000000E+03  0.12500000000E+03 0.  0.
        -11    1    3    3    0    0  0.94809431642E+01 -0.27211601257E+02 -0.48685033405E+02  0.56573774880E+02  0.51100000000E-03 0.  1.
         23    2    1    0    0    0  0.18934673424E+02  0.31395425347E+00 -0.20586393456E+02  0.97028228149E+02  0.92908864148E+02 0.  0.
         11    1    3    3    0    0  0.94537302597E+01  0.27525555511E+02  0.28098639949E+02  0.40454453269E+02  0.51100000000E-03 0. -1.
         22    1    1    0    0    0 -0.18934673424E+02 -0.31395425347E+00  0.20586393456E+02  0.27971771851E+02  0.00000000000E+00 0. -1.
</event>
<event>
 5    1  0.8778268E-005  0.9118800E+02  0.7818608E-02  0.1130116E+00
         25   -1    0    0    0    0  0.00000000000E+00  0.00000000000E+00  0.99999998245E-14  0.12500000000E+03  0.12500000000E+03 0.  0.
        -11    1    3    3    0    0  0.17498670652E+02 -0.28505990257E+02  0.46038012841E+02  0.56906006552E+02  0.51100000000E-03 0.  1.
         23    2    1    0    0    0 -0.63305197997E+00  0.16172740525E+01  0.28950217494E+02  0.95997734172E+02  0.91511931152E+02 0.  0.
         11    1    3    3    0    0 -0.18131722632E+02  0.30123264310E+02 -0.17087795347E+02  0.39091727620E+02  0.51100000000E-03 0. -1.
         22    1    1    0    0    0  0.63305197997E+00 -0.16172740525E+01 -0.28950217494E+02  0.29002265828E+02  0.00000000000E+00 0.  1.
</event>
<event>
 5    1  0.8778268E-005  0.9118800E+02  0.7818608E-02  0.1130116E+00
         25   -1    0    0    0    0  0.00000000000E+00  0.00000000000E+00  0.99999998245E-14  0.12500000000E+03  0.12500000000E+03 0.  0.
        -11    1    3    3    0    0  0.38170715437E+02 -0.33700503924E+02 -0.94677593040E+01  0.51791562519E+02  0.51100000000E-03 0. -1.
         23    2    1    0    0    0  0.16180481489E+02 -0.77508982699E+01 -0.28913991587E+02  0.90972021590E+02  0.84368272457E+02 0.  0.
         11    1    3    3    0    0 -0.21990233949E+02  0.25949605654E+02 -0.19446232283E+02  0.39180459070E+02  0.51100000000E-03 0.  1.
         22    1    1    0    0    0 -0.16180481489E+02  0.77508982699E+01  0.28913991587E+02  0.34027978410E+02  0.00000000000E+00 0.  1.
</event>
<event>
 5    1  0.8778268E-005  0.9118800E+02  0.7818608E-02  0.1130116E+00
         25   -1    0    0    0    0  0.00000000000E+00  0.00000000000E+00  0.99999998245E-14  0.12500000000E+03  0.12500000000E+03 0.  0.
        -11    1    3    3    0    0 -0.28439727572E+02  0.22043983834E+02 -0.14814899219E+02  0.38913192708E+02  0.51100000000E-03 0. -1.
         23    2    1    0    0    0  0.72924557510E+01  0.93293984368E+01  0.27091340937E+02  0.95433831161E+02  0.90738403062E+02 0.  0.
         11    1    3    3    0    0  0.35732183323E+02 -0.12714585397E+02  0.41906240155E+02  0.56520638453E+02  0.51100000000E-03 0.  1.
         22    1    1    0    0    0 -0.72924557510E+01 -0.93293984368E+01 -0.27091340937E+02  0.29566168839E+02  0.00000000000E+00 0.  1.
</event>
<event>
 5    1  0.8778268E-005  0.9118800E+02  0.7818608E-02  0.1130116E+00
         25   -1    0    0    0    0  0.00000000000E+00  0.00000000000E+00  0.99999998245E-14  0.12500000000E+03  0.12500000000E+03 0.  0.
        -11    1    3    3    0    0  0.14701232809E+02  0.50711652157E+02  0.77997907595E+01  0.53372602023E+02  0.51100000000E-03 0.  1.
         23    2    1    0    0    0 -0.15533119918E+02  0.20992189237E+02  0.12538039941E+02  0.96031874950E+02  0.91558553601E+02 0.  0.
         11    1    3    3    0    0 -0.30234352727E+02 -0.29719462919E+02  0.47382491815E+01  0.42659272927E+02  0.51100000000E-03 0. -1.
         22    1    1    0    0    0  0.15533119918E+02 -0.20992189237E+02 -0.12538039941E+02  0.28968125050E+02  0.00000000000E+00 0. -1.
</event>
<event>
 5    1  0.8778268E-005  0.9118800E+02  0.7818608E-02  0.1130116E+00
         25   -1    0    0    0    0  0.00000000000E+00  0.00000000000E+00  0.99999998245E-14  0.12500000000E+03  0.12500000000E+03 0.  0.
        -11    1    3    3    0    0  0.39729704847E+01 -0.31922346346E+02  0.11627276867E+02  0.34205471175E+02  0.51100000000E-03 0. -1.
         23    2    1    0    0    0  0.31586244278E+01  0.26520641340E+02  0.17685454288E+02  0.92967257084E+02  0.87274362048E+02 0.  0.
         11    1    3    3    0    0 -0.81434605690E+00  0.58442987686E+02  0.60581774212E+01  0.58761785908E+02  0.51100000000E-03 0.  1.
         22    1    1    0    0    0 -0.31586244278E+01 -0.26520641340E+02 -0.17685454288E+02  0.32032742916E+02  0.00000000000E+00 0.  1.
</event>
<event>
 5    1  0.8778268E-005  0.9118800E+02  0.7818608E-02  0.1130116E+00
         25   -1    0    0    0    0  0.00000000000E+00  0.00000000000E+00  0.99999998245E-14  0.12500000000E+03  0.12500000000E+03 0.  0.
        -11    1    3    3    0    0 -0.15541221081E+02  0.10676795661E+01 -0.57067074001E+02  0.59155054117E+02  0.51100000000E-03 0. -1.
         23    2    1    0    0    0 -0.49396204318E+01  0.14702530787E+02 -0.24937506726E+02  0.95632611569E+02  0.91011828309E+02 0.  0.
         11    1    3    3    0    0  0.10601600649E+02  0.13634851220E+02  0.32129567275E+02  0.36477557452E+02  0.51100000000E-03 0.  1.
         22    1    1    0    0    0  0.49396204318E+01 -0.14702530787E+02  0.24937506726E+02  0.29367388431E+02  0.00000000000E+00 0. -1.
</event>
<event>
 5    1  0.8778268E-005  0.9118800E+02  0.7818608E-02  0.1130116E+00
         25   -1    0    0    0    0  0.00000000000E+00  0.00000000000E+00  0.99999998245E-14  0.12500000000E+03  0.12500000000E+03 0.  0.
        -11    1    3    3    0    0  0.27812750627E+01 -0.27866341842E+02 -0.14028783989E+02  0.31322121242E+02  0.51100000000E-03 0.  1.
         23    2    1    0    0    0  0.18349513038E+02  0.74519706851E+01  0.29480907454E+02  0.89484364005E+02  0.82134590772E+02 0.  0.
         11    1    3    3    0    0  0.15568237976E+02  0.35318312527E+02  0.43509691443E+02  0.58162242763E+02  0.51100000000E-03 0. -1.
         22    1    1    0    0    0 -0.18349513038E+02 -0.74519706851E+01 -0.29480907454E+02  0.35515635995E+02  0.00000000000E+00 0. -1.
</event>
<event>
 5    1  0.8778268E-005  0.9118800E+02  0.7818608E-02  0.1130116E+00
         25   -1    0    0    0    0  0.00000000000E+00  0.00000000000E+00  0.99999998245E-14  0.12500000000E+03  0.12500000000E+03 0.  0.
        -11    1    3    3    0    0  0.18200479776E+02 -0.24014981211E+01 -0.54718850832E+02  0.57716352050E+02  0.51100000000E-03 0. -1.
         23    2    1    0    0    0  0.21521100198E+02  0.79377426509E+01 -0.18491017749E+02  0.95536747472E+02  0.90880068597E+02 0.  0.
         11    1    3    3    0    0  0.33206204221E+01  0.10339240772E+02  0.36227833084E+02  0.37820395423E+02  0.51100000000E-03 0.  1.
         22    1    1    0    0    0 -0.21521100198E+02 -0.79377426509E+01  0.18491017749E+02  0.29463252528E+02  0.00000000000E+00 0. -1.
</event>
<event>
 5    1  0.8778268E-005  0.9118800E+02  0.7818608E-02  0.1130116E+00
         25   -1    0    0    0    0  0.00000000000E+00  0.00000000000E+00  0.99999998245E-14  0.12500000000E+03  0.12500000000E+03 0.  0.
        -11    1    3    3    0    0 -0.40331374703E+02  0.34338409679E+01  0.14023955733E+02  0.42837861570E+02  0.51100000000E-03 0. -1.
         23    2    1    0    0    0 -0.97712830514E+01  0.19901247912E+01 -0.28261735045E+02  0.95030611670E+02  0.90181222643E+02 0.  0.
         11    1    3    3    0    0  0.30560091652E+02 -0.14437161768E+01 -0.42285690778E+02  0.52192750100E+02  0.51100000000E-03 0.  1.
         22    1    1    0    0    0  0.97712830514E+01 -0.19901247912E+01  0.28261735045E+02  0.29969388330E+02  0.00000000000E+00 0.  1.
</event>
<event>
 5    1  0.8778268E-005  0.9118800E+02  0.7818608E-02  0.1130116E+00
         25   -1    0    0    0    0  0.00000000000E+00  0.00000000000E+00  0.99999998245E-14  0.12500000000E+03  0.12500000000E+03 0.  0.
        -11    1    3    3    0    0  0.18412368048E+02 -0.53031436098E+02  0.19642178444E+02  0.59474058934E+02  0.51100000000E-03 0.  1.
         23    2    1    0    0    0 -0.49000267768E+01 -0.27493472137E+02  0.92877432039E+01  0.95569345125E+02  0.90924893628E+02 0.  0.
         11    1    3    3    0    0 -0.23312394825E+02  0.25537963962E+02 -0.10354435240E+02  0.36095286191E+02  0.51100000000E-03 0. -1.
         22    1    1    0    0    0  0.49000267768E+01  0.27493472137E+02 -0.92877432039E+01  0.29430654875E+02  0.00000000000E+00 0.  1.
</event>
<event>
 5    1  0.8778268E-005  0.9118800E+02  0.7818608E-02  0.1130116E+00
         25   -1    0    0    0    0  0.00000000000E+00  0.00000000000E+00  0.99999998245E-14  0.12500000000E+03  0.12500000000E+03 0.  0.
        -11    1    3    3    0    0 -0.20178337085E+02 -0.39702662406E+02 -0.19246754134E+02  0.48517050968E+02  0.51100000000E-03 0.  1.
         23    2    1    0    0    0 -0.13100218798E+02 -0.15779189692E+02  0.20857857338E+02  0.95748525291E+02  0.91170890765E+02 0.  0.
         11    1    3    3    0    0  0.70781182871E+01  0.23923472714E+02  0.40104611472E+02  0.47231474324E+02  0.51100000000E-03 0. -1.
         22    1    1    0    0    0  0.13100218798E+02  0.15779189692E+02 -0.20857857338E+02  0.29251474709E+02  0.00000000000E+00 0. -1.
</event>
<event>
 5    1  0.8778268E-005  0.9118800E+02  0.7818608E-02  0.1130116E+00
         25   -1    0    0    0    0  0.00000000000E+00  0.00000000000E+00  0.99999998245E-14  0.12500000000E+03  0.12500000000E+03 0.  0.
        -11    1    3    3    0    0  0.84515287151E+01 -0.16041981718E+02 -0.58842232842E+02  0.61572574099E+02  0.51100000000E-03 0.  1.
         23    2    1    0    0    0  0.11693444458E+01 -0.94455823202E+00 -0.30226492368E+02  0.94736153622E+02  0.89772147159E+02 0.  0.
         11    1    3    3    0    0 -0.72821842693E+01  0.15097423486E+02  0.28615740474E+02  0.33163579523E+02  0.51100000000E-03 0. -1.
         22    1    1    0    0    0 -0.11693444458E+01  0.94455823202E+00  0.30226492368E+02  0.30263846378E+02  0.00000000000E+00 0.  1.
</event>
<event>
 5    1  0.8778268E-005  0.9118800E+02  0.7818608E-02  0.1130116E+00
         25   -1    0    0    0    0  0.00000000000E+00  0.00000000000E+00  0.99999998245E-14  0.12500000000E+03  0.12500000000E+03 0.  0.
        -11    1    3    3    0    0  0.17375660772E+02  0.35444947243E+02  0.32094892191E+01  0.39605033691E+02  0.51100000000E-03 0. -1.
         23    2    1    0    0    0  0.31754799365E+02 -0.99028434816E+01 -0.12136702903E+02  0.89591905599E+02  0.82298094752E+02 0.  0.
         11    1    3    3    0    0  0.14379138593E+02 -0.45347790725E+02 -0.15346192122E+02  0.49986871908E+02  0.51100000000E-03 0.  1.
         22    1    1    0    0    0 -0.31754799365E+02  0.99028434816E+01  0.12136702903E+02  0.35408094401E+02  0.00000000000E+00 0.  1.
</event>
<event>
 5    1  0.8778268E-005  0.9118800E+02  0.7818608E-02  0.1130116E+00
         25   -1    0    0    0    0  0.00000000000E+00  0.00000000000E+00  0.99999998245E-14  0.12500000000E+03  0.12500000000E+03 0.  0.
        -11    1    3    3    0    0  0.40143390933E+02  0.41058181259E+02 -0.85979691943E+01  0.58061959650E+02  0.51100000000E-03 0. -1.
         23    2    1    0    0    0  0.28508466100E+02  0.85808060098E+01 -0.12358730204E+02  0.92764909130E+02  0.86984063382E+02 0.  0.
         11    1    3    3    0    0 -0.11634924833E+02 -0.32477375249E+02 -0.37607610095E+01  0.34702949479E+02  0.51100000000E-03 0.  1.
         22    1    1    0    0    0 -0.28508466100E+02 -0.85808060098E+01  0.12358730204E+02  0.32235090870E+02  0.00000000000E+00 0. -1.
</event>
<event>
 5    1  0.8778268E-005  0.9118800E+02  0.7818608E-02  0.1130116E+00
         25   -1    0    0    0    0  0.00000000000E+00  0.00000000000E+00  0.99999998245E-14  0.12500000000E+03  0.12500000000E+03 0.  0.
        -11    1    3    3    0    0 -0.37095434010E+02 -0.20099582258E+02 -0.28717321425E+01  0.42288429589E+02  0.51100000000E-03 0.  1.
         23    2    1    0    0    0  0.15733808158E+02 -0.23235467255E+02  0.68941259730E+01  0.96104176242E+02  0.91657209539E+02 0.  0.
         11    1    3    3    0    0  0.52829242169E+02 -0.31358849973E+01  0.97658581154E+01  0.53815746653E+02  0.51100000000E-03 0. -1.
         22    1    1    0    0    0 -0.15733808158E+02  0.23235467255E+02 -0.68941259730E+01  0.28895823758E+02  0.00000000000E+00 0. -1.
</event>
<event>
 5    1  0.8778268E-005  0.9118800E+02  0.7818608E-02  0.1130116E+00
         25   -1    0    0    0    0  0.00000000000E+00  0.00000000000E+00  0.99999998245E-14  0.12500000000E+03  0.12500000000E+03 0.  0.
        -11    1    3    3    0    0 -0.27104911476E+02 -0.19716955252E+02  0.17678302802E+02  0.37894022494E+02  0.51100000000E-03 0. -1.
         23    2    1    0    0    0  0.17342390167E+02  0.17496354290E+02  0.15481104505E+02  0.95904544911E+02  0.91384551362E+02 0.  0.
         11    1    3    3    0    0  0.44447301643E+02  0.37213309542E+02 -0.21971982963E+01  0.58010522417E+02  0.51100000000E-03 0.  1.
         22    1    1    0    0    0 -0.17342390167E+02 -0.17496354290E+02 -0.15481104505E+02  0.29095455089E+02  0.00000000000E+00 0.  1.
</event>
<event>
 5    1  0.8778268E-005  0.9118800E+02  0.7818608E-02  0.1130116E+00
         25   -1    0    0    0    0  0.00000000000E+00  0.00000000000E+00  0.99999998245E-14  0.12500000000E+03  0.12500000000E+03 0.  0.
        -11    1    3    3    0    0  0.38410400672E+02 -0.28025096890E+01 -0.33275632699E+01  0.38655990712E+02  0.51100000000E-03 0. -1.
         23    2    1    0    0    0  0.45238755051E+01 -0.10203116562E+01 -0.37734828381E+02  0.86981270953E+02  0.78232459620E+02 0.  0.
         11    1    3    3    0    0 -0.33886525167E+02  0.17821980327E+01 -0.34407265111E+02  0.48325280241E+02  0.51100000000E-03 0.  1.
         22    1    1    0    0    0 -0.45238755051E+01  0.10203116562E+01  0.37734828381E+02  0.38018729047E+02  0.00000000000E+00 0. -1.
</event>
<event>
 5    1  0.8778268E-005  0.9118800E+02  0.7818608E-02  0.1130116E+00
         25   -1    0    0    0    0  0.00000000000E+00  0.00000000000E+00  0.99999998245E-14  0.12500000000E+03  0.12500000000E+03 0.  0.
        -11    1    3    3    0    0  0.30025652859E+02 -0.11508914198E+02  0.95623895516E+01  0.33547492154E+02  0.51100000000E-03 0. -1.
         23    2    1    0    0    0 -0.25430733182E+02  0.14751489827E+02  0.58847255301E+01  0.95017361076E+02  0.90162854152E+02 0.  0.
         11    1    3    3    0    0 -0.55456386041E+02  0.26260404025E+02 -0.36776640216E+01  0.61469868922E+02  0.51100000000E-03 0.  1.
         22    1    1    0    0    0  0.25430733182E+02 -0.14751489827E+02 -0.58847255301E+01  0.29982638924E+02  0.00000000000E+00 0.  1.
</event>
<event>
 5    1  0.8778268E-005  0.9118800E+02  0.7818608E-02  0.1130116E+00
         25   -1    0    0    0    0  0.00000000000E+00  0.00000000000E+00  0.99999998245E-14  0.12500000000E+03  0.12500000000E+03 0.  0.
        -11    1    3    3    0    0 -0.10556382584E+02 -0.38682082926E+02  0.43795223289E+02  0.59378130115E+02  0.51100000000E-03 0. -1.
         23    2    1    0    0    0  0.75034471787E+01 -0.11116480929E+02  0.23089522277E+02  0.98297866999E+02  0.94601621285E+02 0.  0.
         11    1    3    3    0    0  0.18059829762E+02  0.27565601996E+02 -0.20705701012E+02  0.38919736884E+02  0.51100000000E-03 0.  1.
         22    1    1    0    0    0 -0.75034471787E+01  0.11116480929E+02 -0.23089522277E+02  0.26702133001E+02  0.00000000000E+00 0. -1.
</event>
<event>
 5    1  0.8778268E-005  0.9118800E+02  0.7818608E-02  0.1130116E+00
         25   -1    0    0    0    0  0.00000000000E+00  0.00000000000E+00  0.99999998245E-14  0.12500000000E+03  0.12500000000E+03 0.  0.
        -11    1    3    3    0    0  0.76240420733E+01 -0.15961732630E+02  0.35824034769E+02  0.39953277631E+02  0.51100000000E-03 0.  1.
         23    2    1    0    0    0  0.26956977947E+02  0.78045885962E+00 -0.12993912356E+02  0.95064577264E+02  0.90228289998E+02 0.  0.
         11    1    3    3    0    0  0.19332935874E+02  0.16742191489E+02 -0.48817947125E+02  0.55111299632E+02  0.51100000000E-03 0. -1.
         22    1    1    0    0    0 -0.26956977947E+02 -0.78045885962E+00  0.12993912356E+02  0.29935422736E+02  0.00000000000E+00 0. -1.
</event>
<event>
 5    1  0.8778268E-005  0.9118800E+02  0.7818608E-02  0.1130116E+00
         25   -1    0    0    0    0  0.00000000000E+00  0.00000000000E+00  0.99999998245E-14  0.12500000000E+03  0.12500000000E+03 0.  0.
        -11    1    3    3    0    0 -0.12240781549E+02  0.95916192017E+01  0.36398578679E+02  0.39581465636E+02  0.51100000000E-03 0.  1.
         23    2    1    0    0    0 -0.15579285306E+02  0.20582423963E+02 -0.16927774871E+02  0.94130923744E+02  0.88925423451E+02 0.  0.
         11    1    3    3    0    0 -0.33385037577E+01  0.10990804761E+02 -0.53326353550E+02  0.54549458107E+02  0.51100000000E-03 0. -1.
         22    1    1    0    0    0  0.15579285306E+02 -0.20582423963E+02  0.16927774871E+02  0.30869076256E+02  0.00000000000E+00 0. -1.
</event>
<event>
 5    1  0.8778268E-005  0.9118800E+02  0.7818608E-02  0.1130116E+00
         25   -1    0    0    0    0  0.00000000000E+00  0.00000000000E+00  0.99999998245E-14  0.12500000000E+03  0.12500000000E+03 0.  0.
        -11    1    3    3    0    0 -0.41287850563E+02  0.18124068388E+01  0.13336591226E+02  0.43426214300E+02  0.51100000000E-03 0.  1.
         23    2    1    0    0    0  0.65540936558E+01 -0.12817730326E+02  0.26220398185E+02  0.95087466918E+02  0.90259995178E+02 0.  0.
         11    1    3    3    0    0  0.47841944219E+02 -0.14630137165E+02  0.12883806960E+02  0.51661252618E+02  0.51100000000E-03 0. -1.
         22    1    1    0    0    0 -0.65540936558E+01  0.12817730326E+02 -0.26220398185E+02  0.29912533082E+02  0.00000000000E+00 0. -1.
</event>
<event>
 5    1  0.8778268E-005  0.9118800E+02  0.7818608E-02  0.1130116E+00
         25   -1    0    0    0    0  0.00000000000E+00  0.00000000000E+00  0.99999998245E-14  0.12500000000E+03  0.12500000000E+03 0.  0.
        -11    1    3    3    0    0 -0.21975738366E+02 -0.47646653947E+02  0.32235318042E+02  0.61581266945E+02  0.51100000000E-03 0.  1.
         23    2    1    0    0    0 -0.15656393241E+02 -0.42356458512E+02  0.21864852151E+02  0.74827657155E+02  0.55514991568E+02 0.  0.
         11    1    3    3    0    0  0.63193451250E+01  0.52901954352E+01 -0.10370465890E+02  0.13246390210E+02  0.51100000000E-03 0. -1.
         22    1    1    0    0    0  0.15656393241E+02  0.42356458512E+02 -0.21864852151E+02  0.50172342845E+02  0.00000000000E+00 0.  1.
</event>
<event>
 5    1  0.8778268E-005  0.9118800E+02  0.7818608E-02  0.1130116E+00
         25   -1    0    0    0    0  0.00000000000E+00  0.00000000000E+00  0.99999998245E-14  0.12500000000E+03  0.12500000000E+03 0.  0.
        -11    1    3    3    0    0 -0.30663575693E+02 -0.10089551743E+02  0.28327378802E+02  0.42947576401E+02  0.51100000000E-03 0. -1.
         23    2    1    0    0    0  0.82390934673E+01  0.23493258512E+02  0.14585934389E+02  0.96145791665E+02  0.91713946138E+02 0.  0.
         11    1    3    3    0    0  0.38902669160E+02  0.33582810255E+02 -0.13741444413E+02  0.53198215264E+02  0.51100000000E-03 0.  1.
         22    1    1    0    0    0 -0.82390934673E+01 -0.23493258512E+02 -0.14585934389E+02  0.28854208335E+02  0.00000000000E+00 0.  1.
</event>
<event>
 5    1  0.8778268E-005  0.9118800E+02  0.7818608E-02  0.1130116E+00
         25   -1    0    0    0    0  0.00000000000E+00  0.00000000000E+00  0.99999998245E-14  0.12500000000E+03  0.12500000000E+03 0.  0.
        -11    1    3    3    0    0 -0.50246554325E+01 -0.31682229961E+02 -0.17578281080E+02  0.36578775588E+02  0.51100000000E-03 0. -1.
         23    2    1    0    0    0 -0.19484077421E+02  0.20825957894E+02  0.58836941611E+01  0.95880115864E+02  0.91351130075E+02 0.  0.
         11    1    3    3    0    0 -0.14459421988E+02  0.52508187855E+02  0.23461975241E+02  0.59301340276E+02  0.51100000000E-03 0.  1.
         22    1    1    0    0    0  0.19484077421E+02 -0.20825957894E+02 -0.58836941611E+01  0.29119884136E+02  0.00000000000E+00 0.  1.
</event>
<event>
 5    1  0.8778268E-005  0.9118800E+02  0.7818608E-02  0.1130116E+00
         25   -1    0    0    0    0  0.00000000000E+00  0.00000000000E+00  0.99999998245E-14  0.12500000000E+03  0.12500000000E+03 0.  0.
        -11    1    3    3    0    0  0.30229395161E+02 -0.26340639438E+02  0.26590429429E+02  0.48111293427E+02  0.51100000000E-03 0.  1.
         23    2    1    0    0    0  0.36340853051E+01 -0.31548176245E+02 -0.81907606051E+01  0.92203924630E+02  0.86174132763E+02 0.  0.
         11    1    3    3    0    0 -0.26595309855E+02 -0.52075368071E+01 -0.34781190034E+02  0.44092631203E+02  0.51100000000E-03 0. -1.
         22    1    1    0    0    0 -0.36340853051E+01  0.31548176245E+02  0.81907606051E+01  0.32796075370E+02  0.00000000000E+00 0. -1.
</event>
<event>
 5    1  0.8778268E-005  0.9118800E+02  0.7818608E-02  0.1130116E+00
         25   -1    0    0    0    0  0.00000000000E+00  0.00000000000E+00  0.99999998245E-14  0.12500000000E+03  0.12500000000E+03 0.  0.
        -11    1    3    3    0    0 -0.44215351668E+01  0.21911684635E+02  0.24543587575E+02  0.33197282842E+02  0.51100000000E-03 0. -1.
         23    2    1    0    0    0  0.83245735295E+01 -0.24759768100E+02 -0.14280569611E+02  0.95229556448E+02  0.90456559254E+02 0.  0.
         11    1    3    3    0    0  0.12746108696E+02 -0.46671452735E+02 -0.38824157186E+02  0.62032273607E+02  0.51100000000E-03 0.  1.
         22    1    1    0    0    0 -0.83245735295E+01  0.24759768100E+02  0.14280569611E+02  0.29770443552E+02  0.00000000000E+00 0.  1.
</event>
<event>
 5    1  0.8778268E-005  0.9118800E+02  0.7818608E-02  0.1130116E+00
         25   -1    0    0    0    0  0.00000000000E+00  0.00000000000E+00  0.99999998245E-14  0.12500000000E+03  0.12500000000E+03 0.  0.
        -11    1    3    3    0    0 -0.33429685727E+01  0.33675067758E+02  0.17958015326E+02  0.38310258967E+02  0.51100000000E-03 0.  1.
         23    2    1    0    0    0  0.25024514651E+02 -0.77019037403E+01 -0.11407111047E+02  0.96440100890E+02  0.92114196639E+02 0.  0.
         11    1    3    3    0    0  0.28367483224E+02 -0.41376971499E+02 -0.29365126373E+02  0.58129841923E+02  0.51100000000E-03 0. -1.
         22    1    1    0    0    0 -0.25024514651E+02  0.77019037403E+01  0.11407111047E+02  0.28559899110E+02  0.00000000000E+00 0. -1.
</event>
<event>
 5    1  0.8778268E-005  0.9118800E+02  0.7818608E-02  0.1130116E+00
         25   -1    0    0    0    0  0.00000000000E+00  0.00000000000E+00  0.99999998245E-14  0.12500000000E+03  0.12500000000E+03 0.  0.
        -11    1    3    3    0    0 -0.93080719590E+01  0.18898324405E+02 -0.53434592233E+02  0.57437292035E+02  0.51100000000E-03 0.  1.
         23    2    1    0    0    0  0.10933103728E+02  0.16878514457E+02 -0.19584701918E+02  0.96929062064E+02  0.92775349721E+02 0.  0.
         11    1    3    3    0    0  0.20241175687E+02 -0.20198099481E+01  0.33849890315E+02  0.39491770029E+02  0.51100000000E-03 0. -1.
         22    1    1    0    0    0 -0.10933103728E+02 -0.16878514457E+02  0.19584701918E+02  0.28070937936E+02  0.00000000000E+00 0. -1.
</event>
<event>
 5    1  0.8778268E-005  0.9118800E+02  0.7818608E-02  0.1130116E+00
         25   -1    0    0    0    0  0.00000000000E+00  0.00000000000E+00  0.99999998245E-14  0.12500000000E+03  0.12500000000E+03 0.  0.
        -11    1    3    3    0    0  0.29157716676E+02 -0.10271628841E+02 -0.18676169867E+02  0.36117559745E+02  0.51100000000E-03 0. -1.
         23    2    1    0    0    0 -0.25027227596E+02  0.92417299041E+01  0.40198402181E+01  0.98019807114E+02  0.94233496054E+02 0.  0.
         11    1    3    3    0    0 -0.54184944272E+02  0.19513358745E+02  0.22696010085E+02  0.61902247369E+02  0.51100000000E-03 0.  1.
         22    1    1    0    0    0  0.25027227596E+02 -0.92417299041E+01 -0.40198402181E+01  0.26980192886E+02  0.00000000000E+00 0.  1.
</event>
<event>
 5    1  0.8778268E-005  0.9118800E+02  0.7818608E-02  0.1130116E+00
         25   -1    0    0    0    0  0.00000000000E+00  0.00000000000E+00  0.99999998245E-14  0.12500000000E+03  0.12500000000E+03 0.  0.
        -11    1    3    3    0    0 -0.94089006019E+01 -0.52932190351E+01 -0.32531896147E+02  0.34276374451E+02  0.51100000000E-03 0. -1.
         23    2    1    0    0    0  0.55436090342E+01  0.22640512083E+02  0.19106805181E+02  0.94860418173E+02  0.89945008440E+02 0.  0.
         11    1    3    3    0    0  0.14952509636E+02  0.27933731118E+02  0.51638701328E+02  0.60584043722E+02  0.51100000000E-03 0.  1.
         22    1    1    0    0    0 -0.55436090342E+01 -0.22640512083E+02 -0.19106805181E+02  0.30139581827E+02  0.00000000000E+00 0.  1.
</event>
<event>
 5    1  0.8778268E-005  0.9118800E+02  0.7818608E-02  0.1130116E+00
         25   -1    0    0    0    0  0.00000000000E+00  0.00000000000E+00  0.99999998245E-14  0.12500000000E+03  0.12500000000E+03 0.  0.
        -11    1    3    3    0    0  0.25706073177E+02 -0.23005223699E+02  0.13956005829E+02  0.37213070480E+02  0.51100000000E-03 0. -1.
         23    2    1    0    0    0  0.14067805779E+01  0.11978210504E+02 -0.26453985914E+02  0.95926473740E+02  0.91414541704E+02 0.  0.
         11    1    3    3    0    0 -0.24299292599E+02  0.34983434202E+02 -0.40409991743E+02  0.58713403260E+02  0.51100000000E-03 0.  1.
         22    1    1    0    0    0 -0.14067805779E+01 -0.11978210504E+02  0.26453985914E+02  0.29073526260E+02  0.00000000000E+00 0.  1.
</event>
<event>
 5    1  0.8778268E-005  0.9118800E+02  0.7818608E-02  0.1130116E+00
         25   -1    0    0    0    0  0.00000000000E+00  0.00000000000E+00  0.99999998245E-14  0.12500000000E+03  0.12500000000E+03 0.  0.
        -11    1    3    3    0    0 -0.33116664479E+02 -0.27536722116E+02 -0.34995469921E+01  0.43211472557E+02  0.51100000000E-03 0.  1.
         23    2    1    0    0    0  0.20196174039E+02 -0.18902849161E+02  0.82633173016E-01  0.97337570958E+02  0.93324127318E+02 0.  0.
         11    1    3    3    0    0  0.53312838519E+02  0.86338729551E+01  0.35821801651E+01  0.54126098401E+02  0.51100000000E-03 0. -1.
         22    1    1    0    0    0 -0.20196174039E+02  0.18902849161E+02 -0.82633173016E-01  0.27662429042E+02  0.00000000000E+00 0. -1.
</event>
<event>
 5    1  0.8778268E-005  0.9118800E+02  0.7818608E-02  0.1130116E+00
         25   -1    0    0    0    0  0.00000000000E+00  0.00000000000E+00  0.99999998245E-14  0.12500000000E+03  0.12500000000E+03 0.  0.
        -11    1    3    3    0    0  0.81560053719E+01 -0.54583509654E+02  0.23578339710E+02  0.60015148534E+02  0.51100000000E-03 0.  1.
         23    2    1    0    0    0 -0.41487005922E+01 -0.34673529857E+02  0.53709083234E+01  0.89668540285E+02  0.82414410581E+02 0.  0.
         11    1    3    3    0    0 -0.12304705964E+02  0.19909979797E+02 -0.18207431387E+02  0.29653391751E+02  0.51100000000E-03 0. -1.
         22    1    1    0    0    0  0.41487005922E+01  0.34673529857E+02 -0.53709083234E+01  0.35331459715E+02  0.00000000000E+00 0.  1.
</event>
<event>
 5    1  0.8778268E-005  0.9118800E+02  0.7818608E-02  0.1130116E+00
         25   -1    0    0    0    0  0.00000000000E+00  0.00000000000E+00  0.99999998245E-14  0.12500000000E+03  0.12500000000E+03 0.  0.
        -11    1    3    3    0    0 -0.56305648380E+01  0.21902935727E+02  0.25260085871E+02  0.33904480417E+02  0.51100000000E-03 0.  1.
         23    2    1    0    0    0  0.20750937107E+02 -0.80920007119E+01 -0.20557242847E+02  0.94690230951E+02  0.89708180997E+02 0.  0.
         11    1    3    3    0    0  0.26381501945E+02 -0.29994936439E+02 -0.45817328719E+02  0.60785750534E+02  0.51100000000E-03 0. -1.
         22    1    1    0    0    0 -0.20750937107E+02  0.80920007119E+01  0.20557242847E+02  0.30309769049E+02  0.00000000000E+00 0. -1.
</event>
<event>
 5    1  0.8778268E-005  0.9118800E+02  0.7818608E-02  0.1130116E+00
         25   -1    0    0    0    0  0.00000000000E+00  0.00000000000E+00  0.99999998245E-14  0.12500000000E+03  0.12500000000E+03 0.  0.
        -11    1    3    3    0    0 -0.22925622701E+02 -0.51767746344E+02  0.24948517872E+02  0.61870124309E+02  0.51100000000E-03 0. -1.
         23    2    1    0    0    0 -0.12840605562E+02 -0.19916742868E+02  0.15830615529E+02  0.96501470465E+02  0.92197438230E+02 0.  0.
         11    1    3    3    0    0  0.10085017139E+02  0.31851003476E+02 -0.91179023435E+01  0.34631346155E+02  0.51100000000E-03 0.  1.
         22    1    1    0    0    0  0.12840605562E+02  0.19916742868E+02 -0.15830615529E+02  0.28498529535E+02  0.00000000000E+00 0. -1.
</event>
<event>
 5    1  0.8778268E-005  0.9118800E+02  0.7818608E-02  0.1130116E+00
         25   -1    0    0    0    0  0.00000000000E+00  0.00000000000E+00  0.99999998245E-14  0.12500000000E+03  0.12500000000E+03 0.  0.
        -11    1    3    3    0    0 -0.58618924102E+00  0.19127802160E+02  0.28233175204E+02  0.34107603487E+02  0.51100000000E-03 0.  1.
         23    2    1    0    0    0 -0.79145551433E+01 -0.14109493372E+02 -0.23763037245E+02  0.96252827523E+02  0.91859713045E+02 0.  0.
         11    1    3    3    0    0 -0.73283659023E+01 -0.33237295531E+02 -0.51996212450E+02  0.62145224035E+02  0.51100000000E-03 0. -1.
         22    1    1    0    0    0  0.79145551433E+01  0.14109493372E+02  0.23763037245E+02  0.28747172477E+02  0.00000000000E+00 0. -1.
</event>
<event>
 5    1  0.8778268E-005  0.9118800E+02  0.7818608E-02  0.1130116E+00
         25   -1    0    0    0    0  0.00000000000E+00  0.00000000000E+00  0.99999998245E-14  0.12500000000E+03  0.12500000000E+03 0.  0.
        -11    1    3    3    0    0 -0.33511753545E+02  0.40647772681E+02 -0.17077815777E+02  0.55379877587E+02  0.51100000000E-03 0. -1.
         23    2    1    0    0    0 -0.47659338849E+01  0.64107706557E+01 -0.23164455812E+02  0.10049685491E+03  0.97463909872E+02 0.  0.
         11    1    3    3    0    0  0.28745819660E+02 -0.34237002025E+02 -0.60866400358E+01  0.45116977323E+02  0.51100000000E-03 0.  1.
         22    1    1    0    0    0  0.47659338849E+01 -0.64107706557E+01  0.23164455812E+02  0.24503145090E+02  0.00000000000E+00 0. -1.
</event>
<event>
 5    1  0.8778268E-005  0.9118800E+02  0.7818608E-02  0.1130116E+00
         25   -1    0    0    0    0  0.00000000000E+00  0.00000000000E+00  0.99999998245E-14  0.12500000000E+03  0.12500000000E+03 0.  0.
        -11    1    3    3    0    0  0.38945672033E+02  0.16060393975E+02 -0.43199930126E+02  0.60340165627E+02  0.51100000000E-03 0. -1.
         23    2    1    0    0    0  0.50429703900E+01  0.32069484353E+01 -0.21698259734E+02  0.10249376655E+03  0.99992207884E+02 0.  0.
         11    1    3    3    0    0 -0.33902701643E+02 -0.12853445539E+02  0.21501670392E+02  0.42153600923E+02  0.51100000000E-03 0.  1.
         22    1    1    0    0    0 -0.50429703900E+01 -0.32069484353E+01  0.21698259734E+02  0.22506233450E+02  0.00000000000E+00 0. -1.
</event>
<event>
 5    1  0.8778268E-005  0.9118800E+02  0.7818608E-02  0.1130116E+00
         25   -1    0    0    0    0  0.00000000000E+00  0.00000000000E+00  0.99999998245E-14  0.12500000000E+03  0.12500000000E+03 0.  0.
        -11    1    3    3    0    0  0.46031479905E+02 -0.38985458927E+02  0.46122060055E+01  0.60498228027E+02  0.51100000000E-03 0.  1.
         23    2    1    0    0    0  0.12595056906E+02 -0.24534903276E+02 -0.12518872239E+01  0.97392679253E+02  0.93397911182E+02 0.  0.
         11    1    3    3    0    0 -0.33436422999E+02  0.14450555651E+02 -0.58640932294E+01  0.36894451225E+02  0.51100000000E-03 0. -1.
         22    1    1    0    0    0 -0.12595056906E+02  0.24534903276E+02  0.12518872239E+01  0.27607320747E+02  0.00000000000E+00 0.  1.
</event>
<event>
 5    1  0.8778268E-005  0.9118800E+02  0.7818608E-02  0.1130116E+00
         25   -1    0    0    0    0  0.00000000000E+00  0.00000000000E+00  0.99999998245E-14  0.12500000000E+03  0.12500000000E+03 0.  0.
        -11    1    3    3    0    0  0.25788413030E+01 -0.35186306320E+02  0.34954542931E+01  0.35453416984E+02  0.51100000000E-03 0.  1.
         23    2    1    0    0    0 -0.41129675509E+01  0.19818062039E+02 -0.20819361052E+02  0.95963507794E+02  0.91465167952E+02 0.  0.
         11    1    3    3    0    0 -0.66918088539E+01  0.55004368359E+02 -0.24314815345E+02  0.60510090809E+02  0.51100000000E-03 0. -1.
         22    1    1    0    0    0  0.41129675509E+01 -0.19818062039E+02  0.20819361052E+02  0.29036492206E+02  0.00000000000E+00 0. -1.
</event>
<event>
 5    1  0.8778268E-005  0.9118800E+02  0.7818608E-02  0.1130116E+00
         25   -1    0    0    0    0  0.00000000000E+00  0.00000000000E+00  0.99999998245E-14  0.12500000000E+03  0.12500000000E+03 0.  0.
        -11    1    3    3    0    0  0.37495295555E+02  0.55504132130E+01 -0.35535066018E+02  0.51956185317E+02  0.51100000000E-03 0.  1.
         23    2    1    0    0    0  0.25923634435E+02  0.59119797627E+00  0.84657608765E+01  0.97722656937E+02  0.93838500810E+02 0.  0.
         11    1    3    3    0    0 -0.11571661120E+02 -0.49592152368E+01  0.44000826895E+02  0.45766471620E+02  0.51100000000E-03 0. -1.
         22    1    1    0    0    0 -0.25923634435E+02 -0.59119797627E+00 -0.84657608765E+01  0.27277343063E+02  0.00000000000E+00 0.  1.
</event>
<event>
 5    1  0.8778268E-005  0.9118800E+02  0.7818608E-02  0.1130116E+00
         25   -1    0    0    0    0  0.00000000000E+00  0.00000000000E+00  0.99999998245E-14  0.12500000000E+03  0.12500000000E+03 0.  0.
        -11    1    3    3    0    0 -0.19078738412E+02  0.49976173762E+02 -0.16514357913E+02  0.55985178581E+02  0.51100000000E-03 0.  1.
         23    2    1    0    0    0  0.48312250017E+01  0.13876948103E+02  0.10427377803E+02  0.10698221347E+03  0.10545403438E+03 0.  0.
         11    1    3    3    0    0  0.23909963414E+02 -0.36099225659E+02  0.26941735715E+02  0.50997034887E+02  0.51100000000E-03 0. -1.
         22    1    1    0    0    0 -0.48312250017E+01 -0.13876948103E+02 -0.10427377803E+02  0.18017786532E+02  0.00000000000E+00 0.  1.
</event>
<event>
 5    1  0.8778268E-005  0.9118800E+02  0.7818608E-02  0.1130116E+00
         25   -1    0    0    0    0  0.00000000000E+00  0.00000000000E+00  0.99999998245E-14  0.12500000000E+03  0.12500000000E+03 0.  0.
        -11    1    3    3    0    0 -0.33356351636E+02  0.66866251141E+00  0.12136202589E+02  0.35501841045E+02  0.51100000000E-03 0.  1.
         23    2    1    0    0    0  0.16725777757E+02 -0.98168998920E+01 -0.20962712340E+02  0.96442015587E+02  0.92116794868E+02 0.  0.
         11    1    3    3    0    0  0.50082129393E+02 -0.10485562403E+02 -0.33098914930E+02  0.60940174542E+02  0.51100000000E-03 0. -1.
         22    1    1    0    0    0 -0.16725777757E+02  0.98168998920E+01  0.20962712340E+02  0.28557984413E+02  0.00000000000E+00 0. -1.
</event>
<event>
 5    1  0.8778268E-005  0.9118800E+02  0.7818608E-02  0.1130116E+00
         25   -1    0    0    0    0  0.00000000000E+00  0.00000000000E+00  0.99999998245E-14  0.12500000000E+03  0.12500000000E+03 0.  0.
        -11    1    3    3    0    0 -0.31988663613E+01  0.28957368104E+02  0.31819667144E+02  0.43142242998E+02  0.51100000000E-03 0. -1.
         23    2    1    0    0    0  0.28249945693E+02 -0.43544995636E+01  0.57781687879E+01  0.95838238520E+02  0.91293809373E+02 0.  0.
         11    1    3    3    0    0  0.31448812054E+02 -0.33311867668E+02 -0.26041498356E+02  0.52695995521E+02  0.51100000000E-03 0.  1.
         22    1    1    0    0    0 -0.28249945693E+02  0.43544995636E+01 -0.57781687879E+01  0.29161761480E+02  0.00000000000E+00 0.  1.
</event>
<event>
 5    1  0.8778268E-005  0.9118800E+02  0.7818608E-02  0.1130116E+00
         25   -1    0    0    0    0  0.00000000000E+00  0.00000000000E+00  0.99999998245E-14  0.12500000000E+03  0.12500000000E+03 0.  0.
        -11    1    3    3    0    0  0.26231819223E+01 -0.18911097239E+02  0.51320469616E+02  0.54756746471E+02  0.51100000000E-03 0.  1.
         23    2    1    0    0    0 -0.18988905068E+02  0.37926758247E+00  0.20276101242E+02  0.97217943900E+02  0.93163758914E+02 0.  0.
         11    1    3    3    0    0 -0.21612086991E+02  0.19290364822E+02 -0.31044368375E+02  0.42461197429E+02  0.51100000000E-03 0. -1.
         22    1    1    0    0    0  0.18988905068E+02 -0.37926758247E+00 -0.20276101242E+02  0.27782056100E+02  0.00000000000E+00 0.  1.
</event>
<event>
 5    1  0.8778268E-005  0.9118800E+02  0.7818608E-02  0.1130116E+00
         25   -1    0    0    0    0  0.00000000000E+00  0.00000000000E+00  0.99999998245E-14  0.12500000000E+03  0.12500000000E+03 0.  0.
        -11    1    3    3    0    0 -0.17896190328E+01 -0.34770279163E+02 -0.17903755205E+01  0.34862307642E+02  0.51100000000E-03 0.  1.
         23    2    1    0    0    0  0.12712521979E+01  0.18990639173E+02  0.23836101435E+02  0.94497210128E+02  0.89438820050E+02 0.  0.
         11    1    3    3    0    0  0.30608712306E+01  0.53760918336E+02  0.25626476956E+02  0.59634902486E+02  0.51100000000E-03 0. -1.
         22    1    1    0    0    0 -0.12712521979E+01 -0.18990639173E+02 -0.23836101435E+02  0.30502789872E+02  0.00000000000E+00 0. -1.
</event>
<event>
 5    1  0.8778268E-005  0.9118800E+02  0.7818608E-02  0.1130116E+00
         25   -1    0    0    0    0  0.00000000000E+00  0.00000000000E+00  0.99999998245E-14  0.12500000000E+03  0.12500000000E+03 0.  0.
        -11    1    3    3    0    0 -0.29150927355E+02  0.21670679218E+02 -0.40770208205E+02  0.54604072933E+02  0.51100000000E-03 0.  1.
         23    2    1    0    0    0 -0.18078342599E+02 -0.11678747109E+02 -0.21030509175E+02  0.94908441028E+02  0.90011722887E+02 0.  0.
         11    1    3    3    0    0  0.11072584756E+02 -0.33349426327E+02  0.19739699030E+02  0.40304368096E+02  0.51100000000E-03 0. -1.
         22    1    1    0    0    0  0.18078342599E+02  0.11678747109E+02  0.21030509175E+02  0.30091558972E+02  0.00000000000E+00 0.  1.
</event>
<event>
 5    1  0.8778268E-005  0.9118800E+02  0.7818608E-02  0.1130116E+00
         25   -1    0    0    0    0  0.00000000000E+00  0.00000000000E+00  0.99999998245E-14  0.12500000000E+03  0.12500000000E+03 0.  0.
        -11    1    3    3    0    0  0.20295532843E+02  0.44534852651E+02  0.13012289236E+02  0.50641696510E+02  0.51100000000E-03 0. -1.
         23    2    1    0    0    0 -0.18160365765E+02  0.22206173177E+02  0.65268799173E+01  0.95580394746E+02  0.90940082947E+02 0.  0.
         11    1    3    3    0    0 -0.38455898608E+02 -0.22328679474E+02 -0.64854093192E+01  0.44938698235E+02  0.51100000000E-03 0.  1.
         22    1    1    0    0    0  0.18160365765E+02 -0.22206173177E+02 -0.65268799173E+01  0.29419605254E+02  0.00000000000E+00 0.  1.
</event>
<event>
 5    1  0.8778268E-005  0.9118800E+02  0.7818608E-02  0.1130116E+00
         25   -1    0    0    0    0  0.00000000000E+00  0.00000000000E+00  0.99999998245E-14  0.12500000000E+03  0.12500000000E+03 0.  0.
        -11    1    3    3    0    0  0.10840568245E+01  0.58367276770E+02  0.22503997284E+01  0.58420702460E+02  0.51100000000E-03 0.  1.
         23    2    1    0    0    0 -0.14068347960E+02  0.25571786604E+02  0.73421037368E+01  0.94904465917E+02  0.90006202449E+02 0.  0.
         11    1    3    3    0    0 -0.15152404785E+02 -0.32795490166E+02  0.50917040084E+01  0.36483763457E+02  0.51100000000E-03 0. -1.
         22    1    1    0    0    0  0.14068347960E+02 -0.25571786604E+02 -0.73421037368E+01  0.30095534083E+02  0.00000000000E+00 0.  1.
</event>
<event>
 5    1  0.8778268E-005  0.9118800E+02  0.7818608E-02  0.1130116E+00
         25   -1    0    0    0    0  0.00000000000E+00  0.00000000000E+00  0.99999998245E-14  0.12500000000E+03  0.12500000000E+03 0.  0.
        -11    1    3    3    0    0 -0.37951210600E+02  0.13223034956E+02  0.95238905607E+01  0.41301907113E+02  0.51100000000E-03 0. -1.
         23    2    1    0    0    0 -0.94254924149E+01 -0.23954045575E+02 -0.16028593901E+02  0.94675883704E+02  0.89688187216E+02 0.  0.
         11    1    3    3    0    0  0.28525718185E+02 -0.37177080530E+02 -0.25552484462E+02  0.53373976592E+02  0.51100000000E-03 0.  1.
         22    1    1    0    0    0  0.94254924149E+01  0.23954045575E+02  0.16028593901E+02  0.30324116296E+02  0.00000000000E+00 0.  1.
</event>
<event>
 5    1  0.8778268E-005  0.9118800E+02  0.7818608E-02  0.1130116E+00
         25   -1    0    0    0    0  0.00000000000E+00  0.00000000000E+00  0.99999998245E-14  0.12500000000E+03  0.12500000000E+03 0.  0.
        -11    1    3    3    0    0  0.42911979155E+02  0.31138806239E+02 -0.92172887619E+01  0.53814697076E+02  0.51100000000E-03 0.  1.
         23    2    1    0    0    0  0.16625541000E+02 -0.92961764923E+00 -0.22185702485E+02  0.97260529975E+02  0.93220880138E+02 0.  0.
         11    1    3    3    0    0 -0.26286438155E+02 -0.32068423889E+02 -0.12968413723E+02  0.43445832899E+02  0.51100000000E-03 0. -1.
         22    1    1    0    0    0 -0.16625541000E+02  0.92961764923E+00  0.22185702485E+02  0.27739470025E+02  0.00000000000E+00 0.  1.
</event>
<event>
 5    1  0.8778268E-005  0.9118800E+02  0.7818608E-02  0.1130116E+00
         25   -1    0    0    0    0  0.00000000000E+00  0.00000000000E+00  0.99999998245E-14  0.12500000000E+03  0.12500000000E+03 0.  0.
        -11    1    3    3    0    0 -0.22517740383E+02  0.30497403775E+02 -0.16547250558E+02  0.41363652767E+02  0.51100000000E-03 0. -1.
         23    2    1    0    0    0 -0.22732790323E+02 -0.16626631812E+02  0.95856975125E+01  0.95249197690E+02  0.90483696999E+02 0.  0.
         11    1    3    3    0    0 -0.21504994001E+00 -0.47124035587E+02  0.26132948070E+02  0.53885544923E+02  0.51100000000E-03 0.  1.
         22    1    1    0    0    0  0.22732790323E+02  0.16626631812E+02 -0.95856975125E+01  0.29750802310E+02  0.00000000000E+00 0.  1.
</event>
<event>
 5    1  0.8778268E-005  0.9118800E+02  0.7818608E-02  0.1130116E+00
         25   -1    0    0    0    0  0.00000000000E+00  0.00000000000E+00  0.99999998245E-14  0.12500000000E+03  0.12500000000E+03 0.  0.
        -11    1    3    3    0    0  0.55274800351E+02 -0.10804945327E+01 -0.23293230086E+02  0.59992046059E+02  0.51100000000E-03 0.  1.
         23    2    1    0    0    0  0.25287357084E+02 -0.12957792117E+02 -0.10005921490E+02  0.94875703000E+02  0.89966247838E+02 0.  0.
         11    1    3    3    0    0 -0.29987443267E+02 -0.11877297585E+02  0.13287308596E+02  0.34883656941E+02  0.51100000000E-03 0. -1.
         22    1    1    0    0    0 -0.25287357084E+02  0.12957792117E+02  0.10005921490E+02  0.30124297000E+02  0.00000000000E+00 0.  1.
</event>
<event>
 5    1  0.8778268E-005  0.9118800E+02  0.7818608E-02  0.1130116E+00
         25   -1    0    0    0    0  0.00000000000E+00  0.00000000000E+00  0.99999998245E-14  0.12500000000E+03  0.12500000000E+03 0.  0.
        -11    1    3    3    0    0 -0.33966654569E+01  0.51454483730E+02  0.26112469437E+01  0.51632546354E+02  0.51100000000E-03 0.  1.
         23    2    1    0    0    0 -0.15206084875E+02  0.14232318571E+02 -0.19466085943E+02  0.96491888679E+02  0.92184446464E+02 0.  0.
         11    1    3    3    0    0 -0.11809419418E+02 -0.37222165159E+02 -0.22077332887E+02  0.44859342325E+02  0.51100000000E-03 0. -1.
         22    1    1    0    0    0  0.15206084875E+02 -0.14232318571E+02  0.19466085943E+02  0.28508111321E+02  0.00000000000E+00 0. -1.
</event>
<event>
 5    1  0.8778268E-005  0.9118800E+02  0.7818608E-02  0.1130116E+00
         25   -1    0    0    0    0  0.00000000000E+00  0.00000000000E+00  0.99999998245E-14  0.12500000000E+03  0.12500000000E+03 0.  0.
        -11    1    3    3    0    0 -0.68882985992E+01  0.23987150765E+02  0.57118199767E+02  0.62332341560E+02  0.51100000000E-03 0.  1.
         23    2    1    0    0    0 -0.19081407055E+01  0.11574008647E+02  0.19663708760E+02  0.10210327274E+03  0.99502855157E+02 0.  0.
         11    1    3    3    0    0  0.49801578937E+01 -0.12413142118E+02 -0.37454491007E+02  0.39770931178E+02  0.51100000000E-03 0. -1.
         22    1    1    0    0    0  0.19081407055E+01 -0.11574008647E+02 -0.19663708760E+02  0.22896727262E+02  0.00000000000E+00 0.  1.
</event>
<event>
 5    1  0.8778268E-005  0.9118800E+02  0.7818608E-02  0.1130116E+00
         25   -1    0    0    0    0  0.00000000000E+00  0.00000000000E+00  0.99999998245E-14  0.12500000000E+03  0.12500000000E+03 0.  0.
        -11    1    3    3    0    0  0.36693308637E+02  0.18430295293E+02  0.17543147923E+02  0.44652398846E+02  0.51100000000E-03 0.  1.
         23    2    1    0    0    0  0.19694163062E+02 -0.18693662740E+02 -0.12263798905E+02  0.95205472836E+02  0.90423272496E+02 0.  0.
         11    1    3    3    0    0 -0.16999145575E+02 -0.37123958034E+02 -0.29806946828E+02  0.50553073990E+02  0.51100000000E-03 0. -1.
         22    1    1    0    0    0 -0.19694163062E+02  0.18693662740E+02  0.12263798905E+02  0.29794527164E+02  0.00000000000E+00 0. -1.
</event>
<event>
 5    1  0.8778268E-005  0.9118800E+02  0.7818608E-02  0.1130116E+00
         25   -1    0    0    0    0  0.00000000000E+00  0.00000000000E+00  0.99999998245E-14  0.12500000000E+03  0.12500000000E+03 0.  0.
        -11    1    3    3    0    0 -0.50261372613E+02  0.17030462414E+02 -0.80841453149E+01  0.53680495832E+02  0.51100000000E-03 0. -1.
         23    2    1    0    0    0 -0.12713425649E+02  0.26987440744E+02  0.51661729088E+01  0.94723895691E+02  0.89755077420E+02 0.  0.
         11    1    3    3    0    0  0.37547946964E+02  0.99569783295E+01  0.13250318224E+02  0.41043399859E+02  0.51100000000E-03 0.  1.
         22    1    1    0    0    0  0.12713425649E+02 -0.26987440744E+02 -0.51661729088E+01  0.30276104309E+02  0.00000000000E+00 0. -1.
</event>
<event>
 5    1  0.8778268E-005  0.9118800E+02  0.7818608E-02  0.1130116E+00
         25   -1    0    0    0    0  0.00000000000E+00  0.00000000000E+00  0.99999998245E-14  0.12500000000E+03  0.12500000000E+03 0.  0.
        -11    1    3    3    0    0  0.21009571145E+02  0.14979913558E+02  0.21552309790E+02  0.33619963525E+02  0.51100000000E-03 0. -1.
         23    2    1    0    0    0 -0.30449138995E+02  0.18263432933E+00 -0.61951090658E+01  0.93926493646E+02  0.88637595925E+02 0.  0.
         11    1    3    3    0    0 -0.51458710139E+02 -0.14797279229E+02 -0.27747418855E+02  0.60306530121E+02  0.51100000000E-03 0.  1.
         22    1    1    0    0    0  0.30449138995E+02 -0.18263432933E+00  0.61951090658E+01  0.31073506354E+02  0.00000000000E+00 0.  1.
</event>
<event>
 5    1  0.8778268E-005  0.9118800E+02  0.7818608E-02  0.1130116E+00
         25   -1    0    0    0    0  0.00000000000E+00  0.00000000000E+00  0.99999998245E-14  0.12500000000E+03  0.12500000000E+03 0.  0.
        -11    1    3    3    0    0 -0.47563850861E+02  0.59822422986E+01  0.61048461371E+01  0.48325731016E+02  0.51100000000E-03 0.  1.
         23    2    1    0    0    0 -0.14620647715E+02  0.23207303482E+02 -0.17595301414E+02  0.92412626580E+02  0.86476335752E+02 0.  0.
         11    1    3    3    0    0  0.32943203145E+02  0.17225061183E+02 -0.23700147551E+02  0.44086895564E+02  0.51100000000E-03 0. -1.
         22    1    1    0    0    0  0.14620647715E+02 -0.23207303482E+02  0.17595301414E+02  0.32587373420E+02  0.00000000000E+00 0.  1.
</event>
<event>
 5    1  0.8778268E-005  0.9118800E+02  0.7818608E-02  0.1130116E+00
         25   -1    0    0    0    0  0.00000000000E+00  0.00000000000E+00  0.99999998245E-14  0.12500000000E+03  0.12500000000E+03 0.  0.
        -11    1    3    3    0    0  0.26860757588E+02 -0.25585735146E+01  0.14716382519E+02  0.30734646758E+02  0.51100000000E-03 0.  1.
         23    2    1    0    0    0 -0.29514773246E+02 -0.38385763201E+01 -0.11717777517E+02  0.93013083645E+02  0.87339973158E+02 0.  0.
         11    1    3    3    0    0 -0.56375530834E+02 -0.12800028055E+01 -0.26434160036E+02  0.62278436887E+02  0.51100000000E-03 0. -1.
         22    1    1    0    0    0  0.29514773246E+02  0.38385763201E+01  0.11717777517E+02  0.31986916355E+02  0.00000000000E+00 0. -1.
</event>
<event>
 5    1  0.8778268E-005  0.9118800E+02  0.7818608E-02  0.1130116E+00
         25   -1    0    0    0    0  0.00000000000E+00  0.00000000000E+00  0.99999998245E-14  0.12500000000E+03  0.12500000000E+03 0.  0.
        -11    1    3    3    0    0  0.23236830841E+02  0.19701647844E+02  0.12931682174E+01  0.30492253436E+02  0.51100000000E-03 0. -1.
         23    2    1    0    0    0 -0.32770456306E+02 -0.30823624737E+01  0.73974646448E+01  0.91263873250E+02  0.84799577313E+02 0.  0.
         11    1    3    3    0    0 -0.56007287147E+02 -0.22784010317E+02  0.61042964274E+01  0.60771619814E+02  0.51100000000E-03 0.  1.
         22    1    1    0    0    0  0.32770456306E+02  0.30823624737E+01 -0.73974646448E+01  0.33736126750E+02  0.00000000000E+00 0.  1.
</event>
<event>
 5    1  0.8778268E-005  0.9118800E+02  0.7818608E-02  0.1130116E+00
         25   -1    0    0    0    0  0.00000000000E+00  0.00000000000E+00  0.99999998245E-14  0.12500000000E+03  0.12500000000E+03 0.  0.
        -11    1    3    3    0    0 -0.21740326628E+02  0.28976838267E+02 -0.39994018432E+01  0.36445770306E+02  0.51100000000E-03 0.  1.
         23    2    1    0    0    0  0.56809023094E+01 -0.14420691202E+02  0.25133893283E+02  0.95471343117E+02  0.90790064320E+02 0.  0.
         11    1    3    3    0    0  0.27421228938E+02 -0.43397529469E+02  0.29133295126E+02  0.59025572810E+02  0.51100000000E-03 0. -1.
         22    1    1    0    0    0 -0.56809023094E+01  0.14420691202E+02 -0.25133893283E+02  0.29528656883E+02  0.00000000000E+00 0. -1.
</event>
<event>
 5    1  0.8778268E-005  0.9118800E+02  0.7818608E-02  0.1130116E+00
         25   -1    0    0    0    0  0.00000000000E+00  0.00000000000E+00  0.99999998245E-14  0.12500000000E+03  0.12500000000E+03 0.  0.
        -11    1    3    3    0    0  0.34650224156E+01 -0.70243125991E+01  0.33012368697E+02  0.33928805388E+02  0.51100000000E-03 0. -1.
         23    2    1    0    0    0  0.14527911818E+02  0.73380117044E+01 -0.25256854645E+02  0.94953114236E+02  0.90073739564E+02 0.  0.
         11    1    3    3    0    0  0.11062889402E+02  0.14362324303E+02 -0.58269223341E+02  0.61024308848E+02  0.51100000000E-03 0.  1.
         22    1    1    0    0    0 -0.14527911818E+02 -0.73380117044E+01  0.25256854645E+02  0.30046885764E+02  0.00000000000E+00 0.  1.
</event>
<event>
 5    1  0.8778268E-005  0.9118800E+02  0.7818608E-02  0.1130116E+00
         25   -1    0    0    0    0  0.00000000000E+00  0.00000000000E+00  0.99999998245E-14  0.12500000000E+03  0.12500000000E+03 0.  0.
        -11    1    3    3    0    0  0.15700647123E+01  0.61524195773E+02 -0.81552397913E+01  0.62082201193E+02  0.51100000000E-03 0.  1.
         23    2    1    0    0    0  0.51436759515E+01  0.28634306090E+02 -0.12381728421E+01  0.95881037802E+02  0.91352391597E+02 0.  0.
         11    1    3    3    0    0  0.35736112392E+01 -0.32889889683E+02  0.69170669492E+01  0.33798836609E+02  0.51100000000E-03 0. -1.
         22    1    1    0    0    0 -0.51436759515E+01 -0.28634306090E+02  0.12381728421E+01  0.29118962198E+02  0.00000000000E+00 0.  1.
</event>
<event>
 5    1  0.8778268E-005  0.9118800E+02  0.7818608E-02  0.1130116E+00
         25   -1    0    0    0    0  0.00000000000E+00  0.00000000000E+00  0.99999998245E-14  0.12500000000E+03  0.12500000000E+03 0.  0.
        -11    1    3    3    0    0 -0.32231935371E+02  0.47526449981E+02  0.41320418286E+01  0.57573734250E+02  0.51100000000E-03 0. -1.
         23    2    1    0    0    0 -0.14754634733E+02  0.17838608906E+02  0.18957266192E+02  0.95078550248E+02  0.90247645742E+02 0.  0.
         11    1    3    3    0    0  0.17477300638E+02 -0.29687841076E+02  0.14825224363E+02  0.37504815997E+02  0.51100000000E-03 0.  1.
         22    1    1    0    0    0  0.14754634733E+02 -0.17838608906E+02 -0.18957266192E+02  0.29921449752E+02  0.00000000000E+00 0. -1.
</event>
<event>
 5    1  0.8778268E-005  0.9118800E+02  0.7818608E-02  0.1130116E+00
         25   -1    0    0    0    0  0.00000000000E+00  0.00000000000E+00  0.99999998245E-14  0.12500000000E+03  0.12500000000E+03 0.  0.
        -11    1    3    3    0    0 -0.28975976856E+02  0.17068149005E+02  0.31027023605E+02  0.45755930099E+02  0.51100000000E-03 0.  1.
         23    2    1    0    0    0  0.36361292422E+01  0.23781866726E+02 -0.10302174211E+02  0.98828767428E+02  0.95300534401E+02 0.  0.
         11    1    3    3    0    0  0.32612106098E+02  0.67137177215E+01 -0.41329197816E+02  0.53072837329E+02  0.51100000000E-03 0. -1.
         22    1    1    0    0    0 -0.36361292422E+01 -0.23781866726E+02  0.10302174211E+02  0.26171232572E+02  0.00000000000E+00 0. -1.
</event>
<event>
 5    1  0.8778268E-005  0.9118800E+02  0.7818608E-02  0.1130116E+00
         25   -1    0    0    0    0  0.00000000000E+00  0.00000000000E+00  0.99999998245E-14  0.12500000000E+03  0.12500000000E+03 0.  0.
        -11    1    3    3    0    0  0.11486309682E+02  0.26016659003E+02  0.20997964146E+02  0.35351327477E+02  0.51100000000E-03 0. -1.
         23    2    1    0    0    0 -0.21501705061E+02 -0.19803087452E+02 -0.49749194210E+00  0.95764181363E+02  0.91192353521E+02 0.  0.
         11    1    3    3    0    0 -0.32988014743E+02 -0.45819746455E+02 -0.21495456089E+02  0.60412853886E+02  0.51100000000E-03 0.  1.
         22    1    1    0    0    0  0.21501705061E+02  0.19803087452E+02  0.49749194210E+00  0.29235818637E+02  0.00000000000E+00 0.  1.
</event>
<event>
 5    1  0.8778268E-005  0.9118800E+02  0.7818608E-02  0.1130116E+00
         25   -1    0    0    0    0  0.00000000000E+00  0.00000000000E+00  0.99999998245E-14  0.12500000000E+03  0.12500000000E+03 0.  0.
        -11    1    3    3    0    0  0.46757184270E+02 -0.30039256838E+02  0.11840975973E+02  0.56822530255E+02  0.51100000000E-03 0.  1.
         23    2    1    0    0    0  0.21497571172E+02 -0.18539606784E+02 -0.12728428347E+02  0.93889302897E+02  0.88585132637E+02 0.  0.
         11    1    3    3    0    0 -0.25259613098E+02  0.11499650055E+02 -0.24569404320E+02  0.37066772643E+02  0.51100000000E-03 0. -1.
         22    1    1    0    0    0 -0.21497571172E+02  0.18539606784E+02  0.12728428347E+02  0.31110697103E+02  0.00000000000E+00 0.  1.
</event>
<event>
 5    1  0.8778268E-005  0.9118800E+02  0.7818608E-02  0.1130116E+00
         25   -1    0    0    0    0  0.00000000000E+00  0.00000000000E+00  0.99999998245E-14  0.12500000000E+03  0.12500000000E+03 0.  0.
        -11    1    3    3    0    0  0.29087453686E+02  0.20818255214E+02  0.16124212884E+02  0.39236079741E+02  0.51100000000E-03 0.  1.
         23    2    1    0    0    0  0.13776099735E+01 -0.26128579416E+02 -0.61441086484E+01  0.98123420184E+02  0.94370837900E+02 0.  0.
         11    1    3    3    0    0 -0.27709843712E+02 -0.46946834630E+02 -0.22268321533E+02  0.58887340443E+02  0.51100000000E-03 0. -1.
         22    1    1    0    0    0 -0.13776099735E+01  0.26128579416E+02  0.61441086484E+01  0.26876579816E+02  0.00000000000E+00 0. -1.
</event>
<event>
 5    1  0.8778268E-005  0.9118800E+02  0.7818608E-02  0.1130116E+00
         25   -1    0    0    0    0  0.00000000000E+00  0.00000000000E+00  0.99999998245E-14  0.12500000000E+03  0.12500000000E+03 0.  0.
        -11    1    3    3    0    0 -0.40908090401E+02  0.42910209747E+02 -0.11007453260E+02  0.60298606852E+02  0.51100000000E-03 0.  1.
         23    2    1    0    0    0 -0.22663940992E+02  0.18820852093E+02 -0.16828502264E+02  0.91072471602E+02  0.84516968121E+02 0.  0.
         11    1    3    3    0    0  0.18244149409E+02 -0.24089357654E+02 -0.58210490032E+01  0.30773864749E+02  0.51100000000E-03 0. -1.
         22    1    1    0    0    0  0.22663940992E+02 -0.18820852093E+02  0.16828502264E+02  0.33927528398E+02  0.00000000000E+00 0.  1.
</event>
<event>
 5    1  0.8778268E-005  0.9118800E+02  0.7818608E-02  0.1130116E+00
         25   -1    0    0    0    0  0.00000000000E+00  0.00000000000E+00  0.99999998245E-14  0.12500000000E+03  0.12500000000E+03 0.  0.
        -11    1    3    3    0    0 -0.28480360625E+02  0.31838104443E+02  0.20268663087E+02  0.47282285683E+02  0.51100000000E-03 0.  1.
         23    2    1    0    0    0 -0.22133779271E+02 -0.50814720431E+00 -0.17036589986E+02  0.97064220133E+02  0.92957275311E+02 0.  0.
         11    1    3    3    0    0  0.63465813540E+01 -0.32346251647E+02 -0.37305253073E+02  0.49781934450E+02  0.51100000000E-03 0. -1.
         22    1    1    0    0    0  0.22133779271E+02  0.50814720431E+00  0.17036589986E+02  0.27935779867E+02  0.00000000000E+00 0.  1.
</event>
<event>
 5    1  0.8778268E-005  0.9118800E+02  0.7818608E-02  0.1130116E+00
         25   -1    0    0    0    0  0.00000000000E+00  0.00000000000E+00  0.99999998245E-14  0.12500000000E+03  0.12500000000E+03 0.  0.
        -11    1    3    3    0    0 -0.47898469016E+02  0.35922182363E+02  0.15287692411E+01  0.59891599206E+02  0.51100000000E-03 0. -1.
         23    2    1    0    0    0 -0.16883159095E+02  0.22096462752E+02 -0.95297876002E+01  0.95604225152E+02  0.90972832692E+02 0.  0.
         11    1    3    3    0    0  0.31015309921E+02 -0.13825719611E+02 -0.11058556841E+02  0.35712625946E+02  0.51100000000E-03 0.  1.
         22    1    1    0    0    0  0.16883159095E+02 -0.22096462752E+02  0.95297876002E+01  0.29395774848E+02  0.00000000000E+00 0. -1.
</event>
<event>
 5    1  0.8778268E-005  0.9118800E+02  0.7818608E-02  0.1130116E+00
         25   -1    0    0    0    0  0.00000000000E+00  0.00000000000E+00  0.99999998245E-14  0.12500000000E+03  0.12500000000E+03 0.  0.
        -11    1    3    3    0    0 -0.26457401873E+02 -0.15403033544E+02  0.40347549570E+02  0.50647530175E+02  0.51100000000E-03 0.  1.
         23    2    1    0    0    0 -0.33030708834E+01  0.19182603427E+02  0.20406676008E+02  0.96798670649E+02  0.92599501414E+02 0.  0.
         11    1    3    3    0    0  0.23154330990E+02  0.34585636971E+02 -0.19940873562E+02  0.46151140473E+02  0.51100000000E-03 0. -1.
         22    1    1    0    0    0  0.33030708834E+01 -0.19182603427E+02 -0.20406676008E+02  0.28201329351E+02  0.00000000000E+00 0.  1.
</event>
<event>
 5    1  0.8778268E-005  0.9118800E+02  0.7818608E-02  0.1130116E+00
         25   -1    0    0    0    0  0.00000000000E+00  0.00000000000E+00  0.99999998245E-14  0.12500000000E+03  0.12500000000E+03 0.  0.
        -11    1    3    3    0    0 -0.16929953539E+02 -0.44655115672E+02  0.17790101178E+02  0.50962637124E+02  0.51100000000E-03 0.  1.
         23    2    1    0    0    0 -0.46798939728E+01 -0.22144335450E+02 -0.18760091712E+02  0.95602482398E+02  0.90970438053E+02 0.  0.
         11    1    3    3    0    0  0.12250059566E+02  0.22510780222E+02 -0.36550192890E+02  0.44639845274E+02  0.51100000000E-03 0. -1.
         22    1    1    0    0    0  0.46798939728E+01  0.22144335450E+02  0.18760091712E+02  0.29397517602E+02  0.00000000000E+00 0.  1.
</event>
<event>
 5    1  0.8778268E-005  0.9118800E+02  0.7818608E-02  0.1130116E+00
         25   -1    0    0    0    0  0.00000000000E+00  0.00000000000E+00  0.99999998245E-14  0.12500000000E+03  0.12500000000E+03 0.  0.
        -11    1    3    3    0    0 -0.67702322225E+01 -0.11784125392E+02 -0.38803781560E+02  0.41114901425E+02  0.51100000000E-03 0.  1.
         23    2    1    0    0    0 -0.34674291312E+02  0.95798726745E+01 -0.73391620084E+01  0.88285646711E+02  0.80289548994E+02 0.  0.
         11    1    3    3    0    0 -0.27904059090E+02  0.21363998067E+02  0.31464619551E+02  0.47170745286E+02  0.51100000000E-03 0. -1.
         22    1    1    0    0    0  0.34674291312E+02 -0.95798726745E+01  0.73391620084E+01  0.36714353289E+02  0.00000000000E+00 0.  1.
</event>
<event>
 5    1  0.8778268E-005  0.9118800E+02  0.7818608E-02  0.1130116E+00
         25   -1    0    0    0    0  0.00000000000E+00  0.00000000000E+00  0.99999998245E-14  0.12500000000E+03  0.12500000000E+03 0.  0.
        -11    1    3    3    0    0 -0.30715044792E+02  0.10713287705E+02  0.21567899505E+02  0.39030280544E+02  0.51100000000E-03 0.  1.
         23    2    1    0    0    0 -0.49609264869E+01 -0.23056481624E+00 -0.28329434612E+02  0.96238553284E+02  0.91840287026E+02 0.  0.
         11    1    3    3    0    0  0.25754118305E+02 -0.10943852521E+02 -0.49897334117E+02  0.57208272740E+02  0.51100000000E-03 0. -1.
         22    1    1    0    0    0  0.49609264869E+01  0.23056481624E+00  0.28329434612E+02  0.28761446716E+02  0.00000000000E+00 0. -1.
</event>
<event>
 5    1  0.8778268E-005  0.9118800E+02  0.7818608E-02  0.1130116E+00
         25   -1    0    0    0    0  0.00000000000E+00  0.00000000000E+00  0.99999998245E-14  0.12500000000E+03  0.12500000000E+03 0.  0.
        -11    1    3    3    0    0 -0.56874063288E+02 -0.18324168900E+02 -0.78095086425E+01  0.60261286630E+02  0.51100000000E-03 0. -1.
         23    2    1    0    0    0 -0.24793013220E+02 -0.30719848012E+01 -0.14065328425E+02  0.96330084429E+02  0.91964781886E+02 0.  0.
         11    1    3    3    0    0  0.32081050069E+02  0.15252184099E+02 -0.62558197822E+01  0.36068797799E+02  0.51100000000E-03 0.  1.
         22    1    1    0    0    0  0.24793013220E+02  0.30719848012E+01  0.14065328425E+02  0.28669915571E+02  0.00000000000E+00 0. -1.
</event>
<event>
 5    1  0.8778268E-005  0.9118800E+02  0.7818608E-02  0.1130116E+00
         25   -1    0    0    0    0  0.00000000000E+00  0.00000000000E+00  0.99999998245E-14  0.12500000000E+03  0.12500000000E+03 0.  0.
        -11    1    3    3    0    0 -0.29126247807E+02  0.27455013201E+02  0.80165346521E+01  0.40821328853E+02  0.51100000000E-03 0. -1.
         23    2    1    0    0    0 -0.13649077648E+02 -0.22231924245E+02 -0.11616338207E+02  0.96443125352E+02  0.92118300777E+02 0.  0.
         11    1    3    3    0    0  0.15477170160E+02 -0.49686937446E+02 -0.19632872860E+02  0.55621796500E+02  0.51100000000E-03 0.  1.
         22    1    1    0    0    0  0.13649077648E+02  0.22231924245E+02  0.11616338207E+02  0.28556874648E+02  0.00000000000E+00 0.  1.
</event>
<event>
 5    1  0.8778268E-005  0.9118800E+02  0.7818608E-02  0.1130116E+00
         25   -1    0    0    0    0  0.00000000000E+00  0.00000000000E+00  0.99999998245E-14  0.12500000000E+03  0.12500000000E+03 0.  0.
        -11    1    3    3    0    0 -0.25751624990E+02  0.21269748940E+02  0.70289486554E+01  0.34131430223E+02  0.51100000000E-03 0.  1.
         23    2    1    0    0    0  0.11466911349E+02 -0.26881188422E+02 -0.22310169876E+01  0.95690175987E+02  0.91090855725E+02 0.  0.
         11    1    3    3    0    0  0.37218536339E+02 -0.48150937362E+02 -0.92599656430E+01  0.61558745764E+02  0.51100000000E-03 0. -1.
         22    1    1    0    0    0 -0.11466911349E+02  0.26881188422E+02  0.22310169876E+01  0.29309824013E+02  0.00000000000E+00 0. -1.
</event>
<event>
 5    1  0.8778268E-005  0.9118800E+02  0.7818608E-02  0.1130116E+00
         25   -1    0    0    0    0  0.00000000000E+00  0.00000000000E+00  0.99999998245E-14  0.12500000000E+03  0.12500000000E+03 0.  0.
        -11    1    3    3    0    0 -0.26032505716E+02 -0.17468263360E+02 -0.14362353392E+02  0.34483456524E+02  0.51100000000E-03 0. -1.
         23    2    1    0    0    0  0.26250147813E+02  0.12226015516E+02 -0.12972943390E+01  0.96013301529E+02  0.91533192790E+02 0.  0.
         11    1    3    3    0    0  0.52282653529E+02  0.29694278876E+02  0.13065059053E+02  0.61529845005E+02  0.51100000000E-03 0.  1.
         22    1    1    0    0    0 -0.26250147813E+02 -0.12226015516E+02  0.12972943390E+01  0.28986698471E+02  0.00000000000E+00 0.  1.
</event>
<event>
 5    1  0.8778268E-005  0.9118800E+02  0.7818608E-02  0.1130116E+00
         25   -1    0    0    0    0  0.00000000000E+00  0.00000000000E+00  0.99999998245E-14  0.12500000000E+03  0.12500000000E+03 0.  0.
        -11    1    3    3    0    0  0.83797211643E+01 -0.31125983657E+02 -0.37012428732E+02  0.49081223154E+02  0.51100000000E-03 0.  1.
         23    2    1    0    0    0 -0.45378039064E+01 -0.25560399795E+02  0.92550844742E+01  0.97439479494E+02  0.93460525750E+02 0.  0.
         11    1    3    3    0    0 -0.12917525071E+02  0.55655838617E+01  0.46267513206E+02  0.48358256340E+02  0.51100000000E-03 0. -1.
         22    1    1    0    0    0  0.45378039064E+01  0.25560399795E+02 -0.92550844742E+01  0.27560520506E+02  0.00000000000E+00 0.  1.
</event>
<event>
 5    1  0.8778268E-005  0.9118800E+02  0.7818608E-02  0.1130116E+00
         25   -1    0    0    0    0  0.00000000000E+00  0.00000000000E+00  0.99999998245E-14  0.12500000000E+03  0.12500000000E+03 0.  0.
        -11    1    3    3    0    0 -0.45081915562E+02  0.64053713564E+00  0.53459201320E+01  0.45402293564E+02  0.51100000000E-03 0.  1.
         23    2    1    0    0    0  0.10868506270E+02  0.17748504461E+02 -0.33897618967E+00  0.10418537187E+03  0.10208497915E+03 0.  0.
         11    1    3    3    0    0  0.55950421832E+02  0.17107967325E+02 -0.56848963217E+01  0.58783078311E+02  0.51100000000E-03 0. -1.
         22    1    1    0    0    0 -0.10868506270E+02 -0.17748504461E+02  0.33897618967E+00  0.20814628125E+02  0.00000000000E+00 0. -1.
</event>
<event>
 5    1  0.8778268E-005  0.9118800E+02  0.7818608E-02  0.1130116E+00
         25   -1    0    0    0    0  0.00000000000E+00  0.00000000000E+00  0.99999998245E-14  0.12500000000E+03  0.12500000000E+03 0.  0.
        -11    1    3    3    0    0 -0.27759779685E+02 -0.95209100670E+01 -0.48333519949E+02  0.56545399880E+02  0.51100000000E-03 0. -1.
         23    2    1    0    0    0 -0.26813975160E+02 -0.61088687030E+01 -0.89624054810E+01  0.96075404018E+02  0.91617962238E+02 0.  0.
         11    1    3    3    0    0  0.94580452517E+00  0.34120413640E+01  0.39371114468E+02  0.39530004138E+02  0.51100000000E-03 0.  1.
         22    1    1    0    0    0  0.26813975160E+02  0.61088687030E+01  0.89624054810E+01  0.28924595982E+02  0.00000000000E+00 0. -1.
</event>
<event>
 5    1  0.8778268E-005  0.9118800E+02  0.7818608E-02  0.1130116E+00
         25   -1    0    0    0    0  0.00000000000E+00  0.00000000000E+00  0.99999998245E-14  0.12500000000E+03  0.12500000000E+03 0.  0.
        -11    1    3    3    0    0 -0.32863958506E+02  0.44291678278E+02  0.31284105021E+01  0.55241103228E+02  0.51100000000E-03 0. -1.
         23    2    1    0    0    0 -0.28612941823E+02  0.49250862620E+01 -0.46583274960E+01  0.95594950612E+02  0.90960088242E+02 0.  0.
         11    1    3    3    0    0  0.42510166831E+01 -0.39366592016E+02 -0.77867379981E+01  0.40353847384E+02  0.51100000000E-03 0.  1.
         22    1    1    0    0    0  0.28612941823E+02 -0.49250862620E+01  0.46583274960E+01  0.29405049388E+02  0.00000000000E+00 0. -1.
</event>
<event>
 5    1  0.8778268E-005  0.9118800E+02  0.7818608E-02  0.1130116E+00
         25   -1    0    0    0    0  0.00000000000E+00  0.00000000000E+00  0.99999998245E-14  0.12500000000E+03  0.12500000000E+03 0.  0.
        -11    1    3    3    0    0 -0.19829869306E+02 -0.24628669850E+02 -0.11446450440E+02  0.33627612511E+02  0.51100000000E-03 0.  1.
         23    2    1    0    0    0  0.25273340737E+02  0.10544343097E+02  0.11556793057E+02  0.95276534705E+02  0.90521454232E+02 0.  0.
         11    1    3    3    0    0  0.45103210043E+02  0.35173012948E+02  0.23003243497E+02  0.61648922194E+02  0.51100000000E-03 0. -1.
         22    1    1    0    0    0 -0.25273340737E+02 -0.10544343097E+02 -0.11556793057E+02  0.29723465295E+02  0.00000000000E+00 0. -1.
</event>
<event>
 5    1  0.8778268E-005  0.9118800E+02  0.7818608E-02  0.1130116E+00
         25   -1    0    0    0    0  0.00000000000E+00  0.00000000000E+00  0.99999998245E-14  0.12500000000E+03  0.12500000000E+03 0.  0.
        -11    1    3    3    0    0 -0.31274352385E+02  0.27494128961E+02  0.98228265308E+00  0.41653056598E+02  0.51100000000E-03 0.  1.
         23    2    1    0    0    0  0.75490959072E+01  0.15743564574E+01  0.28251388894E+02  0.95715047862E+02  0.91124979920E+02 0.  0.
         11    1    3    3    0    0  0.38823448293E+02 -0.25919772504E+02  0.27269106241E+02  0.54061991264E+02  0.51100000000E-03 0. -1.
         22    1    1    0    0    0 -0.75490959072E+01 -0.15743564574E+01 -0.28251388894E+02  0.29284952138E+02  0.00000000000E+00 0. -1.
</event>
<event>
 5    1  0.8778268E-005  0.9118800E+02  0.7818608E-02  0.1130116E+00
         25   -1    0    0    0    0  0.00000000000E+00  0.00000000000E+00  0.99999998245E-14  0.12500000000E+03  0.12500000000E+03 0.  0.
        -11    1    3    3    0    0 -0.25938094799E+02 -0.12965377201E+02 -0.34977704231E+02  0.45434849634E+02  0.51100000000E-03 0. -1.
         23    2    1    0    0    0 -0.11142473561E+02 -0.22018718667E+02  0.13464021795E+02  0.96888461947E+02  0.92720631398E+02 0.  0.
         11    1    3    3    0    0  0.14795621238E+02 -0.90533414660E+01  0.48441726025E+02  0.51453612313E+02  0.51100000000E-03 0.  1.
         22    1    1    0    0    0  0.11142473561E+02  0.22018718667E+02 -0.13464021795E+02  0.28111538053E+02  0.00000000000E+00 0.  1.
</event>
<event>
 5    1  0.8778268E-005  0.9118800E+02  0.7818608E-02  0.1130116E+00
         25   -1    0    0    0    0  0.00000000000E+00  0.00000000000E+00  0.99999998245E-14  0.12500000000E+03  0.12500000000E+03 0.  0.
        -11    1    3    3    0    0  0.20241284772E+02  0.31878116005E+02 -0.14078794153E+01  0.37787643667E+02  0.51100000000E-03 0.  1.
         23    2    1    0    0    0 -0.19910548582E+02  0.31196088023E+01  0.24270652682E+02  0.93452789577E+02  0.87967024470E+02 0.  0.
         11    1    3    3    0    0 -0.40151833354E+02 -0.28758507202E+02  0.25678532097E+02  0.55665145909E+02  0.51100000000E-03 0. -1.
         22    1    1    0    0    0  0.19910548582E+02 -0.31196088023E+01 -0.24270652682E+02  0.31547210423E+02  0.00000000000E+00 0. -1.
</event>
<event>
 5    1  0.8778268E-005  0.9118800E+02  0.7818608E-02  0.1130116E+00
         25   -1    0    0    0    0  0.00000000000E+00  0.00000000000E+00  0.99999998245E-14  0.12500000000E+03  0.12500000000E+03 0.  0.
        -11    1    3    3    0    0  0.73675976442E+01 -0.22639331658E+02  0.34719606302E+02  0.42098359766E+02  0.51100000000E-03 0.  1.
         23    2    1    0    0    0 -0.16089754909E+02  0.20380286285E+02  0.84607710317E+01  0.97690277765E+02  0.93795359380E+02 0.  0.
         11    1    3    3    0    0 -0.23457352553E+02  0.43019617943E+02 -0.26258835271E+02  0.55591917999E+02  0.51100000000E-03 0. -1.
         22    1    1    0    0    0  0.16089754909E+02 -0.20380286285E+02 -0.84607710317E+01  0.27309722235E+02  0.00000000000E+00 0. -1.
</event>
<event>
 5    1  0.8778268E-005  0.9118800E+02  0.7818608E-02  0.1130116E+00
         25   -1    0    0    0    0  0.00000000000E+00  0.00000000000E+00  0.99999998245E-14  0.12500000000E+03  0.12500000000E+03 0.  0.
        -11    1    3    3    0    0  0.17633932492E+02 -0.29166704644E+02 -0.94673958909E+01  0.35373490358E+02  0.51100000000E-03 0.  1.
         23    2    1    0    0    0 -0.29103070964E+01  0.26760342344E+02 -0.13096596939E+02  0.95064959309E+02  0.90228819273E+02 0.  0.
         11    1    3    3    0    0 -0.20544239588E+02  0.55927046988E+02 -0.36292010477E+01  0.59691468951E+02  0.51100000000E-03 0. -1.
         22    1    1    0    0    0  0.29103070964E+01 -0.26760342344E+02  0.13096596939E+02  0.29935040691E+02  0.00000000000E+00 0. -1.
</event>
<event>
 5    1  0.8778268E-005  0.9118800E+02  0.7818608E-02  0.1130116E+00
         25   -1    0    0    0    0  0.00000000000E+00  0.00000000000E+00  0.99999998245E-14  0.12500000000E+03  0.12500000000E+03 0.  0.
        -11    1    3    3    0    0 -0.34531552137E+02 -0.16026601889E+02  0.72648081310E+01  0.38756386552E+02  0.51100000000E-03 0.  1.
         23    2    1    0    0    0  0.72677043179E-01 -0.10148350817E+02 -0.32003913793E+02  0.91425533447E+02  0.85037540896E+02 0.  0.
         11    1    3    3    0    0  0.34604229180E+02  0.58782510719E+01 -0.39268721924E+02  0.52669146895E+02  0.51100000000E-03 0. -1.
         22    1    1    0    0    0 -0.72677043179E-01  0.10148350817E+02  0.32003913793E+02  0.33574466553E+02  0.00000000000E+00 0. -1.
</event>
<event>
 5    1  0.8778268E-005  0.9118800E+02  0.7818608E-02  0.1130116E+00
         25   -1    0    0    0    0  0.00000000000E+00  0.00000000000E+00  0.99999998245E-14  0.12500000000E+03  0.12500000000E+03 0.  0.
        -11    1    3    3    0    0 -0.40154635459E+02  0.30952281289E+02 -0.17626862367E+02  0.53676295914E+02  0.51100000000E-03 0. -1.
         23    2    1    0    0    0 -0.23830612257E+02  0.10042612870E+02  0.14509934791E+02  0.95347169419E+02  0.90618940376E+02 0.  0.
         11    1    3    3    0    0  0.16324023202E+02 -0.20909668419E+02  0.32136797158E+02  0.41670873506E+02  0.51100000000E-03 0.  1.
         22    1    1    0    0    0  0.23830612257E+02 -0.10042612870E+02 -0.14509934791E+02  0.29652830581E+02  0.00000000000E+00 0. -1.
</event>
<event>
 5    1  0.8778268E-005  0.9118800E+02  0.7818608E-02  0.1130116E+00
         25   -1    0    0    0    0  0.00000000000E+00  0.00000000000E+00  0.99999998245E-14  0.12500000000E+03  0.12500000000E+03 0.  0.
        -11    1    3    3    0    0  0.16587861205E+02 -0.20337557768E+02  0.25312750092E+02  0.36462428784E+02  0.51100000000E-03 0.  1.
         23    2    1    0    0    0  0.71665629720E+01  0.99603968266E+01 -0.25690458849E+02  0.96529509915E+02  0.92235445892E+02 0.  0.
         11    1    3    3    0    0 -0.94212982333E+01  0.30297954594E+02 -0.51003208942E+02  0.60067081131E+02  0.51100000000E-03 0. -1.
         22    1    1    0    0    0 -0.71665629720E+01 -0.99603968266E+01  0.25690458849E+02  0.28470490085E+02  0.00000000000E+00 0. -1.
</event>
<event>
 4    1  0.8778268E-005  0.9118800E+02  0.7818608E-02  0.1130116E+00
         25   -1    0    0    0    0  0.00000000000E+00  0.00000000000E+00  0.99999998245E-14  0.12500000000E+03  0.12500000000E+03 0.  0.
        -11    1    1    0    0    0 -0.10158478678E+02  0.22825993134E+02  0.90827436287E+01  0.26584147225E+02  0.51100000000E-03 0.  1.
         11    1    1    0    0    0 -0.34293860859E+02 -0.22135462097E+02  0.19834290408E+02  0.45381126596E+02  0.51100000000E-03 0. -1.
         22    1    1    0    0    0  0.44452339537E+02 -0.69053103627E+00 -0.28917034037E+02  0.53034726179E+02  0.00000000000E+00 0.  1.
</event>
<event>
 5    1  0.8778268E-005  0.9118800E+02  0.7818608E-02  0.1130116E+00
         25   -1    0    0    0    0  0.00000000000E+00  0.00000000000E+00  0.99999998245E-14  0.12500000000E+03  0.12500000000E+03 0.  0.
        -11    1    3    3    0    0 -0.71526404230E+01  0.53985743520E+01 -0.53638999643E+02  0.54382415844E+02  0.51100000000E-03 0.  1.
         23    2    1    0    0    0 -0.32454745068E+01  0.19783884449E+02 -0.63425218957E+01  0.10397233316E+03  0.10182378548E+03 0.  0.
         11    1    3    3    0    0  0.39071659161E+01  0.14385310097E+02  0.47296477747E+02  0.49589917318E+02  0.51100000000E-03 0. -1.
         22    1    1    0    0    0  0.32454745068E+01 -0.19783884449E+02  0.63425218957E+01  0.21027666838E+02  0.00000000000E+00 0.  1.
</event>
<event>
 5    1  0.8778268E-005  0.9118800E+02  0.7818608E-02  0.1130116E+00
         25   -1    0    0    0    0  0.00000000000E+00  0.00000000000E+00  0.99999998245E-14  0.12500000000E+03  0.12500000000E+03 0.  0.
        -11    1    3    3    0    0  0.44829795909E+01  0.33941707585E+02 -0.42652241636E+02  0.54693238491E+02  0.51100000000E-03 0.  1.
         23    2    1    0    0    0  0.21004626791E+02  0.37601196184E+01 -0.18812083918E+02  0.96553078418E+02  0.92267381042E+02 0.  0.
         11    1    3    3    0    0  0.16521647200E+02 -0.30181587967E+02  0.23840157718E+02  0.41859839927E+02  0.51100000000E-03 0. -1.
         22    1    1    0    0    0 -0.21004626791E+02 -0.37601196184E+01  0.18812083918E+02  0.28446921582E+02  0.00000000000E+00 0.  1.
</event>
<event>
 5    1  0.8778268E-005  0.9118800E+02  0.7818608E-02  0.1130116E+00
         25   -1    0    0    0    0  0.00000000000E+00  0.00000000000E+00  0.99999998245E-14  0.12500000000E+03  0.12500000000E+03 0.  0.
        -11    1    3    3    0    0  0.36322131661E+02 -0.12572488702E+02  0.42248792568E+02  0.57116768066E+02  0.51100000000E-03 0. -1.
         23    2    1    0    0    0  0.27207636089E+01 -0.14747135393E+02  0.27074954013E+02  0.94049496099E+02  0.88810889112E+02 0.  0.
         11    1    3    3    0    0 -0.33601368052E+02 -0.21746466908E+01 -0.15173838556E+02  0.36932728033E+02  0.51100000000E-03 0.  1.
         22    1    1    0    0    0 -0.27207636089E+01  0.14747135393E+02 -0.27074954013E+02  0.30950503901E+02  0.00000000000E+00 0. -1.
</event>
<event>
 5    1  0.8778268E-005  0.9118800E+02  0.7818608E-02  0.1130116E+00
         25   -1    0    0    0    0  0.00000000000E+00  0.00000000000E+00  0.99999998245E-14  0.12500000000E+03  0.12500000000E+03 0.  0.
        -11    1    3    3    0    0  0.26173592248E+02  0.63758696958E+00 -0.28222757476E+02  0.38496590604E+02  0.51100000000E-03 0.  1.
         23    2    1    0    0    0 -0.19147281556E+02  0.21900385370E+02 -0.11311070534E+00  0.95909484975E+02  0.91391308360E+02 0.  0.
         11    1    3    3    0    0 -0.45320873804E+02  0.21262798401E+02  0.28109646771E+02  0.57412894371E+02  0.51100000000E-03 0. -1.
         22    1    1    0    0    0  0.19147281556E+02 -0.21900385370E+02  0.11311070534E+00  0.29090515025E+02  0.00000000000E+00 0. -1.
</event>
<event>
 5    1  0.8778268E-005  0.9118800E+02  0.7818608E-02  0.1130116E+00
         25   -1    0    0    0    0  0.00000000000E+00  0.00000000000E+00  0.99999998245E-14  0.12500000000E+03  0.12500000000E+03 0.  0.
        -11    1    3    3    0    0  0.58144625180E+02  0.99674599196E+01  0.14030433918E+02  0.60638278098E+02  0.51100000000E-03 0. -1.
         23    2    1    0    0    0  0.45337066908E+02 -0.61778912988E+00  0.14890554539E+02  0.77276212287E+02  0.60778722196E+02 0.  0.
         11    1    3    3    0    0 -0.12807558272E+02 -0.10585249049E+02  0.86012062124E+00  0.16637934189E+02  0.51100000000E-03 0.  1.
         22    1    1    0    0    0 -0.45337066908E+02  0.61778912988E+00 -0.14890554539E+02  0.47723787713E+02  0.00000000000E+00 0. -1.
</event>
<event>
 5    1  0.8778268E-005  0.9118800E+02  0.7818608E-02  0.1130116E+00
         25   -1    0    0    0    0  0.00000000000E+00  0.00000000000E+00  0.99999998245E-14  0.12500000000E+03  0.12500000000E+03 0.  0.
        -11    1    3    3    0    0  0.14930488945E+02 -0.52692186715E+02  0.24091605468E+02  0.59831358795E+02  0.51100000000E-03 0.  1.
         23    2    1    0    0    0  0.95195895066E+01 -0.18938608346E+02  0.22551597873E+02  0.94050556757E+02  0.88812381959E+02 0.  0.
         11    1    3    3    0    0 -0.54108994386E+01  0.33753578369E+02 -0.15400075955E+01  0.34219197962E+02  0.51100000000E-03 0. -1.
         22    1    1    0    0    0 -0.95195895066E+01  0.18938608346E+02 -0.22551597873E+02  0.30949443243E+02  0.00000000000E+00 0.  1.
</event>
<event>
 5    1  0.8778268E-005  0.9118800E+02  0.7818608E-02  0.1130116E+00
         25   -1    0    0    0    0  0.00000000000E+00  0.00000000000E+00  0.99999998245E-14  0.12500000000E+03  0.12500000000E+03 0.  0.
        -11    1    3    3    0    0  0.11261232743E+02 -0.58196114697E+02  0.44200562071E+01  0.59440222289E+02  0.51100000000E-03 0.  1.
         23    2    1    0    0    0  0.13331750357E+02 -0.20907583933E+02  0.11849101501E+02  0.97517936034E+02  0.93565399633E+02 0.  0.
         11    1    3    3    0    0  0.20705176138E+01  0.37288530764E+02  0.74290452941E+01  0.38077713744E+02  0.51100000000E-03 0. -1.
         22    1    1    0    0    0 -0.13331750357E+02  0.20907583933E+02 -0.11849101501E+02  0.27482063966E+02  0.00000000000E+00 0.  1.
</event>
<event>
 5    1  0.8778268E-005  0.9118800E+02  0.7818608E-02  0.1130116E+00
         25   -1    0    0    0    0  0.00000000000E+00  0.00000000000E+00  0.99999998245E-14  0.12500000000E+03  0.12500000000E+03 0.  0.
        -11    1    3    3    0    0  0.22379256851E+02  0.21955688384E+02 -0.41683569693E+02  0.52157486253E+02  0.51100000000E-03 0.  1.
         23    2    1    0    0    0  0.25990390076E+02  0.13680617949E+02  0.82801729003E+00  0.95617261931E+02  0.90990743940E+02 0.  0.
         11    1    3    3    0    0  0.36111332257E+01 -0.82750704358E+01  0.42511586983E+02  0.43459775678E+02  0.51100000000E-03 0. -1.
         22    1    1    0    0    0 -0.25990390076E+02 -0.13680617949E+02 -0.82801729003E+00  0.29382738069E+02  0.00000000000E+00 0.  1.
</event>
<event>
 5    1  0.8778268E-005  0.9118800E+02  0.7818608E-02  0.1130116E+00
         25   -1    0    0    0    0  0.00000000000E+00  0.00000000000E+00  0.99999998245E-14  0.12500000000E+03  0.12500000000E+03 0.  0.
        -11    1    3    3    0    0 -0.30232990299E+02  0.10584972399E+02 -0.39894655467E+02  0.51163061657E+02  0.51100000000E-03 0.  1.
         23    2    1    0    0    0 -0.94721734389E+01  0.27733490785E+02 -0.49508237992E+01  0.95278303597E+02  0.90523896841E+02 0.  0.
         11    1    3    3    0    0  0.20760816860E+02  0.17148518386E+02  0.34943831668E+02  0.44115241940E+02  0.51100000000E-03 0. -1.
         22    1    1    0    0    0  0.94721734389E+01 -0.27733490785E+02  0.49508237992E+01  0.29721696403E+02  0.00000000000E+00 0.  1.
</event>
<event>
 5    1  0.8778268E-005  0.9118800E+02  0.7818608E-02  0.1130116E+00
         25   -1    0    0    0    0  0.00000000000E+00  0.00000000000E+00  0.99999998245E-14  0.12500000000E+03  0.12500000000E+03 0.  0.
        -11    1    3    3    0    0  0.35086009402E+02  0.28659281580E+02  0.31895577456E+02  0.55404966726E+02  0.51100000000E-03 0.  1.
         23    2    1    0    0    0  0.28865857825E+02  0.64613963386E+01 -0.79830273983E+00  0.95409043985E+02  0.90704250155E+02 0.  0.
         11    1    3    3    0    0 -0.62201515769E+01 -0.22197885241E+02 -0.32693880196E+02  0.40004077259E+02  0.51100000000E-03 0. -1.
         22    1    1    0    0    0 -0.28865857825E+02 -0.64613963386E+01  0.79830273983E+00  0.29590956015E+02  0.00000000000E+00 0.  1.
</event>
<event>
 5    1  0.8778268E-005  0.9118800E+02  0.7818608E-02  0.1130116E+00
         25   -1    0    0    0    0  0.00000000000E+00  0.00000000000E+00  0.99999998245E-14  0.12500000000E+03  0.12500000000E+03 0.  0.
        -11    1    3    3    0    0  0.16696001584E+01 -0.18480950573E+02  0.24505093772E+02  0.30738131365E+02  0.51100000000E-03 0.  1.
         23    2    1    0    0    0  0.11321159336E+02  0.34460259101E+02  0.16526613575E+02  0.85140157272E+02  0.75233232803E+02 0.  0.
         11    1    3    3    0    0  0.96515591776E+01  0.52941209674E+02 -0.79784801970E+01  0.54402025907E+02  0.51100000000E-03 0. -1.
         22    1    1    0    0    0 -0.11321159336E+02 -0.34460259101E+02 -0.16526613575E+02  0.39859842728E+02  0.00000000000E+00 0. -1.
</event>
<event>
 5    1  0.8778268E-005  0.9118800E+02  0.7818608E-02  0.1130116E+00
         25   -1    0    0    0    0  0.00000000000E+00  0.00000000000E+00  0.99999998245E-14  0.12500000000E+03  0.12500000000E+03 0.  0.
        -11    1    3    3    0    0 -0.25539221505E+02 -0.25521339864E+02  0.21901903159E+02  0.42228947250E+02  0.51100000000E-03 0.  1.
         23    2    1    0    0    0 -0.21258954005E+02  0.10044100118E+02 -0.17656382420E+02  0.95596345249E+02  0.90962004772E+02 0.  0.
         11    1    3    3    0    0  0.42802675000E+01  0.35565439982E+02 -0.39558285579E+02  0.53367397999E+02  0.51100000000E-03 0. -1.
         22    1    1    0    0    0  0.21258954005E+02 -0.10044100118E+02  0.17656382420E+02  0.29403654751E+02  0.00000000000E+00 0. -1.
</event>
<event>
 5    1  0.8778268E-005  0.9118800E+02  0.7818608E-02  0.1130116E+00
         25   -1    0    0    0    0  0.00000000000E+00  0.00000000000E+00  0.99999998245E-14  0.12500000000E+03  0.12500000000E+03 0.  0.
        -11    1    3    3    0    0 -0.24078791560E+02 -0.25542697566E+02  0.41736279582E+02  0.54535627213E+02  0.51100000000E-03 0.  1.
         23    2    1    0    0    0  0.25628018116E+01 -0.26776082334E+02  0.92761694546E+01  0.96546988595E+02  0.92259130435E+02 0.  0.
         11    1    3    3    0    0  0.26641593372E+02 -0.12333847675E+01 -0.32460110127E+02  0.42011361381E+02  0.51100000000E-03 0. -1.
         22    1    1    0    0    0 -0.25628018116E+01  0.26776082334E+02 -0.92761694546E+01  0.28453011405E+02  0.00000000000E+00 0.  1.
</event>
<event>
 5    1  0.8778268E-005  0.9118800E+02  0.7818608E-02  0.1130116E+00
         25   -1    0    0    0    0  0.00000000000E+00  0.00000000000E+00  0.99999998245E-14  0.12500000000E+03  0.12500000000E+03 0.  0.
        -11    1    3    3    0    0  0.29957002308E+01 -0.30638354451E+02 -0.46642917774E+02  0.55885997907E+02  0.51100000000E-03 0.  1.
         23    2    1    0    0    0 -0.68593816329E+01 -0.26867307531E+02 -0.77165168488E+01  0.96217228024E+02  0.91811257512E+02 0.  0.
         11    1    3    3    0    0 -0.98550818637E+01  0.37710469200E+01  0.38926400925E+02  0.40331230116E+02  0.51100000000E-03 0. -1.
         22    1    1    0    0    0  0.68593816329E+01  0.26867307531E+02  0.77165168488E+01  0.28782771976E+02  0.00000000000E+00 0.  1.
</event>
<event>
 5    1  0.8778268E-005  0.9118800E+02  0.7818608E-02  0.1130116E+00
         25   -1    0    0    0    0  0.00000000000E+00  0.00000000000E+00  0.99999998245E-14  0.12500000000E+03  0.12500000000E+03 0.  0.
        -11    1    3    3    0    0 -0.31337687793E+02 -0.52039084538E+02  0.64021339496E+01  0.61082766106E+02  0.51100000000E-03 0.  1.
         23    2    1    0    0    0 -0.85423436876E+01 -0.26444164655E+02  0.98182836829E+01  0.95526890655E+02  0.90866510133E+02 0.  0.
         11    1    3    3    0    0  0.22795344105E+02  0.25594919883E+02  0.34161497333E+01  0.34444124549E+02  0.51100000000E-03 0. -1.
         22    1    1    0    0    0  0.85423436876E+01  0.26444164655E+02 -0.98182836829E+01  0.29473109345E+02  0.00000000000E+00 0.  1.
</event>
<event>
 5    1  0.8778268E-005  0.9118800E+02  0.7818608E-02  0.1130116E+00
         25   -1    0    0    0    0  0.00000000000E+00  0.00000000000E+00  0.99999998245E-14  0.12500000000E+03  0.12500000000E+03 0.  0.
        -11    1    3    3    0    0 -0.32856657690E+02 -0.69979751983E+01  0.50901569723E+02  0.60987715255E+02  0.51100000000E-03 0.  1.
         23    2    1    0    0    0 -0.17818623216E+02 -0.10108069143E+02  0.16380304566E+02  0.98770421796E+02  0.95223975179E+02 0.  0.
         11    1    3    3    0    0  0.15038034474E+02 -0.31100939446E+01 -0.34521265158E+02  0.37782706541E+02  0.51100000000E-03 0. -1.
         22    1    1    0    0    0  0.17818623216E+02  0.10108069143E+02 -0.16380304566E+02  0.26229578204E+02  0.00000000000E+00 0.  1.
</event>
<event>
 5    1  0.8778268E-005  0.9118800E+02  0.7818608E-02  0.1130116E+00
         25   -1    0    0    0    0  0.00000000000E+00  0.00000000000E+00  0.99999998245E-14  0.12500000000E+03  0.12500000000E+03 0.  0.
        -11    1    3    3    0    0 -0.12357759308E+02 -0.38811218205E+02 -0.34161336390E+02  0.53160340272E+02  0.51100000000E-03 0.  1.
         23    2    1    0    0    0  0.18619505253E+02 -0.16160587758E+02 -0.10827461163E+02  0.98072607112E+02  0.94303508831E+02 0.  0.
         11    1    3    3    0    0  0.30977264561E+02  0.22650630447E+02  0.23333875227E+02  0.44912266840E+02  0.51100000000E-03 0. -1.
         22    1    1    0    0    0 -0.18619505253E+02  0.16160587758E+02  0.10827461163E+02  0.26927392888E+02  0.00000000000E+00 0.  1.
</event>
<event>
 5    1  0.8778268E-005  0.9118800E+02  0.7818608E-02  0.1130116E+00
         25   -1    0    0    0    0  0.00000000000E+00  0.00000000000E+00  0.99999998245E-14  0.12500000000E+03  0.12500000000E+03 0.  0.
        -11    1    3    3    0    0  0.12092126816E+02 -0.29088320839E+02 -0.26260594637E+02  0.41011812580E+02  0.51100000000E-03 0.  1.
         23    2    1    0    0    0  0.41094713412E+01  0.24199778923E+02 -0.15532715519E+02  0.95952068817E+02  0.91449533646E+02 0.  0.
         11    1    3    3    0    0 -0.79826554748E+01  0.53288099762E+02  0.10727879118E+02  0.54940256236E+02  0.51100000000E-03 0. -1.
         22    1    1    0    0    0 -0.41094713412E+01 -0.24199778923E+02  0.15532715519E+02  0.29047931183E+02  0.00000000000E+00 0. -1.
</event>
<event>
 5    1  0.8778268E-005  0.9118800E+02  0.7818608E-02  0.1130116E+00
         25   -1    0    0    0    0  0.00000000000E+00  0.00000000000E+00  0.99999998245E-14  0.12500000000E+03  0.12500000000E+03 0.  0.
        -11    1    3    3    0    0  0.33246009682E+01 -0.27717811665E+02  0.20429117688E+02  0.34593047060E+02  0.51100000000E-03 0.  1.
         23    2    1    0    0    0  0.73443288563E+01  0.26368068062E+02 -0.88581257800E+01  0.96230561841E+02  0.91829409560E+02 0.  0.
         11    1    3    3    0    0  0.40197278881E+01  0.54085879727E+02 -0.29287243468E+02  0.61637514781E+02  0.51100000000E-03 0. -1.
         22    1    1    0    0    0 -0.73443288563E+01 -0.26368068062E+02  0.88581257800E+01  0.28769438159E+02  0.00000000000E+00 0. -1.
</event>
<event>
 5    1  0.8778268E-005  0.9118800E+02  0.7818608E-02  0.1130116E+00
         25   -1    0    0    0    0  0.00000000000E+00  0.00000000000E+00  0.99999998245E-14  0.12500000000E+03  0.12500000000E+03 0.  0.
        -11    1    3    3    0    0  0.41721962829E+02  0.27322330550E+02 -0.25654795332E+02  0.56083869809E+02  0.51100000000E-03 0.  1.
         23    2    1    0    0    0  0.29638346649E+02 -0.24506144327E+01 -0.36291243014E+01  0.95039899093E+02  0.90194095002E+02 0.  0.
         11    1    3    3    0    0 -0.12083616180E+02 -0.29772944983E+02  0.22025671031E+02  0.38956029284E+02  0.51100000000E-03 0. -1.
         22    1    1    0    0    0 -0.29638346649E+02  0.24506144327E+01  0.36291243014E+01  0.29960100907E+02  0.00000000000E+00 0.  1.
</event>
<event>
 5    1  0.8778268E-005  0.9118800E+02  0.7818608E-02  0.1130116E+00
         25   -1    0    0    0    0  0.00000000000E+00  0.00000000000E+00  0.99999998245E-14  0.12500000000E+03  0.12500000000E+03 0.  0.
        -11    1    3    3    0    0  0.36955020400E+02 -0.28547095731E+02  0.10936677477E+02  0.47960620533E+02  0.51100000000E-03 0. -1.
         23    2    1    0    0    0  0.28691712726E+02 -0.18779433208E+02 -0.22651425342E+02  0.83902937322E+02  0.73148713799E+02 0.  0.
         11    1    3    3    0    0 -0.82633076738E+01  0.97676625231E+01 -0.33588102819E+02  0.35942316789E+02  0.51100000000E-03 0.  1.
         22    1    1    0    0    0 -0.28691712726E+02  0.18779433208E+02  0.22651425342E+02  0.41097062678E+02  0.00000000000E+00 0.  1.
</event>
<event>
 5    1  0.8778268E-005  0.9118800E+02  0.7818608E-02  0.1130116E+00
         25   -1    0    0    0    0  0.00000000000E+00  0.00000000000E+00  0.99999998245E-14  0.12500000000E+03  0.12500000000E+03 0.  0.
        -11    1    3    3    0    0 -0.37303803537E+02 -0.20377872531E+02  0.35892386837E+02  0.55633576915E+02  0.51100000000E-03 0. -1.
         23    2    1    0    0    0 -0.12567779992E-02 -0.16154260953E+02  0.25889034097E+02  0.94484393583E+02  0.89420905809E+02 0.  0.
         11    1    3    3    0    0  0.37302546759E+02  0.42236115789E+01 -0.10003352740E+02  0.38850816668E+02  0.51100000000E-03 0.  1.
         22    1    1    0    0    0  0.12567779992E-02  0.16154260953E+02 -0.25889034097E+02  0.30515606417E+02  0.00000000000E+00 0. -1.
</event>
<event>
 5    1  0.8778268E-005  0.9118800E+02  0.7818608E-02  0.1130116E+00
         25   -1    0    0    0    0  0.00000000000E+00  0.00000000000E+00  0.99999998245E-14  0.12500000000E+03  0.12500000000E+03 0.  0.
        -11    1    3    3    0    0 -0.15272534720E+02 -0.33485558241E+02 -0.22986314559E+02  0.43392436953E+02  0.51100000000E-03 0. -1.
         23    2    1    0    0    0 -0.20262768663E+02  0.17435265822E+02 -0.11874113194E+02  0.95749993977E+02  0.91172904386E+02 0.  0.
         11    1    3    3    0    0 -0.49902339429E+01  0.50920824063E+02  0.11112201365E+02  0.52357557024E+02  0.51100000000E-03 0.  1.
         22    1    1    0    0    0  0.20262768663E+02 -0.17435265822E+02  0.11874113194E+02  0.29250006023E+02  0.00000000000E+00 0.  1.
</event>
<event>
 5    1  0.8778268E-005  0.9118800E+02  0.7818608E-02  0.1130116E+00
         25   -1    0    0    0    0  0.00000000000E+00  0.00000000000E+00  0.99999998245E-14  0.12500000000E+03  0.12500000000E+03 0.  0.
        -11    1    3    3    0    0 -0.16641115374E+02  0.24581199269E+02 -0.31562899395E+02  0.43328728309E+02  0.51100000000E-03 0.  1.
         23    2    1    0    0    0 -0.13164281384E+02  0.15683889062E+02  0.20360689936E+02  0.96123705654E+02  0.91683839435E+02 0.  0.
         11    1    3    3    0    0  0.34768339902E+01 -0.88973102074E+01  0.51923589332E+02  0.52794977345E+02  0.51100000000E-03 0. -1.
         22    1    1    0    0    0  0.13164281384E+02 -0.15683889062E+02 -0.20360689936E+02  0.28876294346E+02  0.00000000000E+00 0.  1.
</event>
<event>
 5    1  0.8778268E-005  0.9118800E+02  0.7818608E-02  0.1130116E+00
         25   -1    0    0    0    0  0.00000000000E+00  0.00000000000E+00  0.99999998245E-14  0.12500000000E+03  0.12500000000E+03 0.  0.
        -11    1    3    3    0    0 -0.30067894027E+02 -0.42530276693E+02  0.18068795607E+02  0.55130609118E+02  0.51100000000E-03 0.  1.
         23    2    1    0    0    0 -0.83004943700E+01 -0.76135887661E+01  0.25665242105E+02  0.96971985568E+02  0.92833164290E+02 0.  0.
         11    1    3    3    0    0  0.21767399657E+02  0.34916687927E+02  0.75964464978E+01  0.41841376450E+02  0.51100000000E-03 0. -1.
         22    1    1    0    0    0  0.83004943700E+01  0.76135887661E+01 -0.25665242105E+02  0.28028014432E+02  0.00000000000E+00 0.  1.
</event>
<event>
 5    1  0.8778268E-005  0.9118800E+02  0.7818608E-02  0.1130116E+00
         25   -1    0    0    0    0  0.00000000000E+00  0.00000000000E+00  0.99999998245E-14  0.12500000000E+03  0.12500000000E+03 0.  0.
        -11    1    3    3    0    0 -0.59326355034E+01 -0.30445680635E+02 -0.54188205644E+02  0.62437947311E+02  0.51100000000E-03 0.  1.
         23    2    1    0    0    0 -0.98530923259E+00 -0.15351591709E+02 -0.26677259606E+02  0.94205221508E+02  0.89029800499E+02 0.  0.
         11    1    3    3    0    0  0.49473262708E+01  0.15094088926E+02  0.27510946037E+02  0.31767274196E+02  0.51100000000E-03 0. -1.
         22    1    1    0    0    0  0.98530923259E+00  0.15351591709E+02  0.26677259606E+02  0.30794778492E+02  0.00000000000E+00 0.  1.
</event>
<event>
 5    1  0.8778268E-005  0.9118800E+02  0.7818608E-02  0.1130116E+00
         25   -1    0    0    0    0  0.00000000000E+00  0.00000000000E+00  0.99999998245E-14  0.12500000000E+03  0.12500000000E+03 0.  0.
        -11    1    3    3    0    0 -0.13304201847E+02  0.40628496921E+02 -0.30322754944E+00  0.42752409243E+02  0.51100000000E-03 0.  1.
         23    2    1    0    0    0 -0.11830717996E+02 -0.55087620917E+01  0.26019629197E+02  0.95891007375E+02  0.91366032220E+02 0.  0.
         11    1    3    3    0    0  0.14734838505E+01 -0.46137259013E+02  0.26322856747E+02  0.53138598132E+02  0.51100000000E-03 0. -1.
         22    1    1    0    0    0  0.11830717996E+02  0.55087620917E+01 -0.26019629197E+02  0.29108992625E+02  0.00000000000E+00 0. -1.
</event>
<event>
 5    1  0.8778268E-005  0.9118800E+02  0.7818608E-02  0.1130116E+00
         25   -1    0    0    0    0  0.00000000000E+00  0.00000000000E+00  0.99999998245E-14  0.12500000000E+03  0.12500000000E+03 0.  0.
        -11    1    3    3    0    0  0.33507720792E+02 -0.40776890387E+02  0.32238923544E+02  0.61845536086E+02  0.51100000000E-03 0.  1.
         23    2    1    0    0    0  0.12743510100E+02 -0.24787736262E+02  0.13726508512E+02  0.93931592339E+02  0.88644785999E+02 0.  0.
         11    1    3    3    0    0 -0.20764210692E+02  0.15989154124E+02 -0.18512415032E+02  0.32086056253E+02  0.51100000000E-03 0. -1.
         22    1    1    0    0    0 -0.12743510100E+02  0.24787736262E+02 -0.13726508512E+02  0.31068407661E+02  0.00000000000E+00 0.  1.
</event>
<event>
 5    1  0.8778268E-005  0.9118800E+02  0.7818608E-02  0.1130116E+00
         25   -1    0    0    0    0  0.00000000000E+00  0.00000000000E+00  0.99999998245E-14  0.12500000000E+03  0.12500000000E+03 0.  0.
        -11    1    3    3    0    0 -0.10189098333E+02 -0.41428220870E+02 -0.32428342671E+02  0.53588362710E+02  0.51100000000E-03 0.  1.
         23    2    1    0    0    0  0.14943473762E+02 -0.98075973183E+01 -0.24372119295E+02  0.94775894188E+02  0.89827465437E+02 0.  0.
         11    1    3    3    0    0  0.25132572095E+02  0.31620623551E+02  0.80562233764E+01  0.41187531478E+02  0.51100000000E-03 0. -1.
         22    1    1    0    0    0 -0.14943473762E+02  0.98075973183E+01  0.24372119295E+02  0.30224105812E+02  0.00000000000E+00 0.  1.
</event>
<event>
 5    1  0.8778268E-005  0.9118800E+02  0.7818608E-02  0.1130116E+00
         25   -1    0    0    0    0  0.00000000000E+00  0.00000000000E+00  0.99999998245E-14  0.12500000000E+03  0.12500000000E+03 0.  0.
        -11    1    3    3    0    0  0.33512954015E+02  0.22932723525E+02 -0.41845068447E+01  0.40823253090E+02  0.51100000000E-03 0. -1.
         23    2    1    0    0    0 -0.98878075065E+00 -0.17871917819E+02 -0.21527726583E+02  0.97003104712E+02  0.92875056813E+02 0.  0.
         11    1    3    3    0    0 -0.34501734765E+02 -0.40804641344E+02 -0.17343219739E+02  0.56179851622E+02  0.51100000000E-03 0.  1.
         22    1    1    0    0    0  0.98878075065E+00  0.17871917819E+02  0.21527726583E+02  0.27996895288E+02  0.00000000000E+00 0.  1.
</event>
<event>
 5    1  0.8778268E-005  0.9118800E+02  0.7818608E-02  0.1130116E+00
         25   -1    0    0    0    0  0.00000000000E+00  0.00000000000E+00  0.99999998245E-14  0.12500000000E+03  0.12500000000E+03 0.  0.
        -11    1    3    3    0    0  0.53371636491E+02 -0.23072513024E+02 -0.12858333380E+02  0.59550056058E+02  0.51100000000E-03 0. -1.
         23    2    1    0    0    0  0.26539129778E+02 -0.24097391709E+02 -0.14217381168E+02  0.86436498812E+02  0.77357124449E+02 0.  0.
         11    1    3    3    0    0 -0.26832506713E+02 -0.10248786856E+01 -0.13590477886E+01  0.26886442754E+02  0.51100000000E-03 0.  1.
         22    1    1    0    0    0 -0.26539129778E+02  0.24097391709E+02  0.14217381168E+02  0.38563501188E+02  0.00000000000E+00 0. -1.
</event>
<event>
 5    1  0.8778268E-005  0.9118800E+02  0.7818608E-02  0.1130116E+00
         25   -1    0    0    0    0  0.00000000000E+00  0.00000000000E+00  0.99999998245E-14  0.12500000000E+03  0.12500000000E+03 0.  0.
        -11    1    3    3    0    0  0.20944045899E+02 -0.45106068910E+01  0.22062204546E+01  0.21537549584E+02  0.51100000000E-03 0.  1.
         23    2    1    0    0    0 -0.12066736458E+02 -0.23669461052E+02 -0.39067920029E+02  0.77754345273E+02  0.61754241297E+02 0.  0.
         11    1    3    3    0    0 -0.33010782357E+02 -0.19158854161E+02 -0.41274140483E+02  0.56216795689E+02  0.51100000000E-03 0. -1.
         22    1    1    0    0    0  0.12066736458E+02  0.23669461052E+02  0.39067920029E+02  0.47245654727E+02  0.00000000000E+00 0. -1.
</event>
<event>
 5    1  0.8778268E-005  0.9118800E+02  0.7818608E-02  0.1130116E+00
         25   -1    0    0    0    0  0.00000000000E+00  0.00000000000E+00  0.99999998245E-14  0.12500000000E+03  0.12500000000E+03 0.  0.
        -11    1    3    3    0    0  0.26896333968E+02  0.16293751003E+02 -0.25969550026E+02  0.40783779024E+02  0.51100000000E-03 0.  1.
         23    2    1    0    0    0 -0.10486284040E+02 -0.23334445143E+02 -0.97155315555E+01  0.97634875544E+02  0.93721496392E+02 0.  0.
         11    1    3    3    0    0 -0.37382618008E+02 -0.39628196146E+02  0.16254018470E+02  0.56851096520E+02  0.51100000000E-03 0. -1.
         22    1    1    0    0    0  0.10486284040E+02  0.23334445143E+02  0.97155315555E+01  0.27365124456E+02  0.00000000000E+00 0. -1.
</event>
<event>
 5    1  0.8778268E-005  0.9118800E+02  0.7818608E-02  0.1130116E+00
         25   -1    0    0    0    0  0.00000000000E+00  0.00000000000E+00  0.99999998245E-14  0.12500000000E+03  0.12500000000E+03 0.  0.
        -11    1    3    3    0    0 -0.34472261330E+02 -0.25753520322E+02 -0.42004673475E+02  0.60132962709E+02  0.51100000000E-03 0. -1.
         23    2    1    0    0    0 -0.25293446143E+02 -0.11053595667E+02 -0.11749300432E+02  0.95000225741E+02  0.90139094933E+02 0.  0.
         11    1    3    3    0    0  0.91788151869E+01  0.14699924655E+02  0.30255373043E+02  0.34867263032E+02  0.51100000000E-03 0.  1.
         22    1    1    0    0    0  0.25293446143E+02  0.11053595667E+02  0.11749300432E+02  0.29999774259E+02  0.00000000000E+00 0. -1.
</event>
<event>
 5    1  0.8778268E-005  0.9118800E+02  0.7818608E-02  0.1130116E+00
         25   -1    0    0    0    0  0.00000000000E+00  0.00000000000E+00  0.99999998245E-14  0.12500000000E+03  0.12500000000E+03 0.  0.
        -11    1    3    3    0    0 -0.71027222389E+01 -0.31107966635E+01  0.54826018205E+02  0.55371635262E+02  0.51100000000E-03 0. -1.
         23    2    1    0    0    0 -0.15138837691E+02 -0.17052524011E+02  0.16756710125E+02  0.96702291330E+02  0.92469307516E+02 0.  0.
         11    1    3    3    0    0 -0.80361154525E+01 -0.13941727348E+02 -0.38069308081E+02  0.41330656068E+02  0.51100000000E-03 0.  1.
         22    1    1    0    0    0  0.15138837691E+02  0.17052524011E+02 -0.16756710125E+02  0.28297708670E+02  0.00000000000E+00 0. -1.
</event>
<event>
 5    1  0.8778268E-005  0.9118800E+02  0.7818608E-02  0.1130116E+00
         25   -1    0    0    0    0  0.00000000000E+00  0.00000000000E+00  0.99999998245E-14  0.12500000000E+03  0.12500000000E+03 0.  0.
        -11    1    3    3    0    0  0.19660606249E+01  0.50226911804E+02 -0.31831665537E+02  0.59496747767E+02  0.51100000000E-03 0. -1.
         23    2    1    0    0    0  0.63742545548E+01  0.14775880431E+02 -0.24056980505E+02  0.96057020287E+02  0.91592876752E+02 0.  0.
         11    1    3    3    0    0  0.44081939300E+01 -0.35451031373E+02  0.77746850315E+01  0.36560272520E+02  0.51100000000E-03 0.  1.
         22    1    1    0    0    0 -0.63742545548E+01 -0.14775880431E+02  0.24056980505E+02  0.28942979713E+02  0.00000000000E+00 0. -1.
</event>
<event>
 5    1  0.8778268E-005  0.9118800E+02  0.7818608E-02  0.1130116E+00
         25   -1    0    0    0    0  0.00000000000E+00  0.00000000000E+00  0.99999998245E-14  0.12500000000E+03  0.12500000000E+03 0.  0.
        -11    1    3    3    0    0  0.39463704787E+01  0.21415773153E+01 -0.33317242594E+02  0.33618430178E+02  0.51100000000E-03 0.  1.
         23    2    1    0    0    0 -0.25390298306E+00  0.22387444321E+02  0.22570590256E+02  0.93208591185E+02  0.87619334603E+02 0.  0.
         11    1    3    3    0    0 -0.42002734618E+01  0.20245867006E+02  0.55887832849E+02  0.59590161007E+02  0.51100000000E-03 0. -1.
         22    1    1    0    0    0  0.25390298306E+00 -0.22387444321E+02 -0.22570590256E+02  0.31791408815E+02  0.00000000000E+00 0. -1.
</event>
<event>
 5    1  0.8778268E-005  0.9118800E+02  0.7818608E-02  0.1130116E+00
         25   -1    0    0    0    0  0.00000000000E+00  0.00000000000E+00  0.99999998245E-14  0.12500000000E+03  0.12500000000E+03 0.  0.
        -11    1    3    3    0    0 -0.12344873260E+02  0.61878693959E+01 -0.48575834590E+02  0.50500468611E+02  0.51100000000E-03 0.  1.
         23    2    1    0    0    0 -0.26025636358E+02 -0.10203523685E+02 -0.87158018878E+01  0.95718421388E+02  0.91129607412E+02 0.  0.
         11    1    3    3    0    0 -0.13680763098E+02 -0.16391393081E+02  0.39860032703E+02  0.45217952778E+02  0.51100000000E-03 0. -1.
         22    1    1    0    0    0  0.26025636358E+02  0.10203523685E+02  0.87158018878E+01  0.29281578612E+02  0.00000000000E+00 0.  1.
</event>
<event>
 5    1  0.8778268E-005  0.9118800E+02  0.7818608E-02  0.1130116E+00
         25   -1    0    0    0    0  0.00000000000E+00  0.00000000000E+00  0.99999998245E-14  0.12500000000E+03  0.12500000000E+03 0.  0.
        -11    1    3    3    0    0  0.25670341528E+01  0.18314325346E+02 -0.34769319354E+02  0.39381591458E+02  0.51100000000E-03 0.  1.
         23    2    1    0    0    0  0.25257863600E+02 -0.18024212713E+02 -0.96168982672E+00  0.93955567892E+02  0.88678588019E+02 0.  0.
         11    1    3    3    0    0  0.22690829447E+02 -0.36338538059E+02  0.33807629527E+02  0.54573976434E+02  0.51100000000E-03 0. -1.
         22    1    1    0    0    0 -0.25257863600E+02  0.18024212713E+02  0.96168982672E+00  0.31044432108E+02  0.00000000000E+00 0. -1.
</event>
<event>
 5    1  0.8778268E-005  0.9118800E+02  0.7818608E-02  0.1130116E+00
         25   -1    0    0    0    0  0.00000000000E+00  0.00000000000E+00  0.99999998245E-14  0.12500000000E+03  0.12500000000E+03 0.  0.
        -11    1    3    3    0    0  0.67783396799E+01  0.50262903208E+02  0.20305191840E+02  0.54631548977E+02  0.51100000000E-03 0.  1.
         23    2    1    0    0    0 -0.12457510142E+02  0.20508207165E+02 -0.77058775740E+01  0.99797685241E+02  0.96563043190E+02 0.  0.
         11    1    3    3    0    0 -0.19235849822E+02 -0.29754696043E+02 -0.28011069414E+02  0.45166136264E+02  0.51100000000E-03 0. -1.
         22    1    1    0    0    0  0.12457510142E+02 -0.20508207165E+02  0.77058775740E+01  0.25202314759E+02  0.00000000000E+00 0.  1.
</event>
<event>
 5    1  0.8778268E-005  0.9118800E+02  0.7818608E-02  0.1130116E+00
         25   -1    0    0    0    0  0.00000000000E+00  0.00000000000E+00  0.99999998245E-14  0.12500000000E+03  0.12500000000E+03 0.  0.
        -11    1    3    3    0    0  0.34039781230E+02 -0.22565634368E+02 -0.26533401601E+02  0.48702525206E+02  0.51100000000E-03 0.  1.
         23    2    1    0    0    0  0.22476621722E+02 -0.70434548861E+01  0.16736984192E+02  0.96104750899E+02  0.91657993240E+02 0.  0.
         11    1    3    3    0    0 -0.11563159509E+02  0.15522179482E+02  0.43270385794E+02  0.47402225693E+02  0.51100000000E-03 0. -1.
         22    1    1    0    0    0 -0.22476621722E+02  0.70434548861E+01 -0.16736984192E+02  0.28895249101E+02  0.00000000000E+00 0. -1.
</event>
<event>
 5    1  0.8778268E-005  0.9118800E+02  0.7818608E-02  0.1130116E+00
         25   -1    0    0    0    0  0.00000000000E+00  0.00000000000E+00  0.99999998245E-14  0.12500000000E+03  0.12500000000E+03 0.  0.
        -11    1    3    3    0    0 -0.15652326432E+02 -0.25672252734E+02  0.28053923480E+02  0.41122773570E+02  0.51100000000E-03 0.  1.
         23    2    1    0    0    0  0.53037572429E+01  0.24275922099E+02  0.99322734641E+01  0.98239949723E+02  0.94525062448E+02 0.  0.
         11    1    3    3    0    0  0.20956083675E+02  0.49948174833E+02 -0.18121650016E+02  0.57117176153E+02  0.51100000000E-03 0. -1.
         22    1    1    0    0    0 -0.53037572429E+01 -0.24275922099E+02 -0.99322734641E+01  0.26760050277E+02  0.00000000000E+00 0.  1.
</event>
<event>
 5    1  0.8778268E-005  0.9118800E+02  0.7818608E-02  0.1130116E+00
         25   -1    0    0    0    0  0.00000000000E+00  0.00000000000E+00  0.99999998245E-14  0.12500000000E+03  0.12500000000E+03 0.  0.
        -11    1    3    3    0    0  0.99117069928E+01  0.18824802930E+02 -0.32641260346E+02  0.38962379523E+02  0.51100000000E-03 0.  1.
         23    2    1    0    0    0  0.81212544243E+01 -0.17647506481E+02  0.16033177534E+02  0.99811668569E+02  0.96581142788E+02 0.  0.
         11    1    3    3    0    0 -0.17904525686E+01 -0.36472309411E+02  0.48674437880E+02  0.60849289046E+02  0.51100000000E-03 0. -1.
         22    1    1    0    0    0 -0.81212544243E+01  0.17647506481E+02 -0.16033177534E+02  0.25188331431E+02  0.00000000000E+00 0. -1.
</event>
<event>
 5    1  0.8778268E-005  0.9118800E+02  0.7818608E-02  0.1130116E+00
         25   -1    0    0    0    0  0.00000000000E+00  0.00000000000E+00  0.99999998245E-14  0.12500000000E+03  0.12500000000E+03 0.  0.
        -11    1    3    3    0    0 -0.59862677885E+01 -0.47388135246E+02  0.32843507359E+02  0.57966945236E+02  0.51100000000E-03 0. -1.
         23    2    1    0    0    0  0.11974623275E+02 -0.17046488266E+02  0.21637665612E+02  0.94963972668E+02  0.90088807112E+02 0.  0.
         11    1    3    3    0    0  0.17960891064E+02  0.30341646980E+02 -0.11205841747E+02  0.36997027432E+02  0.51100000000E-03 0.  1.
         22    1    1    0    0    0 -0.11974623275E+02  0.17046488266E+02 -0.21637665612E+02  0.30036027332E+02  0.00000000000E+00 0. -1.
</event>
<event>
 5    1  0.8778268E-005  0.9118800E+02  0.7818608E-02  0.1130116E+00
         25   -1    0    0    0    0  0.00000000000E+00  0.00000000000E+00  0.99999998245E-14  0.12500000000E+03  0.12500000000E+03 0.  0.
        -11    1    3    3    0    0  0.30520958766E+02  0.30924955092E+02 -0.37571892650E+02  0.57441525824E+02  0.51100000000E-03 0. -1.
         23    2    1    0    0    0  0.24088976646E+02 -0.39899866390E+00 -0.14396388871E+02  0.96934113085E+02  0.92782154918E+02 0.  0.
         11    1    3    3    0    0 -0.64319821193E+01 -0.31323953756E+02  0.23175503779E+02  0.39492587261E+02  0.51100000000E-03 0.  1.
         22    1    1    0    0    0 -0.24088976646E+02  0.39899866390E+00  0.14396388871E+02  0.28065886915E+02  0.00000000000E+00 0. -1.
</event>
<event>
 5    1  0.8778268E-005  0.9118800E+02  0.7818608E-02  0.1130116E+00
         25   -1    0    0    0    0  0.00000000000E+00  0.00000000000E+00  0.99999998245E-14  0.12500000000E+03  0.12500000000E+03 0.  0.
        -11    1    3    3    0    0 -0.29624254788E+02  0.85781003508E+01 -0.44995016498E+02  0.54550268444E+02  0.51100000000E-03 0.  1.
         23    2    1    0    0    0 -0.16489034595E+02  0.22277886999E+02 -0.79632207873E+01  0.96162430818E+02  0.91736621393E+02 0.  0.
         11    1    3    3    0    0  0.13135220193E+02  0.13699786648E+02  0.37031795710E+02  0.41612162375E+02  0.51100000000E-03 0. -1.
         22    1    1    0    0    0  0.16489034595E+02 -0.22277886999E+02  0.79632207873E+01  0.28837569182E+02  0.00000000000E+00 0.  1.
</event>
<event>
 5    1  0.8778268E-005  0.9118800E+02  0.7818608E-02  0.1130116E+00
         25   -1    0    0    0    0  0.00000000000E+00  0.00000000000E+00  0.99999998245E-14  0.12500000000E+03  0.12500000000E+03 0.  0.
        -11    1    3    3    0    0 -0.60595780642E+01  0.32580868404E+02  0.22478267176E+02  0.40043775643E+02  0.51100000000E-03 0. -1.
         23    2    1    0    0    0 -0.15419262880E+02  0.46422410734E+01 -0.24609424462E+02  0.95590344403E+02  0.90953758036E+02 0.  0.
         11    1    3    3    0    0 -0.93596848162E+01 -0.27938627331E+02 -0.47087691638E+02  0.55546568760E+02  0.51100000000E-03 0.  1.
         22    1    1    0    0    0  0.15419262880E+02 -0.46422410734E+01  0.24609424462E+02  0.29409655597E+02  0.00000000000E+00 0.  1.
</event>
<event>
 5    1  0.8778268E-005  0.9118800E+02  0.7818608E-02  0.1130116E+00
         25   -1    0    0    0    0  0.00000000000E+00  0.00000000000E+00  0.99999998245E-14  0.12500000000E+03  0.12500000000E+03 0.  0.
        -11    1    3    3    0    0  0.35579317269E+02 -0.19166437491E+02 -0.62520156067E+01  0.40894105233E+02  0.51100000000E-03 0. -1.
         23    2    1    0    0    0 -0.96493537161E+00 -0.28251582229E+00  0.29553382212E+02  0.95429519524E+02  0.90732463214E+02 0.  0.
         11    1    3    3    0    0 -0.36544252641E+02  0.18883921668E+02  0.35805397818E+02  0.54535414290E+02  0.51100000000E-03 0.  1.
         22    1    1    0    0    0  0.96493537161E+00  0.28251582229E+00 -0.29553382212E+02  0.29570480476E+02  0.00000000000E+00 0.  1.
</event>
<event>
 5    1  0.8778268E-005  0.9118800E+02  0.7818608E-02  0.1130116E+00
         25   -1    0    0    0    0  0.00000000000E+00  0.00000000000E+00  0.99999998245E-14  0.12500000000E+03  0.12500000000E+03 0.  0.
        -11    1    3    3    0    0 -0.53142141658E+02  0.94216712146E+01 -0.15216562609E+01  0.53992319329E+02  0.51100000000E-03 0.  1.
         23    2    1    0    0    0 -0.19317504601E+02 -0.30799853254E+01  0.20834904387E+02  0.96421239803E+02  0.92088598375E+02 0.  0.
         11    1    3    3    0    0  0.33824637057E+02 -0.12501656540E+02  0.22356560648E+02  0.42428920473E+02  0.51100000000E-03 0. -1.
         22    1    1    0    0    0  0.19317504601E+02  0.30799853254E+01 -0.20834904387E+02  0.28578760197E+02  0.00000000000E+00 0.  1.
</event>
<event>
 5    1  0.8778268E-005  0.9118800E+02  0.7818608E-02  0.1130116E+00
         25   -1    0    0    0    0  0.00000000000E+00  0.00000000000E+00  0.99999998245E-14  0.12500000000E+03  0.12500000000E+03 0.  0.
        -11    1    3    3    0    0  0.24819865053E+02  0.15493406528E+02 -0.50276396209E+02  0.58170330609E+02  0.51100000000E-03 0.  1.
         23    2    1    0    0    0  0.25293609019E+02  0.25432465786E+01 -0.15636538757E+02  0.95154797627E+02  0.90353192565E+02 0.  0.
         11    1    3    3    0    0  0.47374396671E+00 -0.12950159950E+02  0.34639857452E+02  0.36984467018E+02  0.51100000000E-03 0. -1.
         22    1    1    0    0    0 -0.25293609019E+02 -0.25432465786E+01  0.15636538757E+02  0.29845202373E+02  0.00000000000E+00 0.  1.
</event>
<event>
 5    1  0.8778268E-005  0.9118800E+02  0.7818608E-02  0.1130116E+00
         25   -1    0    0    0    0  0.00000000000E+00  0.00000000000E+00  0.99999998245E-14  0.12500000000E+03  0.12500000000E+03 0.  0.
        -11    1    3    3    0    0 -0.44683964121E+02  0.22208782716E+02  0.32363049417E+02  0.59474815235E+02  0.51100000000E-03 0. -1.
         23    2    1    0    0    0 -0.17387428492E+02  0.10540075493E+00  0.23620082475E+02  0.95670116349E+02  0.91063324600E+02 0.  0.
         11    1    3    3    0    0  0.27296535630E+02 -0.22103381961E+02 -0.87429669419E+01  0.36195301114E+02  0.51100000000E-03 0.  1.
         22    1    1    0    0    0  0.17387428492E+02 -0.10540075493E+00 -0.23620082475E+02  0.29329883651E+02  0.00000000000E+00 0. -1.
</event>
<event>
 5    1  0.8778268E-005  0.9118800E+02  0.7818608E-02  0.1130116E+00
         25   -1    0    0    0    0  0.00000000000E+00  0.00000000000E+00  0.99999998245E-14  0.12500000000E+03  0.12500000000E+03 0.  0.
        -11    1    3    3    0    0 -0.17468167486E+02 -0.20089435381E+02  0.48729878573E+02  0.55527680982E+02  0.51100000000E-03 0. -1.
         23    2    1    0    0    0 -0.15895225367E+02 -0.22207946929E+02  0.77238560369E+01  0.96618508701E+02  0.92355980722E+02 0.  0.
         11    1    3    3    0    0  0.15729421183E+01 -0.21185115484E+01 -0.41006022536E+02  0.41090827719E+02  0.51100000000E-03 0.  1.
         22    1    1    0    0    0  0.15895225367E+02  0.22207946929E+02 -0.77238560369E+01  0.28381491299E+02  0.00000000000E+00 0. -1.
</event>
<event>
 5    1  0.8778268E-005  0.9118800E+02  0.7818608E-02  0.1130116E+00
         25   -1    0    0    0    0  0.00000000000E+00  0.00000000000E+00  0.99999998245E-14  0.12500000000E+03  0.12500000000E+03 0.  0.
        -11    1    3    3    0    0 -0.61214856377E+02  0.53860298008E+00  0.10788556199E+02  0.62160611962E+02  0.51100000000E-03 0.  1.
         23    2    1    0    0    0 -0.29435706403E+02  0.82714188396E+00  0.55722269469E+00  0.95547402962E+02  0.90894723392E+02 0.  0.
         11    1    3    3    0    0  0.31779149973E+02  0.28853890387E+00 -0.10231333504E+02  0.33386791000E+02  0.51100000000E-03 0. -1.
         22    1    1    0    0    0  0.29435706403E+02 -0.82714188396E+00 -0.55722269469E+00  0.29452597038E+02  0.00000000000E+00 0.  1.
</event>
<event>
 5    1  0.8778268E-005  0.9118800E+02  0.7818608E-02  0.1130116E+00
         25   -1    0    0    0    0  0.00000000000E+00  0.00000000000E+00  0.99999998245E-14  0.12500000000E+03  0.12500000000E+03 0.  0.
        -11    1    3    3    0    0  0.34904809541E+01  0.29117935412E+02  0.29195059234E+02  0.41381023476E+02  0.51100000000E-03 0. -1.
         23    2    1    0    0    0 -0.29091513144E+02 -0.39285876047E+01  0.11136377197E+01  0.95623306406E+02  0.90999047255E+02 0.  0.
         11    1    3    3    0    0 -0.32581994098E+02 -0.33046523016E+02 -0.28081421515E+02  0.54242282930E+02  0.51100000000E-03 0.  1.
         22    1    1    0    0    0  0.29091513144E+02  0.39285876047E+01 -0.11136377197E+01  0.29376693594E+02  0.00000000000E+00 0.  1.
</event>
<event>
 5    1  0.8778268E-005  0.9118800E+02  0.7818608E-02  0.1130116E+00
         25   -1    0    0    0    0  0.00000000000E+00  0.00000000000E+00  0.99999998245E-14  0.12500000000E+03  0.12500000000E+03 0.  0.
        -11    1    3    3    0    0  0.53382022482E+01  0.27253397741E+02 -0.19220491081E+02  0.33773826691E+02  0.51100000000E-03 0.  1.
         23    2    1    0    0    0 -0.80438866761E+00 -0.19619549204E+02  0.21294844192E+02  0.96033741331E+02  0.91561101636E+02 0.  0.
         11    1    3    3    0    0 -0.61425909158E+01 -0.46872946945E+02  0.40515335273E+02  0.62259914641E+02  0.51100000000E-03 0. -1.
         22    1    1    0    0    0  0.80438866761E+00  0.19619549204E+02 -0.21294844192E+02  0.28966258669E+02  0.00000000000E+00 0. -1.
</event>
<event>
 5    1  0.8778268E-005  0.9118800E+02  0.7818608E-02  0.1130116E+00
         25   -1    0    0    0    0  0.00000000000E+00  0.00000000000E+00  0.99999998245E-14  0.12500000000E+03  0.12500000000E+03 0.  0.
        -11    1    3    3    0    0 -0.14693491143E+02 -0.21834582033E+02 -0.19156992916E+02  0.32552081844E+02  0.51100000000E-03 0.  1.
         23    2    1    0    0    0  0.18507383610E+02  0.26160651250E+02 -0.55383771376E+01  0.92479598046E+02  0.86573087686E+02 0.  0.
         11    1    3    3    0    0  0.33200874753E+02  0.47995233283E+02  0.13618615778E+02  0.59927516203E+02  0.51100000000E-03 0. -1.
         22    1    1    0    0    0 -0.18507383610E+02 -0.26160651250E+02  0.55383771376E+01  0.32520401954E+02  0.00000000000E+00 0. -1.
</event>
<event>
 5    1  0.8778268E-005  0.9118800E+02  0.7818608E-02  0.1130116E+00
         25   -1    0    0    0    0  0.00000000000E+00  0.00000000000E+00  0.99999998245E-14  0.12500000000E+03  0.12500000000E+03 0.  0.
        -11    1    3    3    0    0 -0.46951767450E+02 -0.28914024203E+02 -0.38292047954E+01  0.55273430072E+02  0.51100000000E-03 0.  1.
         23    2    1    0    0    0 -0.79078489761E+01 -0.22054629570E+02 -0.15867678877E+02  0.96702933123E+02  0.92470175088E+02 0.  0.
         11    1    3    3    0    0  0.39043918474E+02  0.68593946334E+01 -0.12038474082E+02  0.41429503051E+02  0.51100000000E-03 0. -1.
         22    1    1    0    0    0  0.79078489761E+01  0.22054629570E+02  0.15867678877E+02  0.28297066877E+02  0.00000000000E+00 0.  1.
</event>
<event>
 5    1  0.8778268E-005  0.9118800E+02  0.7818608E-02  0.1130116E+00
         25   -1    0    0    0    0  0.00000000000E+00  0.00000000000E+00  0.99999998245E-14  0.12500000000E+03  0.12500000000E+03 0.  0.
        -11    1    3    3    0    0 -0.30481627204E+02  0.14063221979E+02  0.25881645264E+02  0.42388245673E+02  0.51100000000E-03 0. -1.
         23    2    1    0    0    0 -0.22109570713E+01 -0.69318297639E+01 -0.22001999321E+02  0.10182616628E+03  0.99154130376E+02 0.  0.
         11    1    3    3    0    0  0.28270670132E+02 -0.20995051743E+02 -0.47883644585E+02  0.59437920610E+02  0.51100000000E-03 0.  1.
         22    1    1    0    0    0  0.22109570713E+01  0.69318297639E+01  0.22001999321E+02  0.23173833718E+02  0.00000000000E+00 0.  1.
</event>
<event>
 5    1  0.8778268E-005  0.9118800E+02  0.7818608E-02  0.1130116E+00
         25   -1    0    0    0    0  0.00000000000E+00  0.00000000000E+00  0.99999998245E-14  0.12500000000E+03  0.12500000000E+03 0.  0.
        -11    1    3    3    0    0 -0.22027512319E+02  0.11233906550E+02  0.12046153884E+02  0.27504940992E+02  0.51100000000E-03 0.  1.
         23    2    1    0    0    0  0.28321765129E+01 -0.28087223109E+02  0.35533037848E+02  0.79618174293E+02  0.65418220499E+02 0.  0.
         11    1    3    3    0    0  0.24859688832E+02 -0.39321129659E+02  0.23486883964E+02  0.52113233301E+02  0.51100000000E-03 0. -1.
         22    1    1    0    0    0 -0.28321765129E+01  0.28087223109E+02 -0.35533037848E+02  0.45381825707E+02  0.00000000000E+00 0. -1.
</event>
<event>
 5    1  0.8778268E-005  0.9118800E+02  0.7818608E-02  0.1130116E+00
         25   -1    0    0    0    0  0.00000000000E+00  0.00000000000E+00  0.99999998245E-14  0.12500000000E+03  0.12500000000E+03 0.  0.
        -11    1    3    3    0    0 -0.49247858578E+02 -0.19150906575E+02  0.21672616500E+02  0.57112267538E+02  0.51100000000E-03 0.  1.
         23    2    1    0    0    0 -0.19751437338E+02 -0.22092980091E+02 -0.23574014166E+01  0.95271623192E+02  0.90514671727E+02 0.  0.
         11    1    3    3    0    0  0.29496421240E+02 -0.29420735160E+01 -0.24030017917E+02  0.38159355653E+02  0.51100000000E-03 0. -1.
         22    1    1    0    0    0  0.19751437338E+02  0.22092980091E+02  0.23574014166E+01  0.29728376808E+02  0.00000000000E+00 0.  1.
</event>
<event>
 5    1  0.8778268E-005  0.9118800E+02  0.7818608E-02  0.1130116E+00
         25   -1    0    0    0    0  0.00000000000E+00  0.00000000000E+00  0.99999998245E-14  0.12500000000E+03  0.12500000000E+03 0.  0.
        -11    1    3    3    0    0  0.10590502329E+02  0.49589255841E+01 -0.36180508386E+02  0.38023398978E+02  0.51100000000E-03 0.  1.
         23    2    1    0    0    0 -0.16655514880E+02  0.17918786928E+02  0.14175083552E+02  0.96725946619E+02  0.92501279206E+02 0.  0.
         11    1    3    3    0    0 -0.27246017209E+02  0.12959861344E+02  0.50355591938E+02  0.58702547641E+02  0.51100000000E-03 0. -1.
         22    1    1    0    0    0  0.16655514880E+02 -0.17918786928E+02 -0.14175083552E+02  0.28274053381E+02  0.00000000000E+00 0. -1.
</event>
<event>
 5    1  0.8778268E-005  0.9118800E+02  0.7818608E-02  0.1130116E+00
         25   -1    0    0    0    0  0.00000000000E+00  0.00000000000E+00  0.99999998245E-14  0.12500000000E+03  0.12500000000E+03 0.  0.
        -11    1    3    3    0    0 -0.44321350953E+02 -0.43729975432E+01  0.30812822423E+02  0.54156581168E+02  0.51100000000E-03 0. -1.
         23    2    1    0    0    0 -0.25916761190E+02  0.46540024559E+01 -0.75109654864E+01  0.97618384782E+02  0.93699499440E+02 0.  0.
         11    1    3    3    0    0  0.18404589763E+02  0.90269999991E+01 -0.38323787910E+02  0.43461803614E+02  0.51100000000E-03 0.  1.
         22    1    1    0    0    0  0.25916761190E+02 -0.46540024559E+01  0.75109654864E+01  0.27381615218E+02  0.00000000000E+00 0. -1.
</event>
<event>
 5    1  0.8778268E-005  0.9118800E+02  0.7818608E-02  0.1130116E+00
         25   -1    0    0    0    0  0.00000000000E+00  0.00000000000E+00  0.99999998245E-14  0.12500000000E+03  0.12500000000E+03 0.  0.
        -11    1    3    3    0    0 -0.67548379828E+01  0.37434299168E+02  0.17678493078E+02  0.41946200163E+02  0.51100000000E-03 0.  1.
         23    2    1    0    0    0  0.21342082399E+02  0.76258065952E+01 -0.17834885235E+02  0.96160434492E+02  0.91733901165E+02 0.  0.
         11    1    3    3    0    0  0.28096920381E+02 -0.29808492572E+02 -0.35513378314E+02  0.54214234329E+02  0.51100000000E-03 0. -1.
         22    1    1    0    0    0 -0.21342082399E+02 -0.76258065952E+01  0.17834885235E+02  0.28839565508E+02  0.00000000000E+00 0.  1.
</event>
<event>
 5    1  0.8778268E-005  0.9118800E+02  0.7818608E-02  0.1130116E+00
         25   -1    0    0    0    0  0.00000000000E+00  0.00000000000E+00  0.99999998245E-14  0.12500000000E+03  0.12500000000E+03 0.  0.
        -11    1    3    3    0    0 -0.67093702897E+01 -0.10867951947E+02 -0.41283404700E+02  0.43213973817E+02  0.51100000000E-03 0.  1.
         23    2    1    0    0    0 -0.19511642909E+02  0.22703913818E+02 -0.43353955210E+01  0.94751569198E+02  0.89793609458E+02 0.  0.
         11    1    3    3    0    0 -0.12802272619E+02  0.33571865765E+02  0.36948009179E+02  0.51537595381E+02  0.51100000000E-03 0. -1.
         22    1    1    0    0    0  0.19511642909E+02 -0.22703913818E+02  0.43353955210E+01  0.30248430802E+02  0.00000000000E+00 0.  1.
</event>
<event>
 5    1  0.8778268E-005  0.9118800E+02  0.7818608E-02  0.1130116E+00
         25   -1    0    0    0    0  0.00000000000E+00  0.00000000000E+00  0.99999998245E-14  0.12500000000E+03  0.12500000000E+03 0.  0.
        -11    1    3    3    0    0  0.47478655817E+02  0.32552523771E+02  0.17673838599E+02  0.60218387002E+02  0.51100000000E-03 0. -1.
         23    2    1    0    0    0  0.28001047438E+02  0.75942095289E+01  0.10690236842E+01  0.95967716458E+02  0.91470919502E+02 0.  0.
         11    1    3    3    0    0 -0.19477608379E+02 -0.24958314242E+02 -0.16604814915E+02  0.35749329456E+02  0.51100000000E-03 0.  1.
         22    1    1    0    0    0 -0.28001047438E+02 -0.75942095289E+01 -0.10690236842E+01  0.29032283542E+02  0.00000000000E+00 0. -1.
</event>
<event>
 5    1  0.8778268E-005  0.9118800E+02  0.7818608E-02  0.1130116E+00
         25   -1    0    0    0    0  0.00000000000E+00  0.00000000000E+00  0.99999998245E-14  0.12500000000E+03  0.12500000000E+03 0.  0.
        -11    1    3    3    0    0 -0.42659277672E+01 -0.32766618836E+02  0.45084273667E+01  0.33349293354E+02  0.51100000000E-03 0. -1.
         23    2    1    0    0    0  0.22254257090E+00  0.29055618526E+02  0.59031623612E+01  0.95349944031E+02  0.90622767601E+02 0.  0.
         11    1    3    3    0    0  0.44884703381E+01  0.61822237362E+02  0.13947349945E+01  0.62000650677E+02  0.51100000000E-03 0.  1.
         22    1    1    0    0    0 -0.22254257090E+00 -0.29055618526E+02 -0.59031623612E+01  0.29650055969E+02  0.00000000000E+00 0.  1.
</event>
<event>
 5    1  0.8778268E-005  0.9118800E+02  0.7818608E-02  0.1130116E+00
         25   -1    0    0    0    0  0.00000000000E+00  0.00000000000E+00  0.99999998245E-14  0.12500000000E+03  0.12500000000E+03 0.  0.
        -11    1    3    3    0    0  0.16677744571E+02 -0.36420089141E+02  0.47102663715E+02  0.61832281102E+02  0.51100000000E-03 0. -1.
         23    2    1    0    0    0  0.52879873272E+01 -0.22537323963E+02  0.19655610751E+02  0.94631647799E+02  0.89626513654E+02 0.  0.
         11    1    3    3    0    0 -0.11389757244E+02  0.13882765178E+02 -0.27447052964E+02  0.32799366697E+02  0.51100000000E-03 0.  1.
         22    1    1    0    0    0 -0.52879873272E+01  0.22537323963E+02 -0.19655610751E+02  0.30368352201E+02  0.00000000000E+00 0. -1.
</event>
<event>
 5    1  0.8778268E-005  0.9118800E+02  0.7818608E-02  0.1130116E+00
         25   -1    0    0    0    0  0.00000000000E+00  0.00000000000E+00  0.99999998245E-14  0.12500000000E+03  0.12500000000E+03 0.  0.
        -11    1    3    3    0    0 -0.40804522397E+02  0.16394754299E+02 -0.18383364535E+02  0.47662827323E+02  0.51100000000E-03 0. -1.
         23    2    1    0    0    0  0.47863368742E+01 -0.12043621331E+01 -0.27229518981E+02  0.97326796124E+02  0.93309694196E+02 0.  0.
         11    1    3    3    0    0  0.45590859271E+02 -0.17599116432E+02 -0.88461544468E+01  0.49663968801E+02  0.51100000000E-03 0.  1.
         22    1    1    0    0    0 -0.47863368742E+01  0.12043621331E+01  0.27229518981E+02  0.27673203876E+02  0.00000000000E+00 0.  1.
</event>
<event>
 5    1  0.8778268E-005  0.9118800E+02  0.7818608E-02  0.1130116E+00
         25   -1    0    0    0    0  0.00000000000E+00  0.00000000000E+00  0.99999998245E-14  0.12500000000E+03  0.12500000000E+03 0.  0.
        -11    1    3    3    0    0  0.29570669471E+02  0.17961147838E+02  0.27719774336E+02  0.44332981111E+02  0.51100000000E-03 0.  1.
         23    2    1    0    0    0 -0.18154672604E+02  0.55656677264E+00  0.23487486832E+02  0.95308857523E+02  0.90566077428E+02 0.  0.
         11    1    3    3    0    0 -0.47725342075E+02 -0.17404581065E+02 -0.42322875044E+01  0.50975876412E+02  0.51100000000E-03 0. -1.
         22    1    1    0    0    0  0.18154672604E+02 -0.55656677264E+00 -0.23487486832E+02  0.29691142477E+02  0.00000000000E+00 0.  1.
</event>
<event>
 5    1  0.8778268E-005  0.9118800E+02  0.7818608E-02  0.1130116E+00
         25   -1    0    0    0    0  0.00000000000E+00  0.00000000000E+00  0.99999998245E-14  0.12500000000E+03  0.12500000000E+03 0.  0.
        -11    1    3    3    0    0  0.40431830092E+02  0.13271318626E+02  0.32348283729E+02  0.53453458664E+02  0.51100000000E-03 0.  1.
         23    2    1    0    0    0  0.20878292110E+00  0.12217474425E+02  0.28641709878E+02  0.93860670907E+02  0.88544721620E+02 0.  0.
         11    1    3    3    0    0 -0.40223047171E+02 -0.10538442011E+01 -0.37065738512E+01  0.40407212243E+02  0.51100000000E-03 0. -1.
         22    1    1    0    0    0 -0.20878292110E+00 -0.12217474425E+02 -0.28641709878E+02  0.31139329093E+02  0.00000000000E+00 0.  1.
</event>
<event>
 5    1  0.8778268E-005  0.9118800E+02  0.7818608E-02  0.1130116E+00
         25   -1    0    0    0    0  0.00000000000E+00  0.00000000000E+00  0.99999998245E-14  0.12500000000E+03  0.12500000000E+03 0.  0.
        -11    1    3    3    0    0 -0.53604123757E+02  0.21462824042E+02  0.73789806628E+01  0.58210860288E+02  0.51100000000E-03 0.  1.
         23    2    1    0    0    0 -0.17132910529E+02  0.21159172845E+02  0.12501157036E+02  0.95041259274E+02  0.90195980057E+02 0.  0.
         11    1    3    3    0    0  0.36471213228E+02 -0.30365119717E+00  0.51221763736E+01  0.36830398986E+02  0.51100000000E-03 0. -1.
         22    1    1    0    0    0  0.17132910529E+02 -0.21159172845E+02 -0.12501157036E+02  0.29958740726E+02  0.00000000000E+00 0.  1.
</event>
<event>
 5    1  0.8778268E-005  0.9118800E+02  0.7818608E-02  0.1130116E+00
         25   -1    0    0    0    0  0.00000000000E+00  0.00000000000E+00  0.99999998245E-14  0.12500000000E+03  0.12500000000E+03 0.  0.
        -11    1    3    3    0    0  0.49362590496E+02  0.26462816551E+02 -0.25194747670E+02  0.61414341246E+02  0.51100000000E-03 0. -1.
         23    2    1    0    0    0  0.21106556627E+02  0.18845219563E+02 -0.70789893861E+01  0.95832533128E+02  0.91285997184E+02 0.  0.
         11    1    3    3    0    0 -0.28256033870E+02 -0.76175969878E+01  0.18115758284E+02  0.34418191881E+02  0.51100000000E-03 0.  1.
         22    1    1    0    0    0 -0.21106556627E+02 -0.18845219563E+02  0.70789893861E+01  0.29167466872E+02  0.00000000000E+00 0. -1.
</event>
<event>
 5    1  0.8778268E-005  0.9118800E+02  0.7818608E-02  0.1130116E+00
         25   -1    0    0    0    0  0.00000000000E+00  0.00000000000E+00  0.99999998245E-14  0.12500000000E+03  0.12500000000E+03 0.  0.
        -11    1    3    3    0    0 -0.12148716308E+02 -0.23555683570E+02  0.21320229256E+02  0.34014904266E+02  0.51100000000E-03 0. -1.
         23    2    1    0    0    0  0.66426914985E+01  0.27513601007E+02 -0.76738978742E+01  0.95674033702E+02  0.91068701679E+02 0.  0.
         11    1    3    3    0    0  0.18791407807E+02  0.51069284577E+02 -0.28994127130E+02  0.61659129437E+02  0.51100000000E-03 0.  1.
         22    1    1    0    0    0 -0.66426914985E+01 -0.27513601007E+02  0.76738978742E+01  0.29325966298E+02  0.00000000000E+00 0.  1.
</event>
<event>
 5    1  0.8778268E-005  0.9118800E+02  0.7818608E-02  0.1130116E+00
         25   -1    0    0    0    0  0.00000000000E+00  0.00000000000E+00  0.99999998245E-14  0.12500000000E+03  0.12500000000E+03 0.  0.
        -11    1    3    3    0    0  0.31981131062E+02 -0.42831721681E+02 -0.15884857911E+02  0.55764485448E+02  0.51100000000E-03 0. -1.
         23    2    1    0    0    0  0.94040851786E+00 -0.29155540976E+02  0.47164305565E+01  0.95450471155E+02  0.90761323199E+02 0.  0.
         11    1    3    3    0    0 -0.31040722544E+02  0.13676180705E+02  0.20601288467E+02  0.39685985707E+02  0.51100000000E-03 0.  1.
         22    1    1    0    0    0 -0.94040851786E+00  0.29155540976E+02 -0.47164305565E+01  0.29549528845E+02  0.00000000000E+00 0. -1.
</event>
<event>
 5    1  0.8778268E-005  0.9118800E+02  0.7818608E-02  0.1130116E+00
         25   -1    0    0    0    0  0.00000000000E+00  0.00000000000E+00  0.99999998245E-14  0.12500000000E+03  0.12500000000E+03 0.  0.
        -11    1    3    3    0    0  0.37759703147E+02 -0.31802944415E+02  0.34779531906E+02  0.60389057743E+02  0.51100000000E-03 0.  1.
         23    2    1    0    0    0  0.22349942619E+02 -0.19778104926E+02  0.70178523472E+01  0.94341500018E+02  0.89220933668E+02 0.  0.
         11    1    3    3    0    0 -0.15409760528E+02  0.12024839488E+02 -0.27761679559E+02  0.33952442275E+02  0.51100000000E-03 0. -1.
         22    1    1    0    0    0 -0.22349942619E+02  0.19778104926E+02 -0.70178523472E+01  0.30658499982E+02  0.00000000000E+00 0. -1.
</event>
<event>
 5    1  0.8778268E-005  0.9118800E+02  0.7818608E-02  0.1130116E+00
         25   -1    0    0    0    0  0.00000000000E+00  0.00000000000E+00  0.99999998245E-14  0.12500000000E+03  0.12500000000E+03 0.  0.
        -11    1    3    3    0    0 -0.38291444423E+02 -0.56077823612E+01  0.32940309840E+02  0.50820723643E+02  0.51100000000E-03 0. -1.
         23    2    1    0    0    0 -0.13851620124E+01  0.17779952201E+02  0.23461537371E+02  0.95529860708E+02  0.90870595778E+02 0.  0.
         11    1    3    3    0    0  0.36906282410E+02  0.23387734562E+02 -0.94787724696E+01  0.44709137065E+02  0.51100000000E-03 0.  1.
         22    1    1    0    0    0  0.13851620124E+01 -0.17779952201E+02 -0.23461537371E+02  0.29470139292E+02  0.00000000000E+00 0.  1.
</event>
<event>
 5    1  0.8778268E-005  0.9118800E+02  0.7818608E-02  0.1130116E+00
         25   -1    0    0    0    0  0.00000000000E+00  0.00000000000E+00  0.99999998245E-14  0.12500000000E+03  0.12500000000E+03 0.  0.
        -11    1    3    3    0    0  0.52058706387E+02  0.29219867066E+02 -0.38706859623E+01  0.59823839329E+02  0.51100000000E-03 0. -1.
         23    2    1    0    0    0  0.31308493313E+02  0.30135307875E+01  0.55285683535E+00  0.93541952190E+02  0.88093632275E+02 0.  0.
         11    1    3    3    0    0 -0.20750213074E+02 -0.26206336278E+02  0.44235427977E+01  0.33718112860E+02  0.51100000000E-03 0.  1.
         22    1    1    0    0    0 -0.31308493313E+02 -0.30135307875E+01 -0.55285683535E+00  0.31458047810E+02  0.00000000000E+00 0. -1.
</event>
<event>
 5    1  0.8778268E-005  0.9118800E+02  0.7818608E-02  0.1130116E+00
         25   -1    0    0    0    0  0.00000000000E+00  0.00000000000E+00  0.99999998245E-14  0.12500000000E+03  0.12500000000E+03 0.  0.
        -11    1    3    3    0    0 -0.96856265815E+01  0.23254263847E+02  0.28537202163E+02  0.38064997792E+02  0.51100000000E-03 0. -1.
         23    2    1    0    0    0  0.28794761919E+02 -0.13302641610E+01 -0.62929095722E+01  0.95495616807E+02  0.90823478251E+02 0.  0.
         11    1    3    3    0    0  0.38480388501E+02 -0.24584528008E+02 -0.34830111736E+02  0.57430619014E+02  0.51100000000E-03 0.  1.
         22    1    1    0    0    0 -0.28794761919E+02  0.13302641610E+01  0.62929095722E+01  0.29504383193E+02  0.00000000000E+00 0.  1.
</event>
<event>
 5    1  0.8778268E-005  0.9118800E+02  0.7818608E-02  0.1130116E+00
         25   -1    0    0    0    0  0.00000000000E+00  0.00000000000E+00  0.99999998245E-14  0.12500000000E+03  0.12500000000E+03 0.  0.
        -11    1    3    3    0    0 -0.34164213689E+02 -0.52591124642E+01 -0.12022801055E+02  0.36597807398E+02  0.51100000000E-03 0.  1.
         23    2    1    0    0    0  0.80655634261E+01 -0.13202216179E+01  0.28556722034E+02  0.95296756543E+02  0.90549374022E+02 0.  0.
         11    1    3    3    0    0  0.42229777115E+02  0.39388908463E+01  0.40579523090E+02  0.58698949145E+02  0.51100000000E-03 0. -1.
         22    1    1    0    0    0 -0.80655634261E+01  0.13202216179E+01 -0.28556722034E+02  0.29703243457E+02  0.00000000000E+00 0. -1.
</event>
<event>
 5    1  0.8778268E-005  0.9118800E+02  0.7818608E-02  0.1130116E+00
         25   -1    0    0    0    0  0.00000000000E+00  0.00000000000E+00  0.99999998245E-14  0.12500000000E+03  0.12500000000E+03 0.  0.
        -11    1    3    3    0    0  0.22005418075E+01  0.22731276647E+02 -0.15232166921E+02  0.27451270128E+02  0.51100000000E-03 0. -1.
         23    2    1    0    0    0  0.31369882839E+02 -0.23298171361E+02  0.50558232445E+01  0.85599039520E+02  0.75991840878E+02 0.  0.
         11    1    3    3    0    0  0.29169341031E+02 -0.46029448007E+02  0.20287990166E+02  0.58147769392E+02  0.51100000000E-03 0.  1.
         22    1    1    0    0    0 -0.31369882839E+02  0.23298171361E+02 -0.50558232445E+01  0.39400960480E+02  0.00000000000E+00 0.  1.
</event>
<event>
 5    1  0.8778268E-005  0.9118800E+02  0.7818608E-02  0.1130116E+00
         25   -1    0    0    0    0  0.00000000000E+00  0.00000000000E+00  0.99999998245E-14  0.12500000000E+03  0.12500000000E+03 0.  0.
        -11    1    3    3    0    0 -0.17153465553E+02 -0.45561734833E+01  0.30074319863E+02  0.34920836370E+02  0.51100000000E-03 0.  1.
         23    2    1    0    0    0  0.51677155897E+01  0.31605712793E+02 -0.80132580427E+01  0.91987295324E+02  0.85859325824E+02 0.  0.
         11    1    3    3    0    0  0.22321181142E+02  0.36161886276E+02 -0.38087577906E+02  0.57066458955E+02  0.51100000000E-03 0. -1.
         22    1    1    0    0    0 -0.51677155897E+01 -0.31605712793E+02  0.80132580427E+01  0.33012704676E+02  0.00000000000E+00 0. -1.
</event>
<event>
 5    1  0.8778268E-005  0.9118800E+02  0.7818608E-02  0.1130116E+00
         25   -1    0    0    0    0  0.00000000000E+00  0.00000000000E+00  0.99999998245E-14  0.12500000000E+03  0.12500000000E+03 0.  0.
        -11    1    3    3    0    0  0.79305764575E+01 -0.20586937448E+02 -0.58026953967E+02  0.62079331693E+02  0.51100000000E-03 0. -1.
         23    2    1    0    0    0 -0.10061321540E+01 -0.79880351177E+01 -0.28261247318E+02  0.95614304383E+02  0.90986680870E+02 0.  0.
         11    1    3    3    0    0 -0.89367086115E+01  0.12598902331E+02  0.29765706649E+02  0.33534972690E+02  0.51100000000E-03 0.  1.
         22    1    1    0    0    0  0.10061321540E+01  0.79880351177E+01  0.28261247318E+02  0.29385695617E+02  0.00000000000E+00 0. -1.
</event>
<event>
 5    1  0.8778268E-005  0.9118800E+02  0.7818608E-02  0.1130116E+00
         25   -1    0    0    0    0  0.00000000000E+00  0.00000000000E+00  0.99999998245E-14  0.12500000000E+03  0.12500000000E+03 0.  0.
        -11    1    3    3    0    0 -0.13622143656E+02 -0.21877070099E+02 -0.49012700885E+02  0.55375209636E+02  0.51100000000E-03 0. -1.
         23    2    1    0    0    0 -0.19619778336E+02 -0.19643015156E+02 -0.91209195125E+01  0.95777150736E+02  0.91210129283E+02 0.  0.
         11    1    3    3    0    0 -0.59976346796E+01  0.22340549427E+01  0.39891781373E+02  0.40401941099E+02  0.51100000000E-03 0.  1.
         22    1    1    0    0    0  0.19619778336E+02  0.19643015156E+02  0.91209195125E+01  0.29222849264E+02  0.00000000000E+00 0. -1.
</event>
<event>
 5    1  0.8778268E-005  0.9118800E+02  0.7818608E-02  0.1130116E+00
         25   -1    0    0    0    0  0.00000000000E+00  0.00000000000E+00  0.99999998245E-14  0.12500000000E+03  0.12500000000E+03 0.  0.
        -11    1    3    3    0    0  0.39998230267E+02  0.21704207500E+02 -0.29178241430E+02  0.54058309453E+02  0.51100000000E-03 0.  1.
         23    2    1    0    0    0  0.32373748050E+02  0.18459250533E+02  0.33100079737E+01  0.87586638138E+02  0.79193809951E+02 0.  0.
         11    1    3    3    0    0 -0.76244822172E+01 -0.32449569673E+01  0.32488249404E+02  0.33528328685E+02  0.51100000000E-03 0. -1.
         22    1    1    0    0    0 -0.32373748050E+02 -0.18459250533E+02 -0.33100079737E+01  0.37413361862E+02  0.00000000000E+00 0.  1.
</event>
<event>
 5    1  0.8778268E-005  0.9118800E+02  0.7818608E-02  0.1130116E+00
         25   -1    0    0    0    0  0.00000000000E+00  0.00000000000E+00  0.99999998245E-14  0.12500000000E+03  0.12500000000E+03 0.  0.
        -11    1    3    3    0    0  0.21892485204E+02  0.22330614629E+02 -0.23893323447E+02  0.39355154221E+02  0.51100000000E-03 0. -1.
         23    2    1    0    0    0 -0.25730983787E+02  0.12713976189E+02  0.49779024625E+01  0.95870835403E+02  0.91338430306E+02 0.  0.
         11    1    3    3    0    0 -0.47623468992E+02 -0.96166384397E+01  0.28871225910E+02  0.56515681182E+02  0.51100000000E-03 0.  1.
         22    1    1    0    0    0  0.25730983787E+02 -0.12713976189E+02 -0.49779024625E+01  0.29129164597E+02  0.00000000000E+00 0.  1.
</event>
<event>
 5    1  0.8778268E-005  0.9118800E+02  0.7818608E-02  0.1130116E+00
         25   -1    0    0    0    0  0.00000000000E+00  0.00000000000E+00  0.99999998245E-14  0.12500000000E+03  0.12500000000E+03 0.  0.
        -11    1    3    3    0    0  0.24517667247E+02 -0.18651294445E+02  0.13373009151E+02  0.33583093451E+02  0.51100000000E-03 0. -1.
         23    2    1    0    0    0 -0.16515718424E+02 -0.32086571142E+02 -0.15709716679E+02  0.85641237305E+02  0.76061220910E+02 0.  0.
         11    1    3    3    0    0 -0.41033385671E+02 -0.13435276697E+02 -0.29082725831E+02  0.52058143855E+02  0.51100000000E-03 0.  1.
         22    1    1    0    0    0  0.16515718424E+02  0.32086571142E+02  0.15709716679E+02  0.39358762695E+02  0.00000000000E+00 0.  1.
</event>
<event>
 5    1  0.8778268E-005  0.9118800E+02  0.7818608E-02  0.1130116E+00
         25   -1    0    0    0    0  0.00000000000E+00  0.00000000000E+00  0.99999998245E-14  0.12500000000E+03  0.12500000000E+03 0.  0.
        -11    1    3    3    0    0  0.19152921383E+02 -0.56331970680E+02  0.80278944182E+01  0.60038091302E+02  0.51100000000E-03 0. -1.
         23    2    1    0    0    0  0.58253126840E+01 -0.25735463979E+02 -0.84979027001E+01  0.97278839772E+02  0.93245428537E+02 0.  0.
         11    1    3    3    0    0 -0.13327608699E+02  0.30596506701E+02 -0.16525797118E+02  0.37240748469E+02  0.51100000000E-03 0.  1.
         22    1    1    0    0    0 -0.58253126840E+01  0.25735463979E+02  0.84979027001E+01  0.27721160228E+02  0.00000000000E+00 0. -1.
</event>
<event>
 5    1  0.8778268E-005  0.9118800E+02  0.7818608E-02  0.1130116E+00
         25   -1    0    0    0    0  0.00000000000E+00  0.00000000000E+00  0.99999998245E-14  0.12500000000E+03  0.12500000000E+03 0.  0.
        -11    1    3    3    0    0 -0.36299875944E+02  0.18532709795E+02  0.26911998565E+02  0.48840536370E+02  0.51100000000E-03 0.  1.
         23    2    1    0    0    0  0.30389565912E+01 -0.63957731623E+01  0.28692354017E+02  0.95446787813E+02  0.90756250216E+02 0.  0.
         11    1    3    3    0    0  0.39338832535E+02 -0.24928482958E+02  0.17803554517E+01  0.46606251443E+02  0.51100000000E-03 0. -1.
         22    1    1    0    0    0 -0.30389565912E+01  0.63957731623E+01 -0.28692354017E+02  0.29553212187E+02  0.00000000000E+00 0. -1.
</event>
<event>
 5    1  0.8778268E-005  0.9118800E+02  0.7818608E-02  0.1130116E+00
         25   -1    0    0    0    0  0.00000000000E+00  0.00000000000E+00  0.99999998245E-14  0.12500000000E+03  0.12500000000E+03 0.  0.
        -11    1    3    3    0    0  0.29867248209E+01  0.25033121447E+02  0.37911383621E+02  0.45528570183E+02  0.51100000000E-03 0.  1.
         23    2    1    0    0    0  0.50721200163E+01 -0.21827812267E+02  0.16929108463E+02  0.96914870427E+02  0.92756226781E+02 0.  0.
         11    1    3    3    0    0  0.20853951953E+01 -0.46860933714E+02 -0.20982275158E+02  0.51386300244E+02  0.51100000000E-03 0. -1.
         22    1    1    0    0    0 -0.50721200163E+01  0.21827812267E+02 -0.16929108463E+02  0.28085129573E+02  0.00000000000E+00 0.  1.
</event>
<event>
 5    1  0.8778268E-005  0.9118800E+02  0.7818608E-02  0.1130116E+00
         25   -1    0    0    0    0  0.00000000000E+00  0.00000000000E+00  0.99999998245E-14  0.12500000000E+03  0.12500000000E+03 0.  0.
        -11    1    3    3    0    0 -0.12230265139E+02 -0.37396758667E+02  0.19245623757E+02  0.43800581939E+02  0.51100000000E-03 0.  1.
         23    2    1    0    0    0  0.15485806349E+02  0.58678194170E+01  0.24477069673E+02  0.95447192303E+02  0.90756807325E+02 0.  0.
         11    1    3    3    0    0  0.27716071488E+02  0.43264578084E+02  0.52314459159E+01  0.51646610364E+02  0.51100000000E-03 0. -1.
         22    1    1    0    0    0 -0.15485806349E+02 -0.58678194170E+01 -0.24477069673E+02  0.29552807697E+02  0.00000000000E+00 0. -1.
</event>
<event>
 5    1  0.8778268E-005  0.9118800E+02  0.7818608E-02  0.1130116E+00
         25   -1    0    0    0    0  0.00000000000E+00  0.00000000000E+00  0.99999998245E-14  0.12500000000E+03  0.12500000000E+03 0.  0.
        -11    1    3    3    0    0  0.12369529345E+02  0.54894255661E+02  0.21638756242E+01  0.56312227081E+02  0.51100000000E-03 0.  1.
         23    2    1    0    0    0  0.58586400739E+01  0.20930941554E+02  0.20210955085E+02  0.95319860456E+02  0.90581262489E+02 0.  0.
         11    1    3    3    0    0 -0.65108892713E+01 -0.33963314107E+02  0.18047079461E+02  0.39007633376E+02  0.51100000000E-03 0. -1.
         22    1    1    0    0    0 -0.58586400739E+01 -0.20930941554E+02 -0.20210955085E+02  0.29680139544E+02  0.00000000000E+00 0.  1.
</event>
<event>
 5    1  0.8778268E-005  0.9118800E+02  0.7818608E-02  0.1130116E+00
         25   -1    0    0    0    0  0.00000000000E+00  0.00000000000E+00  0.99999998245E-14  0.12500000000E+03  0.12500000000E+03 0.  0.
        -11    1    3    3    0    0  0.20572828702E+02  0.39360822874E+02 -0.71997918603E+00  0.44418847671E+02  0.51100000000E-03 0. -1.
         23    2    1    0    0    0 -0.13285309812E+02  0.10549945748E+02 -0.24780097997E+02  0.94969114751E+02  0.90095941572E+02 0.  0.
         11    1    3    3    0    0 -0.33858138514E+02 -0.28810877126E+02 -0.24060118811E+02  0.50550267080E+02  0.51100000000E-03 0.  1.
         22    1    1    0    0    0  0.13285309812E+02 -0.10549945748E+02  0.24780097997E+02  0.30030885249E+02  0.00000000000E+00 0.  1.
</event>
<event>
 5    1  0.8778268E-005  0.9118800E+02  0.7818608E-02  0.1130116E+00
         25   -1    0    0    0    0  0.00000000000E+00  0.00000000000E+00  0.99999998245E-14  0.12500000000E+03  0.12500000000E+03 0.  0.
        -11    1    3    3    0    0 -0.46628833670E+01  0.52724388588E+02 -0.22321391747E+02  0.57444304879E+02  0.51100000000E-03 0.  1.
         23    2    1    0    0    0  0.71012208941E+01  0.16135370850E+02 -0.23168274954E+02  0.95887348197E+02  0.91361025876E+02 0.  0.
         11    1    3    3    0    0  0.11764104261E+02 -0.36589017738E+02 -0.84688320715E+00  0.38443043317E+02  0.51100000000E-03 0. -1.
         22    1    1    0    0    0 -0.71012208941E+01 -0.16135370850E+02  0.23168274954E+02  0.29112651803E+02  0.00000000000E+00 0.  1.
</event>
<event>
 5    1  0.8778268E-005  0.9118800E+02  0.7818608E-02  0.1130116E+00
         25   -1    0    0    0    0  0.00000000000E+00  0.00000000000E+00  0.99999998245E-14  0.12500000000E+03  0.12500000000E+03 0.  0.
        -11    1    3    3    0    0 -0.10990524334E+02 -0.35455282885E+02  0.35569932320E+02  0.51410979324E+02  0.51100000000E-03 0. -1.
         23    2    1    0    0    0 -0.12652117992E+02  0.95734161332E+01  0.20821323078E+02  0.98822645648E+02  0.95292504490E+02 0.  0.
         11    1    3    3    0    0 -0.16615936584E+01  0.45028699018E+02 -0.14748609242E+02  0.47411666324E+02  0.51100000000E-03 0.  1.
         22    1    1    0    0    0  0.12652117992E+02 -0.95734161332E+01 -0.20821323078E+02  0.26177354352E+02  0.00000000000E+00 0.  1.
</event>
<event>
 5    1  0.8778268E-005  0.9118800E+02  0.7818608E-02  0.1130116E+00
         25   -1    0    0    0    0  0.00000000000E+00  0.00000000000E+00  0.99999998245E-14  0.12500000000E+03  0.12500000000E+03 0.  0.
        -11    1    3    3    0    0 -0.17722017258E+02  0.26571304336E+02 -0.36410835137E+02  0.48434006910E+02  0.51100000000E-03 0. -1.
         23    2    1    0    0    0  0.18523502096E+02 -0.11968195636E+01 -0.21785898700E+02  0.96378716151E+02  0.92030859160E+02 0.  0.
         11    1    3    3    0    0  0.36245519354E+02 -0.27768123900E+02  0.14624936436E+02  0.47944709240E+02  0.51100000000E-03 0.  1.
         22    1    1    0    0    0 -0.18523502096E+02  0.11968195636E+01  0.21785898700E+02  0.28621283849E+02  0.00000000000E+00 0.  1.
</event>
<event>
 5    1  0.8778268E-005  0.9118800E+02  0.7818608E-02  0.1130116E+00
         25   -1    0    0    0    0  0.00000000000E+00  0.00000000000E+00  0.99999998245E-14  0.12500000000E+03  0.12500000000E+03 0.  0.
        -11    1    3    3    0    0  0.15830154715E+02 -0.39466905869E+02  0.34199890613E+02  0.54569799114E+02  0.51100000000E-03 0.  1.
         23    2    1    0    0    0 -0.14834975747E+01 -0.29721593387E+02 -0.12583057723E+01  0.95214815563E+02  0.90436186844E+02 0.  0.
         11    1    3    3    0    0 -0.17313652289E+02  0.97453124818E+01 -0.35458196386E+02  0.40645016449E+02  0.51100000000E-03 0. -1.
         22    1    1    0    0    0  0.14834975747E+01  0.29721593387E+02  0.12583057723E+01  0.29785184437E+02  0.00000000000E+00 0.  1.
</event>
<event>
 5    1  0.8778268E-005  0.9118800E+02  0.7818608E-02  0.1130116E+00
         25   -1    0    0    0    0  0.00000000000E+00  0.00000000000E+00  0.99999998245E-14  0.12500000000E+03  0.12500000000E+03 0.  0.
        -11    1    3    3    0    0  0.65245164733E+01 -0.42661768823E+02 -0.14951373595E+02  0.45674275111E+02  0.51100000000E-03 0.  1.
         23    2    1    0    0    0  0.23745830522E+02  0.59253446359E+01 -0.13063847329E+02  0.97257644597E+02  0.93217011051E+02 0.  0.
         11    1    3    3    0    0  0.17221314049E+02  0.48587113459E+02  0.18875262659E+01  0.51583369486E+02  0.51100000000E-03 0. -1.
         22    1    1    0    0    0 -0.23745830522E+02 -0.59253446359E+01  0.13063847329E+02  0.27742355403E+02  0.00000000000E+00 0. -1.
</event>
<event>
 5    1  0.8778268E-005  0.9118800E+02  0.7818608E-02  0.1130116E+00
         25   -1    0    0    0    0  0.00000000000E+00  0.00000000000E+00  0.99999998245E-14  0.12500000000E+03  0.12500000000E+03 0.  0.
        -11    1    3    3    0    0  0.22134344142E+02 -0.45026097454E+02  0.34376987951E+02  0.60819864711E+02  0.51100000000E-03 0.  1.
         23    2    1    0    0    0  0.18524372694E+02 -0.22576834912E+02  0.10058215271E+02  0.94112566426E+02  0.88899615334E+02 0.  0.
         11    1    3    3    0    0 -0.36099714487E+01  0.22449262542E+02 -0.24318772681E+02  0.33292701715E+02  0.51100000000E-03 0. -1.
         22    1    1    0    0    0 -0.18524372694E+02  0.22576834912E+02 -0.10058215271E+02  0.30887433574E+02  0.00000000000E+00 0.  1.
</event>
<event>
 5    1  0.8778268E-005  0.9118800E+02  0.7818608E-02  0.1130116E+00
         25   -1    0    0    0    0  0.00000000000E+00  0.00000000000E+00  0.99999998245E-14  0.12500000000E+03  0.12500000000E+03 0.  0.
        -11    1    3    3    0    0 -0.14042273813E+02 -0.90710928017E+01  0.36958800350E+02  0.40563815181E+02  0.51100000000E-03 0. -1.
         23    2    1    0    0    0  0.28338089846E+02  0.96544591147E+00  0.17088855255E+01  0.96594019791E+02  0.92322830046E+02 0.  0.
         11    1    3    3    0    0  0.42380363659E+02  0.10036538713E+02 -0.35249914825E+02  0.56030204610E+02  0.51100000000E-03 0.  1.
         22    1    1    0    0    0 -0.28338089846E+02 -0.96544591147E+00 -0.17088855255E+01  0.28405980209E+02  0.00000000000E+00 0.  1.
</event>
<event>
 5    1  0.8778268E-005  0.9118800E+02  0.7818608E-02  0.1130116E+00
         25   -1    0    0    0    0  0.00000000000E+00  0.00000000000E+00  0.99999998245E-14  0.12500000000E+03  0.12500000000E+03 0.  0.
        -11    1    3    3    0    0  0.12989180151E+02 -0.17896006995E+02  0.34250684086E+02  0.40768802140E+02  0.51100000000E-03 0.  1.
         23    2    1    0    0    0 -0.28558609315E+02 -0.97322221650E+00  0.13666877531E+01  0.96392148580E+02  0.92049101815E+02 0.  0.
         11    1    3    3    0    0 -0.41547789465E+02  0.16922784778E+02 -0.32883996333E+02  0.55623346440E+02  0.51100000000E-03 0. -1.
         22    1    1    0    0    0  0.28558609315E+02  0.97322221650E+00 -0.13666877531E+01  0.28607851420E+02  0.00000000000E+00 0. -1.
</event>
<event>
 5    1  0.8778268E-005  0.9118800E+02  0.7818608E-02  0.1130116E+00
         25   -1    0    0    0    0  0.00000000000E+00  0.00000000000E+00  0.99999998245E-14  0.12500000000E+03  0.12500000000E+03 0.  0.
        -11    1    3    3    0    0  0.75147513632E+01 -0.15238224079E+02  0.28034508153E+02  0.32781223418E+02  0.51100000000E-03 0. -1.
         23    2    1    0    0    0 -0.27064452079E+02 -0.21884367367E+01 -0.18452747526E+02  0.92170474982E+02  0.86125598665E+02 0.  0.
         11    1    3    3    0    0 -0.34579203442E+02  0.13049787342E+02 -0.46487255680E+02  0.59389251563E+02  0.51100000000E-03 0.  1.
         22    1    1    0    0    0  0.27064452079E+02  0.21884367367E+01  0.18452747526E+02  0.32829525018E+02  0.00000000000E+00 0.  1.
</event>
<event>
 5    1  0.8778268E-005  0.9118800E+02  0.7818608E-02  0.1130116E+00
         25   -1    0    0    0    0  0.00000000000E+00  0.00000000000E+00  0.99999998245E-14  0.12500000000E+03  0.12500000000E+03 0.  0.
        -11    1    3    3    0    0  0.36553067016E+02  0.11519143643E+02 -0.48679220946E+02  0.61955499600E+02  0.51100000000E-03 0.  1.
         23    2    1    0    0    0  0.18152248623E+02 -0.34972995109E+00 -0.22752003298E+02  0.95891923884E+02  0.91367286109E+02 0.  0.
         11    1    3    3    0    0 -0.18400818393E+02 -0.11868873594E+02  0.25927217648E+02  0.33936424283E+02  0.51100000000E-03 0. -1.
         22    1    1    0    0    0 -0.18152248623E+02  0.34972995109E+00  0.22752003298E+02  0.29108076116E+02  0.00000000000E+00 0.  1.
</event>
<event>
 5    1  0.8778268E-005  0.9118800E+02  0.7818608E-02  0.1130116E+00
         25   -1    0    0    0    0  0.00000000000E+00  0.00000000000E+00  0.99999998245E-14  0.12500000000E+03  0.12500000000E+03 0.  0.
        -11    1    3    3    0    0  0.49610000664E+02 -0.19315931761E+02 -0.31120926877E+02  0.61666599352E+02  0.51100000000E-03 0.  1.
         23    2    1    0    0    0  0.20678355262E+02 -0.15704563457E+02 -0.13491333935E+02  0.95738356487E+02  0.91156947743E+02 0.  0.
         11    1    3    3    0    0 -0.28931645402E+02  0.36113683041E+01  0.17629592942E+02  0.34071757135E+02  0.51100000000E-03 0. -1.
         22    1    1    0    0    0 -0.20678355262E+02  0.15704563457E+02  0.13491333935E+02  0.29261643513E+02  0.00000000000E+00 0.  1.
</event>
<event>
 5    1  0.8778268E-005  0.9118800E+02  0.7818608E-02  0.1130116E+00
         25   -1    0    0    0    0  0.00000000000E+00  0.00000000000E+00  0.99999998245E-14  0.12500000000E+03  0.12500000000E+03 0.  0.
        -11    1    3    3    0    0  0.17501245438E+02  0.96928556251E+01 -0.31319715548E+02  0.37164090522E+02  0.51100000000E-03 0. -1.
         23    2    1    0    0    0  0.93004227306E+01 -0.51225218708E+01  0.25990830798E+02  0.96924007072E+02  0.92768538676E+02 0.  0.
         11    1    3    3    0    0 -0.82008227074E+01 -0.14815377496E+02  0.57310546346E+02  0.59759916551E+02  0.51100000000E-03 0.  1.
         22    1    1    0    0    0 -0.93004227306E+01  0.51225218708E+01 -0.25990830798E+02  0.28075992928E+02  0.00000000000E+00 0.  1.
</event>
<event>
 5    1  0.8778268E-005  0.9118800E+02  0.7818608E-02  0.1130116E+00
         25   -1    0    0    0    0  0.00000000000E+00  0.00000000000E+00  0.99999998245E-14  0.12500000000E+03  0.12500000000E+03 0.  0.
        -11    1    3    3    0    0 -0.26155133565E+02  0.13418799621E+02  0.10809280054E+02  0.31320851372E+02  0.51100000000E-03 0.  1.
         23    2    1    0    0    0  0.25459814327E+02 -0.16491850244E+02 -0.75550951271E+01  0.93738798289E+02  0.88372504617E+02 0.  0.
         11    1    3    3    0    0  0.51614947893E+02 -0.29910649865E+02 -0.18364375181E+02  0.62417946917E+02  0.51100000000E-03 0. -1.
         22    1    1    0    0    0 -0.25459814327E+02  0.16491850244E+02  0.75550951271E+01  0.31261201711E+02  0.00000000000E+00 0. -1.
</event>
<event>
 5    1  0.8778268E-005  0.9118800E+02  0.7818608E-02  0.1130116E+00
         25   -1    0    0    0    0  0.00000000000E+00  0.00000000000E+00  0.99999998245E-14  0.12500000000E+03  0.12500000000E+03 0.  0.
        -11    1    3    3    0    0  0.71937352055E+01  0.12572289511E+02 -0.33980584569E+02  0.36939036502E+02  0.51100000000E-03 0.  1.
         23    2    1    0    0    0 -0.22575566155E+02  0.48539753298E+01  0.16895267946E+02  0.96387636541E+02  0.92042974394E+02 0.  0.
         11    1    3    3    0    0 -0.29769301360E+02 -0.77183141813E+01  0.50875852515E+02  0.59448600040E+02  0.51100000000E-03 0. -1.
         22    1    1    0    0    0  0.22575566155E+02 -0.48539753298E+01 -0.16895267946E+02  0.28612363459E+02  0.00000000000E+00 0. -1.
</event>
<event>
 5    1  0.8778268E-005  0.9118800E+02  0.7818608E-02  0.1130116E+00
         25   -1    0    0    0    0  0.00000000000E+00  0.00000000000E+00  0.99999998245E-14  0.12500000000E+03  0.12500000000E+03 0.  0.
        -11    1    3    3    0    0  0.11362616621E+02  0.32622446001E+02  0.62357281617E+01  0.35102953515E+02  0.51100000000E-03 0. -1.
         23    2    1    0    0    0 -0.10678867339E+02 -0.23143053557E+02  0.14567816122E+02  0.95642540945E+02  0.91025464768E+02 0.  0.
         11    1    3    3    0    0 -0.22041483960E+02 -0.55765499558E+02  0.83320879601E+01  0.60539587430E+02  0.51100000000E-03 0.  1.
         22    1    1    0    0    0  0.10678867339E+02  0.23143053557E+02 -0.14567816122E+02  0.29357459055E+02  0.00000000000E+00 0.  1.
</event>
<event>
 5    1  0.8778268E-005  0.9118800E+02  0.7818608E-02  0.1130116E+00
         25   -1    0    0    0    0  0.00000000000E+00  0.00000000000E+00  0.99999998245E-14  0.12500000000E+03  0.12500000000E+03 0.  0.
        -11    1    3    3    0    0  0.52483848284E+01  0.17767369005E+02 -0.40562431035E+02  0.44593001204E+02  0.51100000000E-03 0. -1.
         23    2    1    0    0    0 -0.18329802095E+02 -0.17897160916E+02 -0.85883263131E+01  0.97980574348E+02  0.94181439716E+02 0.  0.
         11    1    3    3    0    0 -0.23578186924E+02 -0.35664529922E+02  0.31974104722E+02  0.53387573144E+02  0.51100000000E-03 0.  1.
         22    1    1    0    0    0  0.18329802095E+02  0.17897160916E+02  0.85883263131E+01  0.27019425652E+02  0.00000000000E+00 0.  1.
</event>
<event>
 5    1  0.8778268E-005  0.9118800E+02  0.7818608E-02  0.1130116E+00
         25   -1    0    0    0    0  0.00000000000E+00  0.00000000000E+00  0.99999998245E-14  0.12500000000E+03  0.12500000000E+03 0.  0.
        -11    1    3    3    0    0  0.40501300539E+02  0.20581879016E+02  0.11761413527E+02  0.46928668611E+02  0.51100000000E-03 0.  1.
         23    2    1    0    0    0  0.17365428409E+02  0.36685611335E+00 -0.24823697323E+02  0.94702992952E+02  0.89725961896E+02 0.  0.
         11    1    3    3    0    0 -0.23135872129E+02 -0.20215022902E+02 -0.36585110850E+02  0.47774324342E+02  0.51100000000E-03 0. -1.
         22    1    1    0    0    0 -0.17365428409E+02 -0.36685611335E+00  0.24823697323E+02  0.30297007048E+02  0.00000000000E+00 0. -1.
</event>
<event>
 5    1  0.8778268E-005  0.9118800E+02  0.7818608E-02  0.1130116E+00
         25   -1    0    0    0    0  0.00000000000E+00  0.00000000000E+00  0.99999998245E-14  0.12500000000E+03  0.12500000000E+03 0.  0.
        -11    1    3    3    0    0  0.10992615031E+02 -0.93167114135E+01 -0.46004337061E+02  0.48208274450E+02  0.51100000000E-03 0.  1.
         23    2    1    0    0    0  0.14692768668E+02  0.23455056319E+02 -0.14783488631E+02  0.93622163010E+02  0.88207373573E+02 0.  0.
         11    1    3    3    0    0  0.37001536372E+01  0.32771767732E+02  0.31220848430E+02  0.45413888560E+02  0.51100000000E-03 0. -1.
         22    1    1    0    0    0 -0.14692768668E+02 -0.23455056319E+02  0.14783488631E+02  0.31377836990E+02  0.00000000000E+00 0.  1.
</event>
<event>
 5    1  0.8778268E-005  0.9118800E+02  0.7818608E-02  0.1130116E+00
         25   -1    0    0    0    0  0.00000000000E+00  0.00000000000E+00  0.99999998245E-14  0.12500000000E+03  0.12500000000E+03 0.  0.
        -11    1    3    3    0    0 -0.16787205718E+02  0.29060276936E+02 -0.13576563173E+02  0.36202666190E+02  0.51100000000E-03 0.  1.
         23    2    1    0    0    0  0.29813657412E+02 -0.45575826338E+01 -0.23659471704E+01  0.94747340055E+02  0.89787721954E+02 0.  0.
         11    1    3    3    0    0  0.46600863130E+02 -0.33617859570E+02  0.11210616003E+02  0.58544673865E+02  0.51100000000E-03 0. -1.
         22    1    1    0    0    0 -0.29813657412E+02  0.45575826338E+01  0.23659471704E+01  0.30252659945E+02  0.00000000000E+00 0. -1.
</event>
<event>
 5    1  0.8778268E-005  0.9118800E+02  0.7818608E-02  0.1130116E+00
         25   -1    0    0    0    0  0.00000000000E+00  0.00000000000E+00  0.99999998245E-14  0.12500000000E+03  0.12500000000E+03 0.  0.
        -11    1    3    3    0    0 -0.32375165372E+02 -0.87257595965E+01 -0.31658267582E+02  0.46114380837E+02  0.51100000000E-03 0.  1.
         23    2    1    0    0    0 -0.53965851724E+01 -0.34008286097E+02 -0.92615260984E+01  0.89342426885E+02  0.81918292958E+02 0.  0.
         11    1    3    3    0    0  0.26978580199E+02 -0.25282526501E+02  0.22396741484E+02  0.43228046048E+02  0.51100000000E-03 0. -1.
         22    1    1    0    0    0  0.53965851724E+01  0.34008286097E+02  0.92615260984E+01  0.35657573115E+02  0.00000000000E+00 0. -1.
</event>
<event>
 5    1  0.8778268E-005  0.9118800E+02  0.7818608E-02  0.1130116E+00
         25   -1    0    0    0    0  0.00000000000E+00  0.00000000000E+00  0.99999998245E-14  0.12500000000E+03  0.12500000000E+03 0.  0.
        -11    1    3    3    0    0 -0.43103153709E+01  0.29077288513E+02  0.36899193768E+02  0.47176456278E+02  0.51100000000E-03 0.  1.
         23    2    1    0    0    0  0.24826584555E+00 -0.18634219491E+02  0.19130252806E+02  0.98293028169E+02  0.94595227375E+02 0.  0.
         11    1    3    3    0    0  0.45585812165E+01 -0.47711508004E+02 -0.17768940962E+02  0.51116571891E+02  0.51100000000E-03 0. -1.
         22    1    1    0    0    0 -0.24826584555E+00  0.18634219491E+02 -0.19130252806E+02  0.26706971831E+02  0.00000000000E+00 0. -1.
</event>
<event>
 5    1  0.8778268E-005  0.9118800E+02  0.7818608E-02  0.1130116E+00
         25   -1    0    0    0    0  0.00000000000E+00  0.00000000000E+00  0.99999998245E-14  0.12500000000E+03  0.12500000000E+03 0.  0.
        -11    1    3    3    0    0 -0.18210338122E+02 -0.13071645520E+02  0.26145459302E+02  0.34439357913E+02  0.51100000000E-03 0. -1.
         23    2    1    0    0    0  0.24400260860E+02 -0.18358701370E+01 -0.16280015693E+02  0.95609830552E+02  0.90980534391E+02 0.  0.
         11    1    3    3    0    0  0.42610598982E+02  0.11235775383E+02 -0.42425474995E+02  0.61170472639E+02  0.51100000000E-03 0.  1.
         22    1    1    0    0    0 -0.24400260860E+02  0.18358701370E+01  0.16280015693E+02  0.29390169448E+02  0.00000000000E+00 0.  1.
</event>
<event>
 5    1  0.8778268E-005  0.9118800E+02  0.7818608E-02  0.1130116E+00
         25   -1    0    0    0    0  0.00000000000E+00  0.00000000000E+00  0.99999998245E-14  0.12500000000E+03  0.12500000000E+03 0.  0.
        -11    1    3    3    0    0  0.12228983014E+02 -0.45782925075E+02 -0.64329941831E+01  0.47822668980E+02  0.51100000000E-03 0.  1.
         23    2    1    0    0    0 -0.22791866737E+02 -0.14661595646E+02 -0.12665171078E+02  0.95086154800E+02  0.90258178022E+02 0.  0.
         11    1    3    3    0    0 -0.35020849750E+02  0.31121329429E+02 -0.62321768951E+01  0.47263485819E+02  0.51100000000E-03 0. -1.
         22    1    1    0    0    0  0.22791866737E+02  0.14661595646E+02  0.12665171078E+02  0.29913845200E+02  0.00000000000E+00 0.  1.
</event>
<event>
 5    1  0.8778268E-005  0.9118800E+02  0.7818608E-02  0.1130116E+00
         25   -1    0    0    0    0  0.00000000000E+00  0.00000000000E+00  0.99999998245E-14  0.12500000000E+03  0.12500000000E+03 0.  0.
        -11    1    3    3    0    0  0.28476187436E+02 -0.21722193484E+02  0.53674109731E+01  0.36215411656E+02  0.51100000000E-03 0.  1.
         23    2    1    0    0    0 -0.30562891910E+00  0.29135880436E+02 -0.46148579454E+01  0.95499324555E+02  0.90828581068E+02 0.  0.
         11    1    3    3    0    0 -0.28781816355E+02  0.50858073920E+02 -0.99822689185E+01  0.59283912899E+02  0.51100000000E-03 0. -1.
         22    1    1    0    0    0  0.30562891910E+00 -0.29135880436E+02  0.46148579454E+01  0.29500675445E+02  0.00000000000E+00 0. -1.
</event>
<event>
 5    1  0.8778268E-005  0.9118800E+02  0.7818608E-02  0.1130116E+00
         25   -1    0    0    0    0  0.00000000000E+00  0.00000000000E+00  0.99999998245E-14  0.12500000000E+03  0.12500000000E+03 0.  0.
        -11    1    3    3    0    0 -0.98527746260E+01  0.65982037076E+01 -0.37977238359E+02  0.39785475913E+02  0.51100000000E-03 0.  1.
         23    2    1    0    0    0 -0.22822946388E+02 -0.23735297611E+02  0.24687872988E+01  0.91979610159E+02  0.85848136495E+02 0.  0.
         11    1    3    3    0    0 -0.12970171762E+02 -0.30333501319E+02  0.40446025658E+02  0.52194134245E+02  0.51100000000E-03 0. -1.
         22    1    1    0    0    0  0.22822946388E+02  0.23735297611E+02 -0.24687872988E+01  0.33020389841E+02  0.00000000000E+00 0. -1.
</event>
<event>
 5    1  0.8778268E-005  0.9118800E+02  0.7818608E-02  0.1130116E+00
         25   -1    0    0    0    0  0.00000000000E+00  0.00000000000E+00  0.99999998245E-14  0.12500000000E+03  0.12500000000E+03 0.  0.
        -11    1    3    3    0    0  0.34595474977E+02  0.36266162915E+02 -0.25216793665E+02  0.56106756674E+02  0.51100000000E-03 0. -1.
         23    2    1    0    0    0  0.17411905174E+02  0.16250691974E+01 -0.24646378929E+02  0.94779819888E+02  0.89832928105E+02 0.  0.
         11    1    3    3    0    0 -0.17183569803E+02 -0.34641093718E+02  0.57041473575E+00  0.38673063214E+02  0.51100000000E-03 0.  1.
         22    1    1    0    0    0 -0.17411905174E+02 -0.16250691974E+01  0.24646378929E+02  0.30220180112E+02  0.00000000000E+00 0. -1.
</event>
<event>
 5    1  0.8778268E-005  0.9118800E+02  0.7818608E-02  0.1130116E+00
         25   -1    0    0    0    0  0.00000000000E+00  0.00000000000E+00  0.99999998245E-14  0.12500000000E+03  0.12500000000E+03 0.  0.
        -11    1    3    3    0    0 -0.17449825373E+01  0.35700880540E+02  0.83800871370E+01  0.36712718451E+02  0.51100000000E-03 0. -1.
         23    2    1    0    0    0 -0.20518999542E+02  0.34850824834E+02 -0.26720237986E+02  0.76527528927E+02  0.59218934741E+02 0.  0.
         11    1    3    3    0    0 -0.18774017005E+02 -0.85005570584E+00 -0.35100325123E+02  0.39814810476E+02  0.51100000000E-03 0.  1.
         22    1    1    0    0    0  0.20518999542E+02 -0.34850824834E+02  0.26720237986E+02  0.48472471073E+02  0.00000000000E+00 0.  1.
</event>
<event>
 5    1  0.8778268E-005  0.9118800E+02  0.7818608E-02  0.1130116E+00
         25   -1    0    0    0    0  0.00000000000E+00  0.00000000000E+00  0.99999998245E-14  0.12500000000E+03  0.12500000000E+03 0.  0.
        -11    1    3    3    0    0  0.20607778930E+01  0.19855486864E+02  0.54978075927E+02  0.58489964926E+02  0.51100000000E-03 0.  1.
         23    2    1    0    0    0  0.26548399094E+01 -0.65024930064E+01  0.27687251915E+02  0.96435782720E+02  0.92108336647E+02 0.  0.
         11    1    3    3    0    0  0.59406201640E+00 -0.26357979870E+02 -0.27290824012E+02  0.37945817794E+02  0.51100000000E-03 0. -1.
         22    1    1    0    0    0 -0.26548399094E+01  0.65024930064E+01 -0.27687251915E+02  0.28564217280E+02  0.00000000000E+00 0.  1.
</event>
<event>
 5    1  0.8778268E-005  0.9118800E+02  0.7818608E-02  0.1130116E+00
         25   -1    0    0    0    0  0.00000000000E+00  0.00000000000E+00  0.99999998245E-14  0.12500000000E+03  0.12500000000E+03 0.  0.
        -11    1    3    3    0    0 -0.40523851386E+02  0.80789635932E+01  0.20009399665E+01  0.41369746735E+02  0.51100000000E-03 0.  1.
         23    2    1    0    0    0 -0.97848818564E+00 -0.21541933066E+02 -0.20122471388E+02  0.95505489085E+02  0.90837064414E+02 0.  0.
         11    1    3    3    0    0  0.39545363201E+02 -0.29620896659E+02 -0.22123411355E+02  0.54135742350E+02  0.51100000000E-03 0. -1.
         22    1    1    0    0    0  0.97848818564E+00  0.21541933066E+02  0.20122471388E+02  0.29494510915E+02  0.00000000000E+00 0. -1.
</event>
<event>
 5    1  0.8778268E-005  0.9118800E+02  0.7818608E-02  0.1130116E+00
         25   -1    0    0    0    0  0.00000000000E+00  0.00000000000E+00  0.99999998245E-14  0.12500000000E+03  0.12500000000E+03 0.  0.
        -11    1    3    3    0    0  0.36232475807E+02 -0.41766825558E+02 -0.14490843983E+02  0.57159816129E+02  0.51100000000E-03 0. -1.
         23    2    1    0    0    0  0.82607511506E-01 -0.27357399658E+02 -0.57906731139E+01  0.97036344388E+02  0.92919783131E+02 0.  0.
         11    1    3    3    0    0 -0.36149868296E+02  0.14409425900E+02  0.87001708694E+01  0.39876528259E+02  0.51100000000E-03 0.  1.
         22    1    1    0    0    0 -0.82607511506E-01  0.27357399658E+02  0.57906731139E+01  0.27963655612E+02  0.00000000000E+00 0. -1.
</event>
<event>
 5    1  0.8778268E-005  0.9118800E+02  0.7818608E-02  0.1130116E+00
         25   -1    0    0    0    0  0.00000000000E+00  0.00000000000E+00  0.99999998245E-14  0.12500000000E+03  0.12500000000E+03 0.  0.
        -11    1    3    3    0    0  0.41338664623E+01  0.29199673547E+02 -0.18807039908E+02  0.34977343203E+02  0.51100000000E-03 0. -1.
         23    2    1    0    0    0 -0.17169909463E+02 -0.22979521145E+02  0.44936287765E+01  0.95964558164E+02  0.91466603420E+02 0.  0.
         11    1    3    3    0    0 -0.21303775925E+02 -0.52179194692E+02  0.23300668685E+02  0.60987214961E+02  0.51100000000E-03 0.  1.
         22    1    1    0    0    0  0.17169909463E+02  0.22979521145E+02 -0.44936287765E+01  0.29035441836E+02  0.00000000000E+00 0.  1.
</event>
<event>
 5    1  0.8778268E-005  0.9118800E+02  0.7818608E-02  0.1130116E+00
         25   -1    0    0    0    0  0.00000000000E+00  0.00000000000E+00  0.99999998245E-14  0.12500000000E+03  0.12500000000E+03 0.  0.
        -11    1    3    3    0    0  0.60362056530E+01 -0.14022700271E+02  0.43678952878E+02  0.46270107266E+02  0.51100000000E-03 0.  1.
         23    2    1    0    0    0  0.21529096877E+02 -0.22408501472E+02 -0.59423822054E+00  0.93919522693E+02  0.88627764686E+02 0.  0.
         11    1    3    3    0    0  0.15492891224E+02 -0.83858012014E+01 -0.44273191099E+02  0.47649415428E+02  0.51100000000E-03 0. -1.
         22    1    1    0    0    0 -0.21529096877E+02  0.22408501472E+02  0.59423822054E+00  0.31080477307E+02  0.00000000000E+00 0. -1.
</event>
<event>
 5    1  0.8778268E-005  0.9118800E+02  0.7818608E-02  0.1130116E+00
         25   -1    0    0    0    0  0.00000000000E+00  0.00000000000E+00  0.99999998245E-14  0.12500000000E+03  0.12500000000E+03 0.  0.
        -11    1    3    3    0    0  0.42269077841E+02  0.13514193299E+01  0.33763158943E+02  0.54115175116E+02  0.51100000000E-03 0.  1.
         23    2    1    0    0    0  0.20644900924E+01  0.64334908941E+01  0.29353512747E+02  0.94878900501E+02  0.89970690368E+02 0.  0.
         11    1    3    3    0    0 -0.40204587749E+02  0.50820715642E+01 -0.44096461963E+01  0.40763725385E+02  0.51100000000E-03 0. -1.
         22    1    1    0    0    0 -0.20644900924E+01 -0.64334908941E+01 -0.29353512747E+02  0.30121099499E+02  0.00000000000E+00 0.  1.
</event>
<event>
 5    1  0.8778268E-005  0.9118800E+02  0.7818608E-02  0.1130116E+00
         25   -1    0    0    0    0  0.00000000000E+00  0.00000000000E+00  0.99999998245E-14  0.12500000000E+03  0.12500000000E+03 0.  0.
        -11    1    3    3    0    0  0.11126572080E+02 -0.19969462500E+02 -0.25623308791E+02  0.34338520534E+02  0.51100000000E-03 0. -1.
         23    2    1    0    0    0 -0.21156239072E+02  0.59654164975E+01  0.19523377558E+02  0.95600426586E+02  0.90967613173E+02 0.  0.
         11    1    3    3    0    0 -0.32282811153E+02  0.25934878998E+02  0.45146686349E+02  0.61261906052E+02  0.51100000000E-03 0.  1.
         22    1    1    0    0    0  0.21156239072E+02 -0.59654164975E+01 -0.19523377558E+02  0.29399573414E+02  0.00000000000E+00 0.  1.
</event>
<event>
 5    1  0.8778268E-005  0.9118800E+02  0.7818608E-02  0.1130116E+00
         25   -1    0    0    0    0  0.00000000000E+00  0.00000000000E+00  0.99999998245E-14  0.12500000000E+03  0.12500000000E+03 0.  0.
        -11    1    3    3    0    0  0.43183555798E+00  0.53278760565E+02  0.29204013679E+02  0.60759256287E+02  0.51100000000E-03 0.  1.
         23    2    1    0    0    0 -0.32254282712E+01  0.18834294527E+02  0.21484859343E+02  0.96247031129E+02  0.91851825144E+02 0.  0.
         11    1    3    3    0    0 -0.36572638292E+01 -0.34444466038E+02 -0.77191543353E+01  0.35487774843E+02  0.51100000000E-03 0. -1.
         22    1    1    0    0    0  0.32254282712E+01 -0.18834294527E+02 -0.21484859343E+02  0.28752968871E+02  0.00000000000E+00 0.  1.
</event>
<event>
 5    1  0.8778268E-005  0.9118800E+02  0.7818608E-02  0.1130116E+00
         25   -1    0    0    0    0  0.00000000000E+00  0.00000000000E+00  0.99999998245E-14  0.12500000000E+03  0.12500000000E+03 0.  0.
        -11    1    3    3    0    0  0.34907054362E+02  0.15097651502E+02 -0.46344388105E+02  0.59952012762E+02  0.51100000000E-03 0. -1.
         23    2    1    0    0    0  0.25236498548E+02  0.47083156276E+01 -0.12930602360E+02  0.96255442734E+02  0.91863271679E+02 0.  0.
         11    1    3    3    0    0 -0.96705558132E+01 -0.10389335874E+02  0.33413785746E+02  0.36303429972E+02  0.51100000000E-03 0.  1.
         22    1    1    0    0    0 -0.25236498548E+02 -0.47083156276E+01  0.12930602360E+02  0.28744557266E+02  0.00000000000E+00 0. -1.
</event>
<event>
 5    1  0.8778268E-005  0.9118800E+02  0.7818608E-02  0.1130116E+00
         25   -1    0    0    0    0  0.00000000000E+00  0.00000000000E+00  0.99999998245E-14  0.12500000000E+03  0.12500000000E+03 0.  0.
        -11    1    3    3    0    0  0.52843955658E+02 -0.18083810963E+02 -0.14042932553E+02  0.57590900526E+02  0.51100000000E-03 0.  1.
         23    2    1    0    0    0  0.24617486039E+02 -0.12078533467E+02  0.10661636690E+02  0.95579223557E+02  0.90938473097E+02 0.  0.
         11    1    3    3    0    0 -0.28226469619E+02  0.60052774959E+01  0.24704569243E+02  0.37988323031E+02  0.51100000000E-03 0. -1.
         22    1    1    0    0    0 -0.24617486039E+02  0.12078533467E+02 -0.10661636690E+02  0.29420776443E+02  0.00000000000E+00 0.  1.
</event>
<event>
 5    1  0.8778268E-005  0.9118800E+02  0.7818608E-02  0.1130116E+00
         25   -1    0    0    0    0  0.00000000000E+00  0.00000000000E+00  0.99999998245E-14  0.12500000000E+03  0.12500000000E+03 0.  0.
        -11    1    3    3    0    0  0.11115398437E+02 -0.12236116935E+02  0.54119119746E+02  0.56587576043E+02  0.51100000000E-03 0. -1.
         23    2    1    0    0    0  0.21703648863E+02  0.29103228634E+01  0.20231688953E+02  0.95186587062E+02  0.90397161269E+02 0.  0.
         11    1    3    3    0    0  0.10588250425E+02  0.15146439798E+02 -0.33887430793E+02  0.38599011019E+02  0.51100000000E-03 0.  1.
         22    1    1    0    0    0 -0.21703648863E+02 -0.29103228634E+01 -0.20231688953E+02  0.29813412938E+02  0.00000000000E+00 0. -1.
</event>
<event>
 5    1  0.8778268E-005  0.9118800E+02  0.7818608E-02  0.1130116E+00
         25   -1    0    0    0    0  0.00000000000E+00  0.00000000000E+00  0.99999998245E-14  0.12500000000E+03  0.12500000000E+03 0.  0.
        -11    1    3    3    0    0  0.41568889420E+02 -0.30233763295E+02 -0.12225320557E+02  0.52834756303E+02  0.51100000000E-03 0. -1.
         23    2    1    0    0    0  0.19528254914E+02 -0.11022237825E+02  0.18997674212E+02  0.95610306362E+02  0.90981188114E+02 0.  0.
         11    1    3    3    0    0 -0.22040634506E+02  0.19211525469E+02  0.31222994769E+02  0.42775550060E+02  0.51100000000E-03 0.  1.
         22    1    1    0    0    0 -0.19528254914E+02  0.11022237825E+02 -0.18997674212E+02  0.29389693638E+02  0.00000000000E+00 0. -1.
</event>
<event>
 5    1  0.8778268E-005  0.9118800E+02  0.7818608E-02  0.1130116E+00
         25   -1    0    0    0    0  0.00000000000E+00  0.00000000000E+00  0.99999998245E-14  0.12500000000E+03  0.12500000000E+03 0.  0.
        -11    1    3    3    0    0  0.89537624980E+01  0.59646044298E+02 -0.84385777066E+01  0.60901806683E+02  0.51100000000E-03 0.  1.
         23    2    1    0    0    0  0.15922452133E+01  0.25977314679E+02 -0.13409422145E+02  0.95722556037E+02  0.91135278620E+02 0.  0.
         11    1    3    3    0    0 -0.73615172847E+01 -0.33668729619E+02 -0.49708444387E+01  0.34820749354E+02  0.51100000000E-03 0. -1.
         22    1    1    0    0    0 -0.15922452133E+01 -0.25977314679E+02  0.13409422145E+02  0.29277443963E+02  0.00000000000E+00 0.  1.
</event>
<event>
 5    1  0.8778268E-005  0.9118800E+02  0.7818608E-02  0.1130116E+00
         25   -1    0    0    0    0  0.00000000000E+00  0.00000000000E+00  0.99999998245E-14  0.12500000000E+03  0.12500000000E+03 0.  0.
        -11    1    3    3    0    0  0.33896709452E+01  0.23401913584E+02 -0.26253246427E+02  0.35332313492E+02  0.51100000000E-03 0.  1.
         23    2    1    0    0    0  0.16641184841E+02 -0.17695218298E+02  0.16132817333E+02  0.95839794606E+02  0.91295939951E+02 0.  0.
         11    1    3    3    0    0  0.13251513895E+02 -0.41097131882E+02  0.42386063760E+02  0.60507481114E+02  0.51100000000E-03 0. -1.
         22    1    1    0    0    0 -0.16641184841E+02  0.17695218298E+02 -0.16132817333E+02  0.29160205394E+02  0.00000000000E+00 0. -1.
</event>
<event>
 5    1  0.8778268E-005  0.9118800E+02  0.7818608E-02  0.1130116E+00
         25   -1    0    0    0    0  0.00000000000E+00  0.00000000000E+00  0.99999998245E-14  0.12500000000E+03  0.12500000000E+03 0.  0.
        -11    1    3    3    0    0 -0.17910747702E+02 -0.23711800056E+02 -0.13896894314E+02  0.32804999878E+02  0.51100000000E-03 0.  1.
         23    2    1    0    0    0  0.12541473827E+02  0.27436779083E+02  0.29995511081E+01  0.94683952780E+02  0.89699432523E+02 0.  0.
         11    1    3    3    0    0  0.30452221529E+02  0.51148579140E+02  0.16896445422E+02  0.61878952902E+02  0.51100000000E-03 0. -1.
         22    1    1    0    0    0 -0.12541473827E+02 -0.27436779083E+02 -0.29995511081E+01  0.30316047220E+02  0.00000000000E+00 0. -1.
</event>
<event>
 5    1  0.8778268E-005  0.9118800E+02  0.7818608E-02  0.1130116E+00
         25   -1    0    0    0    0  0.00000000000E+00  0.00000000000E+00  0.99999998245E-14  0.12500000000E+03  0.12500000000E+03 0.  0.
        -11    1    3    3    0    0  0.25894737625E+02 -0.33719879679E+02  0.62605789396E+01  0.42973975510E+02  0.51100000000E-03 0.  1.
         23    2    1    0    0    0 -0.20882811836E+02 -0.71526584015E+01  0.16121598230E+02  0.97665803800E+02  0.93762737535E+02 0.  0.
         11    1    3    3    0    0 -0.46777549461E+02  0.26567221277E+02  0.98610192905E+01  0.54691828290E+02  0.51100000000E-03 0. -1.
         22    1    1    0    0    0  0.20882811836E+02  0.71526584015E+01 -0.16121598230E+02  0.27334196200E+02  0.00000000000E+00 0. -1.
</event>
<event>
 5    1  0.8778268E-005  0.9118800E+02  0.7818608E-02  0.1130116E+00
         25   -1    0    0    0    0  0.00000000000E+00  0.00000000000E+00  0.99999998245E-14  0.12500000000E+03  0.12500000000E+03 0.  0.
        -11    1    3    3    0    0  0.29892952577E+02 -0.33812821006E+02 -0.31685392487E+02  0.55143989477E+02  0.51100000000E-03 0. -1.
         23    2    1    0    0    0  0.23429731755E+02 -0.18039119919E+02  0.44491282552E+01  0.95097543248E+02  0.90273948690E+02 0.  0.
         11    1    3    3    0    0 -0.64632208219E+01  0.15773701087E+02  0.36134520742E+02  0.39953553771E+02  0.51100000000E-03 0.  1.
         22    1    1    0    0    0 -0.23429731755E+02  0.18039119919E+02 -0.44491282552E+01  0.29902456752E+02  0.00000000000E+00 0. -1.
</event>
<event>
 5    1  0.8778268E-005  0.9118800E+02  0.7818608E-02  0.1130116E+00
         25   -1    0    0    0    0  0.00000000000E+00  0.00000000000E+00  0.99999998245E-14  0.12500000000E+03  0.12500000000E+03 0.  0.
        -11    1    3    3    0    0  0.32942652767E+02  0.43572701996E+01  0.17520202729E+02  0.37565431966E+02  0.51100000000E-03 0. -1.
         23    2    1    0    0    0 -0.20000975712E+02  0.22054699184E+02  0.44789666391E+01  0.94891696699E+02  0.89988466898E+02 0.  0.
         11    1    3    3    0    0 -0.52943628479E+02  0.17697428984E+02 -0.13041236090E+02  0.57326264732E+02  0.51100000000E-03 0.  1.
         22    1    1    0    0    0  0.20000975712E+02 -0.22054699184E+02 -0.44789666391E+01  0.30108303301E+02  0.00000000000E+00 0.  1.
</event>
<event>
 5    1  0.8778268E-005  0.9118800E+02  0.7818608E-02  0.1130116E+00
         25   -1    0    0    0    0  0.00000000000E+00  0.00000000000E+00  0.99999998245E-14  0.12500000000E+03  0.12500000000E+03 0.  0.
        -11    1    3    3    0    0  0.70021737813E+01 -0.32710493055E+02  0.19905012389E+02  0.38925779530E+02  0.51100000000E-03 0. -1.
         23    2    1    0    0    0  0.23308938368E+02  0.44475457900E+01 -0.18587711901E+02  0.94857168263E+02  0.89940491803E+02 0.  0.
         11    1    3    3    0    0  0.16306764586E+02  0.37158038845E+02 -0.38492724290E+02  0.55931388733E+02  0.51100000000E-03 0.  1.
         22    1    1    0    0    0 -0.23308938368E+02 -0.44475457900E+01  0.18587711901E+02  0.30142831737E+02  0.00000000000E+00 0.  1.
</event>
<event>
 5    1  0.8778268E-005  0.9118800E+02  0.7818608E-02  0.1130116E+00
         25   -1    0    0    0    0  0.00000000000E+00  0.00000000000E+00  0.99999998245E-14  0.12500000000E+03  0.12500000000E+03 0.  0.
        -11    1    3    3    0    0  0.26276204276E+02 -0.59313678830E+01  0.22540123812E+02  0.35123741512E+02  0.51100000000E-03 0. -1.
         23    2    1    0    0    0 -0.26236281474E+02  0.15025397823E+02  0.47591254561E+01  0.94393557534E+02  0.89293837321E+02 0.  0.
         11    1    3    3    0    0 -0.52512485749E+02  0.20956765706E+02 -0.17780998356E+02  0.59269816022E+02  0.51100000000E-03 0.  1.
         22    1    1    0    0    0  0.26236281474E+02 -0.15025397823E+02 -0.47591254561E+01  0.30606442466E+02  0.00000000000E+00 0.  1.
</event>
<event>
 5    1  0.8778268E-005  0.9118800E+02  0.7818608E-02  0.1130116E+00
         25   -1    0    0    0    0  0.00000000000E+00  0.00000000000E+00  0.99999998245E-14  0.12500000000E+03  0.12500000000E+03 0.  0.
        -11    1    3    3    0    0 -0.22905174457E+02 -0.53378139639E+02 -0.16150424989E+02  0.60288548132E+02  0.51100000000E-03 0.  1.
         23    2    1    0    0    0 -0.42191822167E+01 -0.32065099536E+02 -0.52590807075E+00  0.92654232330E+02  0.86824870184E+02 0.  0.
         11    1    3    3    0    0  0.18685992240E+02  0.21313040103E+02  0.15624516918E+02  0.32365684198E+02  0.51100000000E-03 0. -1.
         22    1    1    0    0    0  0.42191822167E+01  0.32065099536E+02  0.52590807075E+00  0.32345767670E+02  0.00000000000E+00 0.  1.
</event>
<event>
 5    1  0.8778268E-005  0.9118800E+02  0.7818608E-02  0.1130116E+00
         25   -1    0    0    0    0  0.00000000000E+00  0.00000000000E+00  0.99999998245E-14  0.12500000000E+03  0.12500000000E+03 0.  0.
        -11    1    3    3    0    0 -0.33039545819E+02  0.17730010182E+02 -0.21746839127E+02  0.43346163166E+02  0.51100000000E-03 0.  1.
         23    2    1    0    0    0  0.17373809798E+02 -0.25585650606E+01 -0.20908068198E+02  0.97695369663E+02  0.93802145049E+02 0.  0.
         11    1    3    3    0    0  0.50413355616E+02 -0.20288575243E+02  0.83877092838E+00  0.54349206497E+02  0.51100000000E-03 0. -1.
         22    1    1    0    0    0 -0.17373809798E+02  0.25585650606E+01  0.20908068198E+02  0.27304630337E+02  0.00000000000E+00 0.  1.
</event>
<event>
 5    1  0.8778268E-005  0.9118800E+02  0.7818608E-02  0.1130116E+00
         25   -1    0    0    0    0  0.00000000000E+00  0.00000000000E+00  0.99999998245E-14  0.12500000000E+03  0.12500000000E+03 0.  0.
        -11    1    3    3    0    0 -0.23939961343E+02  0.54202935444E+02  0.23686428632E+01  0.59301689934E+02  0.51100000000E-03 0. -1.
         23    2    1    0    0    0 -0.18296764700E+02  0.15086232493E+02 -0.76661400499E+01  0.10007740558E+03  0.96924462316E+02 0.  0.
         11    1    3    3    0    0  0.56431966424E+01 -0.39116702951E+02 -0.10034782913E+02  0.40775715646E+02  0.51100000000E-03 0.  1.
         22    1    1    0    0    0  0.18296764700E+02 -0.15086232493E+02  0.76661400499E+01  0.24922594419E+02  0.00000000000E+00 0. -1.
</event>
<event>
 5    1  0.8778268E-005  0.9118800E+02  0.7818608E-02  0.1130116E+00
         25   -1    0    0    0    0  0.00000000000E+00  0.00000000000E+00  0.99999998245E-14  0.12500000000E+03  0.12500000000E+03 0.  0.
        -11    1    3    3    0    0  0.21325327844E+02  0.25693501691E+01  0.27308040475E+02  0.34743348180E+02  0.51100000000E-03 0.  1.
         23    2    1    0    0    0 -0.10569619600E+02  0.21186568416E+02 -0.19472369758E+02  0.94344482981E+02  0.89225112749E+02 0.  0.
         11    1    3    3    0    0 -0.31894947444E+02  0.18617218247E+02 -0.46780410233E+02  0.59601134800E+02  0.51100000000E-03 0. -1.
         22    1    1    0    0    0  0.10569619600E+02 -0.21186568416E+02  0.19472369758E+02  0.30655517019E+02  0.00000000000E+00 0. -1.
</event>
<event>
 5    1  0.8778268E-005  0.9118800E+02  0.7818608E-02  0.1130116E+00
         25   -1    0    0    0    0  0.00000000000E+00  0.00000000000E+00  0.99999998245E-14  0.12500000000E+03  0.12500000000E+03 0.  0.
        -11    1    3    3    0    0 -0.16639603168E+02  0.29661108745E+02 -0.30969082067E+02  0.45997193500E+02  0.51100000000E-03 0.  1.
         23    2    1    0    0    0  0.18546512128E+02  0.20570613300E+02  0.46867703358E+01  0.96909270927E+02  0.92748680485E+02 0.  0.
         11    1    3    3    0    0  0.35186115296E+02 -0.90904954444E+01  0.35655852403E+02  0.50912077427E+02  0.51100000000E-03 0. -1.
         22    1    1    0    0    0 -0.18546512128E+02 -0.20570613300E+02 -0.46867703358E+01  0.28090729073E+02  0.00000000000E+00 0. -1.
</event>
<event>
 5    1  0.8778268E-005  0.9118800E+02  0.7818608E-02  0.1130116E+00
         25   -1    0    0    0    0  0.00000000000E+00  0.00000000000E+00  0.99999998245E-14  0.12500000000E+03  0.12500000000E+03 0.  0.
        -11    1    3    3    0    0 -0.77559131098E+01  0.23184332749E+02  0.55582505340E+02  0.60721350226E+02  0.51100000000E-03 0. -1.
         23    2    1    0    0    0 -0.10244701590E+02  0.26370232240E+01  0.26923584464E+02  0.96072725629E+02  0.91614307874E+02 0.  0.
         11    1    3    3    0    0 -0.24887884798E+01 -0.20547309525E+02 -0.28658920876E+02  0.35351375403E+02  0.51100000000E-03 0.  1.
         22    1    1    0    0    0  0.10244701590E+02 -0.26370232240E+01 -0.26923584464E+02  0.28927274371E+02  0.00000000000E+00 0. -1.
</event>
<event>
 5    1  0.8778268E-005  0.9118800E+02  0.7818608E-02  0.1130116E+00
         25   -1    0    0    0    0  0.00000000000E+00  0.00000000000E+00  0.99999998245E-14  0.12500000000E+03  0.12500000000E+03 0.  0.
        -11    1    3    3    0    0  0.30429428403E+02  0.38767609344E+01  0.33425717785E+02  0.45368028367E+02  0.51100000000E-03 0.  1.
         23    2    1    0    0    0  0.17278138919E+02  0.29672226798E+02 -0.13717427294E+01  0.90636402899E+02  0.83869545871E+02 0.  0.
         11    1    3    3    0    0 -0.13151289484E+02  0.25795465863E+02 -0.34797460514E+02  0.45268374531E+02  0.51100000000E-03 0. -1.
         22    1    1    0    0    0 -0.17278138919E+02 -0.29672226798E+02  0.13717427294E+01  0.34363597101E+02  0.00000000000E+00 0. -1.
</event>
<event>
 5    1  0.8778268E-005  0.9118800E+02  0.7818608E-02  0.1130116E+00
         25   -1    0    0    0    0  0.00000000000E+00  0.00000000000E+00  0.99999998245E-14  0.12500000000E+03  0.12500000000E+03 0.  0.
        -11    1    3    3    0    0 -0.36245588562E+02  0.13729333531E+02 -0.14228917207E+02  0.41288005214E+02  0.51100000000E-03 0. -1.
         23    2    1    0    0    0  0.18939081463E+02  0.10192796960E+02 -0.18334508801E+02  0.96738079869E+02  0.92517673811E+02 0.  0.
         11    1    3    3    0    0  0.55184670025E+02 -0.35365365714E+01 -0.41055915939E+01  0.55450074655E+02  0.51100000000E-03 0.  1.
         22    1    1    0    0    0 -0.18939081463E+02 -0.10192796960E+02  0.18334508801E+02  0.28261920131E+02  0.00000000000E+00 0.  1.
</event>
<event>
 5    1  0.8778268E-005  0.9118800E+02  0.7818608E-02  0.1130116E+00
         25   -1    0    0    0    0  0.00000000000E+00  0.00000000000E+00  0.99999998245E-14  0.12500000000E+03  0.12500000000E+03 0.  0.
        -11    1    3    3    0    0 -0.20210906937E+02  0.32805688083E+02 -0.46744100864E+02  0.60578089237E+02  0.51100000000E-03 0. -1.
         23    2    1    0    0    0 -0.78284512148E+01  0.61015969015E+01 -0.27545268043E+02  0.95721066878E+02  0.91133236087E+02 0.  0.
         11    1    3    3    0    0  0.12382455723E+02 -0.26704091182E+02  0.19198832821E+02  0.35142977641E+02  0.51100000000E-03 0.  1.
         22    1    1    0    0    0  0.78284512148E+01 -0.61015969015E+01  0.27545268043E+02  0.29278933122E+02  0.00000000000E+00 0. -1.
</event>
<event>
 5    1  0.8778268E-005  0.9118800E+02  0.7818608E-02  0.1130116E+00
         25   -1    0    0    0    0  0.00000000000E+00  0.00000000000E+00  0.99999998245E-14  0.12500000000E+03  0.12500000000E+03 0.  0.
        -11    1    3    3    0    0 -0.49623115447E+02 -0.82009077861E+01 -0.14635694079E+02  0.52382363603E+02  0.51100000000E-03 0.  1.
         23    2    1    0    0    0 -0.11968116422E+02  0.14384249450E+02 -0.21137438120E+02  0.96769985242E+02  0.92560770905E+02 0.  0.
         11    1    3    3    0    0  0.37654999025E+02  0.22585157236E+02 -0.65017440416E+01  0.44387621639E+02  0.51100000000E-03 0. -1.
         22    1    1    0    0    0  0.11968116422E+02 -0.14384249450E+02  0.21137438120E+02  0.28230014758E+02  0.00000000000E+00 0.  1.
</event>
<event>
 5    1  0.8778268E-005  0.9118800E+02  0.7818608E-02  0.1130116E+00
         25   -1    0    0    0    0  0.00000000000E+00  0.00000000000E+00  0.99999998245E-14  0.12500000000E+03  0.12500000000E+03 0.  0.
        -11    1    3    3    0    0 -0.31422561195E+02  0.22366678707E+02 -0.76569627868E+01  0.39322700159E+02  0.51100000000E-03 0.  1.
         23    2    1    0    0    0  0.22628760301E+02  0.14083595928E+02  0.96108511882E+01  0.96666681670E+02  0.92421157845E+02 0.  0.
         11    1    3    3    0    0  0.54051321496E+02 -0.82830827790E+01  0.17267813975E+02  0.57343981511E+02  0.51100000000E-03 0. -1.
         22    1    1    0    0    0 -0.22628760301E+02 -0.14083595928E+02 -0.96108511882E+01  0.28333318330E+02  0.00000000000E+00 0. -1.
</event>
<event>
 5    1  0.8778268E-005  0.9118800E+02  0.7818608E-02  0.1130116E+00
         25   -1    0    0    0    0  0.00000000000E+00  0.00000000000E+00  0.99999998245E-14  0.12500000000E+03  0.12500000000E+03 0.  0.
        -11    1    3    3    0    0  0.41734465116E+02  0.38239014780E+02  0.26473387552E+02  0.62488623593E+02  0.51100000000E-03 0.  1.
         23    2    1    0    0    0  0.20564285545E+02  0.18496025993E+02  0.12048536784E+02  0.94831140954E+02  0.89904311568E+02 0.  0.
         11    1    3    3    0    0 -0.21170179571E+02 -0.19742988788E+02 -0.14424850767E+02  0.32342517361E+02  0.51100000000E-03 0. -1.
         22    1    1    0    0    0 -0.20564285545E+02 -0.18496025993E+02 -0.12048536784E+02  0.30168859046E+02  0.00000000000E+00 0.  1.
</event>
<event>
 5    1  0.8778268E-005  0.9118800E+02  0.7818608E-02  0.1130116E+00
         25   -1    0    0    0    0  0.00000000000E+00  0.00000000000E+00  0.99999998245E-14  0.12500000000E+03  0.12500000000E+03 0.  0.
        -11    1    3    3    0    0  0.39344432103E+01  0.43995398510E+02  0.25149475156E+02  0.50828840576E+02  0.51100000000E-03 0. -1.
         23    2    1    0    0    0  0.22085435974E+02  0.28993867513E+02 -0.40364358796E+01  0.88329798881E+02  0.80358258569E+02 0.  0.
         11    1    3    3    0    0  0.18150992763E+02 -0.15001530997E+02 -0.29185911036E+02  0.37500958305E+02  0.51100000000E-03 0.  1.
         22    1    1    0    0    0 -0.22085435974E+02 -0.28993867513E+02  0.40364358796E+01  0.36670201119E+02  0.00000000000E+00 0. -1.
</event>
<event>
 5    1  0.8778268E-005  0.9118800E+02  0.7818608E-02  0.1130116E+00
         25   -1    0    0    0    0  0.00000000000E+00  0.00000000000E+00  0.99999998245E-14  0.12500000000E+03  0.12500000000E+03 0.  0.
        -11    1    3    3    0    0 -0.49857131274E+02  0.23136436075E+02  0.13449560630E+02  0.56585500745E+02  0.51100000000E-03 0.  1.
         23    2    1    0    0    0 -0.19817088411E+02  0.19272484641E+02 -0.10736502356E+02  0.95345014919E+02  0.90615968404E+02 0.  0.
         11    1    3    3    0    0  0.30040042864E+02 -0.38639514341E+01 -0.24186062986E+02  0.38759514174E+02  0.51100000000E-03 0. -1.
         22    1    1    0    0    0  0.19817088411E+02 -0.19272484641E+02  0.10736502356E+02  0.29654985081E+02  0.00000000000E+00 0.  1.
</event>
<event>
 5    1  0.8778268E-005  0.9118800E+02  0.7818608E-02  0.1130116E+00
         25   -1    0    0    0    0  0.00000000000E+00  0.00000000000E+00  0.99999998245E-14  0.12500000000E+03  0.12500000000E+03 0.  0.
        -11    1    3    3    0    0  0.68636290701E+01  0.77719525160E+01 -0.59313046182E+02  0.60212541032E+02  0.51100000000E-03 0. -1.
         23    2    1    0    0    0 -0.17417130830E+01  0.14552434891E+02 -0.27842331227E+02  0.93535697468E+02  0.88084756723E+02 0.  0.
         11    1    3    3    0    0 -0.86053421531E+01  0.67804823749E+01  0.31470714955E+02  0.33323156436E+02  0.51100000000E-03 0.  1.
         22    1    1    0    0    0  0.17417130830E+01 -0.14552434891E+02  0.27842331227E+02  0.31464302532E+02  0.00000000000E+00 0. -1.
</event>
<event>
 5    1  0.8778268E-005  0.9118800E+02  0.7818608E-02  0.1130116E+00
         25   -1    0    0    0    0  0.00000000000E+00  0.00000000000E+00  0.99999998245E-14  0.12500000000E+03  0.12500000000E+03 0.  0.
        -11    1    3    3    0    0 -0.16456942061E+02  0.27566711413E+02 -0.11092945307E+02  0.33967748763E+02  0.51100000000E-03 0.  1.
         23    2    1    0    0    0  0.58312818964E+01 -0.26310251756E+02  0.10408369955E+02  0.96111120459E+02  0.91666679414E+02 0.  0.
         11    1    3    3    0    0  0.22288223958E+02 -0.53876963169E+02  0.21501315262E+02  0.62143371696E+02  0.51100000000E-03 0. -1.
         22    1    1    0    0    0 -0.58312818964E+01  0.26310251756E+02 -0.10408369955E+02  0.28888879541E+02  0.00000000000E+00 0. -1.
</event>
<event>
 5    1  0.8778268E-005  0.9118800E+02  0.7818608E-02  0.1130116E+00
         25   -1    0    0    0    0  0.00000000000E+00  0.00000000000E+00  0.99999998245E-14  0.12500000000E+03  0.12500000000E+03 0.  0.
        -11    1    3    3    0    0  0.31245146246E+02  0.50124205687E+02 -0.91828044111E+01  0.59774735941E+02  0.51100000000E-03 0. -1.
         23    2    1    0    0    0  0.20038395979E+02  0.19141336555E+02  0.69066044499E+01  0.96440776208E+02  0.92115113049E+02 0.  0.
         11    1    3    3    0    0 -0.11206750267E+02 -0.30982869131E+02  0.16089408861E+02  0.36666040268E+02  0.51100000000E-03 0.  1.
         22    1    1    0    0    0 -0.20038395979E+02 -0.19141336555E+02 -0.69066044499E+01  0.28559223792E+02  0.00000000000E+00 0. -1.
</event>
<event>
 5    1  0.8778268E-005  0.9118800E+02  0.7818608E-02  0.1130116E+00
         25   -1    0    0    0    0  0.00000000000E+00  0.00000000000E+00  0.99999998245E-14  0.12500000000E+03  0.12500000000E+03 0.  0.
        -11    1    3    3    0    0  0.28186053469E+02 -0.25838836414E+02  0.22936989247E+02  0.44589287428E+02  0.51100000000E-03 0.  1.
         23    2    1    0    0    0  0.57399322869E+01  0.20591574531E+02  0.19150960812E+02  0.96299493657E+02  0.91923193016E+02 0.  0.
         11    1    3    3    0    0 -0.22446121183E+02  0.46430410945E+02 -0.37860284350E+01  0.51710206229E+02  0.51100000000E-03 0. -1.
         22    1    1    0    0    0 -0.57399322869E+01 -0.20591574531E+02 -0.19150960812E+02  0.28700506343E+02  0.00000000000E+00 0. -1.
</event>
<event>
 5    1  0.8778268E-005  0.9118800E+02  0.7818608E-02  0.1130116E+00
         25   -1    0    0    0    0  0.00000000000E+00  0.00000000000E+00  0.99999998245E-14  0.12500000000E+03  0.12500000000E+03 0.  0.
        -11    1    3    3    0    0 -0.21309865292E+02  0.40011942896E+01 -0.50810433533E+02  0.55243280774E+02  0.51100000000E-03 0. -1.
         23    2    1    0    0    0 -0.22086486034E+02  0.12402130809E+02 -0.86593146912E+01  0.98230438090E+02  0.94512483421E+02 0.  0.
         11    1    3    3    0    0 -0.77662074239E+00  0.84009365196E+01  0.42151118842E+02  0.42987157316E+02  0.51100000000E-03 0.  1.
         22    1    1    0    0    0  0.22086486034E+02 -0.12402130809E+02  0.86593146912E+01  0.26769561910E+02  0.00000000000E+00 0. -1.
</event>
<event>
 5    1  0.8778268E-005  0.9118800E+02  0.7818608E-02  0.1130116E+00
         25   -1    0    0    0    0  0.00000000000E+00  0.00000000000E+00  0.99999998245E-14  0.12500000000E+03  0.12500000000E+03 0.  0.
        -11    1    3    3    0    0 -0.15697089430E+01 -0.34102666662E+02  0.39151895956E+02  0.51945421520E+02  0.51100000000E-03 0. -1.
         23    2    1    0    0    0  0.13436773363E+02 -0.27192833158E+02 -0.24657466231E+00  0.94667544566E+02  0.89676564060E+02 0.  0.
         11    1    3    3    0    0  0.15006482306E+02  0.69098335041E+01 -0.39398470619E+02  0.42722123047E+02  0.51100000000E-03 0.  1.
         22    1    1    0    0    0 -0.13436773363E+02  0.27192833158E+02  0.24657466231E+00  0.30332455434E+02  0.00000000000E+00 0. -1.
</event>
<event>
 5    1  0.8778268E-005  0.9118800E+02  0.7818608E-02  0.1130116E+00
         25   -1    0    0    0    0  0.00000000000E+00  0.00000000000E+00  0.99999998245E-14  0.12500000000E+03  0.12500000000E+03 0.  0.
        -11    1    3    3    0    0  0.50620090795E+02  0.97217876996E+01 -0.95303201819E+01  0.52418830120E+02  0.51100000000E-03 0. -1.
         23    2    1    0    0    0  0.15926035738E+02 -0.83868359107E+01 -0.24739150378E+02  0.94405830746E+02  0.89311016603E+02 0.  0.
         11    1    3    3    0    0 -0.34694055057E+02 -0.18108623610E+02 -0.15208830196E+02  0.41987000626E+02  0.51100000000E-03 0.  1.
         22    1    1    0    0    0 -0.15926035738E+02  0.83868359107E+01  0.24739150378E+02  0.30594169254E+02  0.00000000000E+00 0. -1.
</event>
<event>
 5    1  0.8778268E-005  0.9118800E+02  0.7818608E-02  0.1130116E+00
         25   -1    0    0    0    0  0.00000000000E+00  0.00000000000E+00  0.99999998245E-14  0.12500000000E+03  0.12500000000E+03 0.  0.
        -11    1    3    3    0    0 -0.20349352969E+02 -0.29348962237E+02  0.45017936839E+02  0.57463661458E+02  0.51100000000E-03 0. -1.
         23    2    1    0    0    0  0.36211796097E+01 -0.19284392375E+01  0.26241771589E+02  0.98439457916E+02  0.94788525038E+02 0.  0.
         11    1    3    3    0    0  0.23970532578E+02  0.27420523000E+02 -0.18776165249E+02  0.40975796458E+02  0.51100000000E-03 0.  1.
         22    1    1    0    0    0 -0.36211796097E+01  0.19284392375E+01 -0.26241771589E+02  0.26560542084E+02  0.00000000000E+00 0. -1.
</event>
<event>
 5    1  0.8778268E-005  0.9118800E+02  0.7818608E-02  0.1130116E+00
         25   -1    0    0    0    0  0.00000000000E+00  0.00000000000E+00  0.99999998245E-14  0.12500000000E+03  0.12500000000E+03 0.  0.
        -11    1    3    3    0    0 -0.16498733291E+02  0.22270688128E+02  0.22795020549E+02  0.35885996043E+02  0.51100000000E-03 0. -1.
         23    2    1    0    0    0  0.22663850763E+02 -0.63542895357E+01 -0.14746010201E+02  0.97224616227E+02  0.93172710901E+02 0.  0.
         11    1    3    3    0    0  0.39162584054E+02 -0.28624977664E+02 -0.37541030750E+02  0.61338620184E+02  0.51100000000E-03 0.  1.
         22    1    1    0    0    0 -0.22663850763E+02  0.63542895357E+01  0.14746010201E+02  0.27775383773E+02  0.00000000000E+00 0.  1.
</event>
<event>
 5    1  0.8778268E-005  0.9118800E+02  0.7818608E-02  0.1130116E+00
         25   -1    0    0    0    0  0.00000000000E+00  0.00000000000E+00  0.99999998245E-14  0.12500000000E+03  0.12500000000E+03 0.  0.
        -11    1    3    3    0    0  0.50373866076E+02 -0.40984525509E+01 -0.12172325573E+02  0.51985471113E+02  0.51100000000E-03 0.  1.
         23    2    1    0    0    0  0.18089376770E+02  0.20569750177E+02  0.67234270328E+01  0.96794599004E+02  0.92594004941E+02 0.  0.
         11    1    3    3    0    0 -0.32284489305E+02  0.24668202728E+02  0.18895752606E+02  0.44809127891E+02  0.51100000000E-03 0. -1.
         22    1    1    0    0    0 -0.18089376770E+02 -0.20569750177E+02 -0.67234270328E+01  0.28205400996E+02  0.00000000000E+00 0.  1.
</event>
<event>
 5    1  0.8778268E-005  0.9118800E+02  0.7818608E-02  0.1130116E+00
         25   -1    0    0    0    0  0.00000000000E+00  0.00000000000E+00  0.99999998245E-14  0.12500000000E+03  0.12500000000E+03 0.  0.
        -11    1    3    3    0    0  0.86972467617E+01 -0.51390464515E+02 -0.13009219637E+02  0.53720217238E+02  0.51100000000E-03 0. -1.
         23    2    1    0    0    0 -0.10974676103E+02 -0.23753373251E+02  0.12341523164E+02  0.96069402869E+02  0.91609774136E+02 0.  0.
         11    1    3    3    0    0 -0.19671922864E+02  0.27637091264E+02  0.25350742802E+02  0.42349185631E+02  0.51100000000E-03 0.  1.
         22    1    1    0    0    0  0.10974676103E+02  0.23753373251E+02 -0.12341523164E+02  0.28930597131E+02  0.00000000000E+00 0. -1.
</event>
<event>
 5    1  0.8778268E-005  0.9118800E+02  0.7818608E-02  0.1130116E+00
         25   -1    0    0    0    0  0.00000000000E+00  0.00000000000E+00  0.99999998245E-14  0.12500000000E+03  0.12500000000E+03 0.  0.
        -11    1    3    3    0    0  0.23406748706E+02  0.30226722223E+02  0.56302172479E+01  0.38642333882E+02  0.51100000000E-03 0. -1.
         23    2    1    0    0    0  0.84318049068E+01 -0.26189121443E+02  0.51234698052E+01  0.97014014958E+02  0.92889739689E+02 0.  0.
         11    1    3    3    0    0 -0.14974943799E+02 -0.56415843666E+02 -0.50674744268E+00  0.58371681076E+02  0.51100000000E-03 0.  1.
         22    1    1    0    0    0 -0.84318049068E+01  0.26189121443E+02 -0.51234698052E+01  0.27985985042E+02  0.00000000000E+00 0.  1.
</event>
<event>
 5    1  0.8778268E-005  0.9118800E+02  0.7818608E-02  0.1130116E+00
         25   -1    0    0    0    0  0.00000000000E+00  0.00000000000E+00  0.99999998245E-14  0.12500000000E+03  0.12500000000E+03 0.  0.
        -11    1    3    3    0    0 -0.14286806859E+02 -0.54105471874E+01  0.30471087308E+02  0.34086273382E+02  0.51100000000E-03 0. -1.
         23    2    1    0    0    0 -0.36050082366E+01  0.10649521291E+01 -0.29457897869E+02  0.95303233269E+02  0.90558314457E+02 0.  0.
         11    1    3    3    0    0  0.10681798623E+02  0.64754993165E+01 -0.59928985177E+02  0.61216959887E+02  0.51100000000E-03 0.  1.
         22    1    1    0    0    0  0.36050082366E+01 -0.10649521291E+01  0.29457897869E+02  0.29696766731E+02  0.00000000000E+00 0.  1.
</event>
<event>
 5    1  0.8778268E-005  0.9118800E+02  0.7818608E-02  0.1130116E+00
         25   -1    0    0    0    0  0.00000000000E+00  0.00000000000E+00  0.99999998245E-14  0.12500000000E+03  0.12500000000E+03 0.  0.
        -11    1    3    3    0    0  0.11292277987E+02  0.33261099236E+02 -0.11586958055E+02  0.36987482501E+02  0.51100000000E-03 0.  1.
         23    2    1    0    0    0 -0.27897914151E+02 -0.92840592570E+01 -0.39254067151E+01  0.95336955851E+02  0.90604850658E+02 0.  0.
         11    1    3    3    0    0 -0.39190192139E+02 -0.42545158493E+02  0.76615513398E+01  0.58349473350E+02  0.51100000000E-03 0. -1.
         22    1    1    0    0    0  0.27897914151E+02  0.92840592570E+01  0.39254067151E+01  0.29663044149E+02  0.00000000000E+00 0. -1.
</event>
<event>
 5    1  0.8778268E-005  0.9118800E+02  0.7818608E-02  0.1130116E+00
         25   -1    0    0    0    0  0.00000000000E+00  0.00000000000E+00  0.99999998245E-14  0.12500000000E+03  0.12500000000E+03 0.  0.
        -11    1    3    3    0    0  0.20980755125E+02 -0.16427266196E+02  0.19360174723E+02  0.32937266521E+02  0.51100000000E-03 0. -1.
         23    2    1    0    0    0 -0.30302332947E+02  0.10012778353E+02  0.28045373365E+01  0.92963262618E+02  0.87268640729E+02 0.  0.
         11    1    3    3    0    0 -0.51283088072E+02  0.26440044549E+02 -0.16555637386E+02  0.60025996098E+02  0.51100000000E-03 0.  1.
         22    1    1    0    0    0  0.30302332947E+02 -0.10012778353E+02 -0.28045373365E+01  0.32036737382E+02  0.00000000000E+00 0.  1.
</event>
<event>
 5    1  0.8778268E-005  0.9118800E+02  0.7818608E-02  0.1130116E+00
         25   -1    0    0    0    0  0.00000000000E+00  0.00000000000E+00  0.99999998245E-14  0.12500000000E+03  0.12500000000E+03 0.  0.
        -11    1    3    3    0    0  0.23767728676E+02  0.87613854362E+01  0.50155296699E+02  0.56189150095E+02  0.51100000000E-03 0.  1.
         23    2    1    0    0    0  0.95318879862E+01 -0.15744370413E+02  0.24006389456E+02  0.94750226067E+02  0.89791739691E+02 0.  0.
         11    1    3    3    0    0 -0.14235840690E+02 -0.24505755849E+02 -0.26148907243E+02  0.38561075972E+02  0.51100000000E-03 0. -1.
         22    1    1    0    0    0 -0.95318879862E+01  0.15744370413E+02 -0.24006389456E+02  0.30249773933E+02  0.00000000000E+00 0.  1.
</event>
<event>
 5    1  0.8778268E-005  0.9118800E+02  0.7818608E-02  0.1130116E+00
         25   -1    0    0    0    0  0.00000000000E+00  0.00000000000E+00  0.99999998245E-14  0.12500000000E+03  0.12500000000E+03 0.  0.
        -11    1    3    3    0    0  0.54861053988E+02  0.20493027504E+02 -0.20906205656E+02  0.62183348704E+02  0.51100000000E-03 0. -1.
         23    2    1    0    0    0  0.26331217047E+02  0.11695322614E+02 -0.14610811981E+02  0.92695365828E+02  0.86884069064E+02 0.  0.
         11    1    3    3    0    0 -0.28529836941E+02 -0.87977048897E+01  0.62953936745E+01  0.30512017124E+02  0.51100000000E-03 0.  1.
         22    1    1    0    0    0 -0.26331217047E+02 -0.11695322614E+02  0.14610811981E+02  0.32304634172E+02  0.00000000000E+00 0. -1.
</event>
<event>
 5    1  0.8778268E-005  0.9118800E+02  0.7818608E-02  0.1130116E+00
         25   -1    0    0    0    0  0.00000000000E+00  0.00000000000E+00  0.99999998245E-14  0.12500000000E+03  0.12500000000E+03 0.  0.
        -11    1    3    3    0    0  0.39542506494E+02  0.17143639427E+02 -0.15944441792E+02  0.45953665979E+02  0.51100000000E-03 0.  1.
         23    2    1    0    0    0 -0.24207131047E+01  0.26759392419E+02  0.10130098381E+02  0.96285128804E+02  0.91903657169E+02 0.  0.
         11    1    3    3    0    0 -0.41963219598E+02  0.96157529922E+01  0.26074540173E+02  0.50331462825E+02  0.51100000000E-03 0. -1.
         22    1    1    0    0    0  0.24207131047E+01 -0.26759392419E+02 -0.10130098381E+02  0.28714871196E+02  0.00000000000E+00 0. -1.
</event>
<event>
 5    1  0.8778268E-005  0.9118800E+02  0.7818608E-02  0.1130116E+00
         25   -1    0    0    0    0  0.00000000000E+00  0.00000000000E+00  0.99999998245E-14  0.12500000000E+03  0.12500000000E+03 0.  0.
        -11    1    3    3    0    0 -0.46032213220E+02 -0.25820949571E+02  0.12610174419E+02  0.54265113929E+02  0.51100000000E-03 0. -1.
         23    2    1    0    0    0 -0.25217604766E+02  0.60222605268E+01 -0.84284863223E+01  0.97737670796E+02  0.93858498277E+02 0.  0.
         11    1    3    3    0    0  0.20814608454E+02  0.31843210098E+02 -0.21038660741E+02  0.43472556866E+02  0.51100000000E-03 0.  1.
         22    1    1    0    0    0  0.25217604766E+02 -0.60222605268E+01  0.84284863223E+01  0.27262329204E+02  0.00000000000E+00 0. -1.
</event>
<event>
 5    1  0.8778268E-005  0.9118800E+02  0.7818608E-02  0.1130116E+00
         25   -1    0    0    0    0  0.00000000000E+00  0.00000000000E+00  0.99999998245E-14  0.12500000000E+03  0.12500000000E+03 0.  0.
        -11    1    3    3    0    0 -0.32382980141E+02  0.35947436042E+02 -0.87394125233E+01  0.49165566124E+02  0.51100000000E-03 0.  1.
         23    2    1    0    0    0 -0.18752585388E+02 -0.92450607362E+01 -0.18168250795E+02  0.97301336789E+02  0.93275581999E+02 0.  0.
         11    1    3    3    0    0  0.13630394753E+02 -0.45192496778E+02 -0.94288382714E+01  0.48135770665E+02  0.51100000000E-03 0. -1.
         22    1    1    0    0    0  0.18752585388E+02  0.92450607362E+01  0.18168250795E+02  0.27698663211E+02  0.00000000000E+00 0.  1.
</event>
<event>
 5    1  0.8778268E-005  0.9118800E+02  0.7818608E-02  0.1130116E+00
         25   -1    0    0    0    0  0.00000000000E+00  0.00000000000E+00  0.99999998245E-14  0.12500000000E+03  0.12500000000E+03 0.  0.
        -11    1    3    3    0    0  0.27382693281E+02  0.66717310442E+01  0.22934014785E+02  0.36335835216E+02  0.51100000000E-03 0.  1.
         23    2    1    0    0    0  0.74120844218E+01 -0.22248386418E+02 -0.21634252557E+02  0.93094348818E+02  0.87456201635E+02 0.  0.
         11    1    3    3    0    0 -0.19970608859E+02 -0.28920117462E+02 -0.44568267341E+02  0.56758513602E+02  0.51100000000E-03 0. -1.
         22    1    1    0    0    0 -0.74120844218E+01  0.22248386418E+02  0.21634252557E+02  0.31905651182E+02  0.00000000000E+00 0. -1.
</event>
<event>
 5    1  0.8778268E-005  0.9118800E+02  0.7818608E-02  0.1130116E+00
         25   -1    0    0    0    0  0.00000000000E+00  0.00000000000E+00  0.99999998245E-14  0.12500000000E+03  0.12500000000E+03 0.  0.
        -11    1    3    3    0    0 -0.44206585558E+02  0.28866707049E+02 -0.13437145009E+02  0.54479958231E+02  0.51100000000E-03 0. -1.
         23    2    1    0    0    0 -0.26346534033E+02 -0.85365381408E+01 -0.36788775533E+01  0.97061738081E+02  0.92953937627E+02 0.  0.
         11    1    3    3    0    0  0.17860051525E+02 -0.37403245190E+02  0.97582674560E+01  0.42581779850E+02  0.51100000000E-03 0.  1.
         22    1    1    0    0    0  0.26346534033E+02  0.85365381408E+01  0.36788775533E+01  0.27938261919E+02  0.00000000000E+00 0. -1.
</event>
<event>
 5    1  0.8778268E-005  0.9118800E+02  0.7818608E-02  0.1130116E+00
         25   -1    0    0    0    0  0.00000000000E+00  0.00000000000E+00  0.99999998245E-14  0.12500000000E+03  0.12500000000E+03 0.  0.
        -11    1    3    3    0    0  0.10849429169E+02 -0.30760144501E+01 -0.56925100614E+02  0.58031362714E+02  0.51100000000E-03 0.  1.
         23    2    1    0    0    0 -0.49850272001E+01 -0.14771270323E+02 -0.25095737281E+02  0.95456185879E+02  0.90769193396E+02 0.  0.
         11    1    3    3    0    0 -0.15834456369E+02 -0.11695255873E+02  0.31829363333E+02  0.37424823165E+02  0.51100000000E-03 0. -1.
         22    1    1    0    0    0  0.49850272001E+01  0.14771270323E+02  0.25095737281E+02  0.29543814121E+02  0.00000000000E+00 0.  1.
</event>
<event>
 5    1  0.8778268E-005  0.9118800E+02  0.7818608E-02  0.1130116E+00
         25   -1    0    0    0    0  0.00000000000E+00  0.00000000000E+00  0.99999998245E-14  0.12500000000E+03  0.12500000000E+03 0.  0.
        -11    1    3    3    0    0 -0.56535298397E+02  0.14263481594E+02  0.10875393569E+02  0.59312402224E+02  0.51100000000E-03 0. -1.
         23    2    1    0    0    0 -0.26690459803E+02  0.30499324229E+01 -0.87454738541E+01  0.96748167401E+02  0.92531302002E+02 0.  0.
         11    1    3    3    0    0  0.29844838594E+02 -0.11213549171E+02 -0.19620867423E+02  0.37435765177E+02  0.51100000000E-03 0.  1.
         22    1    1    0    0    0  0.26690459803E+02 -0.30499324229E+01  0.87454738541E+01  0.28251832599E+02  0.00000000000E+00 0. -1.
</event>
<event>
 5    1  0.8778268E-005  0.9118800E+02  0.7818608E-02  0.1130116E+00
         25   -1    0    0    0    0  0.00000000000E+00  0.00000000000E+00  0.99999998245E-14  0.12500000000E+03  0.12500000000E+03 0.  0.
        -11    1    3    3    0    0 -0.89828709615E+01 -0.26535426163E+02 -0.25924315384E+02  0.38169240767E+02  0.51100000000E-03 0. -1.
         23    2    1    0    0    0  0.24989640101E+02 -0.29314370769E+02  0.73286757940E+01  0.85788726942E+02  0.76303222313E+02 0.  0.
         11    1    3    3    0    0  0.33972511062E+02 -0.27789446068E+01  0.33252991178E+02  0.47619486175E+02  0.51100000000E-03 0.  1.
         22    1    1    0    0    0 -0.24989640101E+02  0.29314370769E+02 -0.73286757940E+01  0.39211273058E+02  0.00000000000E+00 0.  1.
</event>
<event>
 5    1  0.8778268E-005  0.9118800E+02  0.7818608E-02  0.1130116E+00
         25   -1    0    0    0    0  0.00000000000E+00  0.00000000000E+00  0.99999998245E-14  0.12500000000E+03  0.12500000000E+03 0.  0.
        -11    1    3    3    0    0  0.32305515808E+01 -0.28692986950E+02 -0.24425569378E+02  0.37819735633E+02  0.51100000000E-03 0.  1.
         23    2    1    0    0    0 -0.37285725721E+01 -0.68339678892E+01  0.28474947289E+02  0.95480040758E+02  0.90802038466E+02 0.  0.
         11    1    3    3    0    0 -0.69591241529E+01  0.21859019061E+02  0.52900516667E+02  0.57660305125E+02  0.51100000000E-03 0. -1.
         22    1    1    0    0    0  0.37285725721E+01  0.68339678892E+01 -0.28474947289E+02  0.29519959242E+02  0.00000000000E+00 0. -1.
</event>
<event>
 5    1  0.8778268E-005  0.9118800E+02  0.7818608E-02  0.1130116E+00
         25   -1    0    0    0    0  0.00000000000E+00  0.00000000000E+00  0.99999998245E-14  0.12500000000E+03  0.12500000000E+03 0.  0.
        -11    1    3    3    0    0  0.32095457732E+02  0.22554484861E+02  0.23770360916E+02  0.45867780115E+02  0.51100000000E-03 0.  1.
         23    2    1    0    0    0  0.10207435783E+02  0.19071567070E+02 -0.20387215050E+02  0.95275347719E+02  0.90519815122E+02 0.  0.
         11    1    3    3    0    0 -0.21888021948E+02 -0.34829177911E+01 -0.44157575965E+02  0.49407567604E+02  0.51100000000E-03 0. -1.
         22    1    1    0    0    0 -0.10207435783E+02 -0.19071567070E+02  0.20387215050E+02  0.29724652281E+02  0.00000000000E+00 0. -1.
</event>
<event>
 5    1  0.8778268E-005  0.9118800E+02  0.7818608E-02  0.1130116E+00
         25   -1    0    0    0    0  0.00000000000E+00  0.00000000000E+00  0.99999998245E-14  0.12500000000E+03  0.12500000000E+03 0.  0.
        -11    1    3    3    0    0 -0.90987044938E+01 -0.52289757040E+02 -0.16681462995E+02  0.55635207582E+02  0.51100000000E-03 0. -1.
         23    2    1    0    0    0 -0.18610546870E+02 -0.20758237383E+02  0.70664158262E+01  0.96239069788E+02  0.91840990016E+02 0.  0.
         11    1    3    3    0    0 -0.95118423757E+01  0.31531519658E+02  0.23747878821E+02  0.40603862206E+02  0.51100000000E-03 0.  1.
         22    1    1    0    0    0  0.18610546870E+02  0.20758237383E+02 -0.70664158262E+01  0.28760930212E+02  0.00000000000E+00 0. -1.
</event>
<event>
 5    1  0.8778268E-005  0.9118800E+02  0.7818608E-02  0.1130116E+00
         25   -1    0    0    0    0  0.00000000000E+00  0.00000000000E+00  0.99999998245E-14  0.12500000000E+03  0.12500000000E+03 0.  0.
        -11    1    3    3    0    0  0.17929829988E+02  0.37557533770E+02  0.43811269958E+01  0.41847836507E+02  0.51100000000E-03 0. -1.
         23    2    1    0    0    0 -0.67117909055E+01  0.33182962101E+01 -0.28626061731E+02  0.95410971001E+02  0.90706905747E+02 0.  0.
         11    1    3    3    0    0 -0.24641620894E+02 -0.34239237560E+02 -0.33007188727E+02  0.53563134494E+02  0.51100000000E-03 0.  1.
         22    1    1    0    0    0  0.67117909055E+01 -0.33182962101E+01  0.28626061731E+02  0.29589028999E+02  0.00000000000E+00 0.  1.
</event>
<event>
 5    1  0.8778268E-005  0.9118800E+02  0.7818608E-02  0.1130116E+00
         25   -1    0    0    0    0  0.00000000000E+00  0.00000000000E+00  0.99999998245E-14  0.12500000000E+03  0.12500000000E+03 0.  0.
        -11    1    3    3    0    0 -0.46428722720E+01 -0.45060480250E+02 -0.62471896015E+01  0.45727787192E+02  0.51100000000E-03 0.  1.
         23    2    1    0    0    0 -0.13575416955E+02  0.38171973450E+01 -0.22878538444E+02  0.98124537913E+02  0.94372318390E+02 0.  0.
         11    1    3    3    0    0 -0.89325446826E+01  0.48877677595E+02 -0.16631348843E+02  0.52396750721E+02  0.51100000000E-03 0. -1.
         22    1    1    0    0    0  0.13575416955E+02 -0.38171973450E+01  0.22878538444E+02  0.26875462087E+02  0.00000000000E+00 0. -1.
</event>
<event>
 5    1  0.8778268E-005  0.9118800E+02  0.7818608E-02  0.1130116E+00
         25   -1    0    0    0    0  0.00000000000E+00  0.00000000000E+00  0.99999998245E-14  0.12500000000E+03  0.12500000000E+03 0.  0.
        -11    1    3    3    0    0  0.53230641302E+02 -0.15709125385E+02 -0.27682512424E+02  0.62020958458E+02  0.51100000000E-03 0.  1.
         23    2    1    0    0    0  0.27888848478E+02 -0.98282725685E+01 -0.88605120501E+01  0.94131059543E+02  0.88925614341E+02 0.  0.
         11    1    3    3    0    0 -0.25341792824E+02  0.58808528167E+01  0.18822000374E+02  0.32110101085E+02  0.51100000000E-03 0. -1.
         22    1    1    0    0    0 -0.27888848478E+02  0.98282725685E+01  0.88605120501E+01  0.30868940457E+02  0.00000000000E+00 0.  1.
</event>
<event>
 5    1  0.8778268E-005  0.9118800E+02  0.7818608E-02  0.1130116E+00
         25   -1    0    0    0    0  0.00000000000E+00  0.00000000000E+00  0.99999998245E-14  0.12500000000E+03  0.12500000000E+03 0.  0.
        -11    1    3    3    0    0 -0.30440952199E+02 -0.17947441250E+02 -0.10295334083E+02  0.36807011864E+02  0.51100000000E-03 0. -1.
         23    2    1    0    0    0  0.16776614415E+02  0.16918685815E+02  0.10343602119E+02  0.99025265627E+02  0.95557921737E+02 0.  0.
         11    1    3    3    0    0  0.47217566614E+02  0.34866127065E+02  0.20638936202E+02  0.62218253763E+02  0.51100000000E-03 0.  1.
         22    1    1    0    0    0 -0.16776614415E+02 -0.16918685815E+02 -0.10343602119E+02  0.25974734373E+02  0.00000000000E+00 0.  1.
</event>
<event>
 5    1  0.8778268E-005  0.9118800E+02  0.7818608E-02  0.1130116E+00
         25   -1    0    0    0    0  0.00000000000E+00  0.00000000000E+00  0.99999998245E-14  0.12500000000E+03  0.12500000000E+03 0.  0.
        -11    1    3    3    0    0 -0.45482479241E+02 -0.28865747152E+02  0.17331736129E+02  0.56588659235E+02  0.51100000000E-03 0.  1.
         23    2    1    0    0    0 -0.29445451525E+02 -0.26652833724E+02  0.28377726504E+02  0.76187055788E+02  0.58495845554E+02 0.  0.
         11    1    3    3    0    0  0.16037027716E+02  0.22129134271E+01  0.11045990376E+02  0.19598396553E+02  0.51100000000E-03 0. -1.
         22    1    1    0    0    0  0.29445451525E+02  0.26652833724E+02 -0.28377726504E+02  0.48812944212E+02  0.00000000000E+00 0.  1.
</event>
<event>
 5    1  0.8778268E-005  0.9118800E+02  0.7818608E-02  0.1130116E+00
         25   -1    0    0    0    0  0.00000000000E+00  0.00000000000E+00  0.99999998245E-14  0.12500000000E+03  0.12500000000E+03 0.  0.
        -11    1    3    3    0    0  0.10328215807E+02 -0.40869217212E+02 -0.44849878414E+02  0.61550601551E+02  0.51100000000E-03 0.  1.
         23    2    1    0    0    0  0.12760480714E+02 -0.20637398568E+02 -0.27619273163E+02  0.88236480885E+02  0.80212967912E+02 0.  0.
         11    1    3    3    0    0  0.24322649063E+01  0.20231818644E+02  0.17230605252E+02  0.26685879334E+02  0.51100000000E-03 0. -1.
         22    1    1    0    0    0 -0.12760480714E+02  0.20637398568E+02  0.27619273163E+02  0.36763519115E+02  0.00000000000E+00 0.  1.
</event>
<event>
 5    1  0.8778268E-005  0.9118800E+02  0.7818608E-02  0.1130116E+00
         25   -1    0    0    0    0  0.00000000000E+00  0.00000000000E+00  0.99999998245E-14  0.12500000000E+03  0.12500000000E+03 0.  0.
        -11    1    3    3    0    0  0.37476324385E+02  0.43815823554E+01  0.37268686059E+02  0.53034216447E+02  0.51100000000E-03 0. -1.
         23    2    1    0    0    0 -0.30503668902E+01 -0.52385656085E+01  0.28838063865E+02  0.95531691000E+02  0.90873113461E+02 0.  0.
         11    1    3    3    0    0 -0.40526691275E+02 -0.96201479639E+01 -0.84306221937E+01  0.42497474553E+02  0.51100000000E-03 0.  1.
         22    1    1    0    0    0  0.30503668902E+01  0.52385656085E+01 -0.28838063865E+02  0.29468309000E+02  0.00000000000E+00 0. -1.
</event>
<event>
 5    1  0.8778268E-005  0.9118800E+02  0.7818608E-02  0.1130116E+00
         25   -1    0    0    0    0  0.00000000000E+00  0.00000000000E+00  0.99999998245E-14  0.12500000000E+03  0.12500000000E+03 0.  0.
        -11    1    3    3    0    0 -0.23399302102E+02 -0.14627346813E+02  0.38292928572E+02  0.47199946955E+02  0.51100000000E-03 0.  1.
         23    2    1    0    0    0  0.10478043169E+02 -0.27387819696E+02  0.74837540336E+01  0.94736348026E+02  0.89772417849E+02 0.  0.
         11    1    3    3    0    0  0.33877345271E+02 -0.12760472883E+02 -0.30809174538E+02  0.47536401071E+02  0.51100000000E-03 0. -1.
         22    1    1    0    0    0 -0.10478043169E+02  0.27387819696E+02 -0.74837540336E+01  0.30263651974E+02  0.00000000000E+00 0.  1.
</event>
<event>
 5    1  0.8778268E-005  0.9118800E+02  0.7818608E-02  0.1130116E+00
         25   -1    0    0    0    0  0.00000000000E+00  0.00000000000E+00  0.99999998245E-14  0.12500000000E+03  0.12500000000E+03 0.  0.
        -11    1    3    3    0    0  0.48456775692E+02  0.10064629160E+02 -0.28932842505E+02  0.57327700514E+02  0.51100000000E-03 0.  1.
         23    2    1    0    0    0  0.19707839331E+02 -0.12382102609E+02 -0.18511330321E+02  0.95261392999E+02  0.90500542814E+02 0.  0.
         11    1    3    3    0    0 -0.28748936361E+02 -0.22446731770E+02  0.10421512184E+02  0.37933692484E+02  0.51100000000E-03 0. -1.
         22    1    1    0    0    0 -0.19707839331E+02  0.12382102609E+02  0.18511330321E+02  0.29738607001E+02  0.00000000000E+00 0.  1.
</event>
<event>
 5    1  0.8778268E-005  0.9118800E+02  0.7818608E-02  0.1130116E+00
         25   -1    0    0    0    0  0.00000000000E+00  0.00000000000E+00  0.99999998245E-14  0.12500000000E+03  0.12500000000E+03 0.  0.
        -11    1    3    3    0    0 -0.33386064666E+02 -0.47310147820E+01 -0.51778652207E+02  0.61790295674E+02  0.51100000000E-03 0.  1.
         23    2    1    0    0    0 -0.18223717421E+02  0.30136940522E+01 -0.20475426591E+02  0.97424117012E+02  0.93439976739E+02 0.  0.
         11    1    3    3    0    0  0.15162347245E+02  0.77447088342E+01  0.31303225616E+02  0.35633821338E+02  0.51100000000E-03 0. -1.
         22    1    1    0    0    0  0.18223717421E+02 -0.30136940522E+01  0.20475426591E+02  0.27575882988E+02  0.00000000000E+00 0.  1.
</event>
<event>
 5    1  0.8778268E-005  0.9118800E+02  0.7818608E-02  0.1130116E+00
         25   -1    0    0    0    0  0.00000000000E+00  0.00000000000E+00  0.99999998245E-14  0.12500000000E+03  0.12500000000E+03 0.  0.
        -11    1    3    3    0    0  0.39630640652E+02  0.26929403386E+02 -0.17538647828E+02  0.51023373204E+02  0.51100000000E-03 0.  1.
         23    2    1    0    0    0  0.33357811036E+02 -0.68128583208E+01  0.26658473984E+01  0.90849372802E+02  0.84186359944E+02 0.  0.
         11    1    3    3    0    0 -0.62728296158E+01 -0.33742261706E+02  0.20204495226E+02  0.39825999599E+02  0.51100000000E-03 0. -1.
         22    1    1    0    0    0 -0.33357811036E+02  0.68128583208E+01 -0.26658473984E+01  0.34150627198E+02  0.00000000000E+00 0.  1.
</event>
<event>
 5    1  0.8778268E-005  0.9118800E+02  0.7818608E-02  0.1130116E+00
         25   -1    0    0    0    0  0.00000000000E+00  0.00000000000E+00  0.99999998245E-14  0.12500000000E+03  0.12500000000E+03 0.  0.
        -11    1    3    3    0    0 -0.54621660115E+02 -0.79249728410E+01 -0.11679091494E+02  0.56415708155E+02  0.51100000000E-03 0.  1.
         23    2    1    0    0    0 -0.22135082196E+02 -0.16414359869E+02  0.91909945093E+01  0.95950603211E+02  0.91447530326E+02 0.  0.
         11    1    3    3    0    0  0.32486577919E+02 -0.84893870280E+01  0.20870086003E+02  0.39534895055E+02  0.51100000000E-03 0. -1.
         22    1    1    0    0    0  0.22135082196E+02  0.16414359869E+02 -0.91909945093E+01  0.29049396789E+02  0.00000000000E+00 0.  1.
</event>
<event>
 5    1  0.8778268E-005  0.9118800E+02  0.7818608E-02  0.1130116E+00
         25   -1    0    0    0    0  0.00000000000E+00  0.00000000000E+00  0.99999998245E-14  0.12500000000E+03  0.12500000000E+03 0.  0.
        -11    1    3    3    0    0  0.47103491283E+02 -0.82231596522E+01  0.31704440787E+01  0.47920882313E+02  0.51100000000E-03 0. -1.
         23    2    1    0    0    0  0.25882064013E+01 -0.28040305226E+02 -0.97188072148E+00  0.96823731942E+02  0.92633325459E+02 0.  0.
         11    1    3    3    0    0 -0.44515284882E+02 -0.19817145574E+02 -0.41423248001E+01  0.48902849629E+02  0.51100000000E-03 0.  1.
         22    1    1    0    0    0 -0.25882064013E+01  0.28040305226E+02  0.97188072148E+00  0.28176268058E+02  0.00000000000E+00 0.  1.
</event>
<event>
 5    1  0.8778268E-005  0.9118800E+02  0.7818608E-02  0.1130116E+00
         25   -1    0    0    0    0  0.00000000000E+00  0.00000000000E+00  0.99999998245E-14  0.12500000000E+03  0.12500000000E+03 0.  0.
        -11    1    3    3    0    0 -0.15914743037E+02  0.35797883984E+02  0.45490783276E+02  0.60034814125E+02  0.51100000000E-03 0.  1.
         23    2    1    0    0    0 -0.20157677633E+02  0.27932320255E+02  0.24854884329E+02  0.82522808975E+02  0.70750987581E+02 0.  0.
         11    1    3    3    0    0 -0.42429345960E+01 -0.78655637283E+01 -0.20635898947E+02  0.22487994850E+02  0.51100000000E-03 0. -1.
         22    1    1    0    0    0  0.20157677633E+02 -0.27932320255E+02 -0.24854884329E+02  0.42477191025E+02  0.00000000000E+00 0.  1.
</event>
<event>
 5    1  0.8778268E-005  0.9118800E+02  0.7818608E-02  0.1130116E+00
         25   -1    0    0    0    0  0.00000000000E+00  0.00000000000E+00  0.99999998245E-14  0.12500000000E+03  0.12500000000E+03 0.  0.
        -11    1    3    3    0    0  0.40352765629E+01 -0.30460223527E+02 -0.20035148738E+02  0.36681273962E+02  0.51100000000E-03 0. -1.
         23    2    1    0    0    0  0.20617554149E+02  0.16836807437E+02  0.11614564458E+02  0.95957621804E+02  0.91457123566E+02 0.  0.
         11    1    3    3    0    0  0.16582277586E+02  0.47297030963E+02  0.31649713196E+02  0.59276347842E+02  0.51100000000E-03 0.  1.
         22    1    1    0    0    0 -0.20617554149E+02 -0.16836807437E+02 -0.11614564458E+02  0.29042378196E+02  0.00000000000E+00 0.  1.
</event>
<event>
 5    1  0.8778268E-005  0.9118800E+02  0.7818608E-02  0.1130116E+00
         25   -1    0    0    0    0  0.00000000000E+00  0.00000000000E+00  0.99999998245E-14  0.12500000000E+03  0.12500000000E+03 0.  0.
        -11    1    3    3    0    0  0.85269801575E+01  0.32146344341E+02 -0.63301897103E+01  0.33855105186E+02  0.51100000000E-03 0. -1.
         23    2    1    0    0    0 -0.13416427238E+02 -0.22043495602E+02  0.13860975109E+02  0.95707631555E+02  0.91114806089E+02 0.  0.
         11    1    3    3    0    0 -0.21943407396E+02 -0.54189839943E+02  0.20191164819E+02  0.61852526369E+02  0.51100000000E-03 0.  1.
         22    1    1    0    0    0  0.13416427238E+02  0.22043495602E+02 -0.13860975109E+02  0.29292368445E+02  0.00000000000E+00 0.  1.
</event>
<event>
 5    1  0.8778268E-005  0.9118800E+02  0.7818608E-02  0.1130116E+00
         25   -1    0    0    0    0  0.00000000000E+00  0.00000000000E+00  0.99999998245E-14  0.12500000000E+03  0.12500000000E+03 0.  0.
        -11    1    3    3    0    0 -0.86148518475E+01 -0.51248922237E+01  0.40607542379E+02  0.41826459221E+02  0.51100000000E-03 0. -1.
         23    2    1    0    0    0 -0.12746710927E+02  0.29987581660E+02  0.49469357572E+01  0.92042362544E+02  0.85939459133E+02 0.  0.
         11    1    3    3    0    0 -0.41318590795E+01  0.35112473884E+02 -0.35660606622E+02  0.50215903323E+02  0.51100000000E-03 0.  1.
         22    1    1    0    0    0  0.12746710927E+02 -0.29987581660E+02 -0.49469357572E+01  0.32957637456E+02  0.00000000000E+00 0.  1.
</event>
<event>
 5    1  0.8778268E-005  0.9118800E+02  0.7818608E-02  0.1130116E+00
         25   -1    0    0    0    0  0.00000000000E+00  0.00000000000E+00  0.99999998245E-14  0.12500000000E+03  0.12500000000E+03 0.  0.
        -11    1    3    3    0    0  0.36119927444E+02 -0.34104923318E+02 -0.11085082083E+02  0.50898664011E+02  0.51100000000E-03 0. -1.
         23    2    1    0    0    0  0.11424993736E+02 -0.42794268874E-01 -0.26844329822E+02  0.95825518739E+02  0.91276391717E+02 0.  0.
         11    1    3    3    0    0 -0.24694933708E+02  0.34062129049E+02 -0.15759247739E+02  0.44926854728E+02  0.51100000000E-03 0.  1.
         22    1    1    0    0    0 -0.11424993736E+02  0.42794268874E-01  0.26844329822E+02  0.29174481261E+02  0.00000000000E+00 0.  1.
</event>
<event>
 5    1  0.8778268E-005  0.9118800E+02  0.7818608E-02  0.1130116E+00
         25   -1    0    0    0    0  0.00000000000E+00  0.00000000000E+00  0.99999998245E-14  0.12500000000E+03  0.12500000000E+03 0.  0.
        -11    1    3    3    0    0  0.76165424053E+00  0.61276812152E+02 -0.80770357920E+01  0.61811538827E+02  0.51100000000E-03 0.  1.
         23    2    1    0    0    0 -0.15476045662E+01  0.28720676418E+02  0.25218984957E+01  0.96127308650E+02  0.91688751559E+02 0.  0.
         11    1    3    3    0    0 -0.23092588067E+01 -0.32556135735E+02  0.10598934288E+02  0.34315769822E+02  0.51100000000E-03 0. -1.
         22    1    1    0    0    0  0.15476045662E+01 -0.28720676418E+02 -0.25218984957E+01  0.28872691350E+02  0.00000000000E+00 0.  1.
</event>
<event>
 5    1  0.8778268E-005  0.9118800E+02  0.7818608E-02  0.1130116E+00
         25   -1    0    0    0    0  0.00000000000E+00  0.00000000000E+00  0.99999998245E-14  0.12500000000E+03  0.12500000000E+03 0.  0.
        -11    1    3    3    0    0  0.46947555003E+02  0.13500460707E+02  0.77998347728E+01  0.49468907233E+02  0.51100000000E-03 0.  1.
         23    2    1    0    0    0  0.13257063383E+02  0.43687310623E+00 -0.23983718136E+02  0.97592714047E+02  0.93665247087E+02 0.  0.
         11    1    3    3    0    0 -0.33690491620E+02 -0.13063587601E+02 -0.31783552909E+02  0.48123806815E+02  0.51100000000E-03 0. -1.
         22    1    1    0    0    0 -0.13257063383E+02 -0.43687310623E+00  0.23983718136E+02  0.27407285953E+02  0.00000000000E+00 0. -1.
</event>
<event>
 5    1  0.8778268E-005  0.9118800E+02  0.7818608E-02  0.1130116E+00
         25   -1    0    0    0    0  0.00000000000E+00  0.00000000000E+00  0.99999998245E-14  0.12500000000E+03  0.12500000000E+03 0.  0.
        -11    1    3    3    0    0  0.22758615537E+02  0.26740209931E+02  0.22450897510E+02  0.41677766346E+02  0.51100000000E-03 0. -1.
         23    2    1    0    0    0  0.20535678716E+02 -0.71329443898E+01 -0.19606369570E+02  0.95725391143E+02  0.91139167134E+02 0.  0.
         11    1    3    3    0    0 -0.22229368212E+01 -0.33873154321E+02 -0.42057267080E+02  0.54047624797E+02  0.51100000000E-03 0.  1.
         22    1    1    0    0    0 -0.20535678716E+02  0.71329443898E+01  0.19606369570E+02  0.29274608857E+02  0.00000000000E+00 0.  1.
</event>
<event>
 5    1  0.8778268E-005  0.9118800E+02  0.7818608E-02  0.1130116E+00
         25   -1    0    0    0    0  0.00000000000E+00  0.00000000000E+00  0.99999998245E-14  0.12500000000E+03  0.12500000000E+03 0.  0.
        -11    1    3    3    0    0  0.10330027855E+02 -0.52484509426E+02 -0.21877513695E+02  0.57792376754E+02  0.51100000000E-03 0.  1.
         23    2    1    0    0    0  0.18944361353E+02 -0.16020476289E+02 -0.15352125323E+02  0.95824115446E+02  0.91274469933E+02 0.  0.
         11    1    3    3    0    0  0.86143334973E+01  0.36464033137E+02  0.65253883721E+01  0.38031738692E+02  0.51100000000E-03 0. -1.
         22    1    1    0    0    0 -0.18944361353E+02  0.16020476289E+02  0.15352125323E+02  0.29175884554E+02  0.00000000000E+00 0.  1.
</event>
<event>
 5    1  0.8778268E-005  0.9118800E+02  0.7818608E-02  0.1130116E+00
         25   -1    0    0    0    0  0.00000000000E+00  0.00000000000E+00  0.99999998245E-14  0.12500000000E+03  0.12500000000E+03 0.  0.
        -11    1    3    3    0    0  0.13248830615E+02 -0.46388500589E+02  0.31058286526E+02  0.57376316210E+02  0.51100000000E-03 0.  1.
         23    2    1    0    0    0  0.21701826937E+02 -0.15171041179E+02  0.72186564736E+01  0.97554803988E+02  0.93614640934E+02 0.  0.
         11    1    3    3    0    0  0.84529963218E+01  0.31217459411E+02 -0.23839630053E+02  0.40178487779E+02  0.51100000000E-03 0. -1.
         22    1    1    0    0    0 -0.21701826937E+02  0.15171041179E+02 -0.72186564736E+01  0.27445196012E+02  0.00000000000E+00 0.  1.
</event>
<event>
 5    1  0.8778268E-005  0.9118800E+02  0.7818608E-02  0.1130116E+00
         25   -1    0    0    0    0  0.00000000000E+00  0.00000000000E+00  0.99999998245E-14  0.12500000000E+03  0.12500000000E+03 0.  0.
        -11    1    3    3    0    0  0.46597163986E+01  0.14428981153E+02 -0.31795525643E+02  0.35225898217E+02  0.51100000000E-03 0.  1.
         23    2    1    0    0    0 -0.12014470891E+02  0.54625326104E+01  0.25890744519E+02  0.95939418019E+02  0.91432239964E+02 0.  0.
         11    1    3    3    0    0 -0.16674187289E+02 -0.89664485425E+01  0.57686270162E+02  0.60713519802E+02  0.51100000000E-03 0. -1.
         22    1    1    0    0    0  0.12014470891E+02 -0.54625326104E+01 -0.25890744519E+02  0.29060581981E+02  0.00000000000E+00 0. -1.
</event>
<event>
 5    1  0.8778268E-005  0.9118800E+02  0.7818608E-02  0.1130116E+00
         25   -1    0    0    0    0  0.00000000000E+00  0.00000000000E+00  0.99999998245E-14  0.12500000000E+03  0.12500000000E+03 0.  0.
        -11    1    3    3    0    0  0.30438232010E+02 -0.24758822164E+01 -0.46991360139E+02  0.56042875449E+02  0.51100000000E-03 0. -1.
         23    2    1    0    0    0  0.25542758699E+02 -0.12082590300E+02 -0.92900861050E+01  0.95255635657E+02  0.90492590383E+02 0.  0.
         11    1    3    3    0    0 -0.48954733108E+01 -0.96067080836E+01  0.37701274033E+02  0.39212760208E+02  0.51100000000E-03 0.  1.
         22    1    1    0    0    0 -0.25542758699E+02  0.12082590300E+02  0.92900861050E+01  0.29744364343E+02  0.00000000000E+00 0.  1.
</event>
<event>
 5    1  0.8778268E-005  0.9118800E+02  0.7818608E-02  0.1130116E+00
         25   -1    0    0    0    0  0.00000000000E+00  0.00000000000E+00  0.99999998245E-14  0.12500000000E+03  0.12500000000E+03 0.  0.
        -11    1    3    3    0    0  0.14385023699E+02 -0.36502882233E+02  0.25540681756E+02  0.46815763829E+02  0.51100000000E-03 0.  1.
         23    2    1    0    0    0  0.19068311527E+02  0.97764105567E+01  0.23240565835E+02  0.93388252054E+02  0.87875269636E+02 0.  0.
         11    1    3    3    0    0  0.46832878279E+01  0.46279292789E+02 -0.23001159213E+01  0.46572488225E+02  0.51100000000E-03 0. -1.
         22    1    1    0    0    0 -0.19068311527E+02 -0.97764105567E+01 -0.23240565835E+02  0.31611747946E+02  0.00000000000E+00 0. -1.
</event>
<event>
 5    1  0.8778268E-005  0.9118800E+02  0.7818608E-02  0.1130116E+00
         25   -1    0    0    0    0  0.00000000000E+00  0.00000000000E+00  0.99999998245E-14  0.12500000000E+03  0.12500000000E+03 0.  0.
        -11    1    3    3    0    0 -0.15050187380E+02  0.26582233345E+02  0.21030459041E+02  0.37086432526E+02  0.51100000000E-03 0.  1.
         23    2    1    0    0    0  0.15922345254E+02 -0.22355203818E+02  0.67445137366E+01  0.96737574739E+02  0.92516991329E+02 0.  0.
         11    1    3    3    0    0  0.30972532633E+02 -0.48937437163E+02 -0.14285945304E+02  0.59651142213E+02  0.51100000000E-03 0. -1.
         22    1    1    0    0    0 -0.15922345254E+02  0.22355203818E+02 -0.67445137366E+01  0.28262425261E+02  0.00000000000E+00 0. -1.
</event>
<event>
 5    1  0.8778268E-005  0.9118800E+02  0.7818608E-02  0.1130116E+00
         25   -1    0    0    0    0  0.00000000000E+00  0.00000000000E+00  0.99999998245E-14  0.12500000000E+03  0.12500000000E+03 0.  0.
        -11    1    3    3    0    0 -0.46136655147E+02  0.15228883372E+02  0.23473272421E+01  0.48641749376E+02  0.51100000000E-03 0.  1.
         23    2    1    0    0    0 -0.18772232938E+02 -0.19599765496E+02 -0.12175448983E+02  0.95254595398E+02  0.90491153432E+02 0.  0.
         11    1    3    3    0    0  0.27364422209E+02 -0.34828648868E+02 -0.14522776225E+02  0.46612846022E+02  0.51100000000E-03 0. -1.
         22    1    1    0    0    0  0.18772232938E+02  0.19599765496E+02  0.12175448983E+02  0.29745404602E+02  0.00000000000E+00 0. -1.
</event>
<event>
 5    1  0.8778268E-005  0.9118800E+02  0.7818608E-02  0.1130116E+00
         25   -1    0    0    0    0  0.00000000000E+00  0.00000000000E+00  0.99999998245E-14  0.12500000000E+03  0.12500000000E+03 0.  0.
        -11    1    3    3    0    0 -0.37034732355E+02 -0.13438143888E+02  0.84725165291E+01  0.40298122144E+02  0.51100000000E-03 0.  1.
         23    2    1    0    0    0  0.17933683032E+02 -0.22226466750E+02  0.42729998800E+01  0.96122823211E+02  0.91682636321E+02 0.  0.
         11    1    3    3    0    0  0.54968415387E+02 -0.87883228624E+01 -0.41995166492E+01  0.55824701067E+02  0.51100000000E-03 0. -1.
         22    1    1    0    0    0 -0.17933683032E+02  0.22226466750E+02 -0.42729998800E+01  0.28877176789E+02  0.00000000000E+00 0. -1.
</event>
<event>
 5    1  0.8778268E-005  0.9118800E+02  0.7818608E-02  0.1130116E+00
         25   -1    0    0    0    0  0.00000000000E+00  0.00000000000E+00  0.99999998245E-14  0.12500000000E+03  0.12500000000E+03 0.  0.
        -11    1    3    3    0    0  0.23987584667E+02 -0.10903235942E+02  0.22907053189E+02  0.34914436244E+02  0.51100000000E-03 0.  1.
         23    2    1    0    0    0 -0.42157537021E+01  0.19634132881E+02 -0.21389441964E+02  0.95660947855E+02  0.91050738403E+02 0.  0.
         11    1    3    3    0    0 -0.28203338369E+02  0.30537368824E+02 -0.44296495152E+02  0.60746511611E+02  0.51100000000E-03 0. -1.
         22    1    1    0    0    0  0.42157537021E+01 -0.19634132881E+02  0.21389441964E+02  0.29339052145E+02  0.00000000000E+00 0. -1.
</event>
<event>
 5    1  0.8778268E-005  0.9118800E+02  0.7818608E-02  0.1130116E+00
         25   -1    0    0    0    0  0.00000000000E+00  0.00000000000E+00  0.99999998245E-14  0.12500000000E+03  0.12500000000E+03 0.  0.
        -11    1    3    3    0    0 -0.90318180339E+01 -0.67902714970E+01  0.57374450134E+02  0.58476568405E+02  0.51100000000E-03 0. -1.
         23    2    1    0    0    0 -0.53506608044E+01  0.12696102751E+02  0.25482931216E+02  0.96031044557E+02  0.91557419902E+02 0.  0.
         11    1    3    3    0    0  0.36811572295E+01  0.19486374248E+02 -0.31891518918E+02  0.37554476151E+02  0.51100000000E-03 0.  1.
         22    1    1    0    0    0  0.53506608044E+01 -0.12696102751E+02 -0.25482931216E+02  0.28968955443E+02  0.00000000000E+00 0. -1.
</event>
<event>
 5    1  0.8778268E-005  0.9118800E+02  0.7818608E-02  0.1130116E+00
         25   -1    0    0    0    0  0.00000000000E+00  0.00000000000E+00  0.99999998245E-14  0.12500000000E+03  0.12500000000E+03 0.  0.
        -11    1    3    3    0    0  0.36741318181E+02  0.28705571457E+02  0.13773972515E+02  0.48617451738E+02  0.51100000000E-03 0.  1.
         23    2    1    0    0    0  0.21416905264E+02  0.24316982261E+02 -0.20665739987E+02  0.86567302117E+02  0.77568199214E+02 0.  0.
         11    1    3    3    0    0 -0.15324412917E+02 -0.43885891961E+01 -0.34439712501E+02  0.37949850379E+02  0.51100000000E-03 0. -1.
         22    1    1    0    0    0 -0.21416905264E+02 -0.24316982261E+02  0.20665739987E+02  0.38432697883E+02  0.00000000000E+00 0.  1.
</event>
<event>
 5    1  0.8778268E-005  0.9118800E+02  0.7818608E-02  0.1130116E+00
         25   -1    0    0    0    0  0.00000000000E+00  0.00000000000E+00  0.99999998245E-14  0.12500000000E+03  0.12500000000E+03 0.  0.
        -11    1    3    3    0    0 -0.34224582026E+02 -0.27413974040E+02 -0.15899172606E+02  0.46643667066E+02  0.51100000000E-03 0.  1.
         23    2    1    0    0    0  0.13372821540E+02 -0.10650770296E+02 -0.21628338397E+02  0.97430881667E+02  0.93449025767E+02 0.  0.
         11    1    3    3    0    0  0.47597403566E+02  0.16763203744E+02 -0.57291657904E+01  0.50787214601E+02  0.51100000000E-03 0. -1.
         22    1    1    0    0    0 -0.13372821540E+02  0.10650770296E+02  0.21628338397E+02  0.27569118333E+02  0.00000000000E+00 0. -1.
</event>
<event>
 5    1  0.8778268E-005  0.9118800E+02  0.7818608E-02  0.1130116E+00
         25   -1    0    0    0    0  0.00000000000E+00  0.00000000000E+00  0.99999998245E-14  0.12500000000E+03  0.12500000000E+03 0.  0.
        -11    1    3    3    0    0 -0.49135653246E+02  0.28694760943E+02 -0.25054726262E+02  0.62172671117E+02  0.51100000000E-03 0. -1.
         23    2    1    0    0    0 -0.24008279102E+02  0.14679877962E+02 -0.74991668772E+01  0.95877263413E+02  0.91347226851E+02 0.  0.
         11    1    3    3    0    0  0.25127374143E+02 -0.14014882981E+02  0.17555559385E+02  0.33704592297E+02  0.51100000000E-03 0.  1.
         22    1    1    0    0    0  0.24008279102E+02 -0.14679877962E+02  0.74991668772E+01  0.29122736587E+02  0.00000000000E+00 0. -1.
</event>
<event>
 5    1  0.8778268E-005  0.9118800E+02  0.7818608E-02  0.1130116E+00
         25   -1    0    0    0    0  0.00000000000E+00  0.00000000000E+00  0.99999998245E-14  0.12500000000E+03  0.12500000000E+03 0.  0.
        -11    1    3    3    0    0  0.12732825381E+02 -0.46990813158E+02 -0.76865847536E+01  0.49288385537E+02  0.51100000000E-03 0.  1.
         23    2    1    0    0    0  0.74627104363E+01 -0.50105811304E+01 -0.27544080903E+02  0.96026316025E+02  0.91550963983E+02 0.  0.
         11    1    3    3    0    0 -0.52701149448E+01  0.41980232028E+02 -0.19857496149E+02  0.46737930487E+02  0.51100000000E-03 0. -1.
         22    1    1    0    0    0 -0.74627104363E+01  0.50105811304E+01  0.27544080903E+02  0.28973683975E+02  0.00000000000E+00 0.  1.
</event>
<event>
 5    1  0.8778268E-005  0.9118800E+02  0.7818608E-02  0.1130116E+00
         25   -1    0    0    0    0  0.00000000000E+00  0.00000000000E+00  0.99999998245E-14  0.12500000000E+03  0.12500000000E+03 0.  0.
        -11    1    3    3    0    0 -0.27781507370E+01  0.31350095797E+02  0.17599943833E+02  0.36059737260E+02  0.51100000000E-03 0. -1.
         23    2    1    0    0    0 -0.25715316998E+02  0.64799158707E+01 -0.23689997207E+02  0.89440432994E+02  0.82067705271E+02 0.  0.
         11    1    3    3    0    0 -0.22937166261E+02 -0.24870179927E+02 -0.41289941040E+02  0.53380695734E+02  0.51100000000E-03 0.  1.
         22    1    1    0    0    0  0.25715316998E+02 -0.64799158707E+01  0.23689997207E+02  0.35559567006E+02  0.00000000000E+00 0.  1.
</event>
<event>
 5    1  0.8778268E-005  0.9118800E+02  0.7818608E-02  0.1130116E+00
         25   -1    0    0    0    0  0.00000000000E+00  0.00000000000E+00  0.99999998245E-14  0.12500000000E+03  0.12500000000E+03 0.  0.
        -11    1    3    3    0    0 -0.13871995562E+02  0.33869753570E+02 -0.42635506831E+02  0.56190558911E+02  0.51100000000E-03 0.  1.
         23    2    1    0    0    0 -0.18516771401E+02  0.21536489470E+02 -0.48781572292E+01  0.96181817896E+02  0.91763034355E+02 0.  0.
         11    1    3    3    0    0 -0.46447758396E+01 -0.12333264100E+02  0.37757349602E+02  0.39991258985E+02  0.51100000000E-03 0. -1.
         22    1    1    0    0    0  0.18516771401E+02 -0.21536489470E+02  0.48781572292E+01  0.28818182104E+02  0.00000000000E+00 0.  1.
</event>
<event>
 5    1  0.8778268E-005  0.9118800E+02  0.7818608E-02  0.1130116E+00
         25   -1    0    0    0    0  0.00000000000E+00  0.00000000000E+00  0.99999998245E-14  0.12500000000E+03  0.12500000000E+03 0.  0.
        -11    1    3    3    0    0  0.50601439524E+02 -0.27604641441E+01 -0.22620979269E+02  0.55496257059E+02  0.51100000000E-03 0. -1.
         23    2    1    0    0    0  0.20023523340E+02  0.19258866588E+02 -0.12645485219E+02  0.94475358714E+02  0.89408275224E+02 0.  0.
         11    1    3    3    0    0 -0.30577916184E+02  0.22019330732E+02  0.99754940501E+01  0.38979101655E+02  0.51100000000E-03 0.  1.
         22    1    1    0    0    0 -0.20023523340E+02 -0.19258866588E+02  0.12645485219E+02  0.30524641286E+02  0.00000000000E+00 0. -1.
</event>
<event>
 5    1  0.8778268E-005  0.9118800E+02  0.7818608E-02  0.1130116E+00
         25   -1    0    0    0    0  0.00000000000E+00  0.00000000000E+00  0.99999998245E-14  0.12500000000E+03  0.12500000000E+03 0.  0.
        -11    1    3    3    0    0  0.63965029951E+01 -0.46435550866E+02  0.31389229226E+01  0.46979021617E+02  0.51100000000E-03 0.  1.
         23    2    1    0    0    0 -0.26055494012E+02 -0.12074932431E+02 -0.72743957657E+01  0.95375523715E+02  0.90658043927E+02 0.  0.
         11    1    3    3    0    0 -0.32451997007E+02  0.34360618434E+02 -0.10413318688E+02  0.48396502098E+02  0.51100000000E-03 0. -1.
         22    1    1    0    0    0  0.26055494012E+02  0.12074932431E+02  0.72743957657E+01  0.29624476285E+02  0.00000000000E+00 0. -1.
</event>
<event>
 5    1  0.8778268E-005  0.9118800E+02  0.7818608E-02  0.1130116E+00
         25   -1    0    0    0    0  0.00000000000E+00  0.00000000000E+00  0.99999998245E-14  0.12500000000E+03  0.12500000000E+03 0.  0.
        -11    1    3    3    0    0  0.88052050789E+00 -0.39897210858E+02 -0.97344982760E+01  0.41077039908E+02  0.51100000000E-03 0. -1.
         23    2    1    0    0    0  0.10353260735E+01 -0.60052311628E+00  0.28835473000E+02  0.96139698005E+02  0.91705640510E+02 0.  0.
         11    1    3    3    0    0  0.15480556560E+00  0.39296687742E+02  0.38569971276E+02  0.55062658097E+02  0.51100000000E-03 0.  1.
         22    1    1    0    0    0 -0.10353260735E+01  0.60052311628E+00 -0.28835473000E+02  0.28860301995E+02  0.00000000000E+00 0.  1.
</event>
<event>
 5    1  0.8778268E-005  0.9118800E+02  0.7818608E-02  0.1130116E+00
         25   -1    0    0    0    0  0.00000000000E+00  0.00000000000E+00  0.99999998245E-14  0.12500000000E+03  0.12500000000E+03 0.  0.
        -11    1    3    3    0    0  0.14578133622E+02 -0.33132752241E+02 -0.93634910679E+00  0.36210191947E+02  0.51100000000E-03 0.  1.
         23    2    1    0    0    0  0.14426538090E+02  0.15273803804E+02  0.25972661420E+02  0.91593515223E+02  0.85284106408E+02 0.  0.
         11    1    3    3    0    0 -0.15159553152E+00  0.48406556044E+02  0.26909010527E+02  0.55383323276E+02  0.51100000000E-03 0. -1.
         22    1    1    0    0    0 -0.14426538090E+02 -0.15273803804E+02 -0.25972661420E+02  0.33406484777E+02  0.00000000000E+00 0. -1.
</event>
<event>
 5    1  0.8778268E-005  0.9118800E+02  0.7818608E-02  0.1130116E+00
         25   -1    0    0    0    0  0.00000000000E+00  0.00000000000E+00  0.99999998245E-14  0.12500000000E+03  0.12500000000E+03 0.  0.
        -11    1    3    3    0    0 -0.14870157993E+02 -0.22232293439E+02 -0.32302503925E+02  0.41938624565E+02  0.51100000000E-03 0.  1.
         23    2    1    0    0    0  0.67892238567E+01  0.24035237381E+02 -0.14950962530E+02  0.95891281768E+02  0.91366407623E+02 0.  0.
         11    1    3    3    0    0  0.21659381850E+02  0.46267530820E+02  0.17351541395E+02  0.53952657203E+02  0.51100000000E-03 0. -1.
         22    1    1    0    0    0 -0.67892238567E+01 -0.24035237381E+02  0.14950962530E+02  0.29108718232E+02  0.00000000000E+00 0. -1.
</event>
<event>
 5    1  0.8778268E-005  0.9118800E+02  0.7818608E-02  0.1130116E+00
         25   -1    0    0    0    0  0.00000000000E+00  0.00000000000E+00  0.99999998245E-14  0.12500000000E+03  0.12500000000E+03 0.  0.
        -11    1    3    3    0    0  0.25864188090E+02  0.56498807607E+01 -0.56454710842E+02  0.62353923331E+02  0.51100000000E-03 0. -1.
         23    2    1    0    0    0  0.11613055840E+02  0.46408587978E+01 -0.31488943727E+02  0.91118526989E+02  0.84585056289E+02 0.  0.
         11    1    3    3    0    0 -0.14251132250E+02 -0.10090219629E+01  0.24965767116E+02  0.28764603659E+02  0.51100000000E-03 0.  1.
         22    1    1    0    0    0 -0.11613055840E+02 -0.46408587978E+01  0.31488943727E+02  0.33881473011E+02  0.00000000000E+00 0. -1.
</event>
<event>
 5    1  0.8778268E-005  0.9118800E+02  0.7818608E-02  0.1130116E+00
         25   -1    0    0    0    0  0.00000000000E+00  0.00000000000E+00  0.99999998245E-14  0.12500000000E+03  0.12500000000E+03 0.  0.
        -11    1    3    3    0    0 -0.16153791008E+02  0.32532702116E+02 -0.17764653134E+02  0.40433953209E+02  0.51100000000E-03 0. -1.
         23    2    1    0    0    0 -0.24668769823E+02 -0.14669640340E+02  0.84322360529E+01  0.95085970563E+02  0.90257922870E+02 0.  0.
         11    1    3    3    0    0 -0.85149788150E+01 -0.47202342456E+02  0.26196889187E+02  0.54652017354E+02  0.51100000000E-03 0.  1.
         22    1    1    0    0    0  0.24668769823E+02  0.14669640340E+02 -0.84322360529E+01  0.29914029437E+02  0.00000000000E+00 0.  1.
</event>
<event>
 5    1  0.8778268E-005  0.9118800E+02  0.7818608E-02  0.1130116E+00
         25   -1    0    0    0    0  0.00000000000E+00  0.00000000000E+00  0.99999998245E-14  0.12500000000E+03  0.12500000000E+03 0.  0.
        -11    1    3    3    0    0  0.35317308956E+02  0.12940994955E+01  0.61079414591E+01  0.35864940465E+02  0.51100000000E-03 0. -1.
         23    2    1    0    0    0 -0.23046748544E+02 -0.12477522923E+02  0.12106765561E+02  0.96131072602E+02  0.91693882841E+02 0.  0.
         11    1    3    3    0    0 -0.58364057500E+02 -0.13771622418E+02  0.59988241022E+01  0.60266132137E+02  0.51100000000E-03 0.  1.
         22    1    1    0    0    0  0.23046748544E+02  0.12477522923E+02 -0.12106765561E+02  0.28868927398E+02  0.00000000000E+00 0.  1.
</event>
<event>
 5    1  0.8778268E-005  0.9118800E+02  0.7818608E-02  0.1130116E+00
         25   -1    0    0    0    0  0.00000000000E+00  0.00000000000E+00  0.99999998245E-14  0.12500000000E+03  0.12500000000E+03 0.  0.
        -11    1    3    3    0    0 -0.25204950460E+02 -0.35315938191E+01 -0.25909020617E+02  0.36318576957E+02  0.51100000000E-03 0.  1.
         23    2    1    0    0    0  0.78936074107E+01  0.20925058187E+02  0.17847174717E+02  0.96387262566E+02  0.92042466511E+02 0.  0.
         11    1    3    3    0    0  0.33098557871E+02  0.24456652006E+02  0.43756195334E+02  0.60068685609E+02  0.51100000000E-03 0. -1.
         22    1    1    0    0    0 -0.78936074107E+01 -0.20925058187E+02 -0.17847174717E+02  0.28612737434E+02  0.00000000000E+00 0. -1.
</event>
<event>
 5    1  0.8778268E-005  0.9118800E+02  0.7818608E-02  0.1130116E+00
         25   -1    0    0    0    0  0.00000000000E+00  0.00000000000E+00  0.99999998245E-14  0.12500000000E+03  0.12500000000E+03 0.  0.
        -11    1    3    3    0    0 -0.26099017254E+02 -0.18408956398E+02  0.19040060023E+02  0.37182956623E+02  0.51100000000E-03 0. -1.
         23    2    1    0    0    0  0.22920789452E+02  0.50775082455E+01 -0.10763925849E+02  0.99173544983E+02  0.95751690563E+02 0.  0.
         11    1    3    3    0    0  0.49019806706E+02  0.23486464644E+02 -0.29803985872E+02  0.61990588359E+02  0.51100000000E-03 0.  1.
         22    1    1    0    0    0 -0.22920789452E+02 -0.50775082455E+01  0.10763925849E+02  0.25826455017E+02  0.00000000000E+00 0.  1.
</event>
<event>
 5    1  0.8778268E-005  0.9118800E+02  0.7818608E-02  0.1130116E+00
         25   -1    0    0    0    0  0.00000000000E+00  0.00000000000E+00  0.99999998245E-14  0.12500000000E+03  0.12500000000E+03 0.  0.
        -11    1    3    3    0    0 -0.91461453723E+01 -0.26935668082E+02 -0.28972673875E+02  0.40602931199E+02  0.51100000000E-03 0.  1.
         23    2    1    0    0    0 -0.25947780540E+02 -0.58560936141E-01  0.15167206093E+02  0.94944469977E+02  0.90061742678E+02 0.  0.
         11    1    3    3    0    0 -0.16801635167E+02  0.26877107146E+02  0.44139879968E+02  0.54341538778E+02  0.51100000000E-03 0. -1.
         22    1    1    0    0    0  0.25947780540E+02  0.58560936141E-01 -0.15167206093E+02  0.30055530023E+02  0.00000000000E+00 0. -1.
</event>
<event>
 5    1  0.8778268E-005  0.9118800E+02  0.7818608E-02  0.1130116E+00
         25   -1    0    0    0    0  0.00000000000E+00  0.00000000000E+00  0.99999998245E-14  0.12500000000E+03  0.12500000000E+03 0.  0.
        -11    1    3    3    0    0 -0.78734293642E+01 -0.50708764434E+02  0.35451341438E+02  0.62371205619E+02  0.51100000000E-03 0. -1.
         23    2    1    0    0    0 -0.30063456817E+01 -0.31123281610E+02  0.24069278687E+02  0.85540819204E+02  0.75896013078E+02 0.  0.
         11    1    3    3    0    0  0.48670836825E+01  0.19585482823E+02 -0.11382062750E+02  0.23169613586E+02  0.51100000000E-03 0.  1.
         22    1    1    0    0    0  0.30063456817E+01  0.31123281610E+02 -0.24069278687E+02  0.39459180796E+02  0.00000000000E+00 0. -1.
</event>
<event>
 5    1  0.8778268E-005  0.9118800E+02  0.7818608E-02  0.1130116E+00
         25   -1    0    0    0    0  0.00000000000E+00  0.00000000000E+00  0.99999998245E-14  0.12500000000E+03  0.12500000000E+03 0.  0.
        -11    1    3    3    0    0  0.24640745542E+02  0.52369434507E+02 -0.23474779460E+01  0.57924387476E+02  0.51100000000E-03 0.  1.
         23    2    1    0    0    0  0.24645670128E+02  0.15880726168E+02 -0.74006916702E+01  0.94761336722E+02  0.89807205615E+02 0.  0.
         11    1    3    3    0    0  0.49245859101E-02 -0.36488708340E+02 -0.50532137242E+01  0.36836949246E+02  0.51100000000E-03 0. -1.
         22    1    1    0    0    0 -0.24645670128E+02 -0.15880726168E+02  0.74006916702E+01  0.30238663278E+02  0.00000000000E+00 0.  1.
</event>
<event>
 5    1  0.8778268E-005  0.9118800E+02  0.7818608E-02  0.1130116E+00
         25   -1    0    0    0    0  0.00000000000E+00  0.00000000000E+00  0.99999998245E-14  0.12500000000E+03  0.12500000000E+03 0.  0.
        -11    1    3    3    0    0 -0.42190435190E+02 -0.22161137555E+02  0.27182605840E+02  0.54863857865E+02  0.51100000000E-03 0. -1.
         23    2    1    0    0    0 -0.29104735562E+02  0.30781446445E+01 -0.20752834403E+01  0.95659457948E+02  0.91048692945E+02 0.  0.
         11    1    3    3    0    0  0.13085699629E+02  0.25239282199E+02 -0.29257889280E+02  0.40795600083E+02  0.51100000000E-03 0.  1.
         22    1    1    0    0    0  0.29104735562E+02 -0.30781446445E+01  0.20752834403E+01  0.29340542052E+02  0.00000000000E+00 0. -1.
</event>
<event>
 5    1  0.8778268E-005  0.9118800E+02  0.7818608E-02  0.1130116E+00
         25   -1    0    0    0    0  0.00000000000E+00  0.00000000000E+00  0.99999998245E-14  0.12500000000E+03  0.12500000000E+03 0.  0.
        -11    1    3    3    0    0 -0.43416973163E+02  0.69757488416E+01 -0.41282854386E+02  0.60315575907E+02  0.51100000000E-03 0.  1.
         23    2    1    0    0    0 -0.24454595358E+02 -0.39819690561E+01 -0.33008291461E+02  0.83727362371E+02  0.72848065127E+02 0.  0.
         11    1    3    3    0    0  0.18962377806E+02 -0.10957717898E+02  0.82745629246E+01  0.23411786464E+02  0.51100000000E-03 0. -1.
         22    1    1    0    0    0  0.24454595358E+02  0.39819690561E+01  0.33008291461E+02  0.41272637629E+02  0.00000000000E+00 0.  1.
</event>
<event>
 5    1  0.8778268E-005  0.9118800E+02  0.7818608E-02  0.1130116E+00
         25   -1    0    0    0    0  0.00000000000E+00  0.00000000000E+00  0.99999998245E-14  0.12500000000E+03  0.12500000000E+03 0.  0.
        -11    1    3    3    0    0 -0.26365817093E+02 -0.22442596315E+02 -0.67601061219E+00  0.34630671824E+02  0.51100000000E-03 0.  1.
         23    2    1    0    0    0  0.26591103580E+02 -0.12455444531E+01  0.15850432819E+02  0.94018160301E+02  0.88766773486E+02 0.  0.
         11    1    3    3    0    0  0.52956920673E+02  0.21197051862E+02  0.16526443432E+02  0.59387488477E+02  0.51100000000E-03 0. -1.
         22    1    1    0    0    0 -0.26591103580E+02  0.12455444531E+01 -0.15850432819E+02  0.30981839699E+02  0.00000000000E+00 0. -1.
</event>
<event>
 5    1  0.8778268E-005  0.9118800E+02  0.7818608E-02  0.1130116E+00
         25   -1    0    0    0    0  0.00000000000E+00  0.00000000000E+00  0.99999998245E-14  0.12500000000E+03  0.12500000000E+03 0.  0.
        -11    1    3    3    0    0 -0.29414861445E+01 -0.51523743184E+02  0.30377132372E+02  0.59884210138E+02  0.51100000000E-03 0.  1.
         23    2    1    0    0    0  0.94128968221E+01 -0.19109885840E+02  0.19180762860E+02  0.96334829020E+02  0.91971230584E+02 0.  0.
         11    1    3    3    0    0  0.12354382967E+02  0.32413857344E+02 -0.11196369512E+02  0.36450618882E+02  0.51100000000E-03 0. -1.
         22    1    1    0    0    0 -0.94128968221E+01  0.19109885840E+02 -0.19180762860E+02  0.28665170980E+02  0.00000000000E+00 0.  1.
</event>
<event>
 5    1  0.8778268E-005  0.9118800E+02  0.7818608E-02  0.1130116E+00
         25   -1    0    0    0    0  0.00000000000E+00  0.00000000000E+00  0.99999998245E-14  0.12500000000E+03  0.12500000000E+03 0.  0.
        -11    1    3    3    0    0  0.42178825586E+02  0.12195579649E+02 -0.20703722608E+02  0.48543069751E+02  0.51100000000E-03 0. -1.
         23    2    1    0    0    0 -0.20171986432E+01  0.26077544479E+02 -0.13947705145E+02  0.95358038270E+02  0.90633931656E+02 0.  0.
         11    1    3    3    0    0 -0.44196024229E+02  0.13881964830E+02  0.67560174632E+01  0.46814968519E+02  0.51100000000E-03 0.  1.
         22    1    1    0    0    0  0.20171986432E+01 -0.26077544479E+02  0.13947705145E+02  0.29641961730E+02  0.00000000000E+00 0. -1.
</event>
<event>
 5    1  0.8778268E-005  0.9118800E+02  0.7818608E-02  0.1130116E+00
         25   -1    0    0    0    0  0.00000000000E+00  0.00000000000E+00  0.99999998245E-14  0.12500000000E+03  0.12500000000E+03 0.  0.
        -11    1    3    3    0    0  0.29161811154E+02 -0.48930100581E+00 -0.47640421584E+02  0.55859291208E+02  0.51100000000E-03 0. -1.
         23    2    1    0    0    0 -0.58085073860E+01  0.51523973419E+01 -0.27107193178E+02  0.96802732785E+02  0.92604984726E+02 0.  0.
         11    1    3    3    0    0 -0.34970318540E+02  0.56416983477E+01  0.20533228406E+02  0.40943441576E+02  0.51100000000E-03 0.  1.
         22    1    1    0    0    0  0.58085073860E+01 -0.51523973419E+01  0.27107193178E+02  0.28197267215E+02  0.00000000000E+00 0. -1.
</event>
<event>
 5    1  0.8778268E-005  0.9118800E+02  0.7818608E-02  0.1130116E+00
         25   -1    0    0    0    0  0.00000000000E+00  0.00000000000E+00  0.99999998245E-14  0.12500000000E+03  0.12500000000E+03 0.  0.
        -11    1    3    3    0    0 -0.34239251684E+02 -0.32295663507E+02 -0.26097975027E+02  0.53818589149E+02  0.51100000000E-03 0.  1.
         23    2    1    0    0    0 -0.20247106743E+01 -0.72341605205E+01 -0.29293713946E+02  0.94758402680E+02  0.89803121716E+02 0.  0.
         11    1    3    3    0    0  0.32214541010E+02  0.25061502986E+02 -0.31957389187E+01  0.40939813531E+02  0.51100000000E-03 0. -1.
         22    1    1    0    0    0  0.20247106743E+01  0.72341605205E+01  0.29293713946E+02  0.30241597320E+02  0.00000000000E+00 0. -1.
</event>
<event>
 5    1  0.8778268E-005  0.9118800E+02  0.7818608E-02  0.1130116E+00
         25   -1    0    0    0    0  0.00000000000E+00  0.00000000000E+00  0.99999998245E-14  0.12500000000E+03  0.12500000000E+03 0.  0.
        -11    1    3    3    0    0 -0.16306056457E+02  0.28002011885E+02 -0.11522105738E+02  0.34391264410E+02  0.51100000000E-03 0. -1.
         23    2    1    0    0    0 -0.24698743653E+01 -0.27225696324E+02  0.10883326595E+02  0.95575764794E+02  0.90933718710E+02 0.  0.
         11    1    3    3    0    0  0.13836182092E+02 -0.55227708209E+02  0.22405432333E+02  0.61184500384E+02  0.51100000000E-03 0.  1.
         22    1    1    0    0    0  0.24698743653E+01  0.27225696324E+02 -0.10883326595E+02  0.29424235206E+02  0.00000000000E+00 0.  1.
</event>
<event>
 5    1  0.8778268E-005  0.9118800E+02  0.7818608E-02  0.1130116E+00
         25   -1    0    0    0    0  0.00000000000E+00  0.00000000000E+00  0.99999998245E-14  0.12500000000E+03  0.12500000000E+03 0.  0.
        -11    1    3    3    0    0 -0.74755189715E+01 -0.38677179711E+02  0.31891355233E+01  0.39521869894E+02  0.51100000000E-03 0. -1.
         23    2    1    0    0    0 -0.13821825849E+02  0.16724683294E+02 -0.15500851435E+02  0.98334773650E+02  0.94650374603E+02 0.  0.
         11    1    3    3    0    0 -0.63463068774E+01  0.55401863005E+02 -0.18689986958E+02  0.58812903756E+02  0.51100000000E-03 0.  1.
         22    1    1    0    0    0  0.13821825849E+02 -0.16724683294E+02  0.15500851435E+02  0.26665226350E+02  0.00000000000E+00 0.  1.
</event>
<event>
 5    1  0.8778268E-005  0.9118800E+02  0.7818608E-02  0.1130116E+00
         25   -1    0    0    0    0  0.00000000000E+00  0.00000000000E+00  0.99999998245E-14  0.12500000000E+03  0.12500000000E+03 0.  0.
        -11    1    3    3    0    0 -0.26317058094E+02  0.21846478641E+02 -0.10657498022E+02  0.35825109072E+02  0.51100000000E-03 0.  1.
         23    2    1    0    0    0  0.61100418460E+01 -0.25768904345E+02  0.95087482104E+01  0.96861319593E+02  0.92684032596E+02 0.  0.
         11    1    3    3    0    0  0.32427099940E+02 -0.47615382986E+02  0.20166246232E+02  0.61036210521E+02  0.51100000000E-03 0. -1.
         22    1    1    0    0    0 -0.61100418460E+01  0.25768904345E+02 -0.95087482104E+01  0.28138680407E+02  0.00000000000E+00 0. -1.
</event>
<event>
 5    1  0.8778268E-005  0.9118800E+02  0.7818608E-02  0.1130116E+00
         25   -1    0    0    0    0  0.00000000000E+00  0.00000000000E+00  0.99999998245E-14  0.12500000000E+03  0.12500000000E+03 0.  0.
        -11    1    3    3    0    0  0.14128835227E+02 -0.32969268457E+02  0.49472617434E+02  0.61107581555E+02  0.51100000000E-03 0. -1.
         23    2    1    0    0    0  0.10488684918E+02 -0.66403394006E+01  0.24287267159E+02  0.97724040536E+02  0.93840343850E+02 0.  0.
         11    1    3    3    0    0 -0.36401503089E+01  0.26328929057E+02 -0.25185350275E+02  0.36616458981E+02  0.51100000000E-03 0.  1.
         22    1    1    0    0    0 -0.10488684918E+02  0.66403394006E+01 -0.24287267159E+02  0.27275959464E+02  0.00000000000E+00 0. -1.
</event>
<event>
 5    1  0.8778268E-005  0.9118800E+02  0.7818608E-02  0.1130116E+00
         25   -1    0    0    0    0  0.00000000000E+00  0.00000000000E+00  0.99999998245E-14  0.12500000000E+03  0.12500000000E+03 0.  0.
        -11    1    3    3    0    0 -0.37539646889E+02 -0.22301537682E+01 -0.20317467749E+02  0.42743399144E+02  0.51100000000E-03 0.  1.
         23    2    1    0    0    0  0.15119676864E+02 -0.41373851103E+01 -0.24836191882E+02  0.95630645032E+02  0.91009127334E+02 0.  0.
         11    1    3    3    0    0  0.52659323753E+02 -0.19072313421E+01 -0.45187241326E+01  0.52887245888E+02  0.51100000000E-03 0. -1.
         22    1    1    0    0    0 -0.15119676864E+02  0.41373851103E+01  0.24836191882E+02  0.29369354968E+02  0.00000000000E+00 0. -1.
</event>
<event>
 5    1  0.8778268E-005  0.9118800E+02  0.7818608E-02  0.1130116E+00
         25   -1    0    0    0    0  0.00000000000E+00  0.00000000000E+00  0.99999998245E-14  0.12500000000E+03  0.12500000000E+03 0.  0.
        -11    1    3    3    0    0  0.19428409069E+02 -0.21489919560E+02  0.21005949398E+02  0.35784488707E+02  0.51100000000E-03 0.  1.
         23    2    1    0    0    0  0.37335994093E+01  0.10952441610E+02 -0.26890618664E+02  0.95725418638E+02  0.91139204843E+02 0.  0.
         11    1    3    3    0    0 -0.15694809660E+02  0.32442361170E+02 -0.47896568062E+02  0.59940929931E+02  0.51100000000E-03 0. -1.
         22    1    1    0    0    0 -0.37335994093E+01 -0.10952441610E+02  0.26890618664E+02  0.29274581362E+02  0.00000000000E+00 0. -1.
</event>
<event>
 5    1  0.8778268E-005  0.9118800E+02  0.7818608E-02  0.1130116E+00
         25   -1    0    0    0    0  0.00000000000E+00  0.00000000000E+00  0.99999998245E-14  0.12500000000E+03  0.12500000000E+03 0.  0.
        -11    1    3    3    0    0 -0.47628909422E+02  0.22762298193E+02  0.43908652415E+01  0.52970887566E+02  0.51100000000E-03 0.  1.
         23    2    1    0    0    0 -0.65649161484E+01  0.22707124450E+01  0.21849816354E+02  0.10207253320E+03  0.99464231263E+02 0.  0.
         11    1    3    3    0    0  0.41063993273E+02 -0.20491585747E+02  0.17458951112E+02  0.49101645637E+02  0.51100000000E-03 0. -1.
         22    1    1    0    0    0  0.65649161484E+01 -0.22707124450E+01 -0.21849816354E+02  0.22927466797E+02  0.00000000000E+00 0. -1.
</event>
<event>
 5    1  0.8778268E-005  0.9118800E+02  0.7818608E-02  0.1130116E+00
         25   -1    0    0    0    0  0.00000000000E+00  0.00000000000E+00  0.99999998245E-14  0.12500000000E+03  0.12500000000E+03 0.  0.
        -11    1    3    3    0    0 -0.25588756226E+02  0.28983947380E+02 -0.22856435173E+01  0.38730838068E+02  0.51100000000E-03 0.  1.
         23    2    1    0    0    0  0.26390419538E+02  0.19532084133E+02 -0.57171029856E+01  0.91673706769E+02  0.85401561416E+02 0.  0.
         11    1    3    3    0    0  0.51979175764E+02 -0.94518632469E+01 -0.34314594683E+01  0.52942868701E+02  0.51100000000E-03 0. -1.
         22    1    1    0    0    0 -0.26390419538E+02 -0.19532084133E+02  0.57171029856E+01  0.33326293231E+02  0.00000000000E+00 0. -1.
</event>
<event>
 5    1  0.8778268E-005  0.9118800E+02  0.7818608E-02  0.1130116E+00
         25   -1    0    0    0    0  0.00000000000E+00  0.00000000000E+00  0.99999998245E-14  0.12500000000E+03  0.12500000000E+03 0.  0.
        -11    1    3    3    0    0  0.23798121815E+01  0.26176052133E+02 -0.20813102424E+02  0.33526622915E+02  0.51100000000E-03 0.  1.
         23    2    1    0    0    0  0.70479481372E+01 -0.28827081898E+02  0.57271077239E+01  0.94776267825E+02  0.89827985373E+02 0.  0.
         11    1    3    3    0    0  0.46681359557E+01 -0.55003134032E+02  0.26540210148E+02  0.61249644910E+02  0.51100000000E-03 0. -1.
         22    1    1    0    0    0 -0.70479481372E+01  0.28827081898E+02 -0.57271077239E+01  0.30223732175E+02  0.00000000000E+00 0. -1.
</event>
<event>
 5    1  0.8778268E-005  0.9118800E+02  0.7818608E-02  0.1130116E+00
         25   -1    0    0    0    0  0.00000000000E+00  0.00000000000E+00  0.99999998245E-14  0.12500000000E+03  0.12500000000E+03 0.  0.
        -11    1    3    3    0    0 -0.13647688175E+02  0.12536922395E+02  0.36756199225E+02  0.41163721860E+02  0.51100000000E-03 0. -1.
         23    2    1    0    0    0  0.28413656114E+02  0.93374356299E+01  0.34841549038E+01  0.94889156549E+02  0.89984938391E+02 0.  0.
         11    1    3    3    0    0  0.42061344290E+02 -0.31994867654E+01 -0.33272044321E+02  0.53725434689E+02  0.51100000000E-03 0.  1.
         22    1    1    0    0    0 -0.28413656114E+02 -0.93374356299E+01 -0.34841549038E+01  0.30110843451E+02  0.00000000000E+00 0.  1.
</event>
<event>
 5    1  0.8778268E-005  0.9118800E+02  0.7818608E-02  0.1130116E+00
         25   -1    0    0    0    0  0.00000000000E+00  0.00000000000E+00  0.99999998245E-14  0.12500000000E+03  0.12500000000E+03 0.  0.
        -11    1    3    3    0    0 -0.53161770416E+02  0.30219108469E+02  0.59847152390E+01  0.61442535488E+02  0.51100000000E-03 0.  1.
         23    2    1    0    0    0 -0.23839629789E+02  0.52487432032E+01 -0.92825370256E+00  0.10057176002E+03  0.97559930322E+02 0.  0.
         11    1    3    3    0    0  0.29322140627E+02 -0.24970365266E+02 -0.69129689415E+01  0.39129224530E+02  0.51100000000E-03 0. -1.
         22    1    1    0    0    0  0.23839629789E+02 -0.52487432032E+01  0.92825370256E+00  0.24428239982E+02  0.00000000000E+00 0.  1.
</event>
<event>
 5    1  0.8778268E-005  0.9118800E+02  0.7818608E-02  0.1130116E+00
         25   -1    0    0    0    0  0.00000000000E+00  0.00000000000E+00  0.99999998245E-14  0.12500000000E+03  0.12500000000E+03 0.  0.
        -11    1    3    3    0    0  0.23627094298E+02  0.36200516338E+02 -0.87398359842E+01  0.44103307148E+02  0.51100000000E-03 0. -1.
         23    2    1    0    0    0  0.25400401069E+02 -0.14538327722E+02  0.60995761659E+00  0.95726882713E+02  0.91141212841E+02 0.  0.
         11    1    3    3    0    0  0.17733067712E+01 -0.50738844060E+02  0.93497936008E+01  0.51623575565E+02  0.51100000000E-03 0.  1.
         22    1    1    0    0    0 -0.25400401069E+02  0.14538327722E+02 -0.60995761659E+00  0.29273117287E+02  0.00000000000E+00 0.  1.
</event>
<event>
 5    1  0.8778268E-005  0.9118800E+02  0.7818608E-02  0.1130116E+00
         25   -1    0    0    0    0  0.00000000000E+00  0.00000000000E+00  0.99999998245E-14  0.12500000000E+03  0.12500000000E+03 0.  0.
        -11    1    3    3    0    0  0.35404326462E+02  0.28962802871E+02  0.41605432515E+02  0.61833019475E+02  0.51100000000E-03 0. -1.
         23    2    1    0    0    0  0.21200413243E+02  0.13111608421E+02  0.14988297205E+02  0.95913562436E+02  0.91396885116E+02 0.  0.
         11    1    3    3    0    0 -0.14203913219E+02 -0.15851194449E+02 -0.26617135309E+02  0.34080542961E+02  0.51100000000E-03 0.  1.
         22    1    1    0    0    0 -0.21200413243E+02 -0.13111608421E+02 -0.14988297205E+02  0.29086437564E+02  0.00000000000E+00 0. -1.
</event>
<event>
 5    1  0.8778268E-005  0.9118800E+02  0.7818608E-02  0.1130116E+00
         25   -1    0    0    0    0  0.00000000000E+00  0.00000000000E+00  0.99999998245E-14  0.12500000000E+03  0.12500000000E+03 0.  0.
        -11    1    3    3    0    0 -0.35325519849E+02 -0.29386762868E+01  0.48160535544E+02  0.59799375875E+02  0.51100000000E-03 0.  1.
         23    2    1    0    0    0 -0.23007383539E+02 -0.12067012604E+02  0.18768384191E+02  0.92949965123E+02  0.87249591866E+02 0.  0.
         11    1    3    3    0    0  0.12318136310E+02 -0.91283363169E+01 -0.29392151353E+02  0.33150589248E+02  0.51100000000E-03 0. -1.
         22    1    1    0    0    0  0.23007383539E+02  0.12067012604E+02 -0.18768384191E+02  0.32050034877E+02  0.00000000000E+00 0.  1.
</event>
<event>
 5    1  0.8778268E-005  0.9118800E+02  0.7818608E-02  0.1130116E+00
         25   -1    0    0    0    0  0.00000000000E+00  0.00000000000E+00  0.99999998245E-14  0.12500000000E+03  0.12500000000E+03 0.  0.
        -11    1    3    3    0    0  0.31906873951E+02  0.12329478005E+01 -0.95695046769E+01  0.33333829447E+02  0.51100000000E-03 0.  1.
         23    2    1    0    0    0 -0.28002011961E+02  0.25627686417E+01  0.79729983284E+01  0.95772458890E+02  0.91203699061E+02 0.  0.
         11    1    3    3    0    0 -0.59908885912E+02  0.13298208412E+01  0.17542503005E+02  0.62438629443E+02  0.51100000000E-03 0. -1.
         22    1    1    0    0    0  0.28002011961E+02 -0.25627686417E+01 -0.79729983284E+01  0.29227541110E+02  0.00000000000E+00 0. -1.
</event>
<event>
 5    1  0.8778268E-005  0.9118800E+02  0.7818608E-02  0.1130116E+00
         25   -1    0    0    0    0  0.00000000000E+00  0.00000000000E+00  0.99999998245E-14  0.12500000000E+03  0.12500000000E+03 0.  0.
        -11    1    3    3    0    0  0.18603779732E+01 -0.29343162396E+02  0.27781218462E+02  0.40450936764E+02  0.51100000000E-03 0.  1.
         23    2    1    0    0    0 -0.19736301644E+02  0.18590759644E+02  0.12057961209E+02  0.95326234226E+02  0.90590057713E+02 0.  0.
         11    1    3    3    0    0 -0.21596679617E+02  0.47933922040E+02 -0.15723257252E+02  0.54875297462E+02  0.51100000000E-03 0. -1.
         22    1    1    0    0    0  0.19736301644E+02 -0.18590759644E+02 -0.12057961209E+02  0.29673765774E+02  0.00000000000E+00 0. -1.
</event>
<event>
 5    1  0.8778268E-005  0.9118800E+02  0.7818608E-02  0.1130116E+00
         25   -1    0    0    0    0  0.00000000000E+00  0.00000000000E+00  0.99999998245E-14  0.12500000000E+03  0.12500000000E+03 0.  0.
        -11    1    3    3    0    0  0.78308479549E+01 -0.27199395715E+02 -0.30966207728E+02  0.41952774977E+02  0.51100000000E-03 0.  1.
         23    2    1    0    0    0 -0.27297198266E+02  0.65166486331E+01 -0.78084811127E+01  0.95869670103E+02  0.91336835537E+02 0.  0.
         11    1    3    3    0    0 -0.35128046221E+02  0.33716044348E+02  0.23157726615E+02  0.53916895126E+02  0.51100000000E-03 0. -1.
         22    1    1    0    0    0  0.27297198266E+02 -0.65166486331E+01  0.78084811127E+01  0.29130329897E+02  0.00000000000E+00 0.  1.
</event>
<event>
 5    1  0.8778268E-005  0.9118800E+02  0.7818608E-02  0.1130116E+00
         25   -1    0    0    0    0  0.00000000000E+00  0.00000000000E+00  0.99999998245E-14  0.12500000000E+03  0.12500000000E+03 0.  0.
        -11    1    3    3    0    0 -0.19072110386E+02  0.23185112916E+02 -0.59365353442E+01  0.30602897047E+02  0.51100000000E-03 0.  1.
         23    2    1    0    0    0  0.16235430833E+02 -0.26542582403E+02  0.73693002381E+01  0.93024939704E+02  0.87356939770E+02 0.  0.
         11    1    3    3    0    0  0.35307541219E+02 -0.49727695319E+02  0.13305835582E+02  0.62422042657E+02  0.51100000000E-03 0. -1.
         22    1    1    0    0    0 -0.16235430833E+02  0.26542582403E+02 -0.73693002381E+01  0.31975060296E+02  0.00000000000E+00 0. -1.
</event>
<event>
 5    1  0.8778268E-005  0.9118800E+02  0.7818608E-02  0.1130116E+00
         25   -1    0    0    0    0  0.00000000000E+00  0.00000000000E+00  0.99999998245E-14  0.12500000000E+03  0.12500000000E+03 0.  0.
        -11    1    3    3    0    0 -0.51415312391E+01  0.10356162941E+02  0.38758683177E+02  0.40446519952E+02  0.51100000000E-03 0.  1.
         23    2    1    0    0    0  0.25606621142E+02 -0.14742473208E+02  0.68748648427E+00  0.95444760189E+02  0.90753457495E+02 0.  0.
         11    1    3    3    0    0  0.30748152381E+02 -0.25098636149E+02 -0.38071196692E+02  0.54998240238E+02  0.51100000000E-03 0. -1.
         22    1    1    0    0    0 -0.25606621142E+02  0.14742473208E+02 -0.68748648427E+00  0.29555239811E+02  0.00000000000E+00 0. -1.
</event>
<event>
 5    1  0.8778268E-005  0.9118800E+02  0.7818608E-02  0.1130116E+00
         25   -1    0    0    0    0  0.00000000000E+00  0.00000000000E+00  0.99999998245E-14  0.12500000000E+03  0.12500000000E+03 0.  0.
        -11    1    3    3    0    0 -0.32868479205E+02 -0.10251670433E+02  0.50280696708E+02  0.60939167484E+02  0.51100000000E-03 0.  1.
         23    2    1    0    0    0 -0.26664714993E+02 -0.83389135894E+01  0.23508994075E+02  0.88486751611E+02  0.80602034110E+02 0.  0.
         11    1    3    3    0    0  0.62037642122E+01  0.19127568432E+01 -0.26771702633E+02  0.27547584127E+02  0.51100000000E-03 0. -1.
         22    1    1    0    0    0  0.26664714993E+02  0.83389135894E+01 -0.23508994075E+02  0.36513248389E+02  0.00000000000E+00 0.  1.
</event>
<event>
 5    1  0.8778268E-005  0.9118800E+02  0.7818608E-02  0.1130116E+00
         25   -1    0    0    0    0  0.00000000000E+00  0.00000000000E+00  0.99999998245E-14  0.12500000000E+03  0.12500000000E+03 0.  0.
        -11    1    3    3    0    0 -0.30551944263E+02  0.73125350304E+01 -0.12770287261E+02  0.33911276942E+02  0.51100000000E-03 0. -1.
         23    2    1    0    0    0  0.11622452703E+02 -0.24069561165E+02  0.16010138357E+02  0.93843143424E+02  0.88519974334E+02 0.  0.
         11    1    3    3    0    0  0.42174396966E+02 -0.31382096195E+02  0.28780425618E+02  0.59931866482E+02  0.51100000000E-03 0.  1.
         22    1    1    0    0    0 -0.11622452703E+02  0.24069561165E+02 -0.16010138357E+02  0.31156856576E+02  0.00000000000E+00 0.  1.
</event>
<event>
 5    1  0.8778268E-005  0.9118800E+02  0.7818608E-02  0.1130116E+00
         25   -1    0    0    0    0  0.00000000000E+00  0.00000000000E+00  0.99999998245E-14  0.12500000000E+03  0.12500000000E+03 0.  0.
        -11    1    3    3    0    0 -0.23675083523E+02  0.24945499028E+02 -0.21053482444E+01  0.34456058873E+02  0.51100000000E-03 0.  1.
         23    2    1    0    0    0 -0.12273187411E+01 -0.29332416342E+02 -0.10564973682E+02  0.93798788026E+02  0.88457317428E+02 0.  0.
         11    1    3    3    0    0  0.22447764782E+02 -0.54277915369E+02 -0.84596254372E+01  0.59342729153E+02  0.51100000000E-03 0. -1.
         22    1    1    0    0    0  0.12273187411E+01  0.29332416342E+02  0.10564973682E+02  0.31201211974E+02  0.00000000000E+00 0. -1.
</event>
<event>
 5    1  0.8778268E-005  0.9118800E+02  0.7818608E-02  0.1130116E+00
         25   -1    0    0    0    0  0.00000000000E+00  0.00000000000E+00  0.99999998245E-14  0.12500000000E+03  0.12500000000E+03 0.  0.
        -11    1    3    3    0    0 -0.31212702618E+02  0.25538971022E+02 -0.24859238529E+02  0.47375664492E+02  0.51100000000E-03 0.  1.
         23    2    1    0    0    0  0.13913610499E+02  0.24314161972E+02 -0.13378730577E+02  0.93955556675E+02  0.88678572207E+02 0.  0.
         11    1    3    3    0    0  0.45126313116E+02 -0.12248090502E+01  0.11480507951E+02  0.46579892183E+02  0.51100000000E-03 0. -1.
         22    1    1    0    0    0 -0.13913610499E+02 -0.24314161972E+02  0.13378730577E+02  0.31044443325E+02  0.00000000000E+00 0.  1.
</event>
<event>
 5    1  0.8778268E-005  0.9118800E+02  0.7818608E-02  0.1130116E+00
         25   -1    0    0    0    0  0.00000000000E+00  0.00000000000E+00  0.99999998245E-14  0.12500000000E+03  0.12500000000E+03 0.  0.
        -11    1    3    3    0    0 -0.32324089786E+02  0.75814186694E+01 -0.35457871176E+02  0.48575562973E+02  0.51100000000E-03 0. -1.
         23    2    1    0    0    0  0.26242823097E+01 -0.15896129861E+02 -0.29890204548E+02  0.91044173841E+02  0.84475105565E+02 0.  0.
         11    1    3    3    0    0  0.34948372096E+02 -0.23477548530E+02  0.55676666271E+01  0.42468610868E+02  0.51100000000E-03 0.  1.
         22    1    1    0    0    0 -0.26242823097E+01  0.15896129861E+02  0.29890204548E+02  0.33955826159E+02  0.00000000000E+00 0.  1.
</event>
<event>
 5    1  0.8778268E-005  0.9118800E+02  0.7818608E-02  0.1130116E+00
         25   -1    0    0    0    0  0.00000000000E+00  0.00000000000E+00  0.99999998245E-14  0.12500000000E+03  0.12500000000E+03 0.  0.
        -11    1    3    3    0    0 -0.21812729651E+02  0.13153535825E+02 -0.24046124383E+02  0.35028942000E+02  0.51100000000E-03 0.  1.
         23    2    1    0    0    0  0.75915485572E+01  0.14118543275E+01  0.28003067902E+02  0.95951820125E+02  0.91449193716E+02 0.  0.
         11    1    3    3    0    0  0.29404278208E+02 -0.11741681497E+02  0.52049192285E+02  0.60922878125E+02  0.51100000000E-03 0. -1.
         22    1    1    0    0    0 -0.75915485572E+01 -0.14118543275E+01 -0.28003067902E+02  0.29048179875E+02  0.00000000000E+00 0. -1.
</event>
<event>
 5    1  0.8778268E-005  0.9118800E+02  0.7818608E-02  0.1130116E+00
         25   -1    0    0    0    0  0.00000000000E+00  0.00000000000E+00  0.99999998245E-14  0.12500000000E+03  0.12500000000E+03 0.  0.
        -11    1    3    3    0    0  0.99845363921E+01 -0.49304978202E+02 -0.22469737522E+02  0.55095924959E+02  0.51100000000E-03 0.  1.
         23    2    1    0    0    0  0.19372519358E+02 -0.93454226472E+01 -0.19019319635E+02  0.96288226281E+02  0.91907870012E+02 0.  0.
         11    1    3    3    0    0  0.93879829658E+01  0.39959555555E+02  0.34504178866E+01  0.41192301322E+02  0.51100000000E-03 0. -1.
         22    1    1    0    0    0 -0.19372519358E+02  0.93454226472E+01  0.19019319635E+02  0.28711773719E+02  0.00000000000E+00 0.  1.
</event>
<event>
 5    1  0.8778268E-005  0.9118800E+02  0.7818608E-02  0.1130116E+00
         25   -1    0    0    0    0  0.00000000000E+00  0.00000000000E+00  0.99999998245E-14  0.12500000000E+03  0.12500000000E+03 0.  0.
        -11    1    3    3    0    0  0.99707438455E+01 -0.60415199804E+02 -0.47934007006E+01  0.61419775241E+02  0.51100000000E-03 0.  1.
         23    2    1    0    0    0 -0.15592015669E+01 -0.28580145827E+02  0.31700565116E+01  0.96202342052E+02  0.91790988190E+02 0.  0.
         11    1    3    3    0    0 -0.11529945412E+02  0.31835053977E+02  0.79634572121E+01  0.34782566811E+02  0.51100000000E-03 0. -1.
         22    1    1    0    0    0  0.15592015669E+01  0.28580145827E+02 -0.31700565116E+01  0.28797657948E+02  0.00000000000E+00 0.  1.
</event>
<event>
 5    1  0.8778268E-005  0.9118800E+02  0.7818608E-02  0.1130116E+00
         25   -1    0    0    0    0  0.00000000000E+00  0.00000000000E+00  0.99999998245E-14  0.12500000000E+03  0.12500000000E+03 0.  0.
        -11    1    3    3    0    0 -0.25460358729E+02 -0.39455844983E+02 -0.40872971489E+02  0.62254263859E+02  0.51100000000E-03 0.  1.
         23    2    1    0    0    0 -0.11622218156E+02 -0.13102820643E+02 -0.18761391140E+02  0.99333881065E+02  0.95960774623E+02 0.  0.
         11    1    3    3    0    0  0.13838140573E+02  0.26353024340E+02  0.22111580350E+02  0.37079617207E+02  0.51100000000E-03 0. -1.
         22    1    1    0    0    0  0.11622218156E+02  0.13102820643E+02  0.18761391140E+02  0.25666118935E+02  0.00000000000E+00 0.  1.
</event>
<event>
 5    1  0.8778268E-005  0.9118800E+02  0.7818608E-02  0.1130116E+00
         25   -1    0    0    0    0  0.00000000000E+00  0.00000000000E+00  0.99999998245E-14  0.12500000000E+03  0.12500000000E+03 0.  0.
        -11    1    3    3    0    0 -0.52087353406E+02  0.90727377724E+01  0.18166234372E+02  0.55905447203E+02  0.51100000000E-03 0.  1.
         23    2    1    0    0    0 -0.11685099933E+02 -0.11849617841E+01  0.24273270694E+02  0.98034515301E+02  0.94253004330E+02 0.  0.
         11    1    3    3    0    0  0.40402253473E+02 -0.10257699556E+02  0.61070363220E+01  0.42129068097E+02  0.51100000000E-03 0. -1.
         22    1    1    0    0    0  0.11685099933E+02  0.11849617841E+01 -0.24273270694E+02  0.26965484699E+02  0.00000000000E+00 0. -1.
</event>
<event>
 5    1  0.8778268E-005  0.9118800E+02  0.7818608E-02  0.1130116E+00
         25   -1    0    0    0    0  0.00000000000E+00  0.00000000000E+00  0.99999998245E-14  0.12500000000E+03  0.12500000000E+03 0.  0.
        -11    1    3    3    0    0  0.34526088018E+02  0.38205394256E+02 -0.44143461284E+01  0.51683550150E+02  0.51100000000E-03 0. -1.
         23    2    1    0    0    0 -0.29318426767E+01  0.20592318762E+02 -0.20220716855E+02  0.95991093030E+02  0.91502859286E+02 0.  0.
         11    1    3    3    0    0 -0.37457930694E+02 -0.17613075494E+02 -0.15806370726E+02  0.44307542880E+02  0.51100000000E-03 0.  1.
         22    1    1    0    0    0  0.29318426767E+01 -0.20592318762E+02  0.20220716855E+02  0.29008906970E+02  0.00000000000E+00 0. -1.
</event>
<event>
 5    1  0.8778268E-005  0.9118800E+02  0.7818608E-02  0.1130116E+00
         25   -1    0    0    0    0  0.00000000000E+00  0.00000000000E+00  0.99999998245E-14  0.12500000000E+03  0.12500000000E+03 0.  0.
        -11    1    3    3    0    0  0.18956632385E+02 -0.58849054193E+01 -0.30044583051E+02  0.36009207075E+02  0.51100000000E-03 0.  1.
         23    2    1    0    0    0 -0.31815054770E+02 -0.82869576854E+00 -0.52262555203E+01  0.92747896294E+02  0.86959611738E+02 0.  0.
         11    1    3    3    0    0 -0.50771687155E+02  0.50562096508E+01  0.24818327531E+02  0.56738689219E+02  0.51100000000E-03 0. -1.
         22    1    1    0    0    0  0.31815054770E+02  0.82869576854E+00  0.52262555203E+01  0.32252103706E+02  0.00000000000E+00 0. -1.
</event>
<event>
 5    1  0.8778268E-005  0.9118800E+02  0.7818608E-02  0.1130116E+00
         25   -1    0    0    0    0  0.00000000000E+00  0.00000000000E+00  0.99999998245E-14  0.12500000000E+03  0.12500000000E+03 0.  0.
        -11    1    3    3    0    0 -0.22539555947E+02 -0.22825283455E+02 -0.10723022876E+01  0.32096339036E+02  0.51100000000E-03 0. -1.
         23    2    1    0    0    0  0.18042213502E+02  0.24415015189E+02  0.29187938600E+01  0.94501905104E+02  0.89445381524E+02 0.  0.
         11    1    3    3    0    0  0.40581769448E+02  0.47240298644E+02  0.39910961476E+01  0.62405566068E+02  0.51100000000E-03 0.  1.
         22    1    1    0    0    0 -0.18042213502E+02 -0.24415015189E+02 -0.29187938600E+01  0.30498094896E+02  0.00000000000E+00 0.  1.
</event>
<event>
 5    1  0.8778268E-005  0.9118800E+02  0.7818608E-02  0.1130116E+00
         25   -1    0    0    0    0  0.00000000000E+00  0.00000000000E+00  0.99999998245E-14  0.12500000000E+03  0.12500000000E+03 0.  0.
        -11    1    3    3    0    0  0.14617162587E+02  0.18418588961E+02  0.32527947945E+02  0.40136931362E+02  0.51100000000E-03 0. -1.
         23    2    1    0    0    0  0.16879876154E+02 -0.23173944303E+02 -0.46331998075E+01  0.95958160286E+02  0.91457859539E+02 0.  0.
         11    1    3    3    0    0  0.22627135670E+01 -0.41592533264E+02 -0.37161147753E+02  0.55821228923E+02  0.51100000000E-03 0.  1.
         22    1    1    0    0    0 -0.16879876154E+02  0.23173944303E+02  0.46331998075E+01  0.29041839714E+02  0.00000000000E+00 0.  1.
</event>
<event>
 5    1  0.8778268E-005  0.9118800E+02  0.7818608E-02  0.1130116E+00
         25   -1    0    0    0    0  0.00000000000E+00  0.00000000000E+00  0.99999998245E-14  0.12500000000E+03  0.12500000000E+03 0.  0.
        -11    1    3    3    0    0 -0.38232713695E+02  0.26951681699E+02 -0.81559238143E+01  0.47483182670E+02  0.51100000000E-03 0. -1.
         23    2    1    0    0    0 -0.16202025579E+02 -0.10208092415E+02 -0.24703381310E+02  0.93743515364E+02  0.88379176512E+02 0.  0.
         11    1    3    3    0    0  0.22030688116E+02 -0.37159774115E+02 -0.16547457496E+02  0.46260332694E+02  0.51100000000E-03 0.  1.
         22    1    1    0    0    0  0.16202025579E+02  0.10208092415E+02  0.24703381310E+02  0.31256484636E+02  0.00000000000E+00 0. -1.
</event>
<event>
 5    1  0.8778268E-005  0.9118800E+02  0.7818608E-02  0.1130116E+00
         25   -1    0    0    0    0  0.00000000000E+00  0.00000000000E+00  0.99999998245E-14  0.12500000000E+03  0.12500000000E+03 0.  0.
        -11    1    3    3    0    0 -0.26647367175E+01  0.32606067249E+02  0.47362727724E+01  0.33055842498E+02  0.51100000000E-03 0. -1.
         23    2    1    0    0    0 -0.10208503393E+02 -0.27294601948E+02 -0.80470297102E+01  0.94768170347E+02  0.89816716633E+02 0.  0.
         11    1    3    3    0    0 -0.75437666752E+01 -0.59900669197E+02 -0.12783302483E+02  0.61712327849E+02  0.51100000000E-03 0.  1.
         22    1    1    0    0    0  0.10208503393E+02  0.27294601948E+02  0.80470297102E+01  0.30231829653E+02  0.00000000000E+00 0.  1.
</event>
<event>
 5    1  0.8778268E-005  0.9118800E+02  0.7818608E-02  0.1130116E+00
         25   -1    0    0    0    0  0.00000000000E+00  0.00000000000E+00  0.99999998245E-14  0.12500000000E+03  0.12500000000E+03 0.  0.
        -11    1    3    3    0    0 -0.17807134929E+01 -0.51781041978E+02 -0.11820326821E+02  0.53142895812E+02  0.51100000000E-03 0.  1.
         23    2    1    0    0    0 -0.21671761333E+02 -0.14404000790E+02 -0.13830769219E+02  0.95530852486E+02  0.90871960040E+02 0.  0.
         11    1    3    3    0    0 -0.19891047840E+02  0.37377041188E+02 -0.20104423983E+01  0.42387956674E+02  0.51100000000E-03 0. -1.
         22    1    1    0    0    0  0.21671761333E+02  0.14404000790E+02  0.13830769219E+02  0.29469147514E+02  0.00000000000E+00 0.  1.
</event>
<event>
 5    1  0.8778268E-005  0.9118800E+02  0.7818608E-02  0.1130116E+00
         25   -1    0    0    0    0  0.00000000000E+00  0.00000000000E+00  0.99999998245E-14  0.12500000000E+03  0.12500000000E+03 0.  0.
        -11    1    3    3    0    0 -0.52934091993E+02  0.15613846347E+02 -0.97095695952E+01  0.56036470578E+02  0.51100000000E-03 0.  1.
         23    2    1    0    0    0 -0.15595453304E+02  0.24858452599E+02 -0.81921779009E+01  0.94532433505E+02  0.89488034821E+02 0.  0.
         11    1    3    3    0    0  0.37338638688E+02  0.92446062520E+01  0.15173916942E+01  0.38495962927E+02  0.51100000000E-03 0. -1.
         22    1    1    0    0    0  0.15595453304E+02 -0.24858452599E+02  0.81921779009E+01  0.30467566495E+02  0.00000000000E+00 0.  1.
</event>
<event>
 5    1  0.8778268E-005  0.9118800E+02  0.7818608E-02  0.1130116E+00
         25   -1    0    0    0    0  0.00000000000E+00  0.00000000000E+00  0.99999998245E-14  0.12500000000E+03  0.12500000000E+03 0.  0.
        -11    1    3    3    0    0  0.75821035986E+00 -0.54649325666E+02 -0.31653536304E+01  0.54746170118E+02  0.51100000000E-03 0.  1.
         23    2    1    0    0    0  0.21468808123E+02 -0.19360628054E+02 -0.47947635214E+01  0.95695846743E+02  0.91098637124E+02 0.  0.
         11    1    3    3    0    0  0.20710597763E+02  0.35288697612E+02 -0.16294098911E+01  0.40949676625E+02  0.51100000000E-03 0. -1.
         22    1    1    0    0    0 -0.21468808123E+02  0.19360628054E+02  0.47947635214E+01  0.29304153257E+02  0.00000000000E+00 0.  1.
</event>
<event>
 5    1  0.8778268E-005  0.9118800E+02  0.7818608E-02  0.1130116E+00
         25   -1    0    0    0    0  0.00000000000E+00  0.00000000000E+00  0.99999998245E-14  0.12500000000E+03  0.12500000000E+03 0.  0.
        -11    1    3    3    0    0  0.89302030617E+01 -0.36803758928E+02  0.77740928172E+01  0.38661372419E+02  0.51100000000E-03 0. -1.
         23    2    1    0    0    0  0.45033404535E+01  0.72332805469E+01 -0.28102023312E+02  0.95634643933E+02  0.91014619613E+02 0.  0.
         11    1    3    3    0    0 -0.44268626082E+01  0.44037039474E+02 -0.35876116129E+02  0.56973271514E+02  0.51100000000E-03 0.  1.
         22    1    1    0    0    0 -0.45033404535E+01 -0.72332805469E+01  0.28102023312E+02  0.29365356067E+02  0.00000000000E+00 0. -1.
</event>
<event>
 5    1  0.8778268E-005  0.9118800E+02  0.7818608E-02  0.1130116E+00
         25   -1    0    0    0    0  0.00000000000E+00  0.00000000000E+00  0.99999998245E-14  0.12500000000E+03  0.12500000000E+03 0.  0.
        -11    1    3    3    0    0  0.45007951982E+02  0.20035505816E+02 -0.14643697017E+02  0.51396255676E+02  0.51100000000E-03 0. -1.
         23    2    1    0    0    0  0.14522413577E+02 -0.10369618914E+02 -0.23638793878E+02  0.95382065087E+02  0.90667062772E+02 0.  0.
         11    1    3    3    0    0 -0.30485538405E+02 -0.30405124731E+02 -0.89950968606E+01  0.43985809411E+02  0.51100000000E-03 0.  1.
         22    1    1    0    0    0 -0.14522413577E+02  0.10369618914E+02  0.23638793878E+02  0.29617934913E+02  0.00000000000E+00 0. -1.
</event>
<event>
 5    1  0.8778268E-005  0.9118800E+02  0.7818608E-02  0.1130116E+00
         25   -1    0    0    0    0  0.00000000000E+00  0.00000000000E+00  0.99999998245E-14  0.12500000000E+03  0.12500000000E+03 0.  0.
        -11    1    3    3    0    0 -0.14448054759E+02  0.86610776948E+01 -0.40302240304E+02  0.43681015635E+02  0.51100000000E-03 0.  1.
         23    2    1    0    0    0 -0.23517582559E+02 -0.16729761535E+02  0.43210262369E+01  0.95817250332E+02  0.91265067704E+02 0.  0.
         11    1    3    3    0    0 -0.90695278006E+01 -0.25390839230E+02  0.44623266541E+02  0.52136234697E+02  0.51100000000E-03 0. -1.
         22    1    1    0    0    0  0.23517582559E+02  0.16729761535E+02 -0.43210262369E+01  0.29182749668E+02  0.00000000000E+00 0. -1.
</event>
<event>
 5    1  0.8778268E-005  0.9118800E+02  0.7818608E-02  0.1130116E+00
         25   -1    0    0    0    0  0.00000000000E+00  0.00000000000E+00  0.99999998245E-14  0.12500000000E+03  0.12500000000E+03 0.  0.
        -11    1    3    3    0    0  0.10347011987E+01  0.31651425184E+02  0.36156476532E+02  0.48064270703E+02  0.51100000000E-03 0.  1.
         23    2    1    0    0    0  0.19232763261E+02  0.36889019241E+02  0.70254945618E+01  0.82809284231E+02  0.71255323014E+02 0.  0.
         11    1    3    3    0    0  0.18198062062E+02  0.52375940573E+01 -0.29130981970E+02  0.34745013529E+02  0.51100000000E-03 0. -1.
         22    1    1    0    0    0 -0.19232763261E+02 -0.36889019241E+02 -0.70254945618E+01  0.42190715769E+02  0.00000000000E+00 0.  1.
</event>
<event>
 5    1  0.8778268E-005  0.9118800E+02  0.7818608E-02  0.1130116E+00
         25   -1    0    0    0    0  0.00000000000E+00  0.00000000000E+00  0.99999998245E-14  0.12500000000E+03  0.12500000000E+03 0.  0.
        -11    1    3    3    0    0  0.25616362175E+02  0.60550163683E+01 -0.47520876785E+02  0.54323981490E+02  0.51100000000E-03 0. -1.
         23    2    1    0    0    0  0.25737669535E+02 -0.10411736285E+02 -0.96724895514E+01  0.95599507833E+02  0.90966350692E+02 0.  0.
         11    1    3    3    0    0  0.12130736031E+00 -0.16466752654E+02  0.37848387233E+02  0.41275526343E+02  0.51100000000E-03 0.  1.
         22    1    1    0    0    0 -0.25737669535E+02  0.10411736285E+02  0.96724895514E+01  0.29400492167E+02  0.00000000000E+00 0. -1.
</event>
<event>
 5    1  0.8778268E-005  0.9118800E+02  0.7818608E-02  0.1130116E+00
         25   -1    0    0    0    0  0.00000000000E+00  0.00000000000E+00  0.99999998245E-14  0.12500000000E+03  0.12500000000E+03 0.  0.
        -11    1    3    3    0    0  0.15126945923E+01  0.34824837653E+02 -0.20027933514E+02  0.40201687572E+02  0.51100000000E-03 0.  1.
         23    2    1    0    0    0 -0.35543987388E+02  0.11975252568E+02 -0.16505996492E+01  0.87456609201E+02  0.78988304832E+02 0.  0.
         11    1    3    3    0    0 -0.37056681980E+02 -0.22849585086E+02  0.18377333865E+02  0.47254921629E+02  0.51100000000E-03 0. -1.
         22    1    1    0    0    0  0.35543987388E+02 -0.11975252568E+02  0.16505996492E+01  0.37543390799E+02  0.00000000000E+00 0. -1.
</event>
<event>
 5    1  0.8778268E-005  0.9118800E+02  0.7818608E-02  0.1130116E+00
         25   -1    0    0    0    0  0.00000000000E+00  0.00000000000E+00  0.99999998245E-14  0.12500000000E+03  0.12500000000E+03 0.  0.
        -11    1    3    3    0    0 -0.33644117351E+02  0.43607382495E+00  0.26485096351E+02  0.42820288668E+02  0.51100000000E-03 0.  1.
         23    2    1    0    0    0  0.12245674978E+02  0.19948636175E+02 -0.39809575731E+01  0.10125652376E+03  0.98433383256E+02 0.  0.
         11    1    3    3    0    0  0.45889792328E+02  0.19512562350E+02 -0.30466053924E+02  0.58436235089E+02  0.51100000000E-03 0. -1.
         22    1    1    0    0    0 -0.12245674978E+02 -0.19948636175E+02  0.39809575731E+01  0.23743476243E+02  0.00000000000E+00 0. -1.
</event>
<event>
 5    1  0.8778268E-005  0.9118800E+02  0.7818608E-02  0.1130116E+00
         25   -1    0    0    0    0  0.00000000000E+00  0.00000000000E+00  0.99999998245E-14  0.12500000000E+03  0.12500000000E+03 0.  0.
        -11    1    3    3    0    0  0.19668962888E+02  0.10992849614E+02  0.27149874291E+02  0.35282099115E+02  0.51100000000E-03 0. -1.
         23    2    1    0    0    0 -0.23142304313E+02  0.48279200700E+01 -0.16059849672E+02  0.96420394814E+02  0.92087451389E+02 0.  0.
         11    1    3    3    0    0 -0.42811267201E+02 -0.61649295445E+01 -0.43209723963E+02  0.61138295698E+02  0.51100000000E-03 0.  1.
         22    1    1    0    0    0  0.23142304313E+02 -0.48279200700E+01  0.16059849672E+02  0.28579605186E+02  0.00000000000E+00 0.  1.
</event>
<event>
 5    1  0.8778268E-005  0.9118800E+02  0.7818608E-02  0.1130116E+00
         25   -1    0    0    0    0  0.00000000000E+00  0.00000000000E+00  0.99999998245E-14  0.12500000000E+03  0.12500000000E+03 0.  0.
        -11    1    3    3    0    0 -0.33041253668E+02  0.32012133453E+02  0.39553668111E+01  0.46175167125E+02  0.51100000000E-03 0. -1.
         23    2    1    0    0    0 -0.12878587001E+02 -0.10050015445E+02  0.23192916546E+02  0.96631492963E+02  0.92373552713E+02 0.  0.
         11    1    3    3    0    0  0.20162666667E+02 -0.42062148898E+02  0.19237549735E+02  0.50456325838E+02  0.51100000000E-03 0.  1.
         22    1    1    0    0    0  0.12878587001E+02  0.10050015445E+02 -0.23192916546E+02  0.28368507037E+02  0.00000000000E+00 0. -1.
</event>
<event>
 5    1  0.8778268E-005  0.9118800E+02  0.7818608E-02  0.1130116E+00
         25   -1    0    0    0    0  0.00000000000E+00  0.00000000000E+00  0.99999998245E-14  0.12500000000E+03  0.12500000000E+03 0.  0.
        -11    1    3    3    0    0 -0.42665684059E+02  0.40440669252E+02 -0.19129668994E+02  0.61820324828E+02  0.51100000000E-03 0.  1.
         23    2    1    0    0    0 -0.15923296334E+02  0.23437436430E+02 -0.65364879752E+01  0.95920961714E+02  0.91407004264E+02 0.  0.
         11    1    3    3    0    0  0.26742387724E+02 -0.17003232822E+02  0.12593181019E+02  0.34100636886E+02  0.51100000000E-03 0. -1.
         22    1    1    0    0    0  0.15923296334E+02 -0.23437436430E+02  0.65364879752E+01  0.29079038286E+02  0.00000000000E+00 0.  1.
</event>
<event>
 5    1  0.8778268E-005  0.9118800E+02  0.7818608E-02  0.1130116E+00
         25   -1    0    0    0    0  0.00000000000E+00  0.00000000000E+00  0.99999998245E-14  0.12500000000E+03  0.12500000000E+03 0.  0.
        -11    1    3    3    0    0 -0.23325733881E+02 -0.27518865750E+02 -0.47976803865E+02  0.60026257110E+02  0.51100000000E-03 0. -1.
         23    2    1    0    0    0 -0.21248966919E+02 -0.12387089515E+02 -0.15467261959E+02  0.95944969897E+02  0.91439829803E+02 0.  0.
         11    1    3    3    0    0  0.20767669620E+01  0.15131776236E+02  0.32509541907E+02  0.35918712787E+02  0.51100000000E-03 0.  1.
         22    1    1    0    0    0  0.21248966919E+02  0.12387089515E+02  0.15467261959E+02  0.29055030103E+02  0.00000000000E+00 0. -1.
</event>
<event>
 5    1  0.8778268E-005  0.9118800E+02  0.7818608E-02  0.1130116E+00
         25   -1    0    0    0    0  0.00000000000E+00  0.00000000000E+00  0.99999998245E-14  0.12500000000E+03  0.12500000000E+03 0.  0.
        -11    1    3    3    0    0 -0.32087879777E+01 -0.26607031970E+02 -0.32205491300E+02  0.41897782049E+02  0.51100000000E-03 0. -1.
         23    2    1    0    0    0  0.29571340680E+02  0.53470195031E+01 -0.70445076099E+01  0.94134486969E+02  0.88930432037E+02 0.  0.
         11    1    3    3    0    0  0.32780128658E+02  0.31954051473E+02  0.25160983690E+02  0.52236704920E+02  0.51100000000E-03 0.  1.
         22    1    1    0    0    0 -0.29571340680E+02 -0.53470195031E+01  0.70445076099E+01  0.30865513031E+02  0.00000000000E+00 0.  1.
</event>
<event>
 5    1  0.8778268E-005  0.9118800E+02  0.7818608E-02  0.1130116E+00
         25   -1    0    0    0    0  0.00000000000E+00  0.00000000000E+00  0.99999998245E-14  0.12500000000E+03  0.12500000000E+03 0.  0.
        -11    1    3    3    0    0  0.82306776499E+01  0.33293863000E+02 -0.11913205181E+02  0.36306333138E+02  0.51100000000E-03 0.  1.
         23    2    1    0    0    0 -0.25597041601E+02  0.34611507966E+02  0.14851376515E+02  0.79461791792E+02  0.65118721947E+02 0.  0.
         11    1    3    3    0    0 -0.33827719251E+02  0.13176449660E+01  0.26764581696E+02  0.43155458654E+02  0.51100000000E-03 0. -1.
         22    1    1    0    0    0  0.25597041601E+02 -0.34611507966E+02 -0.14851376515E+02  0.45538208208E+02  0.00000000000E+00 0.  1.
</event>
<event>
 5    1  0.8778268E-005  0.9118800E+02  0.7818608E-02  0.1130116E+00
         25   -1    0    0    0    0  0.00000000000E+00  0.00000000000E+00  0.99999998245E-14  0.12500000000E+03  0.12500000000E+03 0.  0.
        -11    1    3    3    0    0  0.52943265402E+02 -0.18932151294E+02  0.10243678662E+02  0.57151978591E+02  0.51100000000E-03 0.  1.
         23    2    1    0    0    0  0.20194955736E+02 -0.14178935226E+02 -0.12532740288E+02  0.97324234059E+02  0.93306261926E+02 0.  0.
         11    1    3    3    0    0 -0.32748309666E+02  0.47532160674E+01 -0.22776418949E+02  0.40172255468E+02  0.51100000000E-03 0. -1.
         22    1    1    0    0    0 -0.20194955736E+02  0.14178935226E+02  0.12532740288E+02  0.27675765941E+02  0.00000000000E+00 0.  1.
</event>
<event>
 5    1  0.8778268E-005  0.9118800E+02  0.7818608E-02  0.1130116E+00
         25   -1    0    0    0    0  0.00000000000E+00  0.00000000000E+00  0.99999998245E-14  0.12500000000E+03  0.12500000000E+03 0.  0.
        -11    1    3    3    0    0  0.16258950943E+02 -0.29881280146E+02 -0.82812414133E+01  0.35011760146E+02  0.51100000000E-03 0.  1.
         23    2    1    0    0    0  0.21450452864E+01  0.27430537262E+02  0.81929367349E+01  0.96291816391E+02  0.91912752640E+02 0.  0.
         11    1    3    3    0    0 -0.14113905657E+02  0.57311817408E+02  0.16474178148E+02  0.61280056245E+02  0.51100000000E-03 0. -1.
         22    1    1    0    0    0 -0.21450452864E+01 -0.27430537262E+02 -0.81929367349E+01  0.28708183609E+02  0.00000000000E+00 0. -1.
</event>
<event>
 5    1  0.8778268E-005  0.9118800E+02  0.7818608E-02  0.1130116E+00
         25   -1    0    0    0    0  0.00000000000E+00  0.00000000000E+00  0.99999998245E-14  0.12500000000E+03  0.12500000000E+03 0.  0.
        -11    1    3    3    0    0  0.69361793809E+01 -0.16709202809E+02  0.59136849308E+02  0.61842339779E+02  0.51100000000E-03 0. -1.
         23    2    1    0    0    0  0.68612159703E+01 -0.16318062918E+01  0.20756547550E+02  0.10307801691E+03  0.10071992965E+03 0.  0.
         11    1    3    3    0    0 -0.74963410523E-01  0.15077396517E+02 -0.38380301759E+02  0.41235677133E+02  0.51100000000E-03 0.  1.
         22    1    1    0    0    0 -0.68612159703E+01  0.16318062918E+01 -0.20756547550E+02  0.21921983089E+02  0.00000000000E+00 0. -1.
</event>
<event>
 5    1  0.8778268E-005  0.9118800E+02  0.7818608E-02  0.1130116E+00
         25   -1    0    0    0    0  0.00000000000E+00  0.00000000000E+00  0.99999998245E-14  0.12500000000E+03  0.12500000000E+03 0.  0.
        -11    1    3    3    0    0  0.21667531769E+02 -0.52845469356E+02  0.23332083368E+02  0.61696934113E+02  0.51100000000E-03 0.  1.
         23    2    1    0    0    0  0.48741975175E+01 -0.28476801325E+02  0.80286209063E+01  0.95014257241E+02  0.90158550955E+02 0.  0.
         11    1    3    3    0    0 -0.16793334252E+02  0.24368668031E+02 -0.15303462461E+02  0.33317323129E+02  0.51100000000E-03 0. -1.
         22    1    1    0    0    0 -0.48741975175E+01  0.28476801325E+02 -0.80286209063E+01  0.29985742759E+02  0.00000000000E+00 0.  1.
</event>
<event>
 5    1  0.8778268E-005  0.9118800E+02  0.7818608E-02  0.1130116E+00
         25   -1    0    0    0    0  0.00000000000E+00  0.00000000000E+00  0.99999998245E-14  0.12500000000E+03  0.12500000000E+03 0.  0.
        -11    1    3    3    0    0  0.76137848315E+00 -0.10467093417E+02  0.37672845155E+02  0.39107326732E+02  0.51100000000E-03 0.  1.
         23    2    1    0    0    0 -0.27444479845E+02 -0.28157316732E+01 -0.10523748478E+02  0.95472434898E+02  0.90791567475E+02 0.  0.
         11    1    3    3    0    0 -0.28205858328E+02  0.76513617441E+01 -0.48196593633E+02  0.56365108167E+02  0.51100000000E-03 0. -1.
         22    1    1    0    0    0  0.27444479845E+02  0.28157316732E+01  0.10523748478E+02  0.29527565102E+02  0.00000000000E+00 0. -1.
</event>
<event>
 5    1  0.8778268E-005  0.9118800E+02  0.7818608E-02  0.1130116E+00
         25   -1    0    0    0    0  0.00000000000E+00  0.00000000000E+00  0.99999998245E-14  0.12500000000E+03  0.12500000000E+03 0.  0.
        -11    1    3    3    0    0 -0.22648517289E+02  0.22869428698E+02  0.27469092790E+02  0.42314502990E+02  0.51100000000E-03 0.  1.
         23    2    1    0    0    0 -0.66289757174E+01 -0.25744347162E+02  0.12359377758E+02  0.95683299155E+02  0.91081418461E+02 0.  0.
         11    1    3    3    0    0  0.16019541572E+02 -0.48613775860E+02 -0.15109715032E+02  0.53368796165E+02  0.51100000000E-03 0. -1.
         22    1    1    0    0    0  0.66289757174E+01  0.25744347162E+02 -0.12359377758E+02  0.29316700845E+02  0.00000000000E+00 0.  1.
</event>
<event>
 5    1  0.8778268E-005  0.9118800E+02  0.7818608E-02  0.1130116E+00
         25   -1    0    0    0    0  0.00000000000E+00  0.00000000000E+00  0.99999998245E-14  0.12500000000E+03  0.12500000000E+03 0.  0.
        -11    1    3    3    0    0  0.80861773665E+01  0.12153783874E-01 -0.36368114426E+02  0.37256223095E+02  0.51100000000E-03 0.  1.
         23    2    1    0    0    0  0.20205126366E+02  0.16961293662E+00  0.20980590421E+02  0.95871644838E+02  0.91339538041E+02 0.  0.
         11    1    3    3    0    0  0.12118949000E+02  0.15745915274E+00  0.57348704847E+02  0.58615421743E+02  0.51100000000E-03 0. -1.
         22    1    1    0    0    0 -0.20205126366E+02 -0.16961293662E+00 -0.20980590421E+02  0.29128355162E+02  0.00000000000E+00 0. -1.
</event>
<event>
 5    1  0.8778268E-005  0.9118800E+02  0.7818608E-02  0.1130116E+00
         25   -1    0    0    0    0  0.00000000000E+00  0.00000000000E+00  0.99999998245E-14  0.12500000000E+03  0.12500000000E+03 0.  0.
        -11    1    3    3    0    0 -0.27093531207E+02  0.53223202488E+02 -0.23528468749E+01  0.59768759441E+02  0.51100000000E-03 0.  1.
         23    2    1    0    0    0 -0.20828576326E+02  0.18712242299E+02 -0.92432320423E+01  0.95514156918E+02  0.90848991352E+02 0.  0.
         11    1    3    3    0    0  0.62649548807E+01 -0.34510960189E+02 -0.68903851673E+01  0.35745397478E+02  0.51100000000E-03 0. -1.
         22    1    1    0    0    0  0.20828576326E+02 -0.18712242299E+02  0.92432320423E+01  0.29485843082E+02  0.00000000000E+00 0.  1.
</event>
<event>
 5    1  0.8778268E-005  0.9118800E+02  0.7818608E-02  0.1130116E+00
         25   -1    0    0    0    0  0.00000000000E+00  0.00000000000E+00  0.99999998245E-14  0.12500000000E+03  0.12500000000E+03 0.  0.
        -11    1    3    3    0    0 -0.86202389977E+01  0.19816940764E+02  0.13197959498E+02  0.25322041718E+02  0.51100000000E-03 0. -1.
         23    2    1    0    0    0 -0.31422751240E+02  0.66444951021E+01 -0.33284935246E+02  0.78746075572E+02  0.63730047019E+02 0.  0.
         11    1    3    3    0    0 -0.22802512243E+02 -0.13172445662E+02 -0.46482894743E+02  0.53424033854E+02  0.51100000000E-03 0.  1.
         22    1    1    0    0    0  0.31422751240E+02 -0.66444951021E+01  0.33284935246E+02  0.46253924428E+02  0.00000000000E+00 0. -1.
</event>
<event>
 5    1  0.8778268E-005  0.9118800E+02  0.7818608E-02  0.1130116E+00
         25   -1    0    0    0    0  0.00000000000E+00  0.00000000000E+00  0.99999998245E-14  0.12500000000E+03  0.12500000000E+03 0.  0.
        -11    1    3    3    0    0 -0.29798421924E+02  0.22730879818E+02  0.46870809719E+02  0.60012595765E+02  0.51100000000E-03 0.  1.
         23    2    1    0    0    0 -0.19445335462E+01  0.12848464487E+02  0.25151243675E+02  0.96690119944E+02  0.92452852774E+02 0.  0.
         11    1    3    3    0    0  0.27853888378E+02 -0.98824153302E+01 -0.21719566044E+02  0.36677524179E+02  0.51100000000E-03 0. -1.
         22    1    1    0    0    0  0.19445335462E+01 -0.12848464487E+02 -0.25151243675E+02  0.28309880056E+02  0.00000000000E+00 0.  1.
</event>
<event>
 5    1  0.8778268E-005  0.9118800E+02  0.7818608E-02  0.1130116E+00
         25   -1    0    0    0    0  0.00000000000E+00  0.00000000000E+00  0.99999998245E-14  0.12500000000E+03  0.12500000000E+03 0.  0.
        -11    1    3    3    0    0  0.44427303850E+02 -0.98618543129E+01 -0.85224448764E+01  0.46299822513E+02  0.51100000000E-03 0.  1.
         23    2    1    0    0    0  0.98051313337E+00  0.22126355964E+01 -0.29052571098E+02  0.95846800353E+02  0.91305531531E+02 0.  0.
         11    1    3    3    0    0 -0.43446790716E+02  0.12074489909E+02 -0.20530126221E+02  0.49546977839E+02  0.51100000000E-03 0. -1.
         22    1    1    0    0    0 -0.98051313337E+00 -0.22126355964E+01  0.29052571098E+02  0.29153199647E+02  0.00000000000E+00 0. -1.
</event>
<event>
 5    1  0.8778268E-005  0.9118800E+02  0.7818608E-02  0.1130116E+00
         25   -1    0    0    0    0  0.00000000000E+00  0.00000000000E+00  0.99999998245E-14  0.12500000000E+03  0.12500000000E+03 0.  0.
        -11    1    3    3    0    0  0.39798225956E+02  0.82104173409E+01  0.39451763719E+02  0.56637014425E+02  0.51100000000E-03 0. -1.
         23    2    1    0    0    0  0.32301502221E+01  0.11127919363E+01  0.29647698877E+02  0.95156102382E+02  0.90354997623E+02 0.  0.
         11    1    3    3    0    0 -0.36568075734E+02 -0.70976254046E+01 -0.98040648421E+01  0.38519087956E+02  0.51100000000E-03 0.  1.
         22    1    1    0    0    0 -0.32301502221E+01 -0.11127919363E+01 -0.29647698877E+02  0.29843897618E+02  0.00000000000E+00 0. -1.
</event>
<event>
 5    1  0.8778268E-005  0.9118800E+02  0.7818608E-02  0.1130116E+00
         25   -1    0    0    0    0  0.00000000000E+00  0.00000000000E+00  0.99999998245E-14  0.12500000000E+03  0.12500000000E+03 0.  0.
        -11    1    3    3    0    0 -0.32866630490E+02 -0.33652283334E+02  0.34027868934E+02  0.58056760483E+02  0.51100000000E-03 0. -1.
         23    2    1    0    0    0 -0.31094314881E+02 -0.10701828714E+02  0.27893358325E+02  0.81878949522E+02  0.69604147724E+02 0.  0.
         11    1    3    3    0    0  0.17723156095E+01  0.22950454620E+02 -0.61345106090E+01  0.23822189038E+02  0.51100000000E-03 0.  1.
         22    1    1    0    0    0  0.31094314881E+02  0.10701828714E+02 -0.27893358325E+02  0.43121050478E+02  0.00000000000E+00 0. -1.
</event>
<event>
 5    1  0.8778268E-005  0.9118800E+02  0.7818608E-02  0.1130116E+00
         25   -1    0    0    0    0  0.00000000000E+00  0.00000000000E+00  0.99999998245E-14  0.12500000000E+03  0.12500000000E+03 0.  0.
        -11    1    3    3    0    0 -0.48456276412E+02 -0.23742691923E+02  0.19328979597E+02  0.57317847098E+02  0.51100000000E-03 0. -1.
         23    2    1    0    0    0 -0.15018511976E+02 -0.25999753342E+02  0.23629324942E+01  0.94881462091E+02  0.89974249220E+02 0.  0.
         11    1    3    3    0    0  0.33437764436E+02 -0.22570614197E+01 -0.16966047102E+02  0.37563614992E+02  0.51100000000E-03 0.  1.
         22    1    1    0    0    0  0.15018511976E+02  0.25999753342E+02 -0.23629324942E+01  0.30118537909E+02  0.00000000000E+00 0. -1.
</event>
<event>
 5    1  0.8778268E-005  0.9118800E+02  0.7818608E-02  0.1130116E+00
         25   -1    0    0    0    0  0.00000000000E+00  0.00000000000E+00  0.99999998245E-14  0.12500000000E+03  0.12500000000E+03 0.  0.
        -11    1    3    3    0    0 -0.61367365241E+02 -0.21790306334E+01  0.77639104212E+01  0.61894910909E+02  0.51100000000E-03 0. -1.
         23    2    1    0    0    0 -0.29110123953E+02  0.43304659938E+01  0.65108910118E+00  0.95562334173E+02  0.90915254734E+02 0.  0.
         11    1    3    3    0    0  0.32257241288E+02  0.65094966272E+01 -0.71128213201E+01  0.33667423264E+02  0.51100000000E-03 0.  1.
         22    1    1    0    0    0  0.29110123953E+02 -0.43304659938E+01 -0.65108910118E+00  0.29437665827E+02  0.00000000000E+00 0. -1.
</event>
<event>
 5    1  0.8778268E-005  0.9118800E+02  0.7818608E-02  0.1130116E+00
         25   -1    0    0    0    0  0.00000000000E+00  0.00000000000E+00  0.99999998245E-14  0.12500000000E+03  0.12500000000E+03 0.  0.
        -11    1    3    3    0    0  0.32325968836E+02  0.12806108306E+02  0.44313941707E+02  0.56326637579E+02  0.51100000000E-03 0.  1.
         23    2    1    0    0    0  0.16555473238E+02 -0.13703608448E+02  0.20548596847E+02  0.95265888091E+02  0.90506751255E+02 0.  0.
         11    1    3    3    0    0 -0.15770495598E+02 -0.26509716755E+02 -0.23765344860E+02  0.38939250512E+02  0.51100000000E-03 0. -1.
         22    1    1    0    0    0 -0.16555473238E+02  0.13703608448E+02 -0.20548596847E+02  0.29734111909E+02  0.00000000000E+00 0.  1.
</event>
<event>
 5    1  0.8778268E-005  0.9118800E+02  0.7818608E-02  0.1130116E+00
         25   -1    0    0    0    0  0.00000000000E+00  0.00000000000E+00  0.99999998245E-14  0.12500000000E+03  0.12500000000E+03 0.  0.
        -11    1    3    3    0    0  0.46023785032E+02  0.67486293926E+01  0.36172166324E+02  0.58925023583E+02  0.51100000000E-03 0. -1.
         23    2    1    0    0    0  0.29467822434E+02 -0.24725384600E+01  0.36682185791E+02  0.77882606610E+02  0.62013318348E+02 0.  0.
         11    1    3    3    0    0 -0.16555962598E+02 -0.92211678526E+01  0.51001946732E+00  0.18957583028E+02  0.51100000000E-03 0.  1.
         22    1    1    0    0    0 -0.29467822434E+02  0.24725384600E+01 -0.36682185791E+02  0.47117393390E+02  0.00000000000E+00 0. -1.
</event>
<event>
 5    1  0.8778268E-005  0.9118800E+02  0.7818608E-02  0.1130116E+00
         25   -1    0    0    0    0  0.00000000000E+00  0.00000000000E+00  0.99999998245E-14  0.12500000000E+03  0.12500000000E+03 0.  0.
        -11    1    3    3    0    0 -0.49291485383E+02  0.80623227910E+01  0.22400705181E+02  0.54739776881E+02  0.51100000000E-03 0.  1.
         23    2    1    0    0    0 -0.25123455980E+02 -0.15147748135E+02 -0.10592387965E+01  0.95644177736E+02  0.91027712451E+02 0.  0.
         11    1    3    3    0    0  0.24168029403E+02 -0.23210070926E+02 -0.23459943978E+02  0.40904400855E+02  0.51100000000E-03 0. -1.
         22    1    1    0    0    0  0.25123455980E+02  0.15147748135E+02  0.10592387965E+01  0.29355822264E+02  0.00000000000E+00 0.  1.
</event>
<event>
 5    1  0.8778268E-005  0.9118800E+02  0.7818608E-02  0.1130116E+00
         25   -1    0    0    0    0  0.00000000000E+00  0.00000000000E+00  0.99999998245E-14  0.12500000000E+03  0.12500000000E+03 0.  0.
        -11    1    3    3    0    0  0.43678806307E+02  0.28599006496E+02 -0.34064201875E+02  0.62338680950E+02  0.51100000000E-03 0. -1.
         23    2    1    0    0    0  0.18967243946E+02  0.10660329007E+02 -0.17497744404E+02  0.97079218910E+02  0.92977442036E+02 0.  0.
         11    1    3    3    0    0 -0.24711562361E+02 -0.17938677489E+02  0.16566457471E+02  0.34740537960E+02  0.51100000000E-03 0.  1.
         22    1    1    0    0    0 -0.18967243946E+02 -0.10660329007E+02  0.17497744404E+02  0.27920781090E+02  0.00000000000E+00 0. -1.
</event>
<event>
 5    1  0.8778268E-005  0.9118800E+02  0.7818608E-02  0.1130116E+00
         25   -1    0    0    0    0  0.00000000000E+00  0.00000000000E+00  0.99999998245E-14  0.12500000000E+03  0.12500000000E+03 0.  0.
        -11    1    3    3    0    0  0.12127082260E+02  0.44311336013E+02 -0.13581980343E+02  0.47906479872E+02  0.51100000000E-03 0.  1.
         23    2    1    0    0    0 -0.14681104875E+02  0.17324650644E+02  0.16933616877E+02  0.96672879765E+02  0.92429540414E+02 0.  0.
         11    1    3    3    0    0 -0.26808187135E+02 -0.26986685368E+02  0.30515597219E+02  0.48766399893E+02  0.51100000000E-03 0. -1.
         22    1    1    0    0    0  0.14681104875E+02 -0.17324650644E+02 -0.16933616877E+02  0.28327120235E+02  0.00000000000E+00 0.  1.
</event>
<event>
 5    1  0.8778268E-005  0.9118800E+02  0.7818608E-02  0.1130116E+00
         25   -1    0    0    0    0  0.00000000000E+00  0.00000000000E+00  0.99999998245E-14  0.12500000000E+03  0.12500000000E+03 0.  0.
        -11    1    3    3    0    0  0.44518091093E+02 -0.39932665497E+02 -0.64873021251E+01  0.60154495238E+02  0.51100000000E-03 0.  1.
         23    2    1    0    0    0  0.29246588419E+02 -0.10184568051E+02 -0.12114026469E+01  0.94007164426E+02  0.88751287915E+02 0.  0.
         11    1    3    3    0    0 -0.15271502674E+02  0.29748097446E+02  0.52758994781E+01  0.33852669188E+02  0.51100000000E-03 0. -1.
         22    1    1    0    0    0 -0.29246588419E+02  0.10184568051E+02  0.12114026469E+01  0.30992835574E+02  0.00000000000E+00 0.  1.
</event>
<event>
 5    1  0.8778268E-005  0.9118800E+02  0.7818608E-02  0.1130116E+00
         25   -1    0    0    0    0  0.00000000000E+00  0.00000000000E+00  0.99999998245E-14  0.12500000000E+03  0.12500000000E+03 0.  0.
        -11    1    3    3    0    0 -0.48864717274E+00  0.27647236011E+02 -0.55447257254E+02  0.61959718950E+02  0.51100000000E-03 0.  1.
         23    2    1    0    0    0 -0.27920462191E+01  0.16985536654E+02 -0.22467808750E+02  0.96696176804E+02  0.92461041530E+02 0.  0.
         11    1    3    3    0    0 -0.23033990464E+01 -0.10661699357E+02  0.32979448504E+02  0.34736457854E+02  0.51100000000E-03 0. -1.
         22    1    1    0    0    0  0.27920462191E+01 -0.16985536654E+02  0.22467808750E+02  0.28303823196E+02  0.00000000000E+00 0.  1.
</event>
<event>
 5    1  0.8778268E-005  0.9118800E+02  0.7818608E-02  0.1130116E+00
         25   -1    0    0    0    0  0.00000000000E+00  0.00000000000E+00  0.99999998245E-14  0.12500000000E+03  0.12500000000E+03 0.  0.
        -11    1    3    3    0    0  0.50244167314E+02  0.63444646246E+01  0.15752963952E+02  0.53036633132E+02  0.51100000000E-03 0.  1.
         23    2    1    0    0    0  0.11988722812E+02 -0.89490438985E+01  0.25556991061E+02  0.95386242159E+02  0.90672821395E+02 0.  0.
         11    1    3    3    0    0 -0.38255444501E+02 -0.15293508523E+02  0.98040271087E+01  0.42349609027E+02  0.51100000000E-03 0. -1.
         22    1    1    0    0    0 -0.11988722812E+02  0.89490438985E+01 -0.25556991061E+02  0.29613757841E+02  0.00000000000E+00 0.  1.
</event>
<event>
 5    1  0.8778268E-005  0.9118800E+02  0.7818608E-02  0.1130116E+00
         25   -1    0    0    0    0  0.00000000000E+00  0.00000000000E+00  0.99999998245E-14  0.12500000000E+03  0.12500000000E+03 0.  0.
        -11    1    3    3    0    0  0.15471026755E+02 -0.19128523382E+02  0.26658182066E+02  0.36275497887E+02  0.51100000000E-03 0. -1.
         23    2    1    0    0    0  0.28226590471E+01 -0.31321927760E+01 -0.29074218268E+02  0.95621637153E+02  0.90996754273E+02 0.  0.
         11    1    3    3    0    0 -0.12648367708E+02  0.15996330606E+02 -0.55732400334E+02  0.59346139266E+02  0.51100000000E-03 0.  1.
         22    1    1    0    0    0 -0.28226590471E+01  0.31321927760E+01  0.29074218268E+02  0.29378362847E+02  0.00000000000E+00 0.  1.
</event>
<event>
 5    1  0.8778268E-005  0.9118800E+02  0.7818608E-02  0.1130116E+00
         25   -1    0    0    0    0  0.00000000000E+00  0.00000000000E+00  0.99999998245E-14  0.12500000000E+03  0.12500000000E+03 0.  0.
        -11    1    3    3    0    0  0.34809092304E+02  0.22581814426E+02 -0.28918181250E+01  0.41592954477E+02  0.51100000000E-03 0.  1.
         23    2    1    0    0    0 -0.16068447711E+02 -0.84253709025E+01  0.12299361293E+02  0.10308068945E+03  0.10072324639E+03 0.  0.
         11    1    3    3    0    0 -0.50877540015E+02 -0.31007185329E+02  0.15191179418E+02  0.61487734975E+02  0.51100000000E-03 0. -1.
         22    1    1    0    0    0  0.16068447711E+02  0.84253709025E+01 -0.12299361293E+02  0.21919310548E+02  0.00000000000E+00 0. -1.
</event>
<event>
 5    1  0.8778268E-005  0.9118800E+02  0.7818608E-02  0.1130116E+00
         25   -1    0    0    0    0  0.00000000000E+00  0.00000000000E+00  0.99999998245E-14  0.12500000000E+03  0.12500000000E+03 0.  0.
        -11    1    3    3    0    0  0.28832281424E+02  0.49953786377E+02 -0.24046170729E+02  0.62489195486E+02  0.51100000000E-03 0.  1.
         23    2    1    0    0    0  0.13467882532E+02  0.22790466850E+02 -0.11873796560E+02  0.95986618882E+02  0.91496747048E+02 0.  0.
         11    1    3    3    0    0 -0.15364398892E+02 -0.27163319527E+02  0.12172374168E+02  0.33497423396E+02  0.51100000000E-03 0. -1.
         22    1    1    0    0    0 -0.13467882532E+02 -0.22790466850E+02  0.11873796560E+02  0.29013381118E+02  0.00000000000E+00 0.  1.
</event>
<event>
 5    1  0.8778268E-005  0.9118800E+02  0.7818608E-02  0.1130116E+00
         25   -1    0    0    0    0  0.00000000000E+00  0.00000000000E+00  0.99999998245E-14  0.12500000000E+03  0.12500000000E+03 0.  0.
        -11    1    3    3    0    0  0.35964201838E+02 -0.12556547085E+01 -0.92015230272E+01  0.37143889254E+02  0.51100000000E-03 0. -1.
         23    2    1    0    0    0 -0.19765887376E+02  0.17424016316E+02 -0.12126974642E+02  0.95993963347E+02  0.91506780278E+02 0.  0.
         11    1    3    3    0    0 -0.55730089214E+02  0.18679671024E+02 -0.29254516150E+01  0.58850074093E+02  0.51100000000E-03 0.  1.
         22    1    1    0    0    0  0.19765887376E+02 -0.17424016316E+02  0.12126974642E+02  0.29006036653E+02  0.00000000000E+00 0.  1.
</event>
<event>
 5    1  0.8778268E-005  0.9118800E+02  0.7818608E-02  0.1130116E+00
         25   -1    0    0    0    0  0.00000000000E+00  0.00000000000E+00  0.99999998245E-14  0.12500000000E+03  0.12500000000E+03 0.  0.
        -11    1    3    3    0    0 -0.29443046340E+02  0.15442089565E+02 -0.10597012600E+02  0.34894810277E+02  0.51100000000E-03 0.  1.
         23    2    1    0    0    0  0.11688918956E+02 -0.20298625937E+02  0.17078998902E+02  0.96011084105E+02  0.91530164570E+02 0.  0.
         11    1    3    3    0    0  0.41131965296E+02 -0.35740715503E+02  0.27676011502E+02  0.61116273828E+02  0.51100000000E-03 0. -1.
         22    1    1    0    0    0 -0.11688918956E+02  0.20298625937E+02 -0.17078998902E+02  0.28988915895E+02  0.00000000000E+00 0. -1.
</event>
<event>
 5    1  0.8778268E-005  0.9118800E+02  0.7818608E-02  0.1130116E+00
         25   -1    0    0    0    0  0.00000000000E+00  0.00000000000E+00  0.99999998245E-14  0.12500000000E+03  0.12500000000E+03 0.  0.
        -11    1    3    3    0    0  0.10207601745E+02 -0.39024660359E+02  0.18580718992E+02  0.44411286494E+02  0.51100000000E-03 0.  1.
         23    2    1    0    0    0  0.16442107382E+01  0.12605027991E+02  0.24817207391E+02  0.97116600955E+02  0.93027685335E+02 0.  0.
         11    1    3    3    0    0 -0.85633910071E+01  0.51629688350E+02  0.62364883996E+01  0.52705314461E+02  0.51100000000E-03 0. -1.
         22    1    1    0    0    0 -0.16442107382E+01 -0.12605027991E+02 -0.24817207391E+02  0.27883399045E+02  0.00000000000E+00 0. -1.
</event>
<event>
 5    1  0.8778268E-005  0.9118800E+02  0.7818608E-02  0.1130116E+00
         25   -1    0    0    0    0  0.00000000000E+00  0.00000000000E+00  0.99999998245E-14  0.12500000000E+03  0.12500000000E+03 0.  0.
        -11    1    3    3    0    0 -0.29770869436E+02 -0.24131148345E+01  0.51227314473E+02  0.59298950569E+02  0.51100000000E-03 0.  1.
         23    2    1    0    0    0 -0.17687082980E+01 -0.43146782436E+01  0.30388073503E+02  0.94256223579E+02  0.89101379870E+02 0.  0.
         11    1    3    3    0    0  0.28002161138E+02 -0.19015634091E+01 -0.20839240970E+02  0.34957273010E+02  0.51100000000E-03 0. -1.
         22    1    1    0    0    0  0.17687082980E+01  0.43146782436E+01 -0.30388073503E+02  0.30743776421E+02  0.00000000000E+00 0.  1.
</event>
<event>
 5    1  0.8778268E-005  0.9118800E+02  0.7818608E-02  0.1130116E+00
         25   -1    0    0    0    0  0.00000000000E+00  0.00000000000E+00  0.99999998245E-14  0.12500000000E+03  0.12500000000E+03 0.  0.
        -11    1    3    3    0    0  0.17685598540E+02 -0.12581148549E+02 -0.26662914437E+02  0.34379888032E+02  0.51100000000E-03 0. -1.
         23    2    1    0    0    0 -0.62419901338E+01  0.27806591524E+02  0.10885765047E+02  0.94493134319E+02  0.89433123505E+02 0.  0.
         11    1    3    3    0    0 -0.23927588674E+02  0.40387740073E+02  0.37548679484E+02  0.60113246288E+02  0.51100000000E-03 0.  1.
         22    1    1    0    0    0  0.62419901338E+01 -0.27806591524E+02 -0.10885765047E+02  0.30506865681E+02  0.00000000000E+00 0.  1.
</event>
<event>
 5    1  0.8778268E-005  0.9118800E+02  0.7818608E-02  0.1130116E+00
         25   -1    0    0    0    0  0.00000000000E+00  0.00000000000E+00  0.99999998245E-14  0.12500000000E+03  0.12500000000E+03 0.  0.
        -11    1    3    3    0    0  0.70812144618E+01  0.21824302888E+02  0.28738378656E+02  0.36774151286E+02  0.51100000000E-03 0.  1.
         23    2    1    0    0    0 -0.27908043849E+02 -0.13804769603E+01 -0.11365564381E+02  0.94834776948E+02  0.89909366792E+02 0.  0.
         11    1    3    3    0    0 -0.34989258310E+02 -0.23204779848E+02 -0.40103943037E+02  0.58060625662E+02  0.51100000000E-03 0. -1.
         22    1    1    0    0    0  0.27908043849E+02  0.13804769603E+01  0.11365564381E+02  0.30165223052E+02  0.00000000000E+00 0. -1.
</event>
<event>
 5    1  0.8778268E-005  0.9118800E+02  0.7818608E-02  0.1130116E+00
         25   -1    0    0    0    0  0.00000000000E+00  0.00000000000E+00  0.99999998245E-14  0.12500000000E+03  0.12500000000E+03 0.  0.
        -11    1    3    3    0    0 -0.23473791718E+02 -0.19129749505E+02  0.22789759894E+02  0.37899068194E+02  0.51100000000E-03 0. -1.
         23    2    1    0    0    0  0.25782715610E+01 -0.41594027171E+01 -0.27818160549E+02  0.96754678767E+02  0.92540097751E+02 0.  0.
         11    1    3    3    0    0  0.26052063279E+02  0.14970346788E+02 -0.50607920443E+02  0.58855610572E+02  0.51100000000E-03 0.  1.
         22    1    1    0    0    0 -0.25782715610E+01  0.41594027171E+01  0.27818160549E+02  0.28245321233E+02  0.00000000000E+00 0.  1.
</event>
<event>
 5    1  0.8778268E-005  0.9118800E+02  0.7818608E-02  0.1130116E+00
         25   -1    0    0    0    0  0.00000000000E+00  0.00000000000E+00  0.99999998245E-14  0.12500000000E+03  0.12500000000E+03 0.  0.
        -11    1    3    3    0    0 -0.60626129477E+01  0.11729387236E+02  0.50919196967E+02  0.52603216828E+02  0.51100000000E-03 0. -1.
         23    2    1    0    0    0  0.20114623355E+02  0.13417746692E+02  0.17185624932E+02  0.95335548155E+02  0.90602908555E+02 0.  0.
         11    1    3    3    0    0  0.26177236302E+02  0.16883594560E+01 -0.33733572035E+02  0.42732331326E+02  0.51100000000E-03 0.  1.
         22    1    1    0    0    0 -0.20114623355E+02 -0.13417746692E+02 -0.17185624932E+02  0.29664451845E+02  0.00000000000E+00 0. -1.
</event>
<event>
 5    1  0.8778268E-005  0.9118800E+02  0.7818608E-02  0.1130116E+00
         25   -1    0    0    0    0  0.00000000000E+00  0.00000000000E+00  0.99999998245E-14  0.12500000000E+03  0.12500000000E+03 0.  0.
        -11    1    3    3    0    0 -0.65775545688E+00  0.35377072481E+02  0.33203722248E+02  0.48522747974E+02  0.51100000000E-03 0.  1.
         23    2    1    0    0    0  0.44380691644E+01 -0.21645536287E+01  0.37972686599E+02  0.86707615929E+02  0.77793984229E+02 0.  0.
         11    1    3    3    0    0  0.50958246212E+01 -0.37541626109E+02  0.47689643512E+01  0.38184867955E+02  0.51100000000E-03 0. -1.
         22    1    1    0    0    0 -0.44380691644E+01  0.21645536287E+01 -0.37972686599E+02  0.38292384071E+02  0.00000000000E+00 0.  1.
</event>
<event>
 5    1  0.8778268E-005  0.9118800E+02  0.7818608E-02  0.1130116E+00
         25   -1    0    0    0    0  0.00000000000E+00  0.00000000000E+00  0.99999998245E-14  0.12500000000E+03  0.12500000000E+03 0.  0.
        -11    1    3    3    0    0  0.93759311633E+01  0.16284015469E+02 -0.55639720512E+02  0.58726959259E+02  0.51100000000E-03 0. -1.
         23    2    1    0    0    0  0.12633440835E+02 -0.56143946040E+01 -0.19873672760E+02  0.10079074303E+03  0.97840103011E+02 0.  0.
         11    1    3    3    0    0  0.32575096718E+01 -0.21898410073E+02  0.35766047752E+02  0.42063783770E+02  0.51100000000E-03 0.  1.
         22    1    1    0    0    0 -0.12633440835E+02  0.56143946040E+01  0.19873672760E+02  0.24209256971E+02  0.00000000000E+00 0. -1.
</event>
<event>
 5    1  0.8778268E-005  0.9118800E+02  0.7818608E-02  0.1130116E+00
         25   -1    0    0    0    0  0.00000000000E+00  0.00000000000E+00  0.99999998245E-14  0.12500000000E+03  0.12500000000E+03 0.  0.
        -11    1    3    3    0    0  0.26153800506E+02  0.26819620667E+02  0.21567673721E+02  0.43225893671E+02  0.51100000000E-03 0.  1.
         23    2    1    0    0    0 -0.14860572179E+02  0.21434187937E+02 -0.11800354960E+02  0.96372925486E+02  0.92022993711E+02 0.  0.
         11    1    3    3    0    0 -0.41014372686E+02 -0.53854327293E+01 -0.33368028681E+02  0.53147031816E+02  0.51100000000E-03 0. -1.
         22    1    1    0    0    0  0.14860572179E+02 -0.21434187937E+02  0.11800354960E+02  0.28627074514E+02  0.00000000000E+00 0. -1.
</event>
<event>
 5    1  0.8778268E-005  0.9118800E+02  0.7818608E-02  0.1130116E+00
         25   -1    0    0    0    0  0.00000000000E+00  0.00000000000E+00  0.99999998245E-14  0.12500000000E+03  0.12500000000E+03 0.  0.
        -11    1    3    3    0    0 -0.34933641167E+02 -0.14243274143E+01 -0.13012945958E+02  0.37305827380E+02  0.51100000000E-03 0. -1.
         23    2    1    0    0    0  0.17838835043E+02 -0.23431429981E+02 -0.24664306133E+01  0.95447686611E+02  0.90757488136E+02 0.  0.
         11    1    3    3    0    0  0.52772476210E+02 -0.22007102567E+02  0.10546515345E+02  0.58141859231E+02  0.51100000000E-03 0.  1.
         22    1    1    0    0    0 -0.17838835043E+02  0.23431429981E+02  0.24664306133E+01  0.29552313389E+02  0.00000000000E+00 0.  1.
</event>
<event>
 5    1  0.8778268E-005  0.9118800E+02  0.7818608E-02  0.1130116E+00
         25   -1    0    0    0    0  0.00000000000E+00  0.00000000000E+00  0.99999998245E-14  0.12500000000E+03  0.12500000000E+03 0.  0.
        -11    1    3    3    0    0 -0.58605968100E+02  0.17239559541E+02 -0.67588814669E+01  0.61461731094E+02  0.51100000000E-03 0. -1.
         23    2    1    0    0    0 -0.27000825881E+02  0.13978512057E+02  0.23217802681E+01  0.94506819431E+02  0.89452249037E+02 0.  0.
         11    1    3    3    0    0  0.31605142219E+02 -0.32610474840E+01  0.90806617350E+01  0.33045088337E+02  0.51100000000E-03 0.  1.
         22    1    1    0    0    0  0.27000825881E+02 -0.13978512057E+02 -0.23217802681E+01  0.30493180569E+02  0.00000000000E+00 0. -1.
</event>
<event>
 5    1  0.8778268E-005  0.9118800E+02  0.7818608E-02  0.1130116E+00
         25   -1    0    0    0    0  0.00000000000E+00  0.00000000000E+00  0.99999998245E-14  0.12500000000E+03  0.12500000000E+03 0.  0.
        -11    1    3    3    0    0  0.35403855709E+01 -0.15069094015E+02 -0.48052154384E+01  0.16208085022E+02  0.51100000000E-03 0.  1.
         23    2    1    0    0    0  0.12619677098E+02  0.17960666256E+02  0.43996278757E+02  0.75831775232E+02  0.57731653431E+02 0.  0.
         11    1    3    3    0    0  0.90792915270E+01  0.33029760271E+02  0.48801494195E+02  0.59623690209E+02  0.51100000000E-03 0. -1.
         22    1    1    0    0    0 -0.12619677098E+02 -0.17960666256E+02 -0.43996278757E+02  0.49168224768E+02  0.00000000000E+00 0.  1.
</event>
<event>
 5    1  0.8778268E-005  0.9118800E+02  0.7818608E-02  0.1130116E+00
         25   -1    0    0    0    0  0.00000000000E+00  0.00000000000E+00  0.99999998245E-14  0.12500000000E+03  0.12500000000E+03 0.  0.
        -11    1    3    3    0    0  0.28332408123E+01 -0.92202454177E+01  0.56476781101E+02  0.57294563292E+02  0.51100000000E-03 0. -1.
         23    2    1    0    0    0 -0.67979147088E+01 -0.16723884335E+02  0.12230608367E+02  0.10319431880E+03  0.10086416460E+03 0.  0.
         11    1    3    3    0    0 -0.96311555211E+01 -0.75036389173E+01 -0.44246172734E+02  0.45899755507E+02  0.51100000000E-03 0.  1.
         22    1    1    0    0    0  0.67979147088E+01  0.16723884335E+02 -0.12230608367E+02  0.21805681201E+02  0.00000000000E+00 0.  1.
</event>
<event>
 5    1  0.8778268E-005  0.9118800E+02  0.7818608E-02  0.1130116E+00
         25   -1    0    0    0    0  0.00000000000E+00  0.00000000000E+00  0.99999998245E-14  0.12500000000E+03  0.12500000000E+03 0.  0.
        -11    1    3    3    0    0  0.53643847758E+02  0.27684939929E+01 -0.12528846293E+01  0.53729849073E+02  0.51100000000E-03 0.  1.
         23    2    1    0    0    0  0.16365317670E+02  0.14139563001E+02 -0.18679322343E+02  0.96422597257E+02  0.92090440950E+02 0.  0.
         11    1    3    3    0    0 -0.37278530087E+02  0.11371069008E+02 -0.17426437714E+02  0.42692748184E+02  0.51100000000E-03 0. -1.
         22    1    1    0    0    0 -0.16365317670E+02 -0.14139563001E+02  0.18679322343E+02  0.28577402743E+02  0.00000000000E+00 0.  1.
</event>
<event>
 5    1  0.8778268E-005  0.9118800E+02  0.7818608E-02  0.1130116E+00
         25   -1    0    0    0    0  0.00000000000E+00  0.00000000000E+00  0.99999998245E-14  0.12500000000E+03  0.12500000000E+03 0.  0.
        -11    1    3    3    0    0  0.45235250545E+02  0.22406261649E+02 -0.64524640948E+01  0.50891087098E+02  0.51100000000E-03 0. -1.
         23    2    1    0    0    0  0.24470864635E+02 -0.14939257017E+02  0.66182206430E+01  0.95575427604E+02  0.90933255198E+02 0.  0.
         11    1    3    3    0    0 -0.20764385909E+02 -0.37345518666E+02  0.13070684738E+02  0.44684340505E+02  0.51100000000E-03 0.  1.
         22    1    1    0    0    0 -0.24470864635E+02  0.14939257017E+02 -0.66182206430E+01  0.29424572396E+02  0.00000000000E+00 0.  1.
</event>
<event>
 5    1  0.8778268E-005  0.9118800E+02  0.7818608E-02  0.1130116E+00
         25   -1    0    0    0    0  0.00000000000E+00  0.00000000000E+00  0.99999998245E-14  0.12500000000E+03  0.12500000000E+03 0.  0.
        -11    1    3    3    0    0  0.86096890013E+01  0.16154605284E+02  0.36293465062E+02  0.40648660778E+02  0.51100000000E-03 0.  1.
         23    2    1    0    0    0  0.16000059003E+02  0.17386136626E+02 -0.17899824395E+02  0.95357406520E+02  0.90633060358E+02 0.  0.
         11    1    3    3    0    0  0.73903700017E+01  0.12315313415E+01 -0.54193289457E+02  0.54708745742E+02  0.51100000000E-03 0. -1.
         22    1    1    0    0    0 -0.16000059003E+02 -0.17386136626E+02  0.17899824395E+02  0.29642593480E+02  0.00000000000E+00 0. -1.
</event>
<event>
 5    1  0.8778268E-005  0.9118800E+02  0.7818608E-02  0.1130116E+00
         25   -1    0    0    0    0  0.00000000000E+00  0.00000000000E+00  0.99999998245E-14  0.12500000000E+03  0.12500000000E+03 0.  0.
        -11    1    3    3    0    0  0.76355405215E+01  0.33344314388E+02 -0.22613334420E+01  0.34282042096E+02  0.51100000000E-03 0. -1.
         23    2    1    0    0    0  0.10388651303E+02 -0.26711126660E+02 -0.94342220174E+01  0.94826950628E+02  0.89898485288E+02 0.  0.
         11    1    3    3    0    0  0.27531107815E+01 -0.60055441048E+02 -0.71728885754E+01  0.60544908532E+02  0.51100000000E-03 0.  1.
         22    1    1    0    0    0 -0.10388651303E+02  0.26711126660E+02  0.94342220174E+01  0.30173049372E+02  0.00000000000E+00 0.  1.
</event>
<event>
 5    1  0.8778268E-005  0.9118800E+02  0.7818608E-02  0.1130116E+00
         25   -1    0    0    0    0  0.00000000000E+00  0.00000000000E+00  0.99999998245E-14  0.12500000000E+03  0.12500000000E+03 0.  0.
        -11    1    3    3    0    0 -0.16739832165E+02 -0.15005379975E+02 -0.21816913645E+02  0.31326683998E+02  0.51100000000E-03 0.  1.
         23    2    1    0    0    0  0.12717229141E+02  0.27212095278E+02  0.11710834799E+02  0.92760742903E+02  0.86978076121E+02 0.  0.
         11    1    3    3    0    0  0.29457061306E+02  0.42217475253E+02  0.33527748444E+02  0.61434058905E+02  0.51100000000E-03 0. -1.
         22    1    1    0    0    0 -0.12717229141E+02 -0.27212095278E+02 -0.11710834799E+02  0.32239257097E+02  0.00000000000E+00 0. -1.
</event>
<event>
 5    1  0.8778268E-005  0.9118800E+02  0.7818608E-02  0.1130116E+00
         25   -1    0    0    0    0  0.00000000000E+00  0.00000000000E+00  0.99999998245E-14  0.12500000000E+03  0.12500000000E+03 0.  0.
        -11    1    3    3    0    0  0.17279112032E+02 -0.27841559244E+02 -0.39899044781E+02  0.51629971029E+02  0.51100000000E-03 0. -1.
         23    2    1    0    0    0  0.12663576649E+01 -0.30284399631E+02 -0.27311692005E-02  0.94689135113E+02  0.89706654035E+02 0.  0.
         11    1    3    3    0    0 -0.16012754367E+02 -0.24428403872E+01  0.39896313612E+02  0.43059164084E+02  0.51100000000E-03 0.  1.
         22    1    1    0    0    0 -0.12663576649E+01  0.30284399631E+02  0.27311692005E-02  0.30310864887E+02  0.00000000000E+00 0. -1.
</event>
<event>
 5    1  0.8778268E-005  0.9118800E+02  0.7818608E-02  0.1130116E+00
         25   -1    0    0    0    0  0.00000000000E+00  0.00000000000E+00  0.99999998245E-14  0.12500000000E+03  0.12500000000E+03 0.  0.
        -11    1    3    3    0    0  0.30638496277E+02  0.78035774749E+01  0.21402231868E+02  0.38179429078E+02  0.51100000000E-03 0. -1.
         23    2    1    0    0    0 -0.15155209908E+01 -0.27507204426E+02 -0.10396703804E+02  0.95554549601E+02  0.90904551042E+02 0.  0.
         11    1    3    3    0    0 -0.32154017267E+02 -0.35310781901E+02 -0.31798935672E+02  0.57375120523E+02  0.51100000000E-03 0.  1.
         22    1    1    0    0    0  0.15155209908E+01  0.27507204426E+02  0.10396703804E+02  0.29445450399E+02  0.00000000000E+00 0.  1.
</event>
<event>
 5    1  0.8778268E-005  0.9118800E+02  0.7818608E-02  0.1130116E+00
         25   -1    0    0    0    0  0.00000000000E+00  0.00000000000E+00  0.99999998245E-14  0.12500000000E+03  0.12500000000E+03 0.  0.
        -11    1    3    3    0    0 -0.10616451211E+01  0.23816270680E+02 -0.39251197074E+02  0.45923831629E+02  0.51100000000E-03 0. -1.
         23    2    1    0    0    0  0.16706492728E+02 -0.14997214993E+02 -0.22108060649E+01  0.10244094372E+03  0.99926152382E+02 0.  0.
         11    1    3    3    0    0  0.17768137849E+02 -0.38813485673E+02  0.37040391009E+02  0.56517112091E+02  0.51100000000E-03 0.  1.
         22    1    1    0    0    0 -0.16706492728E+02  0.14997214993E+02  0.22108060649E+01  0.22559056280E+02  0.00000000000E+00 0.  1.
</event>
<event>
 5    1  0.8778268E-005  0.9118800E+02  0.7818608E-02  0.1130116E+00
         25   -1    0    0    0    0  0.00000000000E+00  0.00000000000E+00  0.99999998245E-14  0.12500000000E+03  0.12500000000E+03 0.  0.
        -11    1    3    3    0    0 -0.26213796263E+02  0.22113655676E+02  0.62317111912E+01  0.34857009432E+02  0.51100000000E-03 0. -1.
         23    2    1    0    0    0  0.24588299088E+02 -0.10014085201E+02  0.13168003866E+02  0.95364503036E+02  0.90642847258E+02 0.  0.
         11    1    3    3    0    0  0.50802095351E+02 -0.32127740878E+02  0.69362926748E+01  0.60507493605E+02  0.51100000000E-03 0.  1.
         22    1    1    0    0    0 -0.24588299088E+02  0.10014085201E+02 -0.13168003866E+02  0.29635496964E+02  0.00000000000E+00 0.  1.
</event>
<event>
 5    1  0.8778268E-005  0.9118800E+02  0.7818608E-02  0.1130116E+00
         25   -1    0    0    0    0  0.00000000000E+00  0.00000000000E+00  0.99999998245E-14  0.12500000000E+03  0.12500000000E+03 0.  0.
        -11    1    3    3    0    0  0.40166034266E+02 -0.29411358737E+02  0.34023120597E+01  0.49899038659E+02  0.51100000000E-03 0.  1.
         23    2    1    0    0    0  0.27676247077E+02  0.10273099731E+02  0.13233324874E+02  0.92648305801E+02  0.86816337461E+02 0.  0.
         11    1    3    3    0    0 -0.12489787190E+02  0.39684458468E+02  0.98310128143E+01  0.42749267142E+02  0.51100000000E-03 0. -1.
         22    1    1    0    0    0 -0.27676247077E+02 -0.10273099731E+02 -0.13233324874E+02  0.32351694199E+02  0.00000000000E+00 0.  1.
</event>
<event>
 5    1  0.8778268E-005  0.9118800E+02  0.7818608E-02  0.1130116E+00
         25   -1    0    0    0    0  0.00000000000E+00  0.00000000000E+00  0.99999998245E-14  0.12500000000E+03  0.12500000000E+03 0.  0.
        -11    1    3    3    0    0 -0.51237696242E+02 -0.27509627627E+02 -0.16689018982E+01  0.58179604349E+02  0.51100000000E-03 0. -1.
         23    2    1    0    0    0 -0.21792497377E+02 -0.15031437417E+02 -0.16890099764E+02  0.93597252942E+02  0.88172066073E+02 0.  0.
         11    1    3    3    0    0  0.29445198866E+02  0.12478190210E+02 -0.15221197866E+02  0.35417648593E+02  0.51100000000E-03 0.  1.
         22    1    1    0    0    0  0.21792497377E+02  0.15031437417E+02  0.16890099764E+02  0.31402747058E+02  0.00000000000E+00 0. -1.
</event>
<event>
 5    1  0.8778268E-005  0.9118800E+02  0.7818608E-02  0.1130116E+00
         25   -1    0    0    0    0  0.00000000000E+00  0.00000000000E+00  0.99999998245E-14  0.12500000000E+03  0.12500000000E+03 0.  0.
        -11    1    3    3    0    0 -0.39777181268E+02  0.28963611781E+02 -0.42390857853E+01  0.49387091487E+02  0.51100000000E-03 0. -1.
         23    2    1    0    0    0 -0.21041924532E+02 -0.11857166448E+02 -0.16261481240E+02  0.95883153394E+02  0.91355286374E+02 0.  0.
         11    1    3    3    0    0  0.18735256735E+02 -0.40820778228E+02 -0.12022395454E+02  0.46496061907E+02  0.51100000000E-03 0.  1.
         22    1    1    0    0    0  0.21041924532E+02  0.11857166448E+02  0.16261481240E+02  0.29116846606E+02  0.00000000000E+00 0. -1.
</event>
<event>
 5    1  0.8778268E-005  0.9118800E+02  0.7818608E-02  0.1130116E+00
         25   -1    0    0    0    0  0.00000000000E+00  0.00000000000E+00  0.99999998245E-14  0.12500000000E+03  0.12500000000E+03 0.  0.
        -11    1    3    3    0    0  0.55447174490E+00  0.29253694504E+02 -0.16202462018E+02  0.33445565577E+02  0.51100000000E-03 0. -1.
         23    2    1    0    0    0 -0.10179884120E+01 -0.25792772575E+02  0.13345958784E+02  0.95941128147E+02  0.91434577906E+02 0.  0.
         11    1    3    3    0    0 -0.15724601569E+01 -0.55046467079E+02  0.29548420801E+02  0.62495562570E+02  0.51100000000E-03 0.  1.
         22    1    1    0    0    0  0.10179884120E+01  0.25792772575E+02 -0.13345958784E+02  0.29058871853E+02  0.00000000000E+00 0.  1.
</event>
<event>
 5    1  0.8778268E-005  0.9118800E+02  0.7818608E-02  0.1130116E+00
         25   -1    0    0    0    0  0.00000000000E+00  0.00000000000E+00  0.99999998245E-14  0.12500000000E+03  0.12500000000E+03 0.  0.
        -11    1    3    3    0    0 -0.36497657031E+02 -0.67275692066E+01 -0.98424005531E+01  0.38395468549E+02  0.51100000000E-03 0.  1.
         23    2    1    0    0    0  0.86583356352E+00  0.32117680604E+02 -0.44887913311E+01  0.92558601714E+02  0.86687083400E+02 0.  0.
         11    1    3    3    0    0  0.37363490594E+02  0.38845249811E+02  0.53536092219E+01  0.54163133165E+02  0.51100000000E-03 0. -1.
         22    1    1    0    0    0 -0.86583356352E+00 -0.32117680604E+02  0.44887913311E+01  0.32441398286E+02  0.00000000000E+00 0. -1.
</event>
<event>
 5    1  0.8778268E-005  0.9118800E+02  0.7818608E-02  0.1130116E+00
         25   -1    0    0    0    0  0.00000000000E+00  0.00000000000E+00  0.99999998245E-14  0.12500000000E+03  0.12500000000E+03 0.  0.
        -11    1    3    3    0    0 -0.92482399352E+00 -0.33503967857E+02  0.97020235332E+01  0.34892698699E+02  0.51100000000E-03 0.  1.
         23    2    1    0    0    0  0.84540434561E+01  0.11287451013E+02 -0.27648296872E+02  0.93962833231E+02  0.88688828539E+02 0.  0.
         11    1    3    3    0    0  0.93788674496E+01  0.44791418870E+02 -0.37350320405E+02  0.59070134532E+02  0.51100000000E-03 0. -1.
         22    1    1    0    0    0 -0.84540434561E+01 -0.11287451013E+02  0.27648296872E+02  0.31037166769E+02  0.00000000000E+00 0. -1.
</event>
<event>
 5    1  0.8778268E-005  0.9118800E+02  0.7818608E-02  0.1130116E+00
         25   -1    0    0    0    0  0.00000000000E+00  0.00000000000E+00  0.99999998245E-14  0.12500000000E+03  0.12500000000E+03 0.  0.
        -11    1    3    3    0    0 -0.31692692552E+02 -0.42871633438E+02  0.13049584332E+02  0.54888025710E+02  0.51100000000E-03 0. -1.
         23    2    1    0    0    0 -0.28447034139E+02 -0.27211863728E+01  0.64108848884E+01  0.95712834694E+02  0.91121943973E+02 0.  0.
         11    1    3    3    0    0  0.32456584121E+01  0.40150447065E+02 -0.66386994433E+01  0.40824808984E+02  0.51100000000E-03 0.  1.
         22    1    1    0    0    0  0.28447034139E+02  0.27211863728E+01 -0.64108848884E+01  0.29287165306E+02  0.00000000000E+00 0. -1.
</event>
<event>
 5    1  0.8778268E-005  0.9118800E+02  0.7818608E-02  0.1130116E+00
         25   -1    0    0    0    0  0.00000000000E+00  0.00000000000E+00  0.99999998245E-14  0.12500000000E+03  0.12500000000E+03 0.  0.
        -11    1    3    3    0    0 -0.30047376343E+02 -0.13256012599E+02  0.21272183799E+02  0.39128921516E+02  0.51100000000E-03 0. -1.
         23    2    1    0    0    0  0.30020175633E+01  0.26213537497E+02 -0.67838510078E+01  0.97756977186E+02  0.93884206853E+02 0.  0.
         11    1    3    3    0    0  0.33049393906E+02  0.39469550096E+02 -0.28056034807E+02  0.58628055670E+02  0.51100000000E-03 0.  1.
         22    1    1    0    0    0 -0.30020175633E+01 -0.26213537497E+02  0.67838510078E+01  0.27243022814E+02  0.00000000000E+00 0.  1.
</event>
<event>
 5    1  0.8778268E-005  0.9118800E+02  0.7818608E-02  0.1130116E+00
         25   -1    0    0    0    0  0.00000000000E+00  0.00000000000E+00  0.99999998245E-14  0.12500000000E+03  0.12500000000E+03 0.  0.
        -11    1    3    3    0    0 -0.34553521700E+01  0.33547119463E+02  0.27687802334E+02  0.43634425414E+02  0.51100000000E-03 0.  1.
         23    2    1    0    0    0  0.30382974501E+02  0.28703194396E+01  0.74829369187E+01  0.93577743268E+02  0.88144403208E+02 0.  0.
         11    1    3    3    0    0  0.33838326671E+02 -0.30676800023E+02 -0.20204865415E+02  0.49943317854E+02  0.51100000000E-03 0. -1.
         22    1    1    0    0    0 -0.30382974501E+02 -0.28703194396E+01 -0.74829369187E+01  0.31422256732E+02  0.00000000000E+00 0. -1.
</event>
<event>
 5    1  0.8778268E-005  0.9118800E+02  0.7818608E-02  0.1130116E+00
         25   -1    0    0    0    0  0.00000000000E+00  0.00000000000E+00  0.99999998245E-14  0.12500000000E+03  0.12500000000E+03 0.  0.
        -11    1    3    3    0    0 -0.29546249493E+02 -0.70969607984E+00  0.16228975735E+02  0.33717416587E+02  0.51100000000E-03 0. -1.
         23    2    1    0    0    0  0.15756901594E+02  0.12908878039E+02 -0.22350304075E+02  0.94760040140E+02  0.89805400924E+02 0.  0.
         11    1    3    3    0    0  0.45303151087E+02  0.13618574119E+02 -0.38579279809E+02  0.61042623554E+02  0.51100000000E-03 0.  1.
         22    1    1    0    0    0 -0.15756901594E+02 -0.12908878039E+02  0.22350304075E+02  0.30239959860E+02  0.00000000000E+00 0.  1.
</event>
<event>
 5    1  0.8778268E-005  0.9118800E+02  0.7818608E-02  0.1130116E+00
         25   -1    0    0    0    0  0.00000000000E+00  0.00000000000E+00  0.99999998245E-14  0.12500000000E+03  0.12500000000E+03 0.  0.
        -11    1    3    3    0    0  0.11236842520E+02  0.39104212514E+01  0.49757504946E+02  0.51160212303E+02  0.51100000000E-03 0. -1.
         23    2    1    0    0    0  0.29279724476E+02  0.35731817622E+01  0.11722665647E+02  0.93259004691E+02  0.87691226316E+02 0.  0.
         11    1    3    3    0    0  0.18042881956E+02 -0.33723948921E+00 -0.38034839299E+02  0.42098792388E+02  0.51100000000E-03 0.  1.
         22    1    1    0    0    0 -0.29279724476E+02 -0.35731817622E+01 -0.11722665647E+02  0.31740995309E+02  0.00000000000E+00 0. -1.
</event>
<event>
 5    1  0.8778268E-005  0.9118800E+02  0.7818608E-02  0.1130116E+00
         25   -1    0    0    0    0  0.00000000000E+00  0.00000000000E+00  0.99999998245E-14  0.12500000000E+03  0.12500000000E+03 0.  0.
        -11    1    3    3    0    0 -0.18200189118E+02  0.24627764488E+02 -0.18090605151E+02  0.35567452293E+02  0.51100000000E-03 0. -1.
         23    2    1    0    0    0  0.19815756239E+02 -0.40584813091E+01  0.20002695841E+02  0.96552797910E+02  0.92267001021E+02 0.  0.
         11    1    3    3    0    0  0.38015945357E+02 -0.28686245797E+02  0.38093300992E+02  0.60985345617E+02  0.51100000000E-03 0.  1.
         22    1    1    0    0    0 -0.19815756239E+02  0.40584813091E+01 -0.20002695841E+02  0.28447202090E+02  0.00000000000E+00 0.  1.
</event>
<event>
 5    1  0.8778268E-005  0.9118800E+02  0.7818608E-02  0.1130116E+00
         25   -1    0    0    0    0  0.00000000000E+00  0.00000000000E+00  0.99999998245E-14  0.12500000000E+03  0.12500000000E+03 0.  0.
        -11    1    3    3    0    0 -0.23513058523E+02  0.12591789633E+02  0.27326425685E+02  0.38185738546E+02  0.51100000000E-03 0. -1.
         23    2    1    0    0    0  0.76646324827E+01 -0.29209286092E+02  0.11561878347E+02  0.92664168233E+02  0.86839173524E+02 0.  0.
         11    1    3    3    0    0  0.31177691006E+02 -0.41801075725E+02 -0.15764547338E+02  0.54478429688E+02  0.51100000000E-03 0.  1.
         22    1    1    0    0    0 -0.76646324827E+01  0.29209286092E+02 -0.11561878347E+02  0.32335831767E+02  0.00000000000E+00 0.  1.
</event>
<event>
 5    1  0.8778268E-005  0.9118800E+02  0.7818608E-02  0.1130116E+00
         25   -1    0    0    0    0  0.00000000000E+00  0.00000000000E+00  0.99999998245E-14  0.12500000000E+03  0.12500000000E+03 0.  0.
        -11    1    3    3    0    0  0.48249289006E+02 -0.33546521416E+02  0.18366323107E+02  0.61568537529E+02  0.51100000000E-03 0.  1.
         23    2    1    0    0    0  0.14955168672E+02 -0.18544430937E+02  0.10707443653E+02  0.98880996604E+02  0.95369015676E+02 0.  0.
         11    1    3    3    0    0 -0.33294120334E+02  0.15002090479E+02 -0.76588794538E+01  0.37312459075E+02  0.51100000000E-03 0. -1.
         22    1    1    0    0    0 -0.14955168672E+02  0.18544430937E+02 -0.10707443653E+02  0.26119003396E+02  0.00000000000E+00 0.  1.
</event>
<event>
 5    1  0.8778268E-005  0.9118800E+02  0.7818608E-02  0.1130116E+00
         25   -1    0    0    0    0  0.00000000000E+00  0.00000000000E+00  0.99999998245E-14  0.12500000000E+03  0.12500000000E+03 0.  0.
        -11    1    3    3    0    0 -0.26017875462E+01 -0.29552647913E+02  0.54316402532E+02  0.61890224441E+02  0.51100000000E-03 0. -1.
         23    2    1    0    0    0  0.45323885461E+01 -0.12101940300E+02  0.26819751512E+02  0.95229232860E+02  0.90456112093E+02 0.  0.
         11    1    3    3    0    0  0.71341760923E+01  0.17450707614E+02 -0.27496651020E+02  0.33339008418E+02  0.51100000000E-03 0.  1.
         22    1    1    0    0    0 -0.45323885461E+01  0.12101940300E+02 -0.26819751512E+02  0.29770767140E+02  0.00000000000E+00 0. -1.
</event>
<event>
 5    1  0.8778268E-005  0.9118800E+02  0.7818608E-02  0.1130116E+00
         25   -1    0    0    0    0  0.00000000000E+00  0.00000000000E+00  0.99999998245E-14  0.12500000000E+03  0.12500000000E+03 0.  0.
        -11    1    3    3    0    0  0.31763464200E+01 -0.54510381439E+02 -0.14291950191E+02  0.56442277609E+02  0.51100000000E-03 0.  1.
         23    2    1    0    0    0 -0.15182119402E+02 -0.19679729228E+02 -0.15273023710E+02  0.95827174541E+02  0.91278659254E+02 0.  0.
         11    1    3    3    0    0 -0.18358465822E+02  0.34830652211E+02 -0.98107351887E+00  0.39384896931E+02  0.51100000000E-03 0. -1.
         22    1    1    0    0    0  0.15182119402E+02  0.19679729228E+02  0.15273023710E+02  0.29172825459E+02  0.00000000000E+00 0.  1.
</event>
<event>
 5    1  0.8778268E-005  0.9118800E+02  0.7818608E-02  0.1130116E+00
         25   -1    0    0    0    0  0.00000000000E+00  0.00000000000E+00  0.99999998245E-14  0.12500000000E+03  0.12500000000E+03 0.  0.
        -11    1    3    3    0    0  0.42305403170E+02  0.53714640516E+01  0.33237329873E+01  0.42774372756E+02  0.51100000000E-03 0.  1.
         23    2    1    0    0    0 -0.65168325829E+01  0.17474721511E+02  0.21754913198E+02  0.96344961228E+02  0.91985000446E+02 0.  0.
         11    1    3    3    0    0 -0.48822235753E+02  0.12103257459E+02  0.18431180210E+02  0.53570588472E+02  0.51100000000E-03 0. -1.
         22    1    1    0    0    0  0.65168325829E+01 -0.17474721511E+02 -0.21754913198E+02  0.28655038772E+02  0.00000000000E+00 0. -1.
</event>
<event>
 5    1  0.8778268E-005  0.9118800E+02  0.7818608E-02  0.1130116E+00
         25   -1    0    0    0    0  0.00000000000E+00  0.00000000000E+00  0.99999998245E-14  0.12500000000E+03  0.12500000000E+03 0.  0.
        -11    1    3    3    0    0 -0.25383038917E+02  0.86606026173E+01 -0.54948500792E+02  0.61144439174E+02  0.51100000000E-03 0.  1.
         23    2    1    0    0    0 -0.89953050125E+01  0.12733661279E+02 -0.24558471867E+02  0.95910823623E+02  0.91393139271E+02 0.  0.
         11    1    3    3    0    0  0.16387733904E+02  0.40730586615E+01  0.30390028925E+02  0.34766384450E+02  0.51100000000E-03 0. -1.
         22    1    1    0    0    0  0.89953050125E+01 -0.12733661279E+02  0.24558471867E+02  0.29089176377E+02  0.00000000000E+00 0.  1.
</event>
<event>
 5    1  0.8778268E-005  0.9118800E+02  0.7818608E-02  0.1130116E+00
         25   -1    0    0    0    0  0.00000000000E+00  0.00000000000E+00  0.99999998245E-14  0.12500000000E+03  0.12500000000E+03 0.  0.
        -11    1    3    3    0    0  0.31641782911E+02 -0.72641025164E+00 -0.29739370422E+02  0.43429946477E+02  0.51100000000E-03 0.  1.
         23    2    1    0    0    0  0.19135441276E+02 -0.18563027967E+01  0.21483924942E+02  0.96169980857E+02  0.91746908472E+02 0.  0.
         11    1    3    3    0    0 -0.12506341635E+02 -0.11298925451E+01  0.51223295363E+02  0.52740034380E+02  0.51100000000E-03 0. -1.
         22    1    1    0    0    0 -0.19135441276E+02  0.18563027967E+01 -0.21483924942E+02  0.28830019143E+02  0.00000000000E+00 0. -1.
</event>
<event>
 5    1  0.8778268E-005  0.9118800E+02  0.7818608E-02  0.1130116E+00
         25   -1    0    0    0    0  0.00000000000E+00  0.00000000000E+00  0.99999998245E-14  0.12500000000E+03  0.12500000000E+03 0.  0.
        -11    1    3    3    0    0 -0.53911244887E+02  0.80196713364E+01  0.19947505126E+02  0.58039989788E+02  0.51100000000E-03 0.  1.
         23    2    1    0    0    0 -0.17686801780E+02  0.18042140949E+02  0.14066660290E+02  0.96082656779E+02  0.91627857089E+02 0.  0.
         11    1    3    3    0    0  0.36224443107E+02  0.10022469613E+02 -0.58808448359E+01  0.38042666991E+02  0.51100000000E-03 0. -1.
         22    1    1    0    0    0  0.17686801780E+02 -0.18042140949E+02 -0.14066660290E+02  0.28917343221E+02  0.00000000000E+00 0.  1.
</event>
<event>
 5    1  0.8778268E-005  0.9118800E+02  0.7818608E-02  0.1130116E+00
         25   -1    0    0    0    0  0.00000000000E+00  0.00000000000E+00  0.99999998245E-14  0.12500000000E+03  0.12500000000E+03 0.  0.
        -11    1    3    3    0    0  0.57554519111E+02 -0.15790321823E+02 -0.16805480548E+02  0.62002266975E+02  0.51100000000E-03 0. -1.
         23    2    1    0    0    0  0.26369266098E+02 -0.12743167997E+02 -0.98718298489E+01  0.94094020810E+02  0.88873534882E+02 0.  0.
         11    1    3    3    0    0 -0.31185253013E+02  0.30471538257E+01  0.69336506989E+01  0.32091753835E+02  0.51100000000E-03 0.  1.
         22    1    1    0    0    0 -0.26369266098E+02  0.12743167997E+02  0.98718298489E+01  0.30905979190E+02  0.00000000000E+00 0. -1.
</event>
<event>
 5    1  0.8778268E-005  0.9118800E+02  0.7818608E-02  0.1130116E+00
         25   -1    0    0    0    0  0.00000000000E+00  0.00000000000E+00  0.99999998245E-14  0.12500000000E+03  0.12500000000E+03 0.  0.
        -11    1    3    3    0    0 -0.25515618114E+02  0.54569556040E+02 -0.27796106934E+01  0.60304307060E+02  0.51100000000E-03 0.  1.
         23    2    1    0    0    0 -0.15805530090E+02  0.24571372324E+02  0.97017845688E+01  0.94215397629E+02  0.89044086874E+02 0.  0.
         11    1    3    3    0    0  0.97100880238E+01 -0.29998183716E+02  0.12481395262E+02  0.33911090570E+02  0.51100000000E-03 0. -1.
         22    1    1    0    0    0  0.15805530090E+02 -0.24571372324E+02 -0.97017845688E+01  0.30784602371E+02  0.00000000000E+00 0.  1.
</event>
<event>
 5    1  0.8778268E-005  0.9118800E+02  0.7818608E-02  0.1130116E+00
         25   -1    0    0    0    0  0.00000000000E+00  0.00000000000E+00  0.99999998245E-14  0.12500000000E+03  0.12500000000E+03 0.  0.
        -11    1    3    3    0    0  0.30091555667E+02 -0.31325818158E+02  0.15662201266E+01  0.43465637594E+02  0.51100000000E-03 0.  1.
         23    2    1    0    0    0  0.12468119250E+02  0.13826714072E+02  0.22097608685E+02  0.96104735176E+02  0.91657971797E+02 0.  0.
         11    1    3    3    0    0 -0.17623436416E+02  0.45152532230E+02  0.20531388558E+02  0.52639097582E+02  0.51100000000E-03 0. -1.
         22    1    1    0    0    0 -0.12468119250E+02 -0.13826714072E+02 -0.22097608685E+02  0.28895264824E+02  0.00000000000E+00 0. -1.
</event>
<event>
 5    1  0.8778268E-005  0.9118800E+02  0.7818608E-02  0.1130116E+00
         25   -1    0    0    0    0  0.00000000000E+00  0.00000000000E+00  0.99999998245E-14  0.12500000000E+03  0.12500000000E+03 0.  0.
        -11    1    3    3    0    0  0.20461775808E+02  0.13006445743E+02 -0.36260641816E+02  0.43619789606E+02  0.51100000000E-03 0.  1.
         23    2    1    0    0    0  0.22999029984E+02 -0.14990247456E+02  0.83116134394E+01  0.96316453899E+02  0.91946253184E+02 0.  0.
         11    1    3    3    0    0  0.25372541761E+01 -0.27996693199E+02  0.44572255255E+02  0.52696664293E+02  0.51100000000E-03 0. -1.
         22    1    1    0    0    0 -0.22999029984E+02  0.14990247456E+02 -0.83116134394E+01  0.28683546101E+02  0.00000000000E+00 0. -1.
</event>
<event>
 5    1  0.8778268E-005  0.9118800E+02  0.7818608E-02  0.1130116E+00
         25   -1    0    0    0    0  0.00000000000E+00  0.00000000000E+00  0.99999998245E-14  0.12500000000E+03  0.12500000000E+03 0.  0.
        -11    1    3    3    0    0  0.42384711795E+02  0.19848846975E+01 -0.20058186605E+02  0.46933297470E+02  0.51100000000E-03 0.  1.
         23    2    1    0    0    0  0.68596776871E+01 -0.27920472271E+02 -0.10824458259E+02  0.94279048739E+02  0.89133395452E+02 0.  0.
         11    1    3    3    0    0 -0.35525034108E+02 -0.29905356968E+02  0.92337283464E+01  0.47345751269E+02  0.51100000000E-03 0. -1.
         22    1    1    0    0    0 -0.68596776871E+01  0.27920472271E+02  0.10824458259E+02  0.30720951261E+02  0.00000000000E+00 0. -1.
</event>
<event>
 5    1  0.8778268E-005  0.9118800E+02  0.7818608E-02  0.1130116E+00
         25   -1    0    0    0    0  0.00000000000E+00  0.00000000000E+00  0.99999998245E-14  0.12500000000E+03  0.12500000000E+03 0.  0.
        -11    1    3    3    0    0 -0.28757556579E+02 -0.36608670245E+01 -0.16400657947E+02  0.33307365389E+02  0.51100000000E-03 0. -1.
         23    2    1    0    0    0  0.19510783634E+02  0.10771335927E+02  0.19674675632E+02  0.95271474694E+02  0.90514466653E+02 0.  0.
         11    1    3    3    0    0  0.48268340213E+02  0.14432202952E+02  0.36075333578E+02  0.61964109305E+02  0.51100000000E-03 0.  1.
         22    1    1    0    0    0 -0.19510783634E+02 -0.10771335927E+02 -0.19674675632E+02  0.29728525306E+02  0.00000000000E+00 0.  1.
</event>
<event>
 5    1  0.8778268E-005  0.9118800E+02  0.7818608E-02  0.1130116E+00
         25   -1    0    0    0    0  0.00000000000E+00  0.00000000000E+00  0.99999998245E-14  0.12500000000E+03  0.12500000000E+03 0.  0.
        -11    1    3    3    0    0  0.99843361669E+01  0.47499686694E+01  0.33720675415E+02  0.35487083873E+02  0.51100000000E-03 0. -1.
         23    2    1    0    0    0  0.16083877598E+02  0.83052117990E+01 -0.24724651721E+02  0.94357283666E+02  0.89243044079E+02 0.  0.
         11    1    3    3    0    0  0.60995414316E+01  0.35552431297E+01 -0.58445327136E+02  0.58870199793E+02  0.51100000000E-03 0.  1.
         22    1    1    0    0    0 -0.16083877598E+02 -0.83052117990E+01  0.24724651721E+02  0.30642716334E+02  0.00000000000E+00 0.  1.
</event>
<event>
 5    1  0.8778268E-005  0.9118800E+02  0.7818608E-02  0.1130116E+00
         25   -1    0    0    0    0  0.00000000000E+00  0.00000000000E+00  0.99999998245E-14  0.12500000000E+03  0.12500000000E+03 0.  0.
        -11    1    3    3    0    0 -0.16154193512E+01  0.34272803406E+02  0.13363836549E+02  0.36821552935E+02  0.51100000000E-03 0. -1.
         23    2    1    0    0    0 -0.10476543075E+02 -0.24483601094E+02  0.10693471631E+02  0.96302351789E+02  0.91927079510E+02 0.  0.
         11    1    3    3    0    0 -0.88611237235E+01 -0.58756404499E+02 -0.26703649175E+01  0.59480798855E+02  0.51100000000E-03 0.  1.
         22    1    1    0    0    0  0.10476543075E+02  0.24483601094E+02 -0.10693471631E+02  0.28697648211E+02  0.00000000000E+00 0.  1.
</event>
<event>
 5    1  0.8778268E-005  0.9118800E+02  0.7818608E-02  0.1130116E+00
         25   -1    0    0    0    0  0.00000000000E+00  0.00000000000E+00  0.99999998245E-14  0.12500000000E+03  0.12500000000E+03 0.  0.
        -11    1    3    3    0    0  0.49541302111E+02  0.52657977196E+01  0.19434834482E+02  0.53476929905E+02  0.51100000000E-03 0. -1.
         23    2    1    0    0    0  0.19546232488E+02 -0.19161388770E+02 -0.17336584006E+01  0.97573377978E+02  0.93639438777E+02 0.  0.
         11    1    3    3    0    0 -0.29995069623E+02 -0.24427186490E+02 -0.21168492882E+02  0.44096448073E+02  0.51100000000E-03 0.  1.
         22    1    1    0    0    0 -0.19546232488E+02  0.19161388770E+02  0.17336584006E+01  0.27426622022E+02  0.00000000000E+00 0. -1.
</event>
<event>
 5    1  0.8778268E-005  0.9118800E+02  0.7818608E-02  0.1130116E+00
         25   -1    0    0    0    0  0.00000000000E+00  0.00000000000E+00  0.99999998245E-14  0.12500000000E+03  0.12500000000E+03 0.  0.
        -11    1    3    3    0    0 -0.37724875101E+01  0.16299563308E+02  0.32885700972E+02  0.36896839360E+02  0.51100000000E-03 0. -1.
         23    2    1    0    0    0 -0.14035861584E+02 -0.11789956799E+02 -0.20135470306E+02  0.97770500259E+02  0.93902210116E+02 0.  0.
         11    1    3    3    0    0 -0.10263374074E+02 -0.28089520107E+02 -0.53021171278E+02  0.60873660899E+02  0.51100000000E-03 0.  1.
         22    1    1    0    0    0  0.14035861584E+02  0.11789956799E+02  0.20135470306E+02  0.27229499741E+02  0.00000000000E+00 0.  1.
</event>
<event>
 5    1  0.8778268E-005  0.9118800E+02  0.7818608E-02  0.1130116E+00
         25   -1    0    0    0    0  0.00000000000E+00  0.00000000000E+00  0.99999998245E-14  0.12500000000E+03  0.12500000000E+03 0.  0.
        -11    1    3    3    0    0 -0.21211225322E+02 -0.16067040273E+02 -0.44985848030E+02  0.52266551312E+02  0.51100000000E-03 0. -1.
         23    2    1    0    0    0  0.12519385798E+02  0.39447032016E+01 -0.26074277292E+02  0.95808157982E+02  0.91252613636E+02 0.  0.
         11    1    3    3    0    0  0.33730611119E+02  0.20011743474E+02  0.18911570738E+02  0.43541606670E+02  0.51100000000E-03 0.  1.
         22    1    1    0    0    0 -0.12519385798E+02 -0.39447032016E+01  0.26074277292E+02  0.29191842018E+02  0.00000000000E+00 0. -1.
</event>
<event>
 5    1  0.8778268E-005  0.9118800E+02  0.7818608E-02  0.1130116E+00
         25   -1    0    0    0    0  0.00000000000E+00  0.00000000000E+00  0.99999998245E-14  0.12500000000E+03  0.12500000000E+03 0.  0.
        -11    1    3    3    0    0  0.51976438967E+02  0.97484594239E+01 -0.24273007875E+01  0.52938402490E+02  0.51100000000E-03 0.  1.
         23    2    1    0    0    0  0.22223046204E+02 -0.19979364856E+02 -0.26543779228E+01  0.94998591286E+02  0.90136828331E+02 0.  0.
         11    1    3    3    0    0 -0.29753392763E+02 -0.29727824280E+02 -0.22707713534E+00  0.42060188796E+02  0.51100000000E-03 0. -1.
         22    1    1    0    0    0 -0.22223046204E+02  0.19979364856E+02  0.26543779228E+01  0.30001408714E+02  0.00000000000E+00 0.  1.
</event>
<event>
 5    1  0.8778268E-005  0.9118800E+02  0.7818608E-02  0.1130116E+00
         25   -1    0    0    0    0  0.00000000000E+00  0.00000000000E+00  0.99999998245E-14  0.12500000000E+03  0.12500000000E+03 0.  0.
        -11    1    3    3    0    0  0.58859614958E+01 -0.76125347547E+00  0.44742825959E+02  0.45134737450E+02  0.51100000000E-03 0. -1.
         23    2    1    0    0    0 -0.28000187062E+02  0.18475777877E+01  0.66954517647E+01  0.96151202910E+02  0.91721321008E+02 0.  0.
         11    1    3    3    0    0 -0.33886148558E+02  0.26088312632E+01 -0.38047374195E+02  0.51016465460E+02  0.51100000000E-03 0.  1.
         22    1    1    0    0    0  0.28000187062E+02 -0.18475777877E+01 -0.66954517647E+01  0.28848797090E+02  0.00000000000E+00 0. -1.
</event>
<event>
 5    1  0.8778268E-005  0.9118800E+02  0.7818608E-02  0.1130116E+00
         25   -1    0    0    0    0  0.00000000000E+00  0.00000000000E+00  0.99999998245E-14  0.12500000000E+03  0.12500000000E+03 0.  0.
        -11    1    3    3    0    0 -0.26121876807E+02  0.39557141094E+02 -0.43914605586E+00  0.47405829905E+02  0.51100000000E-03 0. -1.
         23    2    1    0    0    0 -0.15544957793E+02 -0.30696305966E+00  0.24778203101E+02  0.95747661837E+02  0.91169706916E+02 0.  0.
         11    1    3    3    0    0  0.10576919014E+02 -0.39864104154E+02  0.25217349157E+02  0.48341831932E+02  0.51100000000E-03 0.  1.
         22    1    1    0    0    0  0.15544957793E+02  0.30696305966E+00 -0.24778203101E+02  0.29252338163E+02  0.00000000000E+00 0.  1.
</event>
<event>
 5    1  0.8778268E-005  0.9118800E+02  0.7818608E-02  0.1130116E+00
         25   -1    0    0    0    0  0.00000000000E+00  0.00000000000E+00  0.99999998245E-14  0.12500000000E+03  0.12500000000E+03 0.  0.
        -11    1    3    3    0    0 -0.44575472209E+02  0.78818164703E+01  0.24322700691E+02  0.51387639785E+02  0.51100000000E-03 0.  1.
         23    2    1    0    0    0 -0.15394669715E+02 -0.17002613277E+02  0.26686909276E+02  0.89810856211E+02  0.82629982772E+02 0.  0.
         11    1    3    3    0    0  0.29180802494E+02 -0.24884429747E+02  0.23642085850E+01  0.38423216426E+02  0.51100000000E-03 0. -1.
         22    1    1    0    0    0  0.15394669715E+02  0.17002613277E+02 -0.26686909276E+02  0.35189143789E+02  0.00000000000E+00 0.  1.
</event>
<event>
 5    1  0.8778268E-005  0.9118800E+02  0.7818608E-02  0.1130116E+00
         25   -1    0    0    0    0  0.00000000000E+00  0.00000000000E+00  0.99999998245E-14  0.12500000000E+03  0.12500000000E+03 0.  0.
        -11    1    3    3    0    0 -0.22311834611E+02  0.22584265847E+02 -0.31238398037E+02  0.44538798140E+02  0.51100000000E-03 0.  1.
         23    2    1    0    0    0  0.19019185007E+02  0.20671028246E+02  0.84804159429E+00  0.96897687254E+02  0.92733067530E+02 0.  0.
         11    1    3    3    0    0  0.41331019619E+02 -0.19132376003E+01  0.32086439631E+02  0.52358889115E+02  0.51100000000E-03 0. -1.
         22    1    1    0    0    0 -0.19019185007E+02 -0.20671028246E+02 -0.84804159429E+00  0.28102312746E+02  0.00000000000E+00 0. -1.
</event>
<event>
 5    1  0.8778268E-005  0.9118800E+02  0.7818608E-02  0.1130116E+00
         25   -1    0    0    0    0  0.00000000000E+00  0.00000000000E+00  0.99999998245E-14  0.12500000000E+03  0.12500000000E+03 0.  0.
        -11    1    3    3    0    0  0.19329616900E+02  0.13682317995E+02 -0.46794857645E+02  0.52446149692E+02  0.51100000000E-03 0.  1.
         23    2    1    0    0    0  0.25505237372E+02  0.11368983556E+02 -0.27965458864E+01  0.96935937760E+02  0.92784613164E+02 0.  0.
         11    1    3    3    0    0  0.61756204721E+01 -0.23133344392E+01  0.43998311759E+02  0.44489788068E+02  0.51100000000E-03 0. -1.
         22    1    1    0    0    0 -0.25505237372E+02 -0.11368983556E+02  0.27965458864E+01  0.28064062240E+02  0.00000000000E+00 0. -1.
</event>
<event>
 5    1  0.8778268E-005  0.9118800E+02  0.7818608E-02  0.1130116E+00
         25   -1    0    0    0    0  0.00000000000E+00  0.00000000000E+00  0.99999998245E-14  0.12500000000E+03  0.12500000000E+03 0.  0.
        -11    1    3    3    0    0 -0.44187738415E+02  0.17640627600E+02 -0.60316453300E+01  0.47959657151E+02  0.51100000000E-03 0. -1.
         23    2    1    0    0    0 -0.10035737511E+02  0.78736234319E+00 -0.30268230282E+02  0.93101697047E+02  0.87466703732E+02 0.  0.
         11    1    3    3    0    0  0.34152000904E+02 -0.16853265257E+02 -0.24236584952E+02  0.45142039896E+02  0.51100000000E-03 0.  1.
         22    1    1    0    0    0  0.10035737511E+02 -0.78736234319E+00  0.30268230282E+02  0.31898302953E+02  0.00000000000E+00 0.  1.
</event>
<event>
 5    1  0.8778268E-005  0.9118800E+02  0.7818608E-02  0.1130116E+00
         25   -1    0    0    0    0  0.00000000000E+00  0.00000000000E+00  0.99999998245E-14  0.12500000000E+03  0.12500000000E+03 0.  0.
        -11    1    3    3    0    0  0.23179819096E+02 -0.35182675359E+02 -0.21562529750E+02  0.47329349754E+02  0.51100000000E-03 0.  1.
         23    2    1    0    0    0 -0.20887985196E+02 -0.16137260172E+02 -0.10486579873E+02  0.96597756271E+02  0.92327888894E+02 0.  0.
         11    1    3    3    0    0 -0.44067804292E+02  0.19045415186E+02  0.11075949877E+02  0.49268406516E+02  0.51100000000E-03 0. -1.
         22    1    1    0    0    0  0.20887985196E+02  0.16137260172E+02  0.10486579873E+02  0.28402243729E+02  0.00000000000E+00 0. -1.
</event>
<event>
 5    1  0.8778268E-005  0.9118800E+02  0.7818608E-02  0.1130116E+00
         25   -1    0    0    0    0  0.00000000000E+00  0.00000000000E+00  0.99999998245E-14  0.12500000000E+03  0.12500000000E+03 0.  0.
        -11    1    3    3    0    0  0.45454884591E+02  0.29307978626E+02  0.24953250165E+02  0.59563150004E+02  0.51100000000E-03 0.  1.
         23    2    1    0    0    0  0.11439348008E+02  0.96459067904E+01  0.21227391588E+02  0.99028778344E+02  0.95562516637E+02 0.  0.
         11    1    3    3    0    0 -0.34015536583E+02 -0.19662071836E+02 -0.37258585767E+01  0.39465628340E+02  0.51100000000E-03 0. -1.
         22    1    1    0    0    0 -0.11439348008E+02 -0.96459067904E+01 -0.21227391588E+02  0.25971221656E+02  0.00000000000E+00 0.  1.
</event>
<event>
 5    1  0.8778268E-005  0.9118800E+02  0.7818608E-02  0.1130116E+00
         25   -1    0    0    0    0  0.00000000000E+00  0.00000000000E+00  0.99999998245E-14  0.12500000000E+03  0.12500000000E+03 0.  0.
        -11    1    3    3    0    0 -0.34005200267E+02  0.90929018289E+01  0.72327019052E+01  0.35935309738E+02  0.51100000000E-03 0.  1.
         23    2    1    0    0    0  0.25074709240E+02  0.12356721648E+02 -0.56235999778E+01  0.96485889632E+02  0.92176311535E+02 0.  0.
         11    1    3    3    0    0  0.59079909507E+02  0.32638198192E+01 -0.12856301883E+02  0.60550579894E+02  0.51100000000E-03 0. -1.
         22    1    1    0    0    0 -0.25074709240E+02 -0.12356721648E+02  0.56235999778E+01  0.28514110368E+02  0.00000000000E+00 0. -1.
</event>
<event>
 5    1  0.8778268E-005  0.9118800E+02  0.7818608E-02  0.1130116E+00
         25   -1    0    0    0    0  0.00000000000E+00  0.00000000000E+00  0.99999998245E-14  0.12500000000E+03  0.12500000000E+03 0.  0.
        -11    1    3    3    0    0 -0.14549281984E+02  0.12936306524E+01  0.53709655623E+02  0.55660418556E+02  0.51100000000E-03 0.  1.
         23    2    1    0    0    0 -0.15814428765E+02 -0.16995745139E+02  0.18660802682E+02  0.95214482266E+02  0.90435726162E+02 0.  0.
         11    1    3    3    0    0 -0.12651467808E+01 -0.18289375791E+02 -0.35048852940E+02  0.39554063709E+02  0.51100000000E-03 0. -1.
         22    1    1    0    0    0  0.15814428765E+02  0.16995745139E+02 -0.18660802682E+02  0.29785517734E+02  0.00000000000E+00 0.  1.
</event>
<event>
 5    1  0.8778268E-005  0.9118800E+02  0.7818608E-02  0.1130116E+00
         25   -1    0    0    0    0  0.00000000000E+00  0.00000000000E+00  0.99999998245E-14  0.12500000000E+03  0.12500000000E+03 0.  0.
        -11    1    3    3    0    0 -0.15596708618E+02  0.83419175043E+01  0.55741157170E+02  0.58480094992E+02  0.51100000000E-03 0.  1.
         23    2    1    0    0    0 -0.15523294529E+02  0.16080937726E+02  0.20137179391E+02  0.94915531831E+02  0.90021569403E+02 0.  0.
         11    1    3    3    0    0  0.73414088463E-01  0.77390202218E+01 -0.35603977780E+02  0.36435436839E+02  0.51100000000E-03 0. -1.
         22    1    1    0    0    0  0.15523294529E+02 -0.16080937726E+02 -0.20137179391E+02  0.30084468169E+02  0.00000000000E+00 0.  1.
</event>
<event>
 5    1  0.8778268E-005  0.9118800E+02  0.7818608E-02  0.1130116E+00
         25   -1    0    0    0    0  0.00000000000E+00  0.00000000000E+00  0.99999998245E-14  0.12500000000E+03  0.12500000000E+03 0.  0.
        -11    1    3    3    0    0  0.20154869202E+02 -0.29904870721E+02 -0.50453703759E+02  0.62016903089E+02  0.51100000000E-03 0. -1.
         23    2    1    0    0    0  0.56267999314E+01 -0.11631511134E+02 -0.26785253210E+02  0.95261090836E+02  0.90500125464E+02 0.  0.
         11    1    3    3    0    0 -0.14528069270E+02  0.18273359587E+02  0.23668450550E+02  0.33244187748E+02  0.51100000000E-03 0.  1.
         22    1    1    0    0    0 -0.56267999314E+01  0.11631511134E+02  0.26785253210E+02  0.29738909164E+02  0.00000000000E+00 0. -1.
</event>
<event>
 5    1  0.8778268E-005  0.9118800E+02  0.7818608E-02  0.1130116E+00
         25   -1    0    0    0    0  0.00000000000E+00  0.00000000000E+00  0.99999998245E-14  0.12500000000E+03  0.12500000000E+03 0.  0.
        -11    1    3    3    0    0  0.28977381481E+02 -0.52197516057E+02  0.31325451850E+01  0.59783627855E+02  0.51100000000E-03 0. -1.
         23    2    1    0    0    0  0.20721194658E+02 -0.23992038859E+02  0.12930444437E+02  0.90762853069E+02  0.84057797182E+02 0.  0.
         11    1    3    3    0    0 -0.82561868226E+01  0.28205477198E+02  0.97978992518E+01  0.30979225213E+02  0.51100000000E-03 0.  1.
         22    1    1    0    0    0 -0.20721194658E+02  0.23992038859E+02 -0.12930444437E+02  0.34237146931E+02  0.00000000000E+00 0. -1.
</event>
<event>
 5    1  0.8778268E-005  0.9118800E+02  0.7818608E-02  0.1130116E+00
         25   -1    0    0    0    0  0.00000000000E+00  0.00000000000E+00  0.99999998245E-14  0.12500000000E+03  0.12500000000E+03 0.  0.
        -11    1    3    3    0    0 -0.38939837743E+02  0.24673064335E+02  0.41766867205E+02  0.62205644949E+02  0.51100000000E-03 0. -1.
         23    2    1    0    0    0 -0.15033303662E+02  0.90376400232E+01  0.21611002062E+02  0.97166305198E+02  0.93094448274E+02 0.  0.
         11    1    3    3    0    0  0.23906534081E+02 -0.15635424311E+02 -0.20155865142E+02  0.34960660249E+02  0.51100000000E-03 0.  1.
         22    1    1    0    0    0  0.15033303662E+02 -0.90376400232E+01 -0.21611002062E+02  0.27833694802E+02  0.00000000000E+00 0. -1.
</event>
<event>
 5    1  0.8778268E-005  0.9118800E+02  0.7818608E-02  0.1130116E+00
         25   -1    0    0    0    0  0.00000000000E+00  0.00000000000E+00  0.99999998245E-14  0.12500000000E+03  0.12500000000E+03 0.  0.
        -11    1    3    3    0    0 -0.91417189470E+01 -0.41335240436E+02 -0.10147716951E+02  0.43533312380E+02  0.51100000000E-03 0. -1.
         23    2    1    0    0    0  0.21908445625E+02 -0.87022103545E+01  0.16826762058E+02  0.96037120721E+02  0.91565715092E+02 0.  0.
         11    1    3    3    0    0  0.31050164572E+02  0.32633030082E+02  0.26974479008E+02  0.52503808341E+02  0.51100000000E-03 0.  1.
         22    1    1    0    0    0 -0.21908445625E+02  0.87022103545E+01 -0.16826762058E+02  0.28962879279E+02  0.00000000000E+00 0.  1.
</event>
<event>
 5    1  0.8778268E-005  0.9118800E+02  0.7818608E-02  0.1130116E+00
         25   -1    0    0    0    0  0.00000000000E+00  0.00000000000E+00  0.99999998245E-14  0.12500000000E+03  0.12500000000E+03 0.  0.
        -11    1    3    3    0    0  0.11359212178E+02  0.64559208528E+01 -0.26073437091E+02  0.29163928703E+02  0.51100000000E-03 0.  1.
         23    2    1    0    0    0 -0.11840017942E+02  0.57866487260E+01  0.31291868086E+02  0.91046320719E+02  0.84478282297E+02 0.  0.
         11    1    3    3    0    0 -0.23199230120E+02 -0.66927212687E+00  0.57365305178E+02  0.61882392017E+02  0.51100000000E-03 0. -1.
         22    1    1    0    0    0  0.11840017942E+02 -0.57866487260E+01 -0.31291868086E+02  0.33953679281E+02  0.00000000000E+00 0. -1.
</event>
<event>
 5    1  0.8778268E-005  0.9118800E+02  0.7818608E-02  0.1130116E+00
         25   -1    0    0    0    0  0.00000000000E+00  0.00000000000E+00  0.99999998245E-14  0.12500000000E+03  0.12500000000E+03 0.  0.
        -11    1    3    3    0    0  0.77045303190E+01 -0.48582216879E+02 -0.26509437895E+02  0.55877919450E+02  0.51100000000E-03 0.  1.
         23    2    1    0    0    0  0.62083548238E+01 -0.28426450742E+02  0.70573556871E+01  0.95059842340E+02  0.90221730116E+02 0.  0.
         11    1    3    3    0    0 -0.14961754952E+01  0.20155766138E+02  0.33566793582E+02  0.39181922890E+02  0.51100000000E-03 0. -1.
         22    1    1    0    0    0 -0.62083548238E+01  0.28426450742E+02 -0.70573556871E+01  0.29940157660E+02  0.00000000000E+00 0.  1.
</event>
<event>
 5    1  0.8778268E-005  0.9118800E+02  0.7818608E-02  0.1130116E+00
         25   -1    0    0    0    0  0.00000000000E+00  0.00000000000E+00  0.99999998245E-14  0.12500000000E+03  0.12500000000E+03 0.  0.
        -11    1    3    3    0    0 -0.15376501197E+02 -0.30615003810E+02 -0.39742211131E+01  0.34489269072E+02  0.51100000000E-03 0.  1.
         23    2    1    0    0    0  0.28811052990E+01  0.25121108194E+02  0.14338168484E+02  0.95931908902E+02  0.91421973428E+02 0.  0.
         11    1    3    3    0    0  0.18257606496E+02  0.55736112004E+02  0.18312389597E+02  0.61442639830E+02  0.51100000000E-03 0. -1.
         22    1    1    0    0    0 -0.28811052990E+01 -0.25121108194E+02 -0.14338168484E+02  0.29068091098E+02  0.00000000000E+00 0. -1.
</event>
<event>
 5    1  0.8778268E-005  0.9118800E+02  0.7818608E-02  0.1130116E+00
         25   -1    0    0    0    0  0.00000000000E+00  0.00000000000E+00  0.99999998245E-14  0.12500000000E+03  0.12500000000E+03 0.  0.
        -11    1    3    3    0    0  0.32728036868E+02  0.15316585103E+02 -0.26237450698E+01  0.36229907740E+02  0.51100000000E-03 0.  1.
         23    2    1    0    0    0 -0.14658788806E+02 -0.23309803978E+02  0.69770609396E+00  0.97455239254E+02  0.93481601471E+02 0.  0.
         11    1    3    3    0    0 -0.47386825674E+02 -0.38626389081E+02  0.33214511637E+01  0.61225331514E+02  0.51100000000E-03 0. -1.
         22    1    1    0    0    0  0.14658788806E+02  0.23309803978E+02 -0.69770609396E+00  0.27544760746E+02  0.00000000000E+00 0. -1.
</event>
<event>
 5    1  0.8778268E-005  0.9118800E+02  0.7818608E-02  0.1130116E+00
         25   -1    0    0    0    0  0.00000000000E+00  0.00000000000E+00  0.99999998245E-14  0.12500000000E+03  0.12500000000E+03 0.  0.
        -11    1    3    3    0    0  0.26213926804E+02  0.23444855715E+02 -0.47027416887E+01  0.35481643108E+02  0.51100000000E-03 0.  1.
         23    2    1    0    0    0  0.90050702186E+01 -0.30567408808E+02  0.41797406304E+01  0.92860802707E+02  0.87121757769E+02 0.  0.
         11    1    3    3    0    0 -0.17208856585E+02 -0.54012264523E+02  0.88824823191E+01  0.57379159599E+02  0.51100000000E-03 0. -1.
         22    1    1    0    0    0 -0.90050702186E+01  0.30567408808E+02 -0.41797406304E+01  0.32139197293E+02  0.00000000000E+00 0. -1.
</event>
<event>
 5    1  0.8778268E-005  0.9118800E+02  0.7818608E-02  0.1130116E+00
         25   -1    0    0    0    0  0.00000000000E+00  0.00000000000E+00  0.99999998245E-14  0.12500000000E+03  0.12500000000E+03 0.  0.
        -11    1    3    3    0    0 -0.20775684616E+02 -0.57028542547E+02 -0.88091265480E+00  0.60701398202E+02  0.51100000000E-03 0.  1.
         23    2    1    0    0    0 -0.13059844434E+01 -0.28331351649E+02  0.58867028337E+01  0.96034082927E+02  0.91561567984E+02 0.  0.
         11    1    3    3    0    0  0.19469700173E+02  0.28697190897E+02  0.67676154885E+01  0.35332684725E+02  0.51100000000E-03 0. -1.
         22    1    1    0    0    0  0.13059844434E+01  0.28331351649E+02 -0.58867028337E+01  0.28965917073E+02  0.00000000000E+00 0.  1.
</event>
<event>
 5    1  0.8778268E-005  0.9118800E+02  0.7818608E-02  0.1130116E+00
         25   -1    0    0    0    0  0.00000000000E+00  0.00000000000E+00  0.99999998245E-14  0.12500000000E+03  0.12500000000E+03 0.  0.
        -11    1    3    3    0    0 -0.14573957878E+02  0.35456230718E+02  0.28474410868E+02  0.47752870275E+02  0.51100000000E-03 0.  1.
         23    2    1    0    0    0  0.49613583292E+01  0.27423583582E+02 -0.12963536943E+02  0.94263681043E+02  0.89111841305E+02 0.  0.
         11    1    3    3    0    0  0.19535316207E+02 -0.80326471365E+01 -0.41437947810E+02  0.46510810768E+02  0.51100000000E-03 0. -1.
         22    1    1    0    0    0 -0.49613583292E+01 -0.27423583582E+02  0.12963536943E+02  0.30736318957E+02  0.00000000000E+00 0. -1.
</event>
<event>
 5    1  0.8778268E-005  0.9118800E+02  0.7818608E-02  0.1130116E+00
         25   -1    0    0    0    0  0.00000000000E+00  0.00000000000E+00  0.99999998245E-14  0.12500000000E+03  0.12500000000E+03 0.  0.
        -11    1    3    3    0    0 -0.33384875869E+02 -0.17860557041E+02  0.28082536120E+02  0.47139985891E+02  0.51100000000E-03 0.  1.
         23    2    1    0    0    0 -0.36892931784E+01  0.19642790134E+02  0.21861818450E+02  0.95379243859E+02  0.90663173146E+02 0.  0.
         11    1    3    3    0    0  0.29695582691E+02  0.37503347175E+02 -0.62207176702E+01  0.48239257968E+02  0.51100000000E-03 0. -1.
         22    1    1    0    0    0  0.36892931784E+01 -0.19642790134E+02 -0.21861818450E+02  0.29620756141E+02  0.00000000000E+00 0. -1.
</event>
<event>
 5    1  0.8778268E-005  0.9118800E+02  0.7818608E-02  0.1130116E+00
         25   -1    0    0    0    0  0.00000000000E+00  0.00000000000E+00  0.99999998245E-14  0.12500000000E+03  0.12500000000E+03 0.  0.
        -11    1    3    3    0    0 -0.26695310063E+02  0.78468965440E+01  0.38564203969E+02  0.47554297312E+02  0.51100000000E-03 0.  1.
         23    2    1    0    0    0  0.24824574890E+01  0.28444172403E+02  0.61345116656E+01  0.95796134293E+02  0.91236141815E+02 0.  0.
         11    1    3    3    0    0  0.29177767552E+02  0.20597275859E+02 -0.32429692304E+02  0.48241836981E+02  0.51100000000E-03 0. -1.
         22    1    1    0    0    0 -0.24824574890E+01 -0.28444172403E+02 -0.61345116656E+01  0.29203865707E+02  0.00000000000E+00 0.  1.
</event>
<event>
 5    1  0.8778268E-005  0.9118800E+02  0.7818608E-02  0.1130116E+00
         25   -1    0    0    0    0  0.00000000000E+00  0.00000000000E+00  0.99999998245E-14  0.12500000000E+03  0.12500000000E+03 0.  0.
        -11    1    3    3    0    0 -0.44518378535E+02  0.22203121415E+02  0.34936061373E+02  0.60789744304E+02  0.51100000000E-03 0. -1.
         23    2    1    0    0    0 -0.22763040608E+02  0.17360474678E+02  0.89904909738E+01  0.94993816858E+02  0.90130207004E+02 0.  0.
         11    1    3    3    0    0  0.21755337927E+02 -0.48426467370E+01 -0.25945570399E+02  0.34204072555E+02  0.51100000000E-03 0.  1.
         22    1    1    0    0    0  0.22763040608E+02 -0.17360474678E+02 -0.89904909738E+01  0.30006183142E+02  0.00000000000E+00 0. -1.
</event>
<event>
 5    1  0.8778268E-005  0.9118800E+02  0.7818608E-02  0.1130116E+00
         25   -1    0    0    0    0  0.00000000000E+00  0.00000000000E+00  0.99999998245E-14  0.12500000000E+03  0.12500000000E+03 0.  0.
        -11    1    3    3    0    0  0.55906791340E+00 -0.35057201191E+01 -0.58634461323E+02  0.58741830797E+02  0.51100000000E-03 0.  1.
         23    2    1    0    0    0  0.12396570624E+02  0.74268398087E+01 -0.23210695414E+02  0.97658286550E+02  0.93752715361E+02 0.  0.
         11    1    3    3    0    0  0.11837502710E+02  0.10932559928E+02  0.35423765909E+02  0.38916455754E+02  0.51100000000E-03 0. -1.
         22    1    1    0    0    0 -0.12396570624E+02 -0.74268398087E+01  0.23210695414E+02  0.27341713450E+02  0.00000000000E+00 0.  1.
</event>
<event>
 5    1  0.8778268E-005  0.9118800E+02  0.7818608E-02  0.1130116E+00
         25   -1    0    0    0    0  0.00000000000E+00  0.00000000000E+00  0.99999998245E-14  0.12500000000E+03  0.12500000000E+03 0.  0.
        -11    1    3    3    0    0 -0.26986151823E+02  0.13336825322E+02 -0.23861264199E+02  0.38412019334E+02  0.51100000000E-03 0.  1.
         23    2    1    0    0    0  0.27575748219E+02  0.36773629612E+01 -0.75234920208E+01  0.96180773425E+02  0.91761611561E+02 0.  0.
         11    1    3    3    0    0  0.54561900042E+02 -0.96594623606E+01  0.16337772178E+02  0.57768754091E+02  0.51100000000E-03 0. -1.
         22    1    1    0    0    0 -0.27575748219E+02 -0.36773629612E+01  0.75234920208E+01  0.28819226575E+02  0.00000000000E+00 0. -1.
</event>
<event>
 5    1  0.8778268E-005  0.9118800E+02  0.7818608E-02  0.1130116E+00
         25   -1    0    0    0    0  0.00000000000E+00  0.00000000000E+00  0.99999998245E-14  0.12500000000E+03  0.12500000000E+03 0.  0.
        -11    1    3    3    0    0  0.47724361562E+02  0.28891324537E+02 -0.30966115966E+01  0.55874075596E+02  0.51100000000E-03 0.  1.
         23    2    1    0    0    0  0.17423506815E+02  0.12983025896E+02  0.18602049260E+02  0.96396262694E+02  0.92054688493E+02 0.  0.
         11    1    3    3    0    0 -0.30300854747E+02 -0.15908298640E+02  0.21698660857E+02  0.40522187099E+02  0.51100000000E-03 0. -1.
         22    1    1    0    0    0 -0.17423506815E+02 -0.12983025896E+02 -0.18602049260E+02  0.28603737306E+02  0.00000000000E+00 0.  1.
</event>
<event>
 5    1  0.8778268E-005  0.9118800E+02  0.7818608E-02  0.1130116E+00
         25   -1    0    0    0    0  0.00000000000E+00  0.00000000000E+00  0.99999998245E-14  0.12500000000E+03  0.12500000000E+03 0.  0.
        -11    1    3    3    0    0 -0.55453963519E+02  0.18777798342E+02 -0.43434115981E+01  0.58707861528E+02  0.51100000000E-03 0.  1.
         23    2    1    0    0    0 -0.27682073744E+02 -0.73653073506E+00 -0.13962911742E+02  0.93987057724E+02  0.88722964508E+02 0.  0.
         11    1    3    3    0    0  0.27771889775E+02 -0.19514329077E+02 -0.96195001435E+01  0.35279196197E+02  0.51100000000E-03 0. -1.
         22    1    1    0    0    0  0.27682073744E+02  0.73653073506E+00  0.13962911742E+02  0.31012942276E+02  0.00000000000E+00 0.  1.
</event>
<event>
 5    1  0.8778268E-005  0.9118800E+02  0.7818608E-02  0.1130116E+00
         25   -1    0    0    0    0  0.00000000000E+00  0.00000000000E+00  0.99999998245E-14  0.12500000000E+03  0.12500000000E+03 0.  0.
        -11    1    3    3    0    0  0.24844532049E+02 -0.83040123452E+01 -0.23782798124E+02  0.35381193884E+02  0.51100000000E-03 0.  1.
         23    2    1    0    0    0 -0.23897806226E+02 -0.69099535631E+01  0.13438071399E+02  0.96725729654E+02  0.92500986013E+02 0.  0.
         11    1    3    3    0    0 -0.48742338275E+02  0.13940587822E+01  0.37220869524E+02  0.61344535770E+02  0.51100000000E-03 0. -1.
         22    1    1    0    0    0  0.23897806226E+02  0.69099535631E+01 -0.13438071399E+02  0.28274270346E+02  0.00000000000E+00 0. -1.
</event>
<event>
 5    1  0.8778268E-005  0.9118800E+02  0.7818608E-02  0.1130116E+00
         25   -1    0    0    0    0  0.00000000000E+00  0.00000000000E+00  0.99999998245E-14  0.12500000000E+03  0.12500000000E+03 0.  0.
        -11    1    3    3    0    0 -0.23027754889E+02  0.13479694639E+01 -0.24098176631E+02  0.33358906369E+02  0.51100000000E-03 0. -1.
         23    2    1    0    0    0  0.18743820271E+02  0.11788214858E+02  0.20123427457E+02  0.95079352605E+02  0.90248757063E+02 0.  0.
         11    1    3    3    0    0  0.41771575161E+02  0.10440245394E+02  0.44221604088E+02  0.61720446237E+02  0.51100000000E-03 0.  1.
         22    1    1    0    0    0 -0.18743820271E+02 -0.11788214858E+02 -0.20123427457E+02  0.29920647395E+02  0.00000000000E+00 0.  1.
</event>
<event>
 5    1  0.8778268E-005  0.9118800E+02  0.7818608E-02  0.1130116E+00
         25   -1    0    0    0    0  0.00000000000E+00  0.00000000000E+00  0.99999998245E-14  0.12500000000E+03  0.12500000000E+03 0.  0.
        -11    1    3    3    0    0 -0.91022406155E+01 -0.26677560045E+02 -0.35337879061E+02  0.45202972148E+02  0.51100000000E-03 0. -1.
         23    2    1    0    0    0  0.17479068655E+02 -0.47017360274E+01  0.11638591699E+02  0.10348068357E+03  0.10121843159E+03 0.  0.
         11    1    3    3    0    0  0.26581309270E+02  0.21975824018E+02  0.46976470760E+02  0.58277711426E+02  0.51100000000E-03 0.  1.
         22    1    1    0    0    0 -0.17479068655E+02  0.47017360274E+01 -0.11638591699E+02  0.21519316426E+02  0.00000000000E+00 0. -1.
</event>
<event>
 5    1  0.8778268E-005  0.9118800E+02  0.7818608E-02  0.1130116E+00
         25   -1    0    0    0    0  0.00000000000E+00  0.00000000000E+00  0.99999998245E-14  0.12500000000E+03  0.12500000000E+03 0.  0.
        -11    1    3    3    0    0  0.44922321482E+02  0.77927592614E+01 -0.30888287754E+01  0.45697734383E+02  0.51100000000E-03 0.  1.
         23    2    1    0    0    0  0.34846126798E+02 -0.12453413969E+02  0.23930022261E+02  0.80932029344E+02  0.67882305029E+02 0.  0.
         11    1    3    3    0    0 -0.10076194685E+02 -0.20246173231E+02  0.27018851037E+02  0.35234294961E+02  0.51100000000E-03 0. -1.
         22    1    1    0    0    0 -0.34846126798E+02  0.12453413969E+02 -0.23930022261E+02  0.44067970656E+02  0.00000000000E+00 0.  1.
</event>
<event>
 5    1  0.8778268E-005  0.9118800E+02  0.7818608E-02  0.1130116E+00
         25   -1    0    0    0    0  0.00000000000E+00  0.00000000000E+00  0.99999998245E-14  0.12500000000E+03  0.12500000000E+03 0.  0.
        -11    1    3    3    0    0  0.14703035387E+02 -0.48675156308E+01 -0.32396792930E+02  0.35908552608E+02  0.51100000000E-03 0. -1.
         23    2    1    0    0    0 -0.16436213281E+02  0.24567323167E+02  0.75525256946E+01  0.94491917154E+02  0.89431422266E+02 0.  0.
         11    1    3    3    0    0 -0.31139248668E+02  0.29434838797E+02  0.39949318624E+02  0.58583364546E+02  0.51100000000E-03 0.  1.
         22    1    1    0    0    0  0.16436213281E+02 -0.24567323167E+02 -0.75525256946E+01  0.30508082846E+02  0.00000000000E+00 0.  1.
</event>
<event>
 5    1  0.8778268E-005  0.9118800E+02  0.7818608E-02  0.1130116E+00
         25   -1    0    0    0    0  0.00000000000E+00  0.00000000000E+00  0.99999998245E-14  0.12500000000E+03  0.12500000000E+03 0.  0.
        -11    1    3    3    0    0 -0.45191078993E+02  0.39728314594E+01 -0.14989984694E+02  0.47777784082E+02  0.51100000000E-03 0. -1.
         23    2    1    0    0    0  0.12595688057E+02  0.11979811875E+02 -0.43817532915E+01  0.10707328775E+03  0.10556193413E+03 0.  0.
         11    1    3    3    0    0  0.57786767050E+02  0.80069804151E+01  0.10608231403E+02  0.59295503668E+02  0.51100000000E-03 0.  1.
         22    1    1    0    0    0 -0.12595688057E+02 -0.11979811875E+02  0.43817532915E+01  0.17926712250E+02  0.00000000000E+00 0.  1.
</event>
<event>
 5    1  0.8778268E-005  0.9118800E+02  0.7818608E-02  0.1130116E+00
         25   -1    0    0    0    0  0.00000000000E+00  0.00000000000E+00  0.99999998245E-14  0.12500000000E+03  0.12500000000E+03 0.  0.
        -11    1    3    3    0    0 -0.28738965173E+02  0.17326401657E+02  0.51146464696E+00  0.33561792412E+02  0.51100000000E-03 0.  1.
         23    2    1    0    0    0  0.19259790411E+02 -0.21221297040E+02 -0.67724467303E+01  0.95552606067E+02  0.90901878511E+02 0.  0.
         11    1    3    3    0    0  0.47998755584E+02 -0.38547698696E+02 -0.72839113773E+01  0.61990813655E+02  0.51100000000E-03 0. -1.
         22    1    1    0    0    0 -0.19259790411E+02  0.21221297040E+02  0.67724467303E+01  0.29447393933E+02  0.00000000000E+00 0. -1.
</event>
<event>
 5    1  0.8778268E-005  0.9118800E+02  0.7818608E-02  0.1130116E+00
         25   -1    0    0    0    0  0.00000000000E+00  0.00000000000E+00  0.99999998245E-14  0.12500000000E+03  0.12500000000E+03 0.  0.
        -11    1    3    3    0    0 -0.39965619480E+02  0.78618074905E+01 -0.25093109003E+02  0.47840598628E+02  0.51100000000E-03 0.  1.
         23    2    1    0    0    0  0.19812248569E+01  0.26584048211E+02 -0.13000909872E+02  0.95340928391E+02  0.90610331076E+02 0.  0.
         11    1    3    3    0    0  0.41946844337E+02  0.18722240721E+02  0.12092199131E+02  0.47500329762E+02  0.51100000000E-03 0. -1.
         22    1    1    0    0    0 -0.19812248569E+01 -0.26584048211E+02  0.13000909872E+02  0.29659071609E+02  0.00000000000E+00 0. -1.
</event>
<event>
 5    1  0.8778268E-005  0.9118800E+02  0.7818608E-02  0.1130116E+00
         25   -1    0    0    0    0  0.00000000000E+00  0.00000000000E+00  0.99999998245E-14  0.12500000000E+03  0.12500000000E+03 0.  0.
        -11    1    3    3    0    0  0.39083051195E+02  0.15686878084E+02  0.82378439803E+01  0.42911829470E+02  0.51100000000E-03 0.  1.
         23    2    1    0    0    0 -0.12943909543E+02  0.22678922697E+02  0.13381947266E+02  0.95657968005E+02  0.91046647392E+02 0.  0.
         11    1    3    3    0    0 -0.52026960738E+02  0.69920446134E+01  0.51441032858E+01  0.52746138535E+02  0.51100000000E-03 0. -1.
         22    1    1    0    0    0  0.12943909543E+02 -0.22678922697E+02 -0.13381947266E+02  0.29342031995E+02  0.00000000000E+00 0.  1.
</event>
<event>
 5    1  0.8778268E-005  0.9118800E+02  0.7818608E-02  0.1130116E+00
         25   -1    0    0    0    0  0.00000000000E+00  0.00000000000E+00  0.99999998245E-14  0.12500000000E+03  0.12500000000E+03 0.  0.
        -11    1    3    3    0    0  0.28470403944E+02  0.55579974048E+01  0.41927371925E+01  0.29309286605E+02  0.51100000000E-03 0.  1.
         23    2    1    0    0    0 -0.29701979921E+02 -0.15596160742E+02  0.40496777462E+01  0.91208762512E+02  0.84718301613E+02 0.  0.
         11    1    3    3    0    0 -0.58172383864E+02 -0.21154158146E+02 -0.14305944627E+00  0.61899475907E+02  0.51100000000E-03 0. -1.
         22    1    1    0    0    0  0.29701979921E+02  0.15596160742E+02 -0.40496777462E+01  0.33791237488E+02  0.00000000000E+00 0. -1.
</event>
<event>
 5    1  0.8778268E-005  0.9118800E+02  0.7818608E-02  0.1130116E+00
         25   -1    0    0    0    0  0.00000000000E+00  0.00000000000E+00  0.99999998245E-14  0.12500000000E+03  0.12500000000E+03 0.  0.
        -11    1    3    3    0    0  0.43945457203E+02 -0.89651250846E+01 -0.51881380591E+01  0.45149678330E+02  0.51100000000E-03 0.  1.
         23    2    1    0    0    0  0.98342181730E+01  0.25667317315E+02  0.94788839498E+01  0.95924713825E+02  0.91412135170E+02 0.  0.
         11    1    3    3    0    0 -0.34111239030E+02  0.34632442399E+02  0.14667022009E+02  0.50775035495E+02  0.51100000000E-03 0. -1.
         22    1    1    0    0    0 -0.98342181730E+01 -0.25667317315E+02 -0.94788839498E+01  0.29075286175E+02  0.00000000000E+00 0. -1.
</event>
<event>
 5    1  0.8778268E-005  0.9118800E+02  0.7818608E-02  0.1130116E+00
         25   -1    0    0    0    0  0.00000000000E+00  0.00000000000E+00  0.99999998245E-14  0.12500000000E+03  0.12500000000E+03 0.  0.
        -11    1    3    3    0    0  0.32052059240E+02 -0.16241535466E+02  0.97849851685E+01  0.37240675488E+02  0.51100000000E-03 0. -1.
         23    2    1    0    0    0 -0.49041102577E+01  0.26458360672E+02  0.15408662138E+02  0.93991581534E+02  0.88729337784E+02 0.  0.
         11    1    3    3    0    0 -0.36956169498E+02  0.42699896137E+02  0.56236769696E+01  0.56750906046E+02  0.51100000000E-03 0.  1.
         22    1    1    0    0    0  0.49041102577E+01 -0.26458360672E+02 -0.15408662138E+02  0.31008418466E+02  0.00000000000E+00 0.  1.
</event>
<event>
 5    1  0.8778268E-005  0.9118800E+02  0.7818608E-02  0.1130116E+00
         25   -1    0    0    0    0  0.00000000000E+00  0.00000000000E+00  0.99999998245E-14  0.12500000000E+03  0.12500000000E+03 0.  0.
        -11    1    3    3    0    0  0.28304933178E+02  0.34961356775E+02 -0.41553845961E+02  0.61238777128E+02  0.51100000000E-03 0.  1.
         23    2    1    0    0    0  0.77227102680E+01  0.12720876684E+02 -0.25356900630E+02  0.95598752288E+02  0.90965312465E+02 0.  0.
         11    1    3    3    0    0 -0.20582222910E+02 -0.22240480091E+02  0.16196945331E+02  0.34359975159E+02  0.51100000000E-03 0. -1.
         22    1    1    0    0    0 -0.77227102680E+01 -0.12720876684E+02  0.25356900630E+02  0.29401247712E+02  0.00000000000E+00 0.  1.
</event>
<event>
 5    1  0.8778268E-005  0.9118800E+02  0.7818608E-02  0.1130116E+00
         25   -1    0    0    0    0  0.00000000000E+00  0.00000000000E+00  0.99999998245E-14  0.12500000000E+03  0.12500000000E+03 0.  0.
        -11    1    3    3    0    0 -0.12518632144E+02 -0.37100417885E+02  0.43783135011E+02  0.58737722714E+02  0.51100000000E-03 0. -1.
         23    2    1    0    0    0  0.94960886347E+01 -0.17695223521E+02  0.21455926528E+02  0.95612019158E+02  0.90983541310E+02 0.  0.
         11    1    3    3    0    0  0.22014720778E+02  0.19405194364E+02 -0.22327208483E+02  0.36874296443E+02  0.51100000000E-03 0.  1.
         22    1    1    0    0    0 -0.94960886347E+01  0.17695223521E+02 -0.21455926528E+02  0.29387980842E+02  0.00000000000E+00 0. -1.
</event>
<event>
 5    1  0.8778268E-005  0.9118800E+02  0.7818608E-02  0.1130116E+00
         25   -1    0    0    0    0  0.00000000000E+00  0.00000000000E+00  0.99999998245E-14  0.12500000000E+03  0.12500000000E+03 0.  0.
        -11    1    3    3    0    0  0.27468825526E+02 -0.17928661400E+02  0.13179531190E+02  0.35350718777E+02  0.51100000000E-03 0.  1.
         23    2    1    0    0    0 -0.24909462572E+02 -0.31271936332E+01 -0.14070849250E+02  0.96220676445E+02  0.91815952379E+02 0.  0.
         11    1    3    3    0    0 -0.52378288099E+02  0.14801467767E+02 -0.27250380440E+02  0.60869957668E+02  0.51100000000E-03 0. -1.
         22    1    1    0    0    0  0.24909462572E+02  0.31271936332E+01  0.14070849250E+02  0.28779323555E+02  0.00000000000E+00 0. -1.
</event>
<event>
 5    1  0.8778268E-005  0.9118800E+02  0.7818608E-02  0.1130116E+00
         25   -1    0    0    0    0  0.00000000000E+00  0.00000000000E+00  0.99999998245E-14  0.12500000000E+03  0.12500000000E+03 0.  0.
        -11    1    3    3    0    0 -0.16483681062E+02 -0.10750199161E+01 -0.27611197378E+02  0.32175233178E+02  0.51100000000E-03 0.  1.
         23    2    1    0    0    0  0.23134233743E+02 -0.17571311182E+02  0.14700861158E+02  0.92441451716E+02  0.86517991939E+02 0.  0.
         11    1    3    3    0    0  0.39617914806E+02 -0.16496291266E+02  0.42312058536E+02  0.60266218538E+02  0.51100000000E-03 0. -1.
         22    1    1    0    0    0 -0.23134233743E+02  0.17571311182E+02 -0.14700861158E+02  0.32558548284E+02  0.00000000000E+00 0. -1.
</event>
<event>
 5    1  0.8778268E-005  0.9118800E+02  0.7818608E-02  0.1130116E+00
         25   -1    0    0    0    0  0.00000000000E+00  0.00000000000E+00  0.99999998245E-14  0.12500000000E+03  0.12500000000E+03 0.  0.
        -11    1    3    3    0    0  0.15549422817E+02  0.15172015354E+02 -0.35671184666E+02  0.41766110851E+02  0.51100000000E-03 0. -1.
         23    2    1    0    0    0  0.21527080193E+02  0.10471202191E+02  0.17416704889E+02  0.95395897815E+02  0.90686131541E+02 0.  0.
         11    1    3    3    0    0  0.59776573760E+01 -0.47008131632E+01  0.53087889556E+02  0.53629786964E+02  0.51100000000E-03 0.  1.
         22    1    1    0    0    0 -0.21527080193E+02 -0.10471202191E+02 -0.17416704889E+02  0.29604102185E+02  0.00000000000E+00 0.  1.
</event>
<event>
 5    1  0.8778268E-005  0.9118800E+02  0.7818608E-02  0.1130116E+00
         25   -1    0    0    0    0  0.00000000000E+00  0.00000000000E+00  0.99999998245E-14  0.12500000000E+03  0.12500000000E+03 0.  0.
        -11    1    3    3    0    0  0.19019717226E+02 -0.31525369255E+02 -0.17591576489E+02  0.40805172634E+02  0.51100000000E-03 0. -1.
         23    2    1    0    0    0 -0.23574861167E+02  0.41373740453E+01 -0.15670499799E+02  0.96391321125E+02  0.92047978149E+02 0.  0.
         11    1    3    3    0    0 -0.42594578393E+02  0.35662743301E+02  0.19210766899E+01  0.55586148491E+02  0.51100000000E-03 0.  1.
         22    1    1    0    0    0  0.23574861167E+02 -0.41373740453E+01  0.15670499799E+02  0.28608678875E+02  0.00000000000E+00 0.  1.
</event>
<event>
 5    1  0.8778268E-005  0.9118800E+02  0.7818608E-02  0.1130116E+00
         25   -1    0    0    0    0  0.00000000000E+00  0.00000000000E+00  0.99999998245E-14  0.12500000000E+03  0.12500000000E+03 0.  0.
        -11    1    3    3    0    0 -0.57952575696E+01  0.91758318471E+01 -0.42779752365E+02  0.44134885443E+02  0.51100000000E-03 0. -1.
         23    2    1    0    0    0  0.20277996503E+02  0.21387432270E+02 -0.20978919012E+00  0.95526903577E+02  0.90866527908E+02 0.  0.
         11    1    3    3    0    0  0.26073254073E+02  0.12211600423E+02  0.42569963175E+02  0.51392018133E+02  0.51100000000E-03 0.  1.
         22    1    1    0    0    0 -0.20277996503E+02 -0.21387432270E+02  0.20978919012E+00  0.29473096423E+02  0.00000000000E+00 0.  1.
</event>
<event>
 5    1  0.8778268E-005  0.9118800E+02  0.7818608E-02  0.1130116E+00
         25   -1    0    0    0    0  0.00000000000E+00  0.00000000000E+00  0.99999998245E-14  0.12500000000E+03  0.12500000000E+03 0.  0.
        -11    1    3    3    0    0 -0.42629316094E+02  0.22516382084E+02  0.13411814009E+02  0.50041211097E+02  0.51100000000E-03 0.  1.
         23    2    1    0    0    0 -0.92320110244E+01  0.23456190998E+02  0.28715600682E+02  0.86789940510E+02  0.77926151756E+02 0.  0.
         11    1    3    3    0    0  0.33397305069E+02  0.93980891354E+00  0.15303786674E+02  0.36748729413E+02  0.51100000000E-03 0. -1.
         22    1    1    0    0    0  0.92320110244E+01 -0.23456190998E+02 -0.28715600682E+02  0.38210059490E+02  0.00000000000E+00 0.  1.
</event>
<event>
 5    1  0.8778268E-005  0.9118800E+02  0.7818608E-02  0.1130116E+00
         25   -1    0    0    0    0  0.00000000000E+00  0.00000000000E+00  0.99999998245E-14  0.12500000000E+03  0.12500000000E+03 0.  0.
        -11    1    3    3    0    0  0.29504268736E+02 -0.15852594182E+02  0.15769808436E-01  0.33493385390E+02  0.51100000000E-03 0.  1.
         23    2    1    0    0    0 -0.19564151356E+02  0.21902845010E+02 -0.29965626321E+01  0.95479328845E+02  0.90801058426E+02 0.  0.
         11    1    3    3    0    0 -0.49068420092E+02  0.37755439192E+02 -0.30123324405E+01  0.61985943455E+02  0.51100000000E-03 0. -1.
         22    1    1    0    0    0  0.19564151356E+02 -0.21902845010E+02  0.29965626321E+01  0.29520671155E+02  0.00000000000E+00 0. -1.
</event>
<event>
 5    1  0.8778268E-005  0.9118800E+02  0.7818608E-02  0.1130116E+00
         25   -1    0    0    0    0  0.00000000000E+00  0.00000000000E+00  0.99999998245E-14  0.12500000000E+03  0.12500000000E+03 0.  0.
        -11    1    3    3    0    0 -0.17250861063E+02 -0.27594599624E+02 -0.21959122904E+02  0.39258848872E+02  0.51100000000E-03 0. -1.
         23    2    1    0    0    0  0.32053184257E+01  0.24531098601E+02 -0.15922784447E+02  0.95579192239E+02  0.90938430049E+02 0.  0.
         11    1    3    3    0    0  0.20456179488E+02  0.52125698225E+02  0.60363384570E+01  0.56320343366E+02  0.51100000000E-03 0.  1.
         22    1    1    0    0    0 -0.32053184257E+01 -0.24531098601E+02  0.15922784447E+02  0.29420807761E+02  0.00000000000E+00 0.  1.
</event>
<event>
 5    1  0.8778268E-005  0.9118800E+02  0.7818608E-02  0.1130116E+00
         25   -1    0    0    0    0  0.00000000000E+00  0.00000000000E+00  0.99999998245E-14  0.12500000000E+03  0.12500000000E+03 0.  0.
        -11    1    3    3    0    0  0.12737028803E+02 -0.21057798396E+02  0.24334611494E+02  0.34609768749E+02  0.51100000000E-03 0.  1.
         23    2    1    0    0    0 -0.97667825272E+01  0.21745083122E+02 -0.14905498951E+02  0.96885722846E+02  0.92716938643E+02 0.  0.
         11    1    3    3    0    0 -0.22503811330E+02  0.42802881519E+02 -0.39240110445E+02  0.62275954097E+02  0.51100000000E-03 0. -1.
         22    1    1    0    0    0  0.97667825272E+01 -0.21745083122E+02  0.14905498951E+02  0.28114277154E+02  0.00000000000E+00 0. -1.
</event>
<event>
 5    1  0.8778268E-005  0.9118800E+02  0.7818608E-02  0.1130116E+00
         25   -1    0    0    0    0  0.00000000000E+00  0.00000000000E+00  0.99999998245E-14  0.12500000000E+03  0.12500000000E+03 0.  0.
        -11    1    3    3    0    0  0.41874903524E+02  0.37829725357E+02 -0.10857940199E+02  0.57467299670E+02  0.51100000000E-03 0. -1.
         23    2    1    0    0    0  0.18870201580E+02  0.21059588444E+02  0.12298383101E+02  0.94164290182E+02  0.88972313365E+02 0.  0.
         11    1    3    3    0    0 -0.23004701944E+02 -0.16770136913E+02  0.23156323300E+02  0.36696990512E+02  0.51100000000E-03 0.  1.
         22    1    1    0    0    0 -0.18870201580E+02 -0.21059588444E+02 -0.12298383101E+02  0.30835709818E+02  0.00000000000E+00 0. -1.
</event>
<event>
 5    1  0.8778268E-005  0.9118800E+02  0.7818608E-02  0.1130116E+00
         25   -1    0    0    0    0  0.00000000000E+00  0.00000000000E+00  0.99999998245E-14  0.12500000000E+03  0.12500000000E+03 0.  0.
        -11    1    3    3    0    0  0.25475707467E+02 -0.29063398362E+02  0.15131766359E+02  0.41504977396E+02  0.51100000000E-03 0.  1.
         23    2    1    0    0    0 -0.25357603387E+02 -0.13469761571E+02  0.82863835607E+01  0.95115109523E+02  0.90298268979E+02 0.  0.
         11    1    3    3    0    0 -0.50833310854E+02  0.15593636790E+02 -0.68453827986E+01  0.53610132126E+02  0.51100000000E-03 0. -1.
         22    1    1    0    0    0  0.25357603387E+02  0.13469761571E+02 -0.82863835607E+01  0.29884890477E+02  0.00000000000E+00 0.  1.
</event>
<event>
 5    1  0.8778268E-005  0.9118800E+02  0.7818608E-02  0.1130116E+00
         25   -1    0    0    0    0  0.00000000000E+00  0.00000000000E+00  0.99999998245E-14  0.12500000000E+03  0.12500000000E+03 0.  0.
        -11    1    3    3    0    0 -0.46409306206E+02 -0.10859129325E+02 -0.56813072768E+01  0.48000225466E+02  0.51100000000E-03 0.  1.
         23    2    1    0    0    0 -0.46185589442E+01 -0.26041184275E+02  0.12136768389E+02  0.95900592582E+02  0.91379145025E+02 0.  0.
         11    1    3    3    0    0  0.41790747261E+02 -0.15182054950E+02  0.17818075666E+02  0.47900367116E+02  0.51100000000E-03 0. -1.
         22    1    1    0    0    0  0.46185589442E+01  0.26041184275E+02 -0.12136768389E+02  0.29099407418E+02  0.00000000000E+00 0.  1.
</event>
<event>
 5    1  0.8778268E-005  0.9118800E+02  0.7818608E-02  0.1130116E+00
         25   -1    0    0    0    0  0.00000000000E+00  0.00000000000E+00  0.99999998245E-14  0.12500000000E+03  0.12500000000E+03 0.  0.
        -11    1    3    3    0    0  0.21603758304E+02  0.64777932650E+00  0.33591070813E+02  0.39943735798E+02  0.51100000000E-03 0.  1.
         23    2    1    0    0    0 -0.67119056225E+01 -0.31137074814E+02  0.17560831423E+01  0.93099358423E+02  0.87463361505E+02 0.  0.
         11    1    3    3    0    0 -0.28315663927E+02 -0.31784854140E+02 -0.31834987670E+02  0.53155622624E+02  0.51100000000E-03 0. -1.
         22    1    1    0    0    0  0.67119056225E+01  0.31137074814E+02 -0.17560831423E+01  0.31900641577E+02  0.00000000000E+00 0.  1.
</event>
<event>
 5    1  0.8778268E-005  0.9118800E+02  0.7818608E-02  0.1130116E+00
         25   -1    0    0    0    0  0.00000000000E+00  0.00000000000E+00  0.99999998245E-14  0.12500000000E+03  0.12500000000E+03 0.  0.
        -11    1    3    3    0    0  0.18366137555E+02  0.18536215959E+02  0.32603130488E+02  0.41759674672E+02  0.51100000000E-03 0.  1.
         23    2    1    0    0    0  0.23123844697E+02 -0.68949209373E+00 -0.17732483168E+02  0.95851611499E+02  0.91312117897E+02 0.  0.
         11    1    3    3    0    0  0.47577071414E+01 -0.19225708052E+02 -0.50335613656E+02  0.54091936827E+02  0.51100000000E-03 0. -1.
         22    1    1    0    0    0 -0.23123844697E+02  0.68949209373E+00  0.17732483168E+02  0.29148388501E+02  0.00000000000E+00 0. -1.
</event>
<event>
 5    1  0.8778268E-005  0.9118800E+02  0.7818608E-02  0.1130116E+00
         25   -1    0    0    0    0  0.00000000000E+00  0.00000000000E+00  0.99999998245E-14  0.12500000000E+03  0.12500000000E+03 0.  0.
        -11    1    3    3    0    0  0.20449101459E+02 -0.25026871733E+02 -0.36869809064E+02  0.49029510297E+02  0.51100000000E-03 0.  1.
         23    2    1    0    0    0 -0.19475151520E+02 -0.12475522797E+02 -0.20911899261E+02  0.93819433512E+02  0.88486486980E+02 0.  0.
         11    1    3    3    0    0 -0.39924252980E+02  0.12551348937E+02  0.15957909803E+02  0.44789923215E+02  0.51100000000E-03 0. -1.
         22    1    1    0    0    0  0.19475151520E+02  0.12475522797E+02  0.20911899261E+02  0.31180566488E+02  0.00000000000E+00 0.  1.
</event>
<event>
 5    1  0.8778268E-005  0.9118800E+02  0.7818608E-02  0.1130116E+00
         25   -1    0    0    0    0  0.00000000000E+00  0.00000000000E+00  0.99999998245E-14  0.12500000000E+03  0.12500000000E+03 0.  0.
        -11    1    3    3    0    0 -0.12771402905E+02 -0.54709603543E+02  0.25447580072E+02  0.61675187749E+02  0.51100000000E-03 0. -1.
         23    2    1    0    0    0  0.12583512845E+01 -0.25930476418E+02  0.11947474746E+02  0.96421770383E+02  0.92089318576E+02 0.  0.
         11    1    3    3    0    0  0.14029754190E+02  0.28779127125E+02 -0.13500105327E+02  0.34746582635E+02  0.51100000000E-03 0.  1.
         22    1    1    0    0    0 -0.12583512845E+01  0.25930476418E+02 -0.11947474746E+02  0.28578229617E+02  0.00000000000E+00 0. -1.
</event>
<event>
 5    1  0.8778268E-005  0.9118800E+02  0.7818608E-02  0.1130116E+00
         25   -1    0    0    0    0  0.00000000000E+00  0.00000000000E+00  0.99999998245E-14  0.12500000000E+03  0.12500000000E+03 0.  0.
        -11    1    3    3    0    0 -0.21033276456E+02  0.37263058494E+02  0.19068632891E+02  0.46845992437E+02  0.51100000000E-03 0.  1.
         23    2    1    0    0    0  0.22276651213E+02  0.13163773670E+02  0.10148524053E+02  0.97205636058E+02  0.93147243730E+02 0.  0.
         11    1    3    3    0    0  0.43309927669E+02 -0.24099284824E+02 -0.89201088379E+01  0.50359643621E+02  0.51100000000E-03 0. -1.
         22    1    1    0    0    0 -0.22276651213E+02 -0.13163773670E+02 -0.10148524053E+02  0.27794363942E+02  0.00000000000E+00 0. -1.
</event>
<event>
 5    1  0.8778268E-005  0.9118800E+02  0.7818608E-02  0.1130116E+00
         25   -1    0    0    0    0  0.00000000000E+00  0.00000000000E+00  0.99999998245E-14  0.12500000000E+03  0.12500000000E+03 0.  0.
        -11    1    3    3    0    0 -0.25748896701E+02 -0.15357050758E+02 -0.26726339096E+02  0.40163937694E+02  0.51100000000E-03 0.  1.
         23    2    1    0    0    0  0.10993516217E+02  0.23952488995E+02 -0.12561380459E+02  0.95804668063E+02  0.91247832938E+02 0.  0.
         11    1    3    3    0    0  0.36742412917E+02  0.39309539753E+02  0.14164958638E+02  0.55640730370E+02  0.51100000000E-03 0. -1.
         22    1    1    0    0    0 -0.10993516217E+02 -0.23952488995E+02  0.12561380459E+02  0.29195331937E+02  0.00000000000E+00 0. -1.
</event>
<event>
 5    1  0.8778268E-005  0.9118800E+02  0.7818608E-02  0.1130116E+00
         25   -1    0    0    0    0  0.00000000000E+00  0.00000000000E+00  0.99999998245E-14  0.12500000000E+03  0.12500000000E+03 0.  0.
        -11    1    3    3    0    0  0.35457581088E+01  0.30111081295E+02 -0.31348096450E+02  0.43611383475E+02  0.51100000000E-03 0.  1.
         23    2    1    0    0    0 -0.21947712351E+02  0.16882196170E+02  0.11353283916E+02  0.95073294858E+02  0.90240366326E+02 0.  0.
         11    1    3    3    0    0 -0.25493470460E+02 -0.13228885126E+02  0.42701380366E+02  0.51461911383E+02  0.51100000000E-03 0. -1.
         22    1    1    0    0    0  0.21947712351E+02 -0.16882196170E+02 -0.11353283916E+02  0.29926705142E+02  0.00000000000E+00 0. -1.
</event>
<event>
 5    1  0.8778268E-005  0.9118800E+02  0.7818608E-02  0.1130116E+00
         25   -1    0    0    0    0  0.00000000000E+00  0.00000000000E+00  0.99999998245E-14  0.12500000000E+03  0.12500000000E+03 0.  0.
        -11    1    3    3    0    0  0.22901943387E+02  0.16877334284E+02  0.52118871734E+02  0.59377775426E+02  0.51100000000E-03 0. -1.
         23    2    1    0    0    0  0.15830558310E+02  0.18358123689E+02  0.16609717318E+02  0.95614459488E+02  0.90986893957E+02 0.  0.
         11    1    3    3    0    0 -0.70713850768E+01  0.14807894051E+01 -0.35509154416E+02  0.36236684062E+02  0.51100000000E-03 0.  1.
         22    1    1    0    0    0 -0.15830558310E+02 -0.18358123689E+02 -0.16609717318E+02  0.29385540512E+02  0.00000000000E+00 0. -1.
</event>
<event>
 5    1  0.8778268E-005  0.9118800E+02  0.7818608E-02  0.1130116E+00
         25   -1    0    0    0    0  0.00000000000E+00  0.00000000000E+00  0.99999998245E-14  0.12500000000E+03  0.12500000000E+03 0.  0.
        -11    1    3    3    0    0  0.23207344601E+02 -0.57017965497E+02  0.90690204377E+01  0.62224403290E+02  0.51100000000E-03 0. -1.
         23    2    1    0    0    0  0.79664786957E+01 -0.30158374874E+02  0.57090583940E+01  0.93289028624E+02  0.87734013678E+02 0.  0.
         11    1    3    3    0    0 -0.15240865905E+02  0.26859590622E+02 -0.33599620437E+01  0.31064625334E+02  0.51100000000E-03 0.  1.
         22    1    1    0    0    0 -0.79664786957E+01  0.30158374874E+02 -0.57090583940E+01  0.31710971376E+02  0.00000000000E+00 0. -1.
</event>
<event>
 5    1  0.8778268E-005  0.9118800E+02  0.7818608E-02  0.1130116E+00
         25   -1    0    0    0    0  0.00000000000E+00  0.00000000000E+00  0.99999998245E-14  0.12500000000E+03  0.12500000000E+03 0.  0.
        -11    1    3    3    0    0  0.32013604422E+02  0.14561333076E+02 -0.41999434327E+02  0.54780067297E+02  0.51100000000E-03 0.  1.
         23    2    1    0    0    0  0.30631397104E+01  0.25045823874E+02 -0.15631128494E+02  0.95318216084E+02  0.90578993266E+02 0.  0.
         11    1    3    3    0    0 -0.28950464712E+02  0.10484490799E+02  0.26368305832E+02  0.40538148787E+02  0.51100000000E-03 0. -1.
         22    1    1    0    0    0 -0.30631397104E+01 -0.25045823874E+02  0.15631128494E+02  0.29681783916E+02  0.00000000000E+00 0.  1.
</event>
<event>
 5    1  0.8778268E-005  0.9118800E+02  0.7818608E-02  0.1130116E+00
         25   -1    0    0    0    0  0.00000000000E+00  0.00000000000E+00  0.99999998245E-14  0.12500000000E+03  0.12500000000E+03 0.  0.
        -11    1    3    3    0    0  0.19885287034E+02 -0.21193302598E+02 -0.15675335633E+02  0.33019643592E+02  0.51100000000E-03 0. -1.
         23    2    1    0    0    0 -0.25694927968E+02  0.15068517249E+02  0.49408865679E+01  0.94805598277E+02  0.89868790852E+02 0.  0.
         11    1    3    3    0    0 -0.45580215002E+02  0.36261819847E+02  0.20616222201E+02  0.61785954685E+02  0.51100000000E-03 0.  1.
         22    1    1    0    0    0  0.25694927968E+02 -0.15068517249E+02 -0.49408865679E+01  0.30194401723E+02  0.00000000000E+00 0.  1.
</event>
<event>
 5    1  0.8778268E-005  0.9118800E+02  0.7818608E-02  0.1130116E+00
         25   -1    0    0    0    0  0.00000000000E+00  0.00000000000E+00  0.99999998245E-14  0.12500000000E+03  0.12500000000E+03 0.  0.
        -11    1    3    3    0    0 -0.46401476901E+02 -0.24000099427E+02  0.21046251948E+02  0.56320924641E+02  0.51100000000E-03 0. -1.
         23    2    1    0    0    0 -0.26470263440E+02  0.53186656851E+00 -0.59217549952E+01  0.97870220959E+02  0.94034861831E+02 0.  0.
         11    1    3    3    0    0  0.19931213461E+02  0.24531965996E+02 -0.26968006944E+02  0.41549296317E+02  0.51100000000E-03 0.  1.
         22    1    1    0    0    0  0.26470263440E+02 -0.53186656851E+00  0.59217549952E+01  0.27129779041E+02  0.00000000000E+00 0. -1.
</event>
<event>
 5    1  0.8778268E-005  0.9118800E+02  0.7818608E-02  0.1130116E+00
         25   -1    0    0    0    0  0.00000000000E+00  0.00000000000E+00  0.99999998245E-14  0.12500000000E+03  0.12500000000E+03 0.  0.
        -11    1    3    3    0    0 -0.50135526699E+01  0.16665150629E+02  0.30550601851E+02  0.35159667655E+02  0.51100000000E-03 0.  1.
         23    2    1    0    0    0  0.27845407820E+02 -0.47009425964E+00 -0.14587439049E+02  0.93561471038E+02  0.88121324091E+02 0.  0.
         11    1    3    3    0    0  0.32858960490E+02 -0.17135244889E+02 -0.45138040900E+02  0.58401803384E+02  0.51100000000E-03 0. -1.
         22    1    1    0    0    0 -0.27845407820E+02  0.47009425964E+00  0.14587439049E+02  0.31438528962E+02  0.00000000000E+00 0. -1.
</event>
<event>
 5    1  0.8778268E-005  0.9118800E+02  0.7818608E-02  0.1130116E+00
         25   -1    0    0    0    0  0.00000000000E+00  0.00000000000E+00  0.99999998245E-14  0.12500000000E+03  0.12500000000E+03 0.  0.
        -11    1    3    3    0    0 -0.83671547237E+01 -0.82158328798E+01 -0.33603945302E+02  0.35591211389E+02  0.51100000000E-03 0. -1.
         23    2    1    0    0    0  0.11839267633E+02 -0.20799016969E+02  0.19721608468E+02  0.93988563311E+02  0.88725085673E+02 0.  0.
         11    1    3    3    0    0  0.20206422357E+02 -0.12583184089E+02  0.53325553770E+02  0.58397351921E+02  0.51100000000E-03 0.  1.
         22    1    1    0    0    0 -0.11839267633E+02  0.20799016969E+02 -0.19721608468E+02  0.31011436689E+02  0.00000000000E+00 0.  1.
</event>
<event>
 5    1  0.8778268E-005  0.9118800E+02  0.7818608E-02  0.1130116E+00
         25   -1    0    0    0    0  0.00000000000E+00  0.00000000000E+00  0.99999998245E-14  0.12500000000E+03  0.12500000000E+03 0.  0.
        -11    1    3    3    0    0 -0.19655948558E+01  0.54001065536E+02  0.25924092458E+00  0.54037448573E+02  0.51100000000E-03 0. -1.
         23    2    1    0    0    0 -0.22282480385E+02  0.17043663310E+02 -0.48871779973E+01  0.96524046988E+02  0.92228042086E+02 0.  0.
         11    1    3    3    0    0 -0.20316885529E+02 -0.36957402226E+02 -0.51464189219E+01  0.42486598415E+02  0.51100000000E-03 0.  1.
         22    1    1    0    0    0  0.22282480385E+02 -0.17043663310E+02  0.48871779973E+01  0.28475953012E+02  0.00000000000E+00 0.  1.
</event>
<event>
 5    1  0.8778268E-005  0.9118800E+02  0.7818608E-02  0.1130116E+00
         25   -1    0    0    0    0  0.00000000000E+00  0.00000000000E+00  0.99999998245E-14  0.12500000000E+03  0.12500000000E+03 0.  0.
        -11    1    3    3    0    0  0.77679709838E+01 -0.12873939555E+02 -0.35840864825E+02  0.38867046254E+02  0.51100000000E-03 0.  1.
         23    2    1    0    0    0 -0.11525574951E+02  0.28935281751E+02 -0.74061056930E+01  0.92985318844E+02  0.87300227439E+02 0.  0.
         11    1    3    3    0    0 -0.19293545935E+02  0.41809221306E+02  0.28434759132E+02  0.54118272590E+02  0.51100000000E-03 0. -1.
         22    1    1    0    0    0  0.11525574951E+02 -0.28935281751E+02  0.74061056930E+01  0.32014681156E+02  0.00000000000E+00 0. -1.
</event>
<event>
 5    1  0.8778268E-005  0.9118800E+02  0.7818608E-02  0.1130116E+00
         25   -1    0    0    0    0  0.00000000000E+00  0.00000000000E+00  0.99999998245E-14  0.12500000000E+03  0.12500000000E+03 0.  0.
        -11    1    3    3    0    0  0.31649635162E+02 -0.13040205283E+02  0.59178216903E+01  0.34738551690E+02  0.51100000000E-03 0.  1.
         23    2    1    0    0    0 -0.14769219032E+02  0.23726451164E+02  0.12625238095E+02  0.94332901138E+02  0.89208885681E+02 0.  0.
         11    1    3    3    0    0 -0.46418854195E+02  0.36766656447E+02  0.67074164042E+01  0.59594349448E+02  0.51100000000E-03 0. -1.
         22    1    1    0    0    0  0.14769219032E+02 -0.23726451164E+02 -0.12625238095E+02  0.30667098862E+02  0.00000000000E+00 0. -1.
</event>
<event>
 5    1  0.8778268E-005  0.9118800E+02  0.7818608E-02  0.1130116E+00
         25   -1    0    0    0    0  0.00000000000E+00  0.00000000000E+00  0.99999998245E-14  0.12500000000E+03  0.12500000000E+03 0.  0.
        -11    1    3    3    0    0 -0.55845671405E+02  0.11923619201E+02 -0.97008761754E+01  0.57922523325E+02  0.51100000000E-03 0.  1.
         23    2    1    0    0    0 -0.24409334541E+02  0.17728774675E+02  0.70583009763E+01  0.94017026016E+02  0.88765176190E+02 0.  0.
         11    1    3    3    0    0  0.31436336863E+02  0.58051554743E+01  0.16759177152E+02  0.36094502691E+02  0.51100000000E-03 0. -1.
         22    1    1    0    0    0  0.24409334541E+02 -0.17728774675E+02 -0.70583009763E+01  0.30982973984E+02  0.00000000000E+00 0.  1.
</event>
<event>
 5    1  0.8778268E-005  0.9118800E+02  0.7818608E-02  0.1130116E+00
         25   -1    0    0    0    0  0.00000000000E+00  0.00000000000E+00  0.99999998245E-14  0.12500000000E+03  0.12500000000E+03 0.  0.
        -11    1    3    3    0    0  0.11217090043E+02 -0.34926570759E+02 -0.40083924439E+02  0.54336078739E+02  0.51100000000E-03 0. -1.
         23    2    1    0    0    0  0.91622843350E+01  0.50634253149E+01 -0.26313802511E+02  0.96680361359E+02  0.92439657831E+02 0.  0.
         11    1    3    3    0    0 -0.20548057082E+01  0.39989996074E+02  0.13770121928E+02  0.42344282621E+02  0.51100000000E-03 0.  1.
         22    1    1    0    0    0 -0.91622843350E+01 -0.50634253149E+01  0.26313802511E+02  0.28319638641E+02  0.00000000000E+00 0. -1.
</event>
<event>
 5    1  0.8778268E-005  0.9118800E+02  0.7818608E-02  0.1130116E+00
         25   -1    0    0    0    0  0.00000000000E+00  0.00000000000E+00  0.99999998245E-14  0.12500000000E+03  0.12500000000E+03 0.  0.
        -11    1    3    3    0    0  0.30411311611E+02  0.44792891157E+02  0.27125686088E+02  0.60556203796E+02  0.51100000000E-03 0.  1.
         23    2    1    0    0    0  0.12255821116E+02  0.18225761867E+02  0.23331325484E+02  0.92957305112E+02  0.87260107025E+02 0.  0.
         11    1    3    3    0    0 -0.18155490496E+02 -0.26567129290E+02 -0.37943606047E+01  0.32401101317E+02  0.51100000000E-03 0. -1.
         22    1    1    0    0    0 -0.12255821116E+02 -0.18225761867E+02 -0.23331325484E+02  0.32042694888E+02  0.00000000000E+00 0.  1.
</event>
<event>
 5    1  0.8778268E-005  0.9118800E+02  0.7818608E-02  0.1130116E+00
         25   -1    0    0    0    0  0.00000000000E+00  0.00000000000E+00  0.99999998245E-14  0.12500000000E+03  0.12500000000E+03 0.  0.
        -11    1    3    3    0    0  0.34912476961E+02  0.42437871883E+01  0.10916240031E+02  0.36824653073E+02  0.51100000000E-03 0.  1.
         23    2    1    0    0    0 -0.19787495072E+02 -0.17314193697E+02  0.13025609190E+02  0.95657321878E+02  0.91045760305E+02 0.  0.
         11    1    3    3    0    0 -0.54699972033E+02 -0.21557980886E+02  0.21093691594E+01  0.58832668805E+02  0.51100000000E-03 0. -1.
         22    1    1    0    0    0  0.19787495072E+02  0.17314193697E+02 -0.13025609190E+02  0.29342678122E+02  0.00000000000E+00 0. -1.
</event>
<event>
 5    1  0.8778268E-005  0.9118800E+02  0.7818608E-02  0.1130116E+00
         25   -1    0    0    0    0  0.00000000000E+00  0.00000000000E+00  0.99999998245E-14  0.12500000000E+03  0.12500000000E+03 0.  0.
        -11    1    3    3    0    0 -0.60227202716E+01  0.54197121719E+02  0.22396043772E+02  0.58950690742E+02  0.51100000000E-03 0.  1.
         23    2    1    0    0    0  0.73397876763E+00  0.29650580617E+02 -0.33411425030E+01  0.95152740679E+02  0.90350346816E+02 0.  0.
         11    1    3    3    0    0  0.67566990392E+01 -0.24546541103E+02 -0.25737186275E+02  0.36202049937E+02  0.51100000000E-03 0. -1.
         22    1    1    0    0    0 -0.73397876763E+00 -0.29650580617E+02  0.33411425030E+01  0.29847259321E+02  0.00000000000E+00 0.  1.
</event>
<event>
 5    1  0.8778268E-005  0.9118800E+02  0.7818608E-02  0.1130116E+00
         25   -1    0    0    0    0  0.00000000000E+00  0.00000000000E+00  0.99999998245E-14  0.12500000000E+03  0.12500000000E+03 0.  0.
        -11    1    3    3    0    0 -0.20916483859E+02 -0.43054466964E+02 -0.10657566466E-01  0.47866340328E+02  0.51100000000E-03 0. -1.
         23    2    1    0    0    0 -0.86922409331E+01 -0.64004026534E+01  0.27605194494E+02  0.95359369615E+02  0.90635767795E+02 0.  0.
         11    1    3    3    0    0  0.12224242926E+02  0.36654064311E+02  0.27615852060E+02  0.47493029287E+02  0.51100000000E-03 0.  1.
         22    1    1    0    0    0  0.86922409331E+01  0.64004026534E+01 -0.27605194494E+02  0.29640630385E+02  0.00000000000E+00 0.  1.
</event>
<event>
 5    1  0.8778268E-005  0.9118800E+02  0.7818608E-02  0.1130116E+00
         25   -1    0    0    0    0  0.00000000000E+00  0.00000000000E+00  0.99999998245E-14  0.12500000000E+03  0.12500000000E+03 0.  0.
        -11    1    3    3    0    0 -0.55728409448E+00  0.25691142562E+02 -0.27468526212E+02  0.37614695323E+02  0.51100000000E-03 0.  1.
         23    2    1    0    0    0 -0.16887286966E+02  0.39793926774E+01  0.23747308745E+02  0.95589955801E+02  0.90953223968E+02 0.  0.
         11    1    3    3    0    0 -0.16330002872E+02 -0.21711749885E+02  0.51215834957E+02  0.57975260478E+02  0.51100000000E-03 0. -1.
         22    1    1    0    0    0  0.16887286966E+02 -0.39793926774E+01 -0.23747308745E+02  0.29410044199E+02  0.00000000000E+00 0. -1.
</event>
<event>
 5    1  0.8778268E-005  0.9118800E+02  0.7818608E-02  0.1130116E+00
         25   -1    0    0    0    0  0.00000000000E+00  0.00000000000E+00  0.99999998245E-14  0.12500000000E+03  0.12500000000E+03 0.  0.
        -11    1    3    3    0    0  0.48119928501E+02  0.24356253230E+02 -0.32487686405E+01  0.54030631019E+02  0.51100000000E-03 0.  1.
         23    2    1    0    0    0  0.15374062493E+02  0.33317179401E+02  0.12992982698E+01  0.88283730898E+02  0.80286566277E+02 0.  0.
         11    1    3    3    0    0 -0.32745866008E+02  0.89609261705E+01  0.45480669103E+01  0.34253099879E+02  0.51100000000E-03 0. -1.
         22    1    1    0    0    0 -0.15374062493E+02 -0.33317179401E+02 -0.12992982698E+01  0.36716269102E+02  0.00000000000E+00 0.  1.
</event>
<event>
 5    1  0.8778268E-005  0.9118800E+02  0.7818608E-02  0.1130116E+00
         25   -1    0    0    0    0  0.00000000000E+00  0.00000000000E+00  0.99999998245E-14  0.12500000000E+03  0.12500000000E+03 0.  0.
        -11    1    3    3    0    0 -0.19736056671E+02 -0.52211832721E+02  0.24824714206E+02  0.61088901158E+02  0.51100000000E-03 0.  1.
         23    2    1    0    0    0 -0.11031882713E+02 -0.21777476426E+02  0.20664905697E+02  0.93015640648E+02  0.87343632636E+02 0.  0.
         11    1    3    3    0    0  0.87041739586E+01  0.30434356295E+02 -0.41598085089E+01  0.31926739491E+02  0.51100000000E-03 0. -1.
         22    1    1    0    0    0  0.11031882713E+02  0.21777476426E+02 -0.20664905697E+02  0.31984359352E+02  0.00000000000E+00 0.  1.
</event>
<event>
 5    1  0.8778268E-005  0.9118800E+02  0.7818608E-02  0.1130116E+00
         25   -1    0    0    0    0  0.00000000000E+00  0.00000000000E+00  0.99999998245E-14  0.12500000000E+03  0.12500000000E+03 0.  0.
        -11    1    3    3    0    0 -0.46685520835E+02  0.17577467542E+02 -0.33858627989E+02  0.60290230638E+02  0.51100000000E-03 0. -1.
         23    2    1    0    0    0 -0.28381995600E+02  0.68116206573E+01 -0.61990997734E+01  0.95161020657E+02  0.90361801466E+02 0.  0.
         11    1    3    3    0    0  0.18303525235E+02 -0.10765846885E+02  0.27659528215E+02  0.34870790019E+02  0.51100000000E-03 0.  1.
         22    1    1    0    0    0  0.28381995600E+02 -0.68116206573E+01  0.61990997734E+01  0.29838979343E+02  0.00000000000E+00 0. -1.
</event>
<event>
 5    1  0.8778268E-005  0.9118800E+02  0.7818608E-02  0.1130116E+00
         25   -1    0    0    0    0  0.00000000000E+00  0.00000000000E+00  0.99999998245E-14  0.12500000000E+03  0.12500000000E+03 0.  0.
        -11    1    3    3    0    0  0.27840026221E+02 -0.10655935037E+02 -0.42684237332E+02  0.52063039946E+02  0.51100000000E-03 0.  1.
         23    2    1    0    0    0  0.28494822813E+02 -0.61093024788E+01  0.85612621276E+00  0.95845044058E+02  0.91303127079E+02 0.  0.
         11    1    3    3    0    0  0.65479659164E+00  0.45466325587E+01  0.43540363545E+02  0.43782004112E+02  0.51100000000E-03 0. -1.
         22    1    1    0    0    0 -0.28494822813E+02  0.61093024788E+01 -0.85612621276E+00  0.29154955942E+02  0.00000000000E+00 0.  1.
</event>
<event>
 5    1  0.8778268E-005  0.9118800E+02  0.7818608E-02  0.1130116E+00
         25   -1    0    0    0    0  0.00000000000E+00  0.00000000000E+00  0.99999998245E-14  0.12500000000E+03  0.12500000000E+03 0.  0.
        -11    1    3    3    0    0  0.48045196771E+02 -0.29813918199E+02 -0.71381714191E+01  0.56992667446E+02  0.51100000000E-03 0.  1.
         23    2    1    0    0    0  0.11385583772E+02 -0.26780245363E+02  0.44543467570E+01  0.95561007753E+02  0.90913431011E+02 0.  0.
         11    1    3    3    0    0 -0.36659612999E+02  0.30336728365E+01  0.11592518176E+02  0.38568340307E+02  0.51100000000E-03 0. -1.
         22    1    1    0    0    0 -0.11385583772E+02  0.26780245363E+02 -0.44543467570E+01  0.29438992247E+02  0.00000000000E+00 0.  1.
</event>
<event>
 5    1  0.8778268E-005  0.9118800E+02  0.7818608E-02  0.1130116E+00
         25   -1    0    0    0    0  0.00000000000E+00  0.00000000000E+00  0.99999998245E-14  0.12500000000E+03  0.12500000000E+03 0.  0.
        -11    1    3    3    0    0  0.56977830912E+00 -0.18630480939E+02  0.22613531210E+02  0.29305140529E+02  0.51100000000E-03 0. -1.
         23    2    1    0    0    0 -0.19657126479E+02  0.32358875738E+02  0.56755846078E+01  0.86715385321E+02  0.77806467150E+02 0.  0.
         11    1    3    3    0    0 -0.20226904788E+02  0.50989356678E+02 -0.16937946603E+02  0.57410244792E+02  0.51100000000E-03 0.  1.
         22    1    1    0    0    0  0.19657126479E+02 -0.32358875738E+02 -0.56755846078E+01  0.38284614679E+02  0.00000000000E+00 0.  1.
</event>
<event>
 5    1  0.8778268E-005  0.9118800E+02  0.7818608E-02  0.1130116E+00
         25   -1    0    0    0    0  0.00000000000E+00  0.00000000000E+00  0.99999998245E-14  0.12500000000E+03  0.12500000000E+03 0.  0.
        -11    1    3    3    0    0 -0.36853747730E+02 -0.22561443809E+01 -0.45649959894E+02  0.58712926581E+02  0.51100000000E-03 0.  1.
         23    2    1    0    0    0 -0.13160567403E+02  0.13445043626E+02 -0.24332746859E+02  0.94242036768E+02  0.89081475022E+02 0.  0.
         11    1    3    3    0    0  0.23693180328E+02  0.15701188007E+02  0.21317213034E+02  0.35529110187E+02  0.51100000000E-03 0. -1.
         22    1    1    0    0    0  0.13160567403E+02 -0.13445043626E+02  0.24332746859E+02  0.30757963232E+02  0.00000000000E+00 0.  1.
</event>
<event>
 5    1  0.8778268E-005  0.9118800E+02  0.7818608E-02  0.1130116E+00
         25   -1    0    0    0    0  0.00000000000E+00  0.00000000000E+00  0.99999998245E-14  0.12500000000E+03  0.12500000000E+03 0.  0.
        -11    1    3    3    0    0  0.51749751330E+02  0.60854350055E+01  0.86247961208E+01  0.52815304509E+02  0.51100000000E-03 0. -1.
         23    2    1    0    0    0  0.16983858658E+02  0.18356105433E+02 -0.14263690324E+02  0.96210228843E+02  0.91801727712E+02 0.  0.
         11    1    3    3    0    0 -0.34765892672E+02  0.12270670428E+02 -0.22888486445E+02  0.43394924335E+02  0.51100000000E-03 0.  1.
         22    1    1    0    0    0 -0.16983858658E+02 -0.18356105433E+02  0.14263690324E+02  0.28789771157E+02  0.00000000000E+00 0. -1.
</event>
<event>
 5    1  0.8778268E-005  0.9118800E+02  0.7818608E-02  0.1130116E+00
         25   -1    0    0    0    0  0.00000000000E+00  0.00000000000E+00  0.99999998245E-14  0.12500000000E+03  0.12500000000E+03 0.  0.
        -11    1    3    3    0    0  0.26675099860E+00  0.21733061224E+02 -0.11179193413E+02  0.24441183930E+02  0.51100000000E-03 0.  1.
         23    2    1    0    0    0  0.72804282609E+01 -0.32203248399E+02  0.19267163768E+02  0.86773341203E+02  0.77899520543E+02 0.  0.
         11    1    3    3    0    0  0.70136772623E+01 -0.53936309623E+02  0.30446357181E+02  0.62332157273E+02  0.51100000000E-03 0. -1.
         22    1    1    0    0    0 -0.72804282609E+01  0.32203248399E+02 -0.19267163768E+02  0.38226658797E+02  0.00000000000E+00 0. -1.
</event>
<event>
 5    1  0.8778268E-005  0.9118800E+02  0.7818608E-02  0.1130116E+00
         25   -1    0    0    0    0  0.00000000000E+00  0.00000000000E+00  0.99999998245E-14  0.12500000000E+03  0.12500000000E+03 0.  0.
        -11    1    3    3    0    0  0.45915597392E+01  0.34978607032E+02  0.11454728471E+02  0.37091726508E+02  0.51100000000E-03 0. -1.
         23    2    1    0    0    0 -0.24555915000E+02 -0.15357495875E+02  0.48923100301E+01  0.95626877277E+02  0.91003952218E+02 0.  0.
         11    1    3    3    0    0 -0.29147474740E+02 -0.50336102907E+02 -0.65624184409E+01  0.58535150769E+02  0.51100000000E-03 0.  1.
         22    1    1    0    0    0  0.24555915000E+02  0.15357495875E+02 -0.48923100301E+01  0.29373122723E+02  0.00000000000E+00 0.  1.
</event>
<event>
 5    1  0.8778268E-005  0.9118800E+02  0.7818608E-02  0.1130116E+00
         25   -1    0    0    0    0  0.00000000000E+00  0.00000000000E+00  0.99999998245E-14  0.12500000000E+03  0.12500000000E+03 0.  0.
        -11    1    3    3    0    0 -0.86021331565E+01  0.29726440647E+02  0.11838010161E+02  0.33133011532E+02  0.51100000000E-03 0.  1.
         23    2    1    0    0    0  0.17433089815E+02 -0.22653957656E+02 -0.86877963412E+01  0.95123718048E+02  0.90310184985E+02 0.  0.
         11    1    3    3    0    0  0.26035222972E+02 -0.52380398302E+02 -0.20525806503E+02  0.61990706516E+02  0.51100000000E-03 0. -1.
         22    1    1    0    0    0 -0.17433089815E+02  0.22653957656E+02  0.86877963412E+01  0.29876281952E+02  0.00000000000E+00 0. -1.
</event>
<event>
 5    1  0.8778268E-005  0.9118800E+02  0.7818608E-02  0.1130116E+00
         25   -1    0    0    0    0  0.00000000000E+00  0.00000000000E+00  0.99999998245E-14  0.12500000000E+03  0.12500000000E+03 0.  0.
        -11    1    3    3    0    0  0.41793170163E+02  0.93464007422E+01  0.48577557638E+01  0.43100140028E+02  0.51100000000E-03 0. -1.
         23    2    1    0    0    0  0.85875733395E+00 -0.24553823293E+02  0.13529522725E+02  0.96952260561E+02  0.92806600736E+02 0.  0.
         11    1    3    3    0    0 -0.40934412830E+02 -0.33900224035E+02  0.86717669613E+01  0.53852120532E+02  0.51100000000E-03 0.  1.
         22    1    1    0    0    0 -0.85875733395E+00  0.24553823293E+02 -0.13529522725E+02  0.28047739439E+02  0.00000000000E+00 0.  1.
</event>
<event>
 5    1  0.8778268E-005  0.9118800E+02  0.7818608E-02  0.1130116E+00
         25   -1    0    0    0    0  0.00000000000E+00  0.00000000000E+00  0.99999998245E-14  0.12500000000E+03  0.12500000000E+03 0.  0.
        -11    1    3    3    0    0 -0.41446753488E+02 -0.17048875872E+02 -0.71226925542E+01  0.45378742741E+02  0.51100000000E-03 0. -1.
         23    2    1    0    0    0  0.13047479673E+02 -0.20823527901E+02 -0.32971437936E+00  0.10042430567E+03  0.97370819131E+02 0.  0.
         11    1    3    3    0    0  0.54494233162E+02 -0.37746520290E+01  0.67929781748E+01  0.55045562932E+02  0.51100000000E-03 0.  1.
         22    1    1    0    0    0 -0.13047479673E+02  0.20823527901E+02  0.32971437936E+00  0.24575694327E+02  0.00000000000E+00 0.  1.
</event>
<event>
 5    1  0.8778268E-005  0.9118800E+02  0.7818608E-02  0.1130116E+00
         25   -1    0    0    0    0  0.00000000000E+00  0.00000000000E+00  0.99999998245E-14  0.12500000000E+03  0.12500000000E+03 0.  0.
        -11    1    3    3    0    0 -0.24967050369E+02  0.44846083622E+02  0.15024208198E+02  0.53481320595E+02  0.51100000000E-03 0.  1.
         23    2    1    0    0    0  0.12060680569E+02  0.25061384219E+02  0.81131745871E+01  0.96028348396E+02  0.91553738859E+02 0.  0.
         11    1    3    3    0    0  0.37027730938E+02 -0.19784699403E+02 -0.69110336105E+01  0.42547027801E+02  0.51100000000E-03 0. -1.
         22    1    1    0    0    0 -0.12060680569E+02 -0.25061384219E+02 -0.81131745871E+01  0.28971651604E+02  0.00000000000E+00 0. -1.
</event>
<event>
 5    1  0.8778268E-005  0.9118800E+02  0.7818608E-02  0.1130116E+00
         25   -1    0    0    0    0  0.00000000000E+00  0.00000000000E+00  0.99999998245E-14  0.12500000000E+03  0.12500000000E+03 0.  0.
        -11    1    3    3    0    0 -0.61668944957E+01 -0.58471431043E+02  0.68200583306E+01  0.59189965635E+02  0.51100000000E-03 0.  1.
         23    2    1    0    0    0  0.27773899552E+00 -0.24548834336E+02  0.16940755200E+02  0.95171966324E+02  0.90376941645E+02 0.  0.
         11    1    3    3    0    0  0.64446334913E+01  0.33922596707E+02  0.10120696870E+02  0.35982000689E+02  0.51100000000E-03 0. -1.
         22    1    1    0    0    0 -0.27773899552E+00  0.24548834336E+02 -0.16940755200E+02  0.29828033676E+02  0.00000000000E+00 0.  1.
</event>
<event>
 5    1  0.8778268E-005  0.9118800E+02  0.7818608E-02  0.1130116E+00
         25   -1    0    0    0    0  0.00000000000E+00  0.00000000000E+00  0.99999998245E-14  0.12500000000E+03  0.12500000000E+03 0.  0.
        -11    1    3    3    0    0 -0.25023208267E+02  0.35519048526E+02  0.55593034911E+01  0.43802621106E+02  0.51100000000E-03 0. -1.
         23    2    1    0    0    0  0.11581383179E+02  0.56664769882E+01  0.26545395832E+02  0.95489062406E+02  0.90814457008E+02 0.  0.
         11    1    3    3    0    0  0.36604591446E+02 -0.29852571537E+02  0.20986092341E+02  0.51686441301E+02  0.51100000000E-03 0.  1.
         22    1    1    0    0    0 -0.11581383179E+02 -0.56664769882E+01 -0.26545395832E+02  0.29510937594E+02  0.00000000000E+00 0.  1.
</event>
<event>
 5    1  0.8778268E-005  0.9118800E+02  0.7818608E-02  0.1130116E+00
         25   -1    0    0    0    0  0.00000000000E+00  0.00000000000E+00  0.99999998245E-14  0.12500000000E+03  0.12500000000E+03 0.  0.
        -11    1    3    3    0    0 -0.31805340391E+02 -0.17349219543E+02 -0.43210437857E+02  0.56388979741E+02  0.51100000000E-03 0. -1.
         23    2    1    0    0    0 -0.59869924381E+01  0.83870172990E+01 -0.26646746434E+02  0.96430169179E+02  0.92100718210E+02 0.  0.
         11    1    3    3    0    0  0.25818347953E+02  0.25736236842E+02  0.16563691423E+02  0.40041189438E+02  0.51100000000E-03 0.  1.
         22    1    1    0    0    0  0.59869924381E+01 -0.83870172990E+01  0.26646746434E+02  0.28569830821E+02  0.00000000000E+00 0. -1.
</event>
<event>
 5    1  0.8778268E-005  0.9118800E+02  0.7818608E-02  0.1130116E+00
         25   -1    0    0    0    0  0.00000000000E+00  0.00000000000E+00  0.99999998245E-14  0.12500000000E+03  0.12500000000E+03 0.  0.
        -11    1    3    3    0    0 -0.18893419074E+01  0.86154286377E+00  0.47522643484E+02  0.47567988321E+02  0.51100000000E-03 0. -1.
         23    2    1    0    0    0 -0.19021414326E+02 -0.21515600847E+02  0.97997280020E+01  0.94655808601E+02  0.89660203827E+02 0.  0.
         11    1    3    3    0    0 -0.17132072418E+02 -0.22377143710E+02 -0.37722915482E+02  0.47087820280E+02  0.51100000000E-03 0.  1.
         22    1    1    0    0    0  0.19021414326E+02  0.21515600847E+02 -0.97997280020E+01  0.30344191399E+02  0.00000000000E+00 0. -1.
</event>
<event>
 5    1  0.8778268E-005  0.9118800E+02  0.7818608E-02  0.1130116E+00
         25   -1    0    0    0    0  0.00000000000E+00  0.00000000000E+00  0.99999998245E-14  0.12500000000E+03  0.12500000000E+03 0.  0.
        -11    1    3    3    0    0  0.17752692745E+02  0.14489104276E+02 -0.29853482574E+02  0.37634062556E+02  0.51100000000E-03 0.  1.
         23    2    1    0    0    0 -0.39908014002E+01 -0.27645624674E+02  0.51857508488E+01  0.96590510893E+02  0.92318079071E+02 0.  0.
         11    1    3    3    0    0 -0.21743494146E+02 -0.42134728950E+02  0.35039233423E+02  0.58956448337E+02  0.51100000000E-03 0. -1.
         22    1    1    0    0    0  0.39908014002E+01  0.27645624674E+02 -0.51857508488E+01  0.28409489107E+02  0.00000000000E+00 0. -1.
</event>
<event>
 5    1  0.8778268E-005  0.9118800E+02  0.7818608E-02  0.1130116E+00
         25   -1    0    0    0    0  0.00000000000E+00  0.00000000000E+00  0.99999998245E-14  0.12500000000E+03  0.12500000000E+03 0.  0.
        -11    1    3    3    0    0 -0.26608826907E+02  0.27245657397E+02 -0.39773656649E+02  0.55066317108E+02  0.51100000000E-03 0.  1.
         23    2    1    0    0    0 -0.24883741206E+02  0.13534558228E+02 -0.53365514824E+00  0.96668575210E+02  0.92423718830E+02 0.  0.
         11    1    3    3    0    0  0.17250857013E+01 -0.13711099168E+02  0.39240001501E+02  0.41602258102E+02  0.51100000000E-03 0. -1.
         22    1    1    0    0    0  0.24883741206E+02 -0.13534558228E+02  0.53365514824E+00  0.28331424790E+02  0.00000000000E+00 0.  1.
</event>
<event>
 5    1  0.8778268E-005  0.9118800E+02  0.7818608E-02  0.1130116E+00
         25   -1    0    0    0    0  0.00000000000E+00  0.00000000000E+00  0.99999998245E-14  0.12500000000E+03  0.12500000000E+03 0.  0.
        -11    1    3    3    0    0 -0.26124655564E-02 -0.45821705241E+02 -0.40417626011E+02  0.61100025946E+02  0.51100000000E-03 0. -1.
         23    2    1    0    0    0  0.56187694933E+01 -0.34120664626E+02 -0.20729797385E+02  0.84682326149E+02  0.74468661444E+02 0.  0.
         11    1    3    3    0    0  0.56213819589E+01  0.11701040614E+02  0.19687828626E+02  0.23582300203E+02  0.51100000000E-03 0.  1.
         22    1    1    0    0    0 -0.56187694933E+01  0.34120664626E+02  0.20729797385E+02  0.40317673851E+02  0.00000000000E+00 0. -1.
</event>
<event>
 5    1  0.8778268E-005  0.9118800E+02  0.7818608E-02  0.1130116E+00
         25   -1    0    0    0    0  0.00000000000E+00  0.00000000000E+00  0.99999998245E-14  0.12500000000E+03  0.12500000000E+03 0.  0.
        -11    1    3    3    0    0 -0.17066863334E+02  0.24612707458E+02 -0.20488181552E+02  0.36288135472E+02  0.51100000000E-03 0.  1.
         23    2    1    0    0    0  0.49233615466E+01 -0.28449257221E+02 -0.72180119879E+01  0.95239297347E+02  0.90470018994E+02 0.  0.
         11    1    3    3    0    0  0.21990224881E+02 -0.53061964679E+02  0.13270169565E+02  0.58951161875E+02  0.51100000000E-03 0. -1.
         22    1    1    0    0    0 -0.49233615466E+01  0.28449257221E+02  0.72180119879E+01  0.29760702653E+02  0.00000000000E+00 0. -1.
</event>
<event>
 5    1  0.8778268E-005  0.9118800E+02  0.7818608E-02  0.1130116E+00
         25   -1    0    0    0    0  0.00000000000E+00  0.00000000000E+00  0.99999998245E-14  0.12500000000E+03  0.12500000000E+03 0.  0.
        -11    1    3    3    0    0 -0.30353236006E+02 -0.20670692944E+02 -0.19102519365E+02  0.41394477037E+02  0.51100000000E-03 0.  1.
         23    2    1    0    0    0  0.16123244436E+02  0.83290537022E+01 -0.22275313307E+02  0.96268106055E+02  0.91880501271E+02 0.  0.
         11    1    3    3    0    0  0.46476480443E+02  0.28999746646E+02 -0.31727939424E+01  0.54873629018E+02  0.51100000000E-03 0. -1.
         22    1    1    0    0    0 -0.16123244436E+02 -0.83290537022E+01  0.22275313307E+02  0.28731893945E+02  0.00000000000E+00 0. -1.
</event>
<event>
 5    1  0.8778268E-005  0.9118800E+02  0.7818608E-02  0.1130116E+00
         25   -1    0    0    0    0  0.00000000000E+00  0.00000000000E+00  0.99999998245E-14  0.12500000000E+03  0.12500000000E+03 0.  0.
        -11    1    3    3    0    0  0.18033865152E+02  0.27995032543E+02 -0.12249661718E+02  0.35482338591E+02  0.51100000000E-03 0. -1.
         23    2    1    0    0    0  0.74148986172E+01 -0.28166982413E+02  0.55550762556E+01  0.95348381293E+02  0.90620612022E+02 0.  0.
         11    1    3    3    0    0 -0.10618966535E+02 -0.56162014956E+02  0.17804737974E+02  0.59866042702E+02  0.51100000000E-03 0.  1.
         22    1    1    0    0    0 -0.74148986172E+01  0.28166982413E+02 -0.55550762556E+01  0.29651618707E+02  0.00000000000E+00 0.  1.
</event>
<event>
 5    1  0.8778268E-005  0.9118800E+02  0.7818608E-02  0.1130116E+00
         25   -1    0    0    0    0  0.00000000000E+00  0.00000000000E+00  0.99999998245E-14  0.12500000000E+03  0.12500000000E+03 0.  0.
        -11    1    3    3    0    0  0.21730290938E+02 -0.16893187817E+02  0.19585805488E+02  0.33781490727E+02  0.51100000000E-03 0.  1.
         23    2    1    0    0    0 -0.11383731253E+02  0.12724171422E+02 -0.23687997055E+02  0.95800426713E+02  0.91242022546E+02 0.  0.
         11    1    3    3    0    0 -0.33114022191E+02  0.29617359240E+02 -0.43273802543E+02  0.62018935986E+02  0.51100000000E-03 0. -1.
         22    1    1    0    0    0  0.11383731253E+02 -0.12724171422E+02  0.23687997055E+02  0.29199573287E+02  0.00000000000E+00 0. -1.
</event>
<event>
 5    1  0.8778268E-005  0.9118800E+02  0.7818608E-02  0.1130116E+00
         25   -1    0    0    0    0  0.00000000000E+00  0.00000000000E+00  0.99999998245E-14  0.12500000000E+03  0.12500000000E+03 0.  0.
        -11    1    3    3    0    0 -0.20257948226E+02  0.34622149783E+02  0.17033929832E+02  0.43580184576E+02  0.51100000000E-03 0.  1.
         23    2    1    0    0    0  0.24200251135E+02  0.14169204936E+02 -0.36716376130E+01  0.96717506364E+02  0.92489872911E+02 0.  0.
         11    1    3    3    0    0  0.44458199361E+02 -0.20452944847E+02 -0.20705567445E+02  0.53137321788E+02  0.51100000000E-03 0. -1.
         22    1    1    0    0    0 -0.24200251135E+02 -0.14169204936E+02  0.36716376130E+01  0.28282493636E+02  0.00000000000E+00 0. -1.
</event>
<event>
 5    1  0.8778268E-005  0.9118800E+02  0.7818608E-02  0.1130116E+00
         25   -1    0    0    0    0  0.00000000000E+00  0.00000000000E+00  0.99999998245E-14  0.12500000000E+03  0.12500000000E+03 0.  0.
        -11    1    3    3    0    0 -0.16169818077E+02  0.26501139876E+02  0.51968934696E+02  0.60535473939E+02  0.51100000000E-03 0. -1.
         23    2    1    0    0    0 -0.12939350580E+02  0.26813800098E+02  0.30031364520E+02  0.82711827610E+02  0.71084153667E+02 0.  0.
         11    1    3    3    0    0  0.32304674970E+01  0.31266022215E+00 -0.21937570176E+02  0.22176353671E+02  0.51100000000E-03 0.  1.
         22    1    1    0    0    0  0.12939350580E+02 -0.26813800098E+02 -0.30031364520E+02  0.42288172390E+02  0.00000000000E+00 0. -1.
</event>
<event>
 5    1  0.8778268E-005  0.9118800E+02  0.7818608E-02  0.1130116E+00
         25   -1    0    0    0    0  0.00000000000E+00  0.00000000000E+00  0.99999998245E-14  0.12500000000E+03  0.12500000000E+03 0.  0.
        -11    1    3    3    0    0 -0.39415986202E+02  0.14768721997E+02  0.10141372812E+02  0.43296449744E+02  0.51100000000E-03 0.  1.
         23    2    1    0    0    0 -0.89239498952E+01 -0.14395761753E+02 -0.22638141400E+02  0.96727039698E+02  0.92502756307E+02 0.  0.
         11    1    3    3    0    0  0.30492036307E+02 -0.29164483750E+02 -0.32779514212E+02  0.53430589953E+02  0.51100000000E-03 0. -1.
         22    1    1    0    0    0  0.89239498952E+01  0.14395761753E+02  0.22638141400E+02  0.28272960302E+02  0.00000000000E+00 0. -1.
</event>
<event>
 5    1  0.8778268E-005  0.9118800E+02  0.7818608E-02  0.1130116E+00
         25   -1    0    0    0    0  0.00000000000E+00  0.00000000000E+00  0.99999998245E-14  0.12500000000E+03  0.12500000000E+03 0.  0.
        -11    1    3    3    0    0  0.26463133791E+02  0.55119115453E+01  0.29678243207E+02  0.40143202899E+02  0.51100000000E-03 0.  1.
         23    2    1    0    0    0 -0.11533275263E+02  0.14504094805E+02 -0.16199141641E+02  0.10038704824E+03  0.97322978069E+02 0.  0.
         11    1    3    3    0    0 -0.37996409054E+02  0.89921832594E+01 -0.45877384848E+02  0.60243845341E+02  0.51100000000E-03 0. -1.
         22    1    1    0    0    0  0.11533275263E+02 -0.14504094805E+02  0.16199141641E+02  0.24612951760E+02  0.00000000000E+00 0. -1.
</event>
<event>
 5    1  0.8778268E-005  0.9118800E+02  0.7818608E-02  0.1130116E+00
         25   -1    0    0    0    0  0.00000000000E+00  0.00000000000E+00  0.99999998245E-14  0.12500000000E+03  0.12500000000E+03 0.  0.
        -11    1    3    3    0    0  0.21513313431E+02 -0.44051319618E+02 -0.33005878714E+01  0.49134868428E+02  0.51100000000E-03 0.  1.
         23    2    1    0    0    0  0.12999986566E+01 -0.13543703257E+02  0.25760946579E+02  0.95866715546E+02  0.91332791956E+02 0.  0.
         11    1    3    3    0    0 -0.20213314774E+02  0.30507616360E+02  0.29061534451E+02  0.46731847118E+02  0.51100000000E-03 0. -1.
         22    1    1    0    0    0 -0.12999986566E+01  0.13543703257E+02 -0.25760946579E+02  0.29133284454E+02  0.00000000000E+00 0.  1.
</event>
<event>
 5    1  0.8778268E-005  0.9118800E+02  0.7818608E-02  0.1130116E+00
         25   -1    0    0    0    0  0.00000000000E+00  0.00000000000E+00  0.99999998245E-14  0.12500000000E+03  0.12500000000E+03 0.  0.
        -11    1    3    3    0    0  0.39217649973E+02  0.44612971562E+02 -0.18347908897E+02  0.62169020116E+02  0.51100000000E-03 0. -1.
         23    2    1    0    0    0  0.15688767346E+02  0.23436286117E+02 -0.58826382332E+01  0.96190238454E+02  0.91774504158E+02 0.  0.
         11    1    3    3    0    0 -0.23528882627E+02 -0.21176685446E+02  0.12465270664E+02  0.34021218337E+02  0.51100000000E-03 0.  1.
         22    1    1    0    0    0 -0.15688767346E+02 -0.23436286117E+02  0.58826382332E+01  0.28809761546E+02  0.00000000000E+00 0. -1.
</event>
<event>
 5    1  0.8778268E-005  0.9118800E+02  0.7818608E-02  0.1130116E+00
         25   -1    0    0    0    0  0.00000000000E+00  0.00000000000E+00  0.99999998245E-14  0.12500000000E+03  0.12500000000E+03 0.  0.
        -11    1    3    3    0    0 -0.19126817977E+01  0.27648174261E+02  0.35843750779E+01  0.27945082512E+02  0.51100000000E-03 0.  1.
         23    2    1    0    0    0 -0.95561630749E+01 -0.33488423214E+02  0.62642439279E+01  0.89615886417E+02  0.82334510408E+02 0.  0.
         11    1    3    3    0    0 -0.76434812772E+01 -0.61136597476E+02  0.26798688501E+01  0.61670803905E+02  0.51100000000E-03 0. -1.
         22    1    1    0    0    0  0.95561630749E+01  0.33488423214E+02 -0.62642439279E+01  0.35384113583E+02  0.00000000000E+00 0. -1.
</event>
<event>
 5    1  0.8778268E-005  0.9118800E+02  0.7818608E-02  0.1130116E+00
         25   -1    0    0    0    0  0.00000000000E+00  0.00000000000E+00  0.99999998245E-14  0.12500000000E+03  0.12500000000E+03 0.  0.
        -11    1    3    3    0    0 -0.20714413693E+02 -0.33753327411E+02 -0.29135962238E+02  0.49165824938E+02  0.51100000000E-03 0. -1.
         23    2    1    0    0    0 -0.37293039138E+02 -0.91905821004E+01 -0.74797491046E+01  0.85869650983E+02  0.76435677179E+02 0.  0.
         11    1    3    3    0    0 -0.16578625445E+02  0.24562745311E+02  0.21656213134E+02  0.36703826046E+02  0.51100000000E-03 0.  1.
         22    1    1    0    0    0  0.37293039138E+02  0.91905821004E+01  0.74797491046E+01  0.39130349017E+02  0.00000000000E+00 0.  1.
</event>
<event>
 5    1  0.8778268E-005  0.9118800E+02  0.7818608E-02  0.1130116E+00
         25   -1    0    0    0    0  0.00000000000E+00  0.00000000000E+00  0.99999998245E-14  0.12500000000E+03  0.12500000000E+03 0.  0.
        -11    1    3    3    0    0  0.44567326546E+02 -0.67091442104E+01  0.13937167836E+02  0.47175246253E+02  0.51100000000E-03 0.  1.
         23    2    1    0    0    0  0.17848980461E+02 -0.29291594160E+02  0.23474229065E+02  0.83435315205E+02  0.72345205792E+02 0.  0.
         11    1    3    3    0    0 -0.26718346085E+02 -0.22582449949E+02  0.95370612291E+01  0.36260068951E+02  0.51100000000E-03 0. -1.
         22    1    1    0    0    0 -0.17848980461E+02  0.29291594160E+02 -0.23474229065E+02  0.41564684795E+02  0.00000000000E+00 0. -1.
</event>
<event>
 5    1  0.8778268E-005  0.9118800E+02  0.7818608E-02  0.1130116E+00
         25   -1    0    0    0    0  0.00000000000E+00  0.00000000000E+00  0.99999998245E-14  0.12500000000E+03  0.12500000000E+03 0.  0.
        -11    1    3    3    0    0  0.33293792120E+02 -0.14754095453E+02 -0.99301259133E+01  0.37746090225E+02  0.51100000000E-03 0.  1.
         23    2    1    0    0    0 -0.14910751211E+02  0.19658872628E+02 -0.13110542618E+02  0.97059203619E+02  0.92950529341E+02 0.  0.
         11    1    3    3    0    0 -0.48204543331E+02  0.34412968081E+02 -0.31804167048E+01  0.59313113394E+02  0.51100000000E-03 0. -1.
         22    1    1    0    0    0  0.14910751211E+02 -0.19658872628E+02  0.13110542618E+02  0.27940796381E+02  0.00000000000E+00 0. -1.
</event>
<event>
 5    1  0.8778268E-005  0.9118800E+02  0.7818608E-02  0.1130116E+00
         25   -1    0    0    0    0  0.00000000000E+00  0.00000000000E+00  0.99999998245E-14  0.12500000000E+03  0.12500000000E+03 0.  0.
        -11    1    3    3    0    0  0.11039755241E+02  0.82579516448E+01 -0.60380430126E+02  0.61934370939E+02  0.51100000000E-03 0. -1.
         23    2    1    0    0    0  0.10048835969E+02  0.65574910429E+01 -0.26070718126E+02  0.96300485427E+02  0.91924541646E+02 0.  0.
         11    1    3    3    0    0 -0.99091927269E+00 -0.17004606019E+01  0.34309712000E+02  0.34366114488E+02  0.51100000000E-03 0.  1.
         22    1    1    0    0    0 -0.10048835969E+02 -0.65574910429E+01  0.26070718126E+02  0.28699514573E+02  0.00000000000E+00 0. -1.
</event>
<event>
 5    1  0.8778268E-005  0.9118800E+02  0.7818608E-02  0.1130116E+00
         25   -1    0    0    0    0  0.00000000000E+00  0.00000000000E+00  0.99999998245E-14  0.12500000000E+03  0.12500000000E+03 0.  0.
        -11    1    3    3    0    0 -0.46973926040E+02  0.20357414012E+02 -0.19609926138E+02  0.54822652583E+02  0.51100000000E-03 0. -1.
         23    2    1    0    0    0 -0.67761110023E+01 -0.11922098263E+02 -0.11687447378E+02  0.10698199419E+03  0.10545377445E+03 0.  0.
         11    1    3    3    0    0  0.40197815037E+02 -0.32279512275E+02  0.79224787607E+01  0.52159341603E+02  0.51100000000E-03 0.  1.
         22    1    1    0    0    0  0.67761110023E+01  0.11922098263E+02  0.11687447378E+02  0.18018005814E+02  0.00000000000E+00 0. -1.
</event>
<event>
 5    1  0.8778268E-005  0.9118800E+02  0.7818608E-02  0.1130116E+00
         25   -1    0    0    0    0  0.00000000000E+00  0.00000000000E+00  0.99999998245E-14  0.12500000000E+03  0.12500000000E+03 0.  0.
        -11    1    3    3    0    0  0.38434787911E+02 -0.24841931216E+02 -0.18764879432E+02  0.49461855694E+02  0.51100000000E-03 0. -1.
         23    2    1    0    0    0  0.25678989943E+02  0.14706412707E+02  0.81162982065E+00  0.95396827160E+02  0.90687412523E+02 0.  0.
         11    1    3    3    0    0 -0.12755797968E+02  0.39548343923E+02  0.19576509253E+02  0.45934971466E+02  0.51100000000E-03 0.  1.
         22    1    1    0    0    0 -0.25678989943E+02 -0.14706412707E+02 -0.81162982065E+00  0.29603172840E+02  0.00000000000E+00 0. -1.
</event>
<event>
 5    1  0.8778268E-005  0.9118800E+02  0.7818608E-02  0.1130116E+00
         25   -1    0    0    0    0  0.00000000000E+00  0.00000000000E+00  0.99999998245E-14  0.12500000000E+03  0.12500000000E+03 0.  0.
        -11    1    3    3    0    0  0.59359951227E+01  0.35332891812E+01 -0.25463901309E+02  0.26384283971E+02  0.51100000000E-03 0. -1.
         23    2    1    0    0    0 -0.13915589239E+02 -0.70888341964E+00  0.33485612944E+02  0.88731109559E+02  0.80980104901E+02 0.  0.
         11    1    3    3    0    0 -0.19851584362E+02 -0.42421726008E+01  0.58949514253E+02  0.62346825588E+02  0.51100000000E-03 0.  1.
         22    1    1    0    0    0  0.13915589239E+02  0.70888341964E+00 -0.33485612944E+02  0.36268890441E+02  0.00000000000E+00 0.  1.
</event>
<event>
 5    1  0.8778268E-005  0.9118800E+02  0.7818608E-02  0.1130116E+00
         25   -1    0    0    0    0  0.00000000000E+00  0.00000000000E+00  0.99999998245E-14  0.12500000000E+03  0.12500000000E+03 0.  0.
        -11    1    3    3    0    0 -0.27641717154E+02 -0.28858341721E+02  0.31355727020E+01  0.40083665383E+02  0.51100000000E-03 0.  1.
         23    2    1    0    0    0 -0.14935420039E+02  0.24790712700E+02 -0.43854874535E+01  0.95727509362E+02  0.91142072286E+02 0.  0.
         11    1    3    3    0    0  0.12706297115E+02  0.53649054421E+02 -0.75210601555E+01  0.55643843979E+02  0.51100000000E-03 0. -1.
         22    1    1    0    0    0  0.14935420039E+02 -0.24790712700E+02  0.43854874535E+01  0.29272490638E+02  0.00000000000E+00 0. -1.
</event>
<event>
 5    1  0.8778268E-005  0.9118800E+02  0.7818608E-02  0.1130116E+00
         25   -1    0    0    0    0  0.00000000000E+00  0.00000000000E+00  0.99999998245E-14  0.12500000000E+03  0.12500000000E+03 0.  0.
        -11    1    3    3    0    0 -0.20166617386E+02  0.46532198430E+02  0.34762901124E+02  0.61484935085E+02  0.51100000000E-03 0.  1.
         23    2    1    0    0    0 -0.61795293937E+01  0.18436223733E+02  0.22705761449E+02  0.95106312840E+02  0.90286090900E+02 0.  0.
         11    1    3    3    0    0  0.13987087993E+02 -0.28095974698E+02 -0.12057139675E+02  0.33621377755E+02  0.51100000000E-03 0. -1.
         22    1    1    0    0    0  0.61795293937E+01 -0.18436223733E+02 -0.22705761449E+02  0.29893687160E+02  0.00000000000E+00 0.  1.
</event>
<event>
 5    1  0.8778268E-005  0.9118800E+02  0.7818608E-02  0.1130116E+00
         25   -1    0    0    0    0  0.00000000000E+00  0.00000000000E+00  0.99999998245E-14  0.12500000000E+03  0.12500000000E+03 0.  0.
        -11    1    3    3    0    0 -0.17286017213E+02  0.49799152149E+01  0.35773305297E+02  0.40041669780E+02  0.51100000000E-03 0.  1.
         23    2    1    0    0    0 -0.63305016855E+01 -0.25269007209E+02 -0.10927192652E+02  0.96751079380E+02  0.92535235695E+02 0.  0.
         11    1    3    3    0    0  0.10955515528E+02 -0.30248922424E+02 -0.46700497949E+02  0.56709409600E+02  0.51100000000E-03 0. -1.
         22    1    1    0    0    0  0.63305016855E+01  0.25269007209E+02  0.10927192652E+02  0.28248920620E+02  0.00000000000E+00 0. -1.
</event>
<event>
 5    1  0.8778268E-005  0.9118800E+02  0.7818608E-02  0.1130116E+00
         25   -1    0    0    0    0  0.00000000000E+00  0.00000000000E+00  0.99999998245E-14  0.12500000000E+03  0.12500000000E+03 0.  0.
        -11    1    3    3    0    0 -0.26943825841E+02  0.14778947003E+01  0.56304909236E+02  0.62437142216E+02  0.51100000000E-03 0. -1.
         23    2    1    0    0    0 -0.10695530764E+02 -0.57776442372E+00  0.25900916413E+02  0.96971698926E+02  0.92832778325E+02 0.  0.
         11    1    3    3    0    0  0.16248295077E+02 -0.20556591240E+01 -0.30403992823E+02  0.34534556711E+02  0.51100000000E-03 0.  1.
         22    1    1    0    0    0  0.10695530764E+02  0.57776442372E+00 -0.25900916413E+02  0.28028301074E+02  0.00000000000E+00 0. -1.
</event>
<event>
 5    1  0.8778268E-005  0.9118800E+02  0.7818608E-02  0.1130116E+00
         25   -1    0    0    0    0  0.00000000000E+00  0.00000000000E+00  0.99999998245E-14  0.12500000000E+03  0.12500000000E+03 0.  0.
        -11    1    3    3    0    0  0.11276587427E+02 -0.11194445678E+02  0.46181043076E+02  0.48838159035E+02  0.51100000000E-03 0.  1.
         23    2    1    0    0    0  0.88778567324E+01  0.60587062599E+01 -0.11598929177E+02  0.10918673279E+03  0.10803556451E+03 0.  0.
         11    1    3    3    0    0 -0.23987306947E+01  0.17253151938E+02 -0.57779972254E+02  0.60348573758E+02  0.51100000000E-03 0. -1.
         22    1    1    0    0    0 -0.88778567324E+01 -0.60587062599E+01  0.11598929177E+02  0.15813267207E+02  0.00000000000E+00 0. -1.
</event>
<event>
 5    1  0.8778268E-005  0.9118800E+02  0.7818608E-02  0.1130116E+00
         25   -1    0    0    0    0  0.00000000000E+00  0.00000000000E+00  0.99999998245E-14  0.12500000000E+03  0.12500000000E+03 0.  0.
        -11    1    3    3    0    0 -0.18044089215E+02 -0.29439494984E+02 -0.15277725751E+02  0.37758203412E+02  0.51100000000E-03 0.  1.
         23    2    1    0    0    0  0.47303420570E+00  0.47547274116E+01  0.28378630808E+02  0.96221920136E+02  0.91817645549E+02 0.  0.
         11    1    3    3    0    0  0.18517123420E+02  0.34194222396E+02  0.43656356559E+02  0.58463716725E+02  0.51100000000E-03 0. -1.
         22    1    1    0    0    0 -0.47303420570E+00 -0.47547274116E+01 -0.28378630808E+02  0.28778079864E+02  0.00000000000E+00 0. -1.
</event>
<event>
 5    1  0.8778268E-005  0.9118800E+02  0.7818608E-02  0.1130116E+00
         25   -1    0    0    0    0  0.00000000000E+00  0.00000000000E+00  0.99999998245E-14  0.12500000000E+03  0.12500000000E+03 0.  0.
        -11    1    3    3    0    0 -0.13501867331E+02 -0.30972495480E+02 -0.36374079206E+02  0.49645438220E+02  0.51100000000E-03 0.  1.
         23    2    1    0    0    0  0.84886376023E+01 -0.26764425822E+02  0.48010316061E+01  0.96514190157E+02  0.92214681799E+02 0.  0.
         11    1    3    3    0    0  0.21990504933E+02  0.42080696586E+01  0.41175110812E+02  0.46868751937E+02  0.51100000000E-03 0. -1.
         22    1    1    0    0    0 -0.84886376023E+01  0.26764425822E+02 -0.48010316061E+01  0.28485809843E+02  0.00000000000E+00 0. -1.
</event>
<event>
 5    1  0.8778268E-005  0.9118800E+02  0.7818608E-02  0.1130116E+00
         25   -1    0    0    0    0  0.00000000000E+00  0.00000000000E+00  0.99999998245E-14  0.12500000000E+03  0.12500000000E+03 0.  0.
        -11    1    3    3    0    0  0.35962048617E+01 -0.20371715583E+02 -0.31315258529E+02  0.37531119117E+02  0.51100000000E-03 0.  1.
         23    2    1    0    0    0 -0.25730267840E+02  0.12689666896E+01  0.13996369236E+02  0.95681826261E+02  0.91079397041E+02 0.  0.
         11    1    3    3    0    0 -0.29326472702E+02  0.21640682273E+02  0.45311627765E+02  0.58150707144E+02  0.51100000000E-03 0. -1.
         22    1    1    0    0    0  0.25730267840E+02 -0.12689666896E+01 -0.13996369236E+02  0.29318173739E+02  0.00000000000E+00 0. -1.
</event>
<event>
 5    1  0.8778268E-005  0.9118800E+02  0.7818608E-02  0.1130116E+00
         25   -1    0    0    0    0  0.00000000000E+00  0.00000000000E+00  0.99999998245E-14  0.12500000000E+03  0.12500000000E+03 0.  0.
        -11    1    3    3    0    0 -0.33329044752E+02  0.14135369544E+02  0.16682935546E+02  0.39861688812E+02  0.51100000000E-03 0.  1.
         23    2    1    0    0    0  0.16299022458E+02 -0.11557199401E+02  0.21125505147E+02  0.95922277276E+02  0.91408803291E+02 0.  0.
         11    1    3    3    0    0  0.49628067210E+02 -0.25692568946E+02  0.44425696005E+01  0.56060588464E+02  0.51100000000E-03 0. -1.
         22    1    1    0    0    0 -0.16299022458E+02  0.11557199401E+02 -0.21125505147E+02  0.29077722724E+02  0.00000000000E+00 0. -1.
</event>
<event>
 5    1  0.8778268E-005  0.9118800E+02  0.7818608E-02  0.1130116E+00
         25   -1    0    0    0    0  0.00000000000E+00  0.00000000000E+00  0.99999998245E-14  0.12500000000E+03  0.12500000000E+03 0.  0.
        -11    1    3    3    0    0 -0.12364550553E+02 -0.11639626230E+02 -0.49725104392E+02  0.52544733477E+02  0.51100000000E-03 0.  1.
         23    2    1    0    0    0 -0.18681877258E+02  0.15411571262E+02 -0.17326960933E+02  0.95221607804E+02  0.90445574524E+02 0.  0.
         11    1    3    3    0    0 -0.63173267051E+01  0.27051197492E+02  0.32398143459E+02  0.42676874327E+02  0.51100000000E-03 0. -1.
         22    1    1    0    0    0  0.18681877258E+02 -0.15411571262E+02  0.17326960933E+02  0.29778392196E+02  0.00000000000E+00 0.  1.
</event>
<event>
 5    1  0.8778268E-005  0.9118800E+02  0.7818608E-02  0.1130116E+00
         25   -1    0    0    0    0  0.00000000000E+00  0.00000000000E+00  0.99999998245E-14  0.12500000000E+03  0.12500000000E+03 0.  0.
        -11    1    3    3    0    0  0.23541730629E+01  0.11559181268E+02  0.53600933256E+02  0.54883666501E+02  0.51100000000E-03 0.  1.
         23    2    1    0    0    0  0.21735837943E+02  0.33442551150E+00  0.18849588641E+02  0.96227348342E+02  0.91825035178E+02 0.  0.
         11    1    3    3    0    0  0.19381664880E+02 -0.11224755756E+02 -0.34751344615E+02  0.41343681841E+02  0.51100000000E-03 0. -1.
         22    1    1    0    0    0 -0.21735837943E+02 -0.33442551150E+00 -0.18849588641E+02  0.28772651658E+02  0.00000000000E+00 0.  1.
</event>
<event>
 5    1  0.8778268E-005  0.9118800E+02  0.7818608E-02  0.1130116E+00
         25   -1    0    0    0    0  0.00000000000E+00  0.00000000000E+00  0.99999998245E-14  0.12500000000E+03  0.12500000000E+03 0.  0.
        -11    1    3    3    0    0  0.29372452804E+02 -0.74487664752E+01 -0.45465243160E+02  0.54638021941E+02  0.51100000000E-03 0.  1.
         23    2    1    0    0    0  0.20367096634E+02 -0.19033544528E+02 -0.63575389849E+01  0.96407820221E+02  0.92070380988E+02 0.  0.
         11    1    3    3    0    0 -0.90053561699E+01 -0.11584778052E+02  0.39107704175E+02  0.41769798280E+02  0.51100000000E-03 0. -1.
         22    1    1    0    0    0 -0.20367096634E+02  0.19033544528E+02  0.63575389849E+01  0.28592179779E+02  0.00000000000E+00 0.  1.
</event>
<event>
 5    1  0.8778268E-005  0.9118800E+02  0.7818608E-02  0.1130116E+00
         25   -1    0    0    0    0  0.00000000000E+00  0.00000000000E+00  0.99999998245E-14  0.12500000000E+03  0.12500000000E+03 0.  0.
        -11    1    3    3    0    0  0.97673797991E+01 -0.48323459426E+01  0.37266035780E+02  0.38826675089E+02  0.51100000000E-03 0.  1.
         23    2    1    0    0    0  0.13482609567E+02  0.14493000749E+02 -0.18464919576E+02  0.97930070440E+02  0.94114385776E+02 0.  0.
         11    1    3    3    0    0  0.37152297683E+01  0.19325346692E+02 -0.55730955355E+02  0.59103395351E+02  0.51100000000E-03 0. -1.
         22    1    1    0    0    0 -0.13482609567E+02 -0.14493000749E+02  0.18464919576E+02  0.27069929560E+02  0.00000000000E+00 0. -1.
</event>
<event>
 5    1  0.8778268E-005  0.9118800E+02  0.7818608E-02  0.1130116E+00
         25   -1    0    0    0    0  0.00000000000E+00  0.00000000000E+00  0.99999998245E-14  0.12500000000E+03  0.12500000000E+03 0.  0.
        -11    1    3    3    0    0  0.30373004420E+01  0.33106956559E+02  0.38604581399E+02  0.50947124275E+02  0.51100000000E-03 0.  1.
         23    2    1    0    0    0 -0.36307153890E+01  0.27912496640E+02 -0.58944402099E+01  0.96241801373E+02  0.91844707758E+02 0.  0.
         11    1    3    3    0    0 -0.66680158311E+01 -0.51944599198E+01 -0.44499021609E+02  0.45294677098E+02  0.51100000000E-03 0. -1.
         22    1    1    0    0    0  0.36307153890E+01 -0.27912496640E+02  0.58944402099E+01  0.28758198627E+02  0.00000000000E+00 0.  1.
</event>
<event>
 5    1  0.8778268E-005  0.9118800E+02  0.7818608E-02  0.1130116E+00
         25   -1    0    0    0    0  0.00000000000E+00  0.00000000000E+00  0.99999998245E-14  0.12500000000E+03  0.12500000000E+03 0.  0.
        -11    1    3    3    0    0 -0.13449498914E+02 -0.66348568973E+01  0.44958109649E+02  0.47393480254E+02  0.51100000000E-03 0.  1.
         23    2    1    0    0    0 -0.19211621858E+02  0.20599133091E+02  0.45417892355E+01  0.96468639220E+02  0.92152915336E+02 0.  0.
         11    1    3    3    0    0 -0.57621229436E+01  0.27233989989E+02 -0.40416320413E+02  0.49075158966E+02  0.51100000000E-03 0. -1.
         22    1    1    0    0    0  0.19211621858E+02 -0.20599133091E+02 -0.45417892355E+01  0.28531360780E+02  0.00000000000E+00 0.  1.
</event>
<event>
 5    1  0.8778268E-005  0.9118800E+02  0.7818608E-02  0.1130116E+00
         25   -1    0    0    0    0  0.00000000000E+00  0.00000000000E+00  0.99999998245E-14  0.12500000000E+03  0.12500000000E+03 0.  0.
        -11    1    3    3    0    0  0.16050199203E+02  0.76123260460E+00  0.37049128548E+02  0.40383490388E+02  0.51100000000E-03 0.  1.
         23    2    1    0    0    0 -0.31606897197E+00 -0.35640492634E+02  0.22426560014E+02  0.82889488143E+02  0.71395882484E+02 0.  0.
         11    1    3    3    0    0 -0.16366268175E+02 -0.36401725239E+02 -0.14622568534E+02  0.42505997755E+02  0.51100000000E-03 0. -1.
         22    1    1    0    0    0  0.31606897197E+00  0.35640492634E+02 -0.22426560014E+02  0.42110511857E+02  0.00000000000E+00 0. -1.
</event>
<event>
 5    1  0.8778268E-005  0.9118800E+02  0.7818608E-02  0.1130116E+00
         25   -1    0    0    0    0  0.00000000000E+00  0.00000000000E+00  0.99999998245E-14  0.12500000000E+03  0.12500000000E+03 0.  0.
        -11    1    3    3    0    0  0.55808760815E+02  0.18507816214E+02  0.18205376827E+02  0.61551545800E+02  0.51100000000E-03 0. -1.
         23    2    1    0    0    0  0.36802455909E+02  0.14847278141E+02  0.19163228815E+02  0.80930829736E+02  0.67880096008E+02 0.  0.
         11    1    3    3    0    0 -0.19006304906E+02 -0.36605380734E+01  0.95785198846E+00  0.19379283936E+02  0.51100000000E-03 0.  1.
         22    1    1    0    0    0 -0.36802455909E+02 -0.14847278141E+02 -0.19163228815E+02  0.44069170264E+02  0.00000000000E+00 0. -1.
</event>
<event>
 5    1  0.8778268E-005  0.9118800E+02  0.7818608E-02  0.1130116E+00
         25   -1    0    0    0    0  0.00000000000E+00  0.00000000000E+00  0.99999998245E-14  0.12500000000E+03  0.12500000000E+03 0.  0.
        -11    1    3    3    0    0 -0.30587869553E+02  0.33272667132E+02  0.16507288883E+02  0.48116304184E+02  0.51100000000E-03 0.  1.
         23    2    1    0    0    0 -0.29419257672E+01 -0.35632109790E+01  0.28837583142E+02  0.95794562131E+02  0.91233987815E+02 0.  0.
         11    1    3    3    0    0  0.27645943786E+02 -0.36835878111E+02  0.12330294259E+02  0.47678257946E+02  0.51100000000E-03 0. -1.
         22    1    1    0    0    0  0.29419257672E+01  0.35632109790E+01 -0.28837583142E+02  0.29205437869E+02  0.00000000000E+00 0.  1.
</event>
<event>
 5    1  0.8778268E-005  0.9118800E+02  0.7818608E-02  0.1130116E+00
         25   -1    0    0    0    0  0.00000000000E+00  0.00000000000E+00  0.99999998245E-14  0.12500000000E+03  0.12500000000E+03 0.  0.
        -11    1    3    3    0    0 -0.19175115077E+02  0.18093420556E+02  0.54326034940E+02  0.60385221521E+02  0.51100000000E-03 0. -1.
         23    2    1    0    0    0  0.11270350116E+01  0.13718623318E+02  0.26851008835E+02  0.94826377262E+02  0.89897688044E+02 0.  0.
         11    1    3    3    0    0  0.20302150088E+02 -0.43747972377E+01 -0.27475026105E+02  0.34441155741E+02  0.51100000000E-03 0.  1.
         22    1    1    0    0    0 -0.11270350116E+01 -0.13718623318E+02 -0.26851008835E+02  0.30173622738E+02  0.00000000000E+00 0. -1.
</event>
<event>
 5    1  0.8778268E-005  0.9118800E+02  0.7818608E-02  0.1130116E+00
         25   -1    0    0    0    0  0.00000000000E+00  0.00000000000E+00  0.99999998245E-14  0.12500000000E+03  0.12500000000E+03 0.  0.
        -11    1    3    3    0    0  0.38754509726E+02 -0.24329503111E+02  0.17034036164E+02  0.48826172633E+02  0.51100000000E-03 0.  1.
         23    2    1    0    0    0  0.39358662525E+02 -0.15353780450E+02 -0.13492263491E+02  0.80650433328E+02  0.67361772038E+02 0.  0.
         11    1    3    3    0    0  0.60415279874E+00  0.89757226607E+01 -0.30526299655E+02  0.31824260695E+02  0.51100000000E-03 0. -1.
         22    1    1    0    0    0 -0.39358662525E+02  0.15353780450E+02  0.13492263491E+02  0.44349566672E+02  0.00000000000E+00 0.  1.
</event>
<event>
 5    1  0.8778268E-005  0.9118800E+02  0.7818608E-02  0.1130116E+00
         25   -1    0    0    0    0  0.00000000000E+00  0.00000000000E+00  0.99999998245E-14  0.12500000000E+03  0.12500000000E+03 0.  0.
        -11    1    3    3    0    0  0.19823367354E+02 -0.29653980536E+02  0.52532957024E+01  0.36054425121E+02  0.51100000000E-03 0. -1.
         23    2    1    0    0    0 -0.41921652808E+00  0.20903153115E+02 -0.19984984485E+02  0.96077393660E+02  0.91620676788E+02 0.  0.
         11    1    3    3    0    0 -0.20242583882E+02  0.50557133650E+02 -0.25238280187E+02  0.60022968539E+02  0.51100000000E-03 0.  1.
         22    1    1    0    0    0  0.41921652808E+00 -0.20903153115E+02  0.19984984485E+02  0.28922606340E+02  0.00000000000E+00 0.  1.
</event>
<event>
 5    1  0.8778268E-005  0.9118800E+02  0.7818608E-02  0.1130116E+00
         25   -1    0    0    0    0  0.00000000000E+00  0.00000000000E+00  0.99999998245E-14  0.12500000000E+03  0.12500000000E+03 0.  0.
        -11    1    3    3    0    0 -0.41465593053E+01 -0.58567839235E+02  0.23213917049E+00  0.58714901308E+02  0.51100000000E-03 0.  1.
         23    2    1    0    0    0 -0.12362467917E+02 -0.26180457466E+02  0.11310284123E+02  0.93916732908E+02  0.88623829905E+02 0.  0.
         11    1    3    3    0    0 -0.82159086114E+01  0.32387381769E+02  0.11078144953E+02  0.35201831600E+02  0.51100000000E-03 0. -1.
         22    1    1    0    0    0  0.12362467917E+02  0.26180457466E+02 -0.11310284123E+02  0.31083267092E+02  0.00000000000E+00 0.  1.
</event>
<event>
 5    1  0.8778268E-005  0.9118800E+02  0.7818608E-02  0.1130116E+00
         25   -1    0    0    0    0  0.00000000000E+00  0.00000000000E+00  0.99999998245E-14  0.12500000000E+03  0.12500000000E+03 0.  0.
        -11    1    3    3    0    0 -0.53756405232E+02 -0.27939330755E+02  0.44191905299E+01  0.60744436385E+02  0.51100000000E-03 0. -1.
         23    2    1    0    0    0 -0.27858416234E+02 -0.54627821953E+01 -0.46926767959E+01  0.96225800447E+02  0.91822928029E+02 0.  0.
         11    1    3    3    0    0  0.25897988998E+02  0.22476548560E+02 -0.91118673258E+01  0.35481364062E+02  0.51100000000E-03 0.  1.
         22    1    1    0    0    0  0.27858416234E+02  0.54627821953E+01  0.46926767959E+01  0.28774199553E+02  0.00000000000E+00 0. -1.
</event>
<event>
 5    1  0.8778268E-005  0.9118800E+02  0.7818608E-02  0.1130116E+00
         25   -1    0    0    0    0  0.00000000000E+00  0.00000000000E+00  0.99999998245E-14  0.12500000000E+03  0.12500000000E+03 0.  0.
        -11    1    3    3    0    0  0.99391707838E+01 -0.47046768467E+02 -0.33206473036E+02  0.58436764034E+02  0.51100000000E-03 0. -1.
         23    2    1    0    0    0  0.19767751333E+02 -0.17278699959E+02 -0.13337754269E+02  0.95551516949E+02  0.90900380842E+02 0.  0.
         11    1    3    3    0    0  0.98285805495E+01  0.29768068507E+02  0.19868718767E+02  0.37114752915E+02  0.51100000000E-03 0.  1.
         22    1    1    0    0    0 -0.19767751333E+02  0.17278699959E+02  0.13337754269E+02  0.29448483051E+02  0.00000000000E+00 0. -1.
</event>
<event>
 5    1  0.8778268E-005  0.9118800E+02  0.7818608E-02  0.1130116E+00
         25   -1    0    0    0    0  0.00000000000E+00  0.00000000000E+00  0.99999998245E-14  0.12500000000E+03  0.12500000000E+03 0.  0.
        -11    1    3    3    0    0 -0.30587802458E+02 -0.11613139114E+02 -0.27474393118E+02  0.42723774842E+02  0.51100000000E-03 0. -1.
         23    2    1    0    0    0  0.13366723755E+02 -0.26569325701E+02 -0.32839390485E+01  0.95077055161E+02  0.90245574907E+02 0.  0.
         11    1    3    3    0    0  0.43954526213E+02 -0.14956186588E+02  0.24190454069E+02  0.52353280319E+02  0.51100000000E-03 0.  1.
         22    1    1    0    0    0 -0.13366723755E+02  0.26569325701E+02  0.32839390485E+01  0.29922944839E+02  0.00000000000E+00 0.  1.
</event>
<event>
 5    1  0.8778268E-005  0.9118800E+02  0.7818608E-02  0.1130116E+00
         25   -1    0    0    0    0  0.00000000000E+00  0.00000000000E+00  0.99999998245E-14  0.12500000000E+03  0.12500000000E+03 0.  0.
        -11    1    3    3    0    0  0.12974250601E+02  0.37033825173E+02  0.23628808585E+00  0.39241447704E+02  0.51100000000E-03 0.  1.
         23    2    1    0    0    0  0.16393724508E+02 -0.17622810621E+02 -0.15683710308E+02  0.96272027108E+02  0.91885835563E+02 0.  0.
         11    1    3    3    0    0  0.34194739068E+01 -0.54656635794E+02 -0.15919998394E+02  0.57030579405E+02  0.51100000000E-03 0. -1.
         22    1    1    0    0    0 -0.16393724508E+02  0.17622810621E+02  0.15683710308E+02  0.28727972892E+02  0.00000000000E+00 0.  1.
</event>
<event>
 5    1  0.8778268E-005  0.9118800E+02  0.7818608E-02  0.1130116E+00
         25   -1    0    0    0    0  0.00000000000E+00  0.00000000000E+00  0.99999998245E-14  0.12500000000E+03  0.12500000000E+03 0.  0.
        -11    1    3    3    0    0 -0.76080533586E+01 -0.29055333413E+02  0.54733137081E+02  0.62432452864E+02  0.51100000000E-03 0.  1.
         23    2    1    0    0    0 -0.34015105606E+01 -0.16430447741E+02  0.26667390450E+02  0.93493181682E+02  0.88024402416E+02 0.  0.
         11    1    3    3    0    0  0.42065427981E+01  0.12624885671E+02 -0.28065746631E+02  0.31060728819E+02  0.51100000000E-03 0. -1.
         22    1    1    0    0    0  0.34015105606E+01  0.16430447741E+02 -0.26667390450E+02  0.31506818318E+02  0.00000000000E+00 0.  1.
</event>
<event>
 5    1  0.8778268E-005  0.9118800E+02  0.7818608E-02  0.1130116E+00
         25   -1    0    0    0    0  0.00000000000E+00  0.00000000000E+00  0.99999998245E-14  0.12500000000E+03  0.12500000000E+03 0.  0.
        -11    1    3    3    0    0 -0.39066207765E+02  0.24699248141E+02 -0.19239201810E+02  0.50063642840E+02  0.51100000000E-03 0.  1.
         23    2    1    0    0    0 -0.25476416263E+02 -0.90784007697E+01  0.93797233254E+01  0.96374061486E+02  0.92024536791E+02 0.  0.
         11    1    3    3    0    0  0.13589791502E+02 -0.33777648910E+02  0.28618925136E+02  0.46310418646E+02  0.51100000000E-03 0. -1.
         22    1    1    0    0    0  0.25476416263E+02  0.90784007697E+01 -0.93797233254E+01  0.28625938514E+02  0.00000000000E+00 0.  1.
</event>
<event>
 5    1  0.8778268E-005  0.9118800E+02  0.7818608E-02  0.1130116E+00
         25   -1    0    0    0    0  0.00000000000E+00  0.00000000000E+00  0.99999998245E-14  0.12500000000E+03  0.12500000000E+03 0.  0.
        -11    1    3    3    0    0  0.97594953771E+01  0.45171360038E+02 -0.20905801691E+01  0.46260891078E+02  0.51100000000E-03 0. -1.
         23    2    1    0    0    0  0.28269199123E+02 -0.60237202790E+00  0.54383457857E+01  0.96206145170E+02  0.91796167090E+02 0.  0.
         11    1    3    3    0    0  0.18509703746E+02 -0.45773732066E+02  0.75289259549E+01  0.49945254091E+02  0.51100000000E-03 0.  1.
         22    1    1    0    0    0 -0.28269199123E+02  0.60237202790E+00 -0.54383457857E+01  0.28793854830E+02  0.00000000000E+00 0.  1.
</event>
<event>
 5    1  0.8778268E-005  0.9118800E+02  0.7818608E-02  0.1130116E+00
         25   -1    0    0    0    0  0.00000000000E+00  0.00000000000E+00  0.99999998245E-14  0.12500000000E+03  0.12500000000E+03 0.  0.
        -11    1    3    3    0    0 -0.18064147166E+02  0.12401328909E+02  0.56377205812E+02  0.60485499973E+02  0.51100000000E-03 0. -1.
         23    2    1    0    0    0  0.27163534510E+00  0.12933785661E+02  0.25670928885E+02  0.96253640455E+02  0.91860819252E+02 0.  0.
         11    1    3    3    0    0  0.18335782511E+02  0.53245675148E+00 -0.30706276927E+02  0.35768140481E+02  0.51100000000E-03 0.  1.
         22    1    1    0    0    0 -0.27163534510E+00 -0.12933785661E+02 -0.25670928885E+02  0.28746359545E+02  0.00000000000E+00 0. -1.
</event>
<event>
 5    1  0.8778268E-005  0.9118800E+02  0.7818608E-02  0.1130116E+00
         25   -1    0    0    0    0  0.00000000000E+00  0.00000000000E+00  0.99999998245E-14  0.12500000000E+03  0.12500000000E+03 0.  0.
        -11    1    3    3    0    0 -0.30383743431E+02  0.21417200450E+02 -0.17610652095E+02  0.41133969022E+02  0.51100000000E-03 0. -1.
         23    2    1    0    0    0 -0.10737895847E+02 -0.27314423856E+02 -0.83454704484E+01  0.94487264383E+02  0.89424918764E+02 0.  0.
         11    1    3    3    0    0  0.19645847584E+02 -0.48731624306E+02  0.92651816471E+01  0.53353295362E+02  0.51100000000E-03 0.  1.
         22    1    1    0    0    0  0.10737895847E+02  0.27314423856E+02  0.83454704484E+01  0.30512735617E+02  0.00000000000E+00 0. -1.
</event>
<event>
 5    1  0.8778268E-005  0.9118800E+02  0.7818608E-02  0.1130116E+00
         25   -1    0    0    0    0  0.00000000000E+00  0.00000000000E+00  0.99999998245E-14  0.12500000000E+03  0.12500000000E+03 0.  0.
        -11    1    3    3    0    0  0.48765144813E+00 -0.24120294024E+02 -0.22853542625E+02  0.33231172091E+02  0.51100000000E-03 0. -1.
         23    2    1    0    0    0  0.54839577869E+01  0.20964764775E+02  0.19910241138E+02  0.95571903608E+02  0.90928410862E+02 0.  0.
         11    1    3    3    0    0  0.49963063388E+01  0.45085058800E+02  0.42763783763E+02  0.62340731517E+02  0.51100000000E-03 0.  1.
         22    1    1    0    0    0 -0.54839577869E+01 -0.20964764775E+02 -0.19910241138E+02  0.29428096392E+02  0.00000000000E+00 0.  1.
</event>
<event>
 5    1  0.8778268E-005  0.9118800E+02  0.7818608E-02  0.1130116E+00
         25   -1    0    0    0    0  0.00000000000E+00  0.00000000000E+00  0.99999998245E-14  0.12500000000E+03  0.12500000000E+03 0.  0.
        -11    1    3    3    0    0 -0.36422732900E+02  0.48371504552E+02  0.16046237259E+01  0.60572210972E+02  0.51100000000E-03 0. -1.
         23    2    1    0    0    0 -0.25777578691E+02  0.17329757452E+02  0.49040403124E+01  0.93553956244E+02  0.88110663719E+02 0.  0.
         11    1    3    3    0    0  0.10645154208E+02 -0.31041747099E+02  0.32994165866E+01  0.32981745272E+02  0.51100000000E-03 0.  1.
         22    1    1    0    0    0  0.25777578691E+02 -0.17329757452E+02 -0.49040403124E+01  0.31446043756E+02  0.00000000000E+00 0. -1.
</event>
<event>
 5    1  0.8778268E-005  0.9118800E+02  0.7818608E-02  0.1130116E+00
         25   -1    0    0    0    0  0.00000000000E+00  0.00000000000E+00  0.99999998245E-14  0.12500000000E+03  0.12500000000E+03 0.  0.
        -11    1    3    3    0    0 -0.26963333695E+02 -0.11574998543E+02  0.44746083174E+02  0.53509007792E+02  0.51100000000E-03 0.  1.
         23    2    1    0    0    0 -0.28057507743E+02  0.56697180243E+01  0.62561457714E+01  0.95699679129E+02  0.91103895539E+02 0.  0.
         11    1    3    3    0    0 -0.10941740478E+01  0.17244716568E+02 -0.38489937403E+02  0.42190671337E+02  0.51100000000E-03 0. -1.
         22    1    1    0    0    0  0.28057507743E+02 -0.56697180243E+01 -0.62561457714E+01  0.29300320871E+02  0.00000000000E+00 0.  1.
</event>
<event>
 5    1  0.8778268E-005  0.9118800E+02  0.7818608E-02  0.1130116E+00
         25   -1    0    0    0    0  0.00000000000E+00  0.00000000000E+00  0.99999998245E-14  0.12500000000E+03  0.12500000000E+03 0.  0.
        -11    1    3    3    0    0 -0.20828103422E+02  0.97594134271E+01 -0.23412808549E+02  0.32820963530E+02  0.51100000000E-03 0.  1.
         23    2    1    0    0    0  0.12885850879E+02 -0.21102372447E+02  0.17934918014E+02  0.94454680229E+02  0.89379360354E+02 0.  0.
         11    1    3    3    0    0  0.33713954301E+02 -0.30861785874E+02  0.41347726563E+02  0.61633716699E+02  0.51100000000E-03 0. -1.
         22    1    1    0    0    0 -0.12885850879E+02  0.21102372447E+02 -0.17934918014E+02  0.30545319771E+02  0.00000000000E+00 0. -1.
</event>
<event>
 5    1  0.8778268E-005  0.9118800E+02  0.7818608E-02  0.1130116E+00
         25   -1    0    0    0    0  0.00000000000E+00  0.00000000000E+00  0.99999998245E-14  0.12500000000E+03  0.12500000000E+03 0.  0.
        -11    1    3    3    0    0 -0.19143759196E+02  0.23236833836E+02 -0.44516398984E+02  0.53741452731E+02  0.51100000000E-03 0.  1.
         23    2    1    0    0    0  0.94274965725E+01  0.23816352660E+02 -0.13032281333E+02  0.96260885497E+02  0.91870677446E+02 0.  0.
         11    1    3    3    0    0  0.28571255768E+02  0.57951882341E+00  0.31484117651E+02  0.42519432766E+02  0.51100000000E-03 0. -1.
         22    1    1    0    0    0 -0.94274965725E+01 -0.23816352660E+02  0.13032281333E+02  0.28739114503E+02  0.00000000000E+00 0.  1.
</event>
<event>
 5    1  0.8778268E-005  0.9118800E+02  0.7818608E-02  0.1130116E+00
         25   -1    0    0    0    0  0.00000000000E+00  0.00000000000E+00  0.99999998245E-14  0.12500000000E+03  0.12500000000E+03 0.  0.
        -11    1    3    3    0    0  0.35781195731E+02 -0.93954328698E+01 -0.15059705431E+02  0.39941993624E+02  0.51100000000E-03 0.  1.
         23    2    1    0    0    0 -0.20949943345E+02  0.45440382864E+01 -0.15806830380E+02  0.98365355329E+02  0.94690753678E+02 0.  0.
         11    1    3    3    0    0 -0.56731139076E+02  0.13939471156E+02 -0.74712494887E+00  0.58423361705E+02  0.51100000000E-03 0. -1.
         22    1    1    0    0    0  0.20949943345E+02 -0.45440382864E+01  0.15806830380E+02  0.26634644671E+02  0.00000000000E+00 0. -1.
</event>
<event>
 5    1  0.8778268E-005  0.9118800E+02  0.7818608E-02  0.1130116E+00
         25   -1    0    0    0    0  0.00000000000E+00  0.00000000000E+00  0.99999998245E-14  0.12500000000E+03  0.12500000000E+03 0.  0.
        -11    1    3    3    0    0  0.39836111875E+00 -0.13379891067E+02  0.34085508463E+02  0.36619695029E+02  0.51100000000E-03 0. -1.
         23    2    1    0    0    0  0.19806842693E+02 -0.10534857981E+02 -0.20492152131E+02  0.94615422513E+02  0.89603881769E+02 0.  0.
         11    1    3    3    0    0  0.19408481574E+02  0.28450330860E+01 -0.54577660594E+02  0.57995727484E+02  0.51100000000E-03 0.  1.
         22    1    1    0    0    0 -0.19806842693E+02  0.10534857981E+02  0.20492152131E+02  0.30384577487E+02  0.00000000000E+00 0.  1.
</event>
<event>
 5    1  0.8778268E-005  0.9118800E+02  0.7818608E-02  0.1130116E+00
         25   -1    0    0    0    0  0.00000000000E+00  0.00000000000E+00  0.99999998245E-14  0.12500000000E+03  0.12500000000E+03 0.  0.
        -11    1    3    3    0    0  0.29186873781E+01 -0.52397152687E+02 -0.26240518563E+02  0.58673206495E+02  0.51100000000E-03 0. -1.
         23    2    1    0    0    0 -0.13253871420E+02 -0.14390840000E+02 -0.96570923228E+01  0.10318209873E+03  0.10084901925E+03 0.  0.
         11    1    3    3    0    0 -0.16172558798E+02  0.38006312687E+02  0.16583426241E+02  0.44508892238E+02  0.51100000000E-03 0.  1.
         22    1    1    0    0    0  0.13253871420E+02  0.14390840000E+02  0.96570923228E+01  0.21817901266E+02  0.00000000000E+00 0. -1.
</event>
<event>
 5    1  0.8778268E-005  0.9118800E+02  0.7818608E-02  0.1130116E+00
         25   -1    0    0    0    0  0.00000000000E+00  0.00000000000E+00  0.99999998245E-14  0.12500000000E+03  0.12500000000E+03 0.  0.
        -11    1    3    3    0    0  0.17820691758E+02 -0.81863066610E+01  0.34249871488E+02  0.39467028881E+02  0.51100000000E-03 0.  1.
         23    2    1    0    0    0 -0.18044662565E+02 -0.30209961357E+02  0.22750474831E+02  0.83097306562E+02  0.71758808802E+02 0.  0.
         11    1    3    3    0    0 -0.35865354323E+02 -0.22023654696E+02 -0.11499396657E+02  0.43630277682E+02  0.51100000000E-03 0. -1.
         22    1    1    0    0    0  0.18044662565E+02  0.30209961357E+02 -0.22750474831E+02  0.41902693438E+02  0.00000000000E+00 0.  1.
</event>
<event>
 5    1  0.8778268E-005  0.9118800E+02  0.7818608E-02  0.1130116E+00
         25   -1    0    0    0    0  0.00000000000E+00  0.00000000000E+00  0.99999998245E-14  0.12500000000E+03  0.12500000000E+03 0.  0.
        -11    1    3    3    0    0  0.17578071016E+00 -0.29192869816E+02  0.39759934981E+02  0.49326534207E+02  0.51100000000E-03 0. -1.
         23    2    1    0    0    0  0.25949896508E+02 -0.72259391002E+01  0.54843848718E+01  0.97510187304E+02  0.93555047036E+02 0.  0.
         11    1    3    3    0    0  0.25774115798E+02  0.21966930716E+02 -0.34275550109E+02  0.48183653097E+02  0.51100000000E-03 0.  1.
         22    1    1    0    0    0 -0.25949896508E+02  0.72259391002E+01 -0.54843848718E+01  0.27489812696E+02  0.00000000000E+00 0. -1.
</event>
<event>
 5    1  0.8778268E-005  0.9118800E+02  0.7818608E-02  0.1130116E+00
         25   -1    0    0    0    0  0.00000000000E+00  0.00000000000E+00  0.99999998245E-14  0.12500000000E+03  0.12500000000E+03 0.  0.
        -11    1    3    3    0    0  0.60869172620E+02 -0.79282935647E+01  0.38257536085E+01  0.61502442271E+02  0.51100000000E-03 0. -1.
         23    2    1    0    0    0  0.29769322482E+02 -0.90281994453E+01  0.79451507651E+01  0.92893203727E+02  0.87168233501E+02 0.  0.
         11    1    3    3    0    0 -0.31099850138E+02 -0.10999058806E+01  0.41193971565E+01  0.31390761456E+02  0.51100000000E-03 0.  1.
         22    1    1    0    0    0 -0.29769322482E+02  0.90281994453E+01 -0.79451507651E+01  0.32106796273E+02  0.00000000000E+00 0. -1.
</event>
<event>
 5    1  0.8778268E-005  0.9118800E+02  0.7818608E-02  0.1130116E+00
         25   -1    0    0    0    0  0.00000000000E+00  0.00000000000E+00  0.99999998245E-14  0.12500000000E+03  0.12500000000E+03 0.  0.
        -11    1    3    3    0    0 -0.69050008368E+00 -0.29198956400E+01 -0.41623647967E+02  0.41731650474E+02  0.51100000000E-03 0.  1.
         23    2    1    0    0    0 -0.71609342610E+01  0.30377263144E+02 -0.22387075419E+01  0.93709923185E+02  0.88331652290E+02 0.  0.
         11    1    3    3    0    0 -0.64704341774E+01  0.33297158784E+02  0.39384940425E+02  0.51978272712E+02  0.51100000000E-03 0. -1.
         22    1    1    0    0    0  0.71609342610E+01 -0.30377263144E+02  0.22387075419E+01  0.31290076815E+02  0.00000000000E+00 0. -1.
</event>
<event>
 5    1  0.8778268E-005  0.9118800E+02  0.7818608E-02  0.1130116E+00
         25   -1    0    0    0    0  0.00000000000E+00  0.00000000000E+00  0.99999998245E-14  0.12500000000E+03  0.12500000000E+03 0.  0.
        -11    1    3    3    0    0  0.38251926935E+02  0.17468592096E+02 -0.22812539016E+02  0.47841128338E+02  0.51100000000E-03 0.  1.
         23    2    1    0    0    0  0.11840650188E+01  0.29546571539E+02  0.40044777302E+01  0.95159796556E+02  0.90360108117E+02 0.  0.
         11    1    3    3    0    0 -0.37067861917E+02  0.12077979443E+02  0.26817016746E+02  0.47318668218E+02  0.51100000000E-03 0. -1.
         22    1    1    0    0    0 -0.11840650188E+01 -0.29546571539E+02 -0.40044777302E+01  0.29840203444E+02  0.00000000000E+00 0.  1.
</event>
<event>
 5    1  0.8778268E-005  0.9118800E+02  0.7818608E-02  0.1130116E+00
         25   -1    0    0    0    0  0.00000000000E+00  0.00000000000E+00  0.99999998245E-14  0.12500000000E+03  0.12500000000E+03 0.  0.
        -11    1    3    3    0    0  0.32142823960E+02  0.32541142234E+01 -0.50703497649E+02  0.60121502523E+02  0.51100000000E-03 0.  1.
         23    2    1    0    0    0  0.90844642924E+01 -0.85672210134E+01 -0.27054087924E+02  0.95203214254E+02  0.90420150207E+02 0.  0.
         11    1    3    3    0    0 -0.23058359668E+02 -0.11821335237E+02  0.23649409725E+02  0.35081711731E+02  0.51100000000E-03 0. -1.
         22    1    1    0    0    0 -0.90844642924E+01  0.85672210134E+01  0.27054087924E+02  0.29796785746E+02  0.00000000000E+00 0.  1.
</event>
<event>
 5    1  0.8778268E-005  0.9118800E+02  0.7818608E-02  0.1130116E+00
         25   -1    0    0    0    0  0.00000000000E+00  0.00000000000E+00  0.99999998245E-14  0.12500000000E+03  0.12500000000E+03 0.  0.
        -11    1    3    3    0    0 -0.13292934565E+02  0.18668425043E+02 -0.37339554301E+02  0.43811579732E+02  0.51100000000E-03 0. -1.
         23    2    1    0    0    0 -0.23694143054E+01  0.26792139025E+02  0.12401574109E+02  0.95381899485E+02  0.90666834462E+02 0.  0.
         11    1    3    3    0    0  0.10923520260E+02  0.81237139827E+01  0.49741128410E+02  0.51570319754E+02  0.51100000000E-03 0.  1.
         22    1    1    0    0    0  0.23694143054E+01 -0.26792139025E+02 -0.12401574109E+02  0.29618100515E+02  0.00000000000E+00 0.  1.
</event>
<event>
 5    1  0.8778268E-005  0.9118800E+02  0.7818608E-02  0.1130116E+00
         25   -1    0    0    0    0  0.00000000000E+00  0.00000000000E+00  0.99999998245E-14  0.12500000000E+03  0.12500000000E+03 0.  0.
        -11    1    3    3    0    0 -0.19692524834E+02  0.67335581094E-01 -0.42668335852E+02  0.46993477772E+02  0.51100000000E-03 0.  1.
         23    2    1    0    0    0 -0.25024269570E+01 -0.26738528795E+02 -0.28285072578E+01  0.97996083319E+02  0.94202021368E+02 0.  0.
         11    1    3    3    0    0  0.17190097877E+02 -0.26805864376E+02  0.39839828594E+02  0.51002605548E+02  0.51100000000E-03 0. -1.
         22    1    1    0    0    0  0.25024269570E+01  0.26738528795E+02  0.28285072578E+01  0.27003916681E+02  0.00000000000E+00 0.  1.
</event>
<event>
 5    1  0.8778268E-005  0.9118800E+02  0.7818608E-02  0.1130116E+00
         25   -1    0    0    0    0  0.00000000000E+00  0.00000000000E+00  0.99999998245E-14  0.12500000000E+03  0.12500000000E+03 0.  0.
        -11    1    3    3    0    0  0.21840937898E+02  0.29063648157E+02  0.37409712525E+01  0.36547463368E+02  0.51100000000E-03 0. -1.
         23    2    1    0    0    0 -0.17282838785E+02 -0.79445669878E+01  0.24254600523E+02  0.94176335266E+02  0.88989234273E+02 0.  0.
         11    1    3    3    0    0 -0.39123776682E+02 -0.37008215145E+02  0.20513629271E+02  0.57628871898E+02  0.51100000000E-03 0.  1.
         22    1    1    0    0    0  0.17282838785E+02  0.79445669878E+01 -0.24254600523E+02  0.30823664734E+02  0.00000000000E+00 0.  1.
</event>
<event>
 5    1  0.8778268E-005  0.9118800E+02  0.7818608E-02  0.1130116E+00
         25   -1    0    0    0    0  0.00000000000E+00  0.00000000000E+00  0.99999998245E-14  0.12500000000E+03  0.12500000000E+03 0.  0.
        -11    1    3    3    0    0  0.17510025140E+01  0.60990910457E+02 -0.36581664119E+01  0.61125603064E+02  0.51100000000E-03 0. -1.
         23    2    1    0    0    0 -0.32825573194E+01  0.27347700645E+02  0.66382035869E+01  0.96667374636E+02  0.92422095081E+02 0.  0.
         11    1    3    3    0    0 -0.50335598334E+01 -0.33643209812E+02  0.10296369999E+02  0.35541771572E+02  0.51100000000E-03 0.  1.
         22    1    1    0    0    0  0.32825573194E+01 -0.27347700645E+02 -0.66382035869E+01  0.28332625364E+02  0.00000000000E+00 0. -1.
</event>
<event>
 5    1  0.8778268E-005  0.9118800E+02  0.7818608E-02  0.1130116E+00
         25   -1    0    0    0    0  0.00000000000E+00  0.00000000000E+00  0.99999998245E-14  0.12500000000E+03  0.12500000000E+03 0.  0.
        -11    1    3    3    0    0 -0.26949406774E+02 -0.36626901041E+02  0.13891711422E+02  0.47547660844E+02  0.51100000000E-03 0.  1.
         23    2    1    0    0    0  0.26538926473E+01  0.49267884621E+01  0.24677868655E+02  0.99695581570E+02  0.96430780317E+02 0.  0.
         11    1    3    3    0    0  0.29603299421E+02  0.41553689503E+02  0.10786157233E+02  0.52147920726E+02  0.51100000000E-03 0. -1.
         22    1    1    0    0    0 -0.26538926473E+01 -0.49267884621E+01 -0.24677868655E+02  0.25304418430E+02  0.00000000000E+00 0. -1.
</event>
<event>
 5    1  0.8778268E-005  0.9118800E+02  0.7818608E-02  0.1130116E+00
         25   -1    0    0    0    0  0.00000000000E+00  0.00000000000E+00  0.99999998245E-14  0.12500000000E+03  0.12500000000E+03 0.  0.
        -11    1    3    3    0    0 -0.48679623741E+02 -0.29978049675E+02 -0.23457088723E+02  0.61795017934E+02  0.51100000000E-03 0.  1.
         23    2    1    0    0    0 -0.21807950725E+02 -0.16795894854E+02 -0.48171514579E+01  0.97055523856E+02  0.92945580659E+02 0.  0.
         11    1    3    3    0    0  0.26871673016E+02  0.13182154821E+02  0.18639937265E+02  0.35260505922E+02  0.51100000000E-03 0. -1.
         22    1    1    0    0    0  0.21807950725E+02  0.16795894854E+02  0.48171514579E+01  0.27944476144E+02  0.00000000000E+00 0.  1.
</event>
<event>
 5    1  0.8778268E-005  0.9118800E+02  0.7818608E-02  0.1130116E+00
         25   -1    0    0    0    0  0.00000000000E+00  0.00000000000E+00  0.99999998245E-14  0.12500000000E+03  0.12500000000E+03 0.  0.
        -11    1    3    3    0    0  0.36212655872E+02  0.14498966782E+01 -0.24012402293E+01  0.36321131598E+02  0.51100000000E-03 0. -1.
         23    2    1    0    0    0 -0.19772374124E+02 -0.17930801703E+02 -0.10892163040E+02  0.96171201137E+02  0.91748571020E+02 0.  0.
         11    1    3    3    0    0 -0.55985029996E+02 -0.19380698381E+02 -0.84909228110E+01  0.59850069539E+02  0.51100000000E-03 0.  1.
         22    1    1    0    0    0  0.19772374124E+02  0.17930801703E+02  0.10892163040E+02  0.28828798863E+02  0.00000000000E+00 0.  1.
</event>
<event>
 5    1  0.8778268E-005  0.9118800E+02  0.7818608E-02  0.1130116E+00
         25   -1    0    0    0    0  0.00000000000E+00  0.00000000000E+00  0.99999998245E-14  0.12500000000E+03  0.12500000000E+03 0.  0.
        -11    1    3    3    0    0 -0.29263679113E+02  0.19645050549E+02 -0.36634746186E+02  0.50836950682E+02  0.51100000000E-03 0.  1.
         23    2    1    0    0    0 -0.22431873562E+02  0.25232638489E+02  0.26815059657E+01  0.91131644993E+02  0.84604439885E+02 0.  0.
         11    1    3    3    0    0  0.68318055509E+01  0.55875879400E+01  0.39316252152E+02  0.40294694311E+02  0.51100000000E-03 0. -1.
         22    1    1    0    0    0  0.22431873562E+02 -0.25232638489E+02 -0.26815059657E+01  0.33868355007E+02  0.00000000000E+00 0.  1.
</event>
<event>
 5    1  0.8778268E-005  0.9118800E+02  0.7818608E-02  0.1130116E+00
         25   -1    0    0    0    0  0.00000000000E+00  0.00000000000E+00  0.99999998245E-14  0.12500000000E+03  0.12500000000E+03 0.  0.
        -11    1    3    3    0    0 -0.45414863398E+02 -0.38657861413E+02 -0.15231445060E+02  0.61554341726E+02  0.51100000000E-03 0. -1.
         23    2    1    0    0    0 -0.24519824757E+02 -0.11540555770E+02 -0.96100707780E+01  0.96246570744E+02  0.91851198610E+02 0.  0.
         11    1    3    3    0    0  0.20895038641E+02  0.27117305643E+02  0.56213742820E+01  0.34692229018E+02  0.51100000000E-03 0.  1.
         22    1    1    0    0    0  0.24519824757E+02  0.11540555770E+02  0.96100707780E+01  0.28753429256E+02  0.00000000000E+00 0. -1.
</event>
<event>
 5    1  0.8778268E-005  0.9118800E+02  0.7818608E-02  0.1130116E+00
         25   -1    0    0    0    0  0.00000000000E+00  0.00000000000E+00  0.99999998245E-14  0.12500000000E+03  0.12500000000E+03 0.  0.
        -11    1    3    3    0    0  0.47602662890E+02 -0.94477354355E+01 -0.15342113341E+02  0.50898464231E+02  0.51100000000E-03 0.  1.
         23    2    1    0    0    0  0.10007914189E+02 -0.26066468813E+02  0.47940450572E+01  0.96669768606E+02  0.92425332845E+02 0.  0.
         11    1    3    3    0    0 -0.37594748700E+02 -0.16618733378E+02  0.20136158398E+02  0.45771304375E+02  0.51100000000E-03 0. -1.
         22    1    1    0    0    0 -0.10007914189E+02  0.26066468813E+02 -0.47940450572E+01  0.28330231394E+02  0.00000000000E+00 0. -1.
</event>
<event>
 5    1  0.8778268E-005  0.9118800E+02  0.7818608E-02  0.1130116E+00
         25   -1    0    0    0    0  0.00000000000E+00  0.00000000000E+00  0.99999998245E-14  0.12500000000E+03  0.12500000000E+03 0.  0.
        -11    1    3    3    0    0 -0.29875857992E+02 -0.35889185936E+00  0.51389947759E+02  0.59444280003E+02  0.51100000000E-03 0. -1.
         23    2    1    0    0    0 -0.11118401415E+02  0.13387190695E+02  0.23519630758E+02  0.95742372691E+02  0.91162454842E+02 0.  0.
         11    1    3    3    0    0  0.18757456577E+02  0.13746082554E+02 -0.27870317001E+02  0.36298092689E+02  0.51100000000E-03 0.  1.
         22    1    1    0    0    0  0.11118401415E+02 -0.13387190695E+02 -0.23519630758E+02  0.29257627309E+02  0.00000000000E+00 0. -1.
</event>
<event>
 5    1  0.8778268E-005  0.9118800E+02  0.7818608E-02  0.1130116E+00
         25   -1    0    0    0    0  0.00000000000E+00  0.00000000000E+00  0.99999998245E-14  0.12500000000E+03  0.12500000000E+03 0.  0.
        -11    1    3    3    0    0 -0.23775997048E+02 -0.20204414037E+01 -0.25558423239E+02  0.34965886487E+02  0.51100000000E-03 0. -1.
         23    2    1    0    0    0  0.90093128453E+01  0.14342658187E+02  0.23397235101E+02  0.96115572151E+02  0.91672749700E+02 0.  0.
         11    1    3    3    0    0  0.32785309893E+02  0.16363099591E+02  0.48955658340E+02  0.61149685664E+02  0.51100000000E-03 0.  1.
         22    1    1    0    0    0 -0.90093128453E+01 -0.14342658187E+02 -0.23397235101E+02  0.28884427849E+02  0.00000000000E+00 0.  1.
</event>
<event>
 5    1  0.8778268E-005  0.9118800E+02  0.7818608E-02  0.1130116E+00
         25   -1    0    0    0    0  0.00000000000E+00  0.00000000000E+00  0.99999998245E-14  0.12500000000E+03  0.12500000000E+03 0.  0.
        -11    1    3    3    0    0 -0.21015731703E+02 -0.22827200048E+02  0.44082631662E+02  0.53907517616E+02  0.51100000000E-03 0.  1.
         23    2    1    0    0    0 -0.14792733394E+02 -0.14297190251E-01  0.45059813600E+02  0.77574142419E+02  0.61388399594E+02 0.  0.
         11    1    3    3    0    0  0.62229983082E+01  0.22812902858E+02  0.97718193785E+00  0.23666624803E+02  0.51100000000E-03 0. -1.
         22    1    1    0    0    0  0.14792733394E+02  0.14297190251E-01 -0.45059813600E+02  0.47425857581E+02  0.00000000000E+00 0.  1.
</event>
<event>
 5    1  0.8778268E-005  0.9118800E+02  0.7818608E-02  0.1130116E+00
         25   -1    0    0    0    0  0.00000000000E+00  0.00000000000E+00  0.99999998245E-14  0.12500000000E+03  0.12500000000E+03 0.  0.
        -11    1    3    3    0    0  0.48241066813E+02  0.36015022334E+02 -0.11196605417E+02  0.61234355831E+02  0.51100000000E-03 0.  1.
         23    2    1    0    0    0  0.22177838322E+02  0.71682927089E+01  0.30969645042E-02  0.10169247026E+03  0.98985441177E+02 0.  0.
         11    1    3    3    0    0 -0.26063228491E+02 -0.28846729625E+02  0.11199702381E+02  0.40458114429E+02  0.51100000000E-03 0. -1.
         22    1    1    0    0    0 -0.22177838322E+02 -0.71682927089E+01 -0.30969645042E-02  0.23307529740E+02  0.00000000000E+00 0.  1.
</event>
<event>
 5    1  0.8778268E-005  0.9118800E+02  0.7818608E-02  0.1130116E+00
         25   -1    0    0    0    0  0.00000000000E+00  0.00000000000E+00  0.99999998245E-14  0.12500000000E+03  0.12500000000E+03 0.  0.
        -11    1    3    3    0    0  0.44509950772E+02 -0.12601627023E+02 -0.36802620719E+02  0.59113193226E+02  0.51100000000E-03 0. -1.
         23    2    1    0    0    0  0.22477754061E+02  0.84331053691E+01 -0.13572253196E+02  0.97421516528E+02  0.93436497858E+02 0.  0.
         11    1    3    3    0    0 -0.22032196711E+02  0.21034732392E+02  0.23230367522E+02  0.38308323302E+02  0.51100000000E-03 0.  1.
         22    1    1    0    0    0 -0.22477754061E+02 -0.84331053691E+01  0.13572253196E+02  0.27578483472E+02  0.00000000000E+00 0. -1.
</event>
<event>
 5    1  0.8778268E-005  0.9118800E+02  0.7818608E-02  0.1130116E+00
         25   -1    0    0    0    0  0.00000000000E+00  0.00000000000E+00  0.99999998245E-14  0.12500000000E+03  0.12500000000E+03 0.  0.
        -11    1    3    3    0    0  0.50405429074E+02  0.77479687446E+01 -0.93532922547E+01  0.51848070129E+02  0.51100000000E-03 0.  1.
         23    2    1    0    0    0  0.16887845019E+02  0.28504065289E+01  0.21393865905E+02  0.97595226235E+02  0.93668599641E+02 0.  0.
         11    1    3    3    0    0 -0.33517584056E+02 -0.48975622157E+01  0.30747158160E+02  0.45747156106E+02  0.51100000000E-03 0. -1.
         22    1    1    0    0    0 -0.16887845019E+02 -0.28504065289E+01 -0.21393865905E+02  0.27404773765E+02  0.00000000000E+00 0. -1.
</event>
<event>
 5    1  0.8778268E-005  0.9118800E+02  0.7818608E-02  0.1130116E+00
         25   -1    0    0    0    0  0.00000000000E+00  0.00000000000E+00  0.99999998245E-14  0.12500000000E+03  0.12500000000E+03 0.  0.
        -11    1    3    3    0    0  0.34940149369E+02  0.18340030009E+02 -0.68186110422E+01  0.40045776250E+02  0.51100000000E-03 0. -1.
         23    2    1    0    0    0 -0.22861121200E+02 -0.86008554762E+00 -0.74011327018E+01  0.10095530464E+03  0.98050120652E+02 0.  0.
         11    1    3    3    0    0 -0.57801270570E+02 -0.19200115557E+02 -0.58252165959E+00  0.60909528389E+02  0.51100000000E-03 0.  1.
         22    1    1    0    0    0  0.22861121200E+02  0.86008554762E+00  0.74011327018E+01  0.24044695360E+02  0.00000000000E+00 0.  1.
</event>
<event>
 5    1  0.8778268E-005  0.9118800E+02  0.7818608E-02  0.1130116E+00
         25   -1    0    0    0    0  0.00000000000E+00  0.00000000000E+00  0.99999998245E-14  0.12500000000E+03  0.12500000000E+03 0.  0.
        -11    1    3    3    0    0  0.20446561015E+02  0.19602015482E+02  0.19307144073E+02  0.34279245628E+02  0.51100000000E-03 0. -1.
         23    2    1    0    0    0 -0.74429068494E+01 -0.18691072699E+02 -0.20588834469E+02  0.96213663557E+02  0.91806404402E+02 0.  0.
         11    1    3    3    0    0 -0.27889467864E+02 -0.38293088181E+02 -0.39895978542E+02  0.61934417929E+02  0.51100000000E-03 0.  1.
         22    1    1    0    0    0  0.74429068494E+01  0.18691072699E+02  0.20588834469E+02  0.28786336443E+02  0.00000000000E+00 0.  1.
</event>
<event>
 5    1  0.8778268E-005  0.9118800E+02  0.7818608E-02  0.1130116E+00
         25   -1    0    0    0    0  0.00000000000E+00  0.00000000000E+00  0.99999998245E-14  0.12500000000E+03  0.12500000000E+03 0.  0.
        -11    1    3    3    0    0  0.16755204601E+02  0.54496719612E+01 -0.36881857174E+02  0.40874285249E+02  0.51100000000E-03 0. -1.
         23    2    1    0    0    0 -0.20086864338E+02 -0.21170906139E+02 -0.79550477911E+01  0.94751493078E+02  0.89793503492E+02 0.  0.
         11    1    3    3    0    0 -0.36842068939E+02 -0.26620578100E+02  0.28926809383E+02  0.53877207829E+02  0.51100000000E-03 0.  1.
         22    1    1    0    0    0  0.20086864338E+02  0.21170906139E+02  0.79550477911E+01  0.30248506922E+02  0.00000000000E+00 0.  1.
</event>
<event>
 5    1  0.8778268E-005  0.9118800E+02  0.7818608E-02  0.1130116E+00
         25   -1    0    0    0    0  0.00000000000E+00  0.00000000000E+00  0.99999998245E-14  0.12500000000E+03  0.12500000000E+03 0.  0.
        -11    1    3    3    0    0  0.31050201897E+02  0.17446196898E+02 -0.39819572356E+01  0.35837700927E+02  0.51100000000E-03 0. -1.
         23    2    1    0    0    0 -0.10057409696E+02 -0.26138170510E+02 -0.79685936335E+01  0.95882068551E+02  0.91353801988E+02 0.  0.
         11    1    3    3    0    0 -0.41107611593E+02 -0.43584367408E+02 -0.39866363979E+01  0.60044367623E+02  0.51100000000E-03 0.  1.
         22    1    1    0    0    0  0.10057409696E+02  0.26138170510E+02  0.79685936335E+01  0.29117931449E+02  0.00000000000E+00 0.  1.
</event>
<event>
 5    1  0.8778268E-005  0.9118800E+02  0.7818608E-02  0.1130116E+00
         25   -1    0    0    0    0  0.00000000000E+00  0.00000000000E+00  0.99999998245E-14  0.12500000000E+03  0.12500000000E+03 0.  0.
        -11    1    3    3    0    0  0.39527873884E+01  0.22531779454E+01 -0.39072954250E+02  0.39336968530E+02  0.51100000000E-03 0.  1.
         23    2    1    0    0    0  0.18263218336E+02  0.21468544007E+02  0.10918612103E+02  0.94773197059E+02  0.89823712152E+02 0.  0.
         11    1    3    3    0    0  0.14310430947E+02  0.19215366062E+02  0.49991566354E+02  0.55436228529E+02  0.51100000000E-03 0. -1.
         22    1    1    0    0    0 -0.18263218336E+02 -0.21468544007E+02 -0.10918612103E+02  0.30226802941E+02  0.00000000000E+00 0. -1.
</event>
<event>
 5    1  0.8778268E-005  0.9118800E+02  0.7818608E-02  0.1130116E+00
         25   -1    0    0    0    0  0.00000000000E+00  0.00000000000E+00  0.99999998245E-14  0.12500000000E+03  0.12500000000E+03 0.  0.
        -11    1    3    3    0    0 -0.58034632857E+02  0.33057829041E+01 -0.84975836005E+01  0.58746538100E+02  0.51100000000E-03 0. -1.
         23    2    1    0    0    0 -0.26739991780E+02 -0.13740237107E+02 -0.43591941798E+01  0.94621984100E+02  0.89613034905E+02 0.  0.
         11    1    3    3    0    0  0.31294641077E+02 -0.17046020012E+02  0.41383894208E+01  0.35875445999E+02  0.51100000000E-03 0.  1.
         22    1    1    0    0    0  0.26739991780E+02  0.13740237107E+02  0.43591941798E+01  0.30378015900E+02  0.00000000000E+00 0. -1.
</event>
<event>
 5    1  0.8778268E-005  0.9118800E+02  0.7818608E-02  0.1130116E+00
         25   -1    0    0    0    0  0.00000000000E+00  0.00000000000E+00  0.99999998245E-14  0.12500000000E+03  0.12500000000E+03 0.  0.
        -11    1    3    3    0    0  0.10182744278E+02 -0.27577879315E+02  0.14765763980E+02  0.32897651812E+02  0.51100000000E-03 0.  1.
         23    2    1    0    0    0 -0.35853468574E+01  0.30501395156E+02  0.42247846915E+00  0.94285698663E+02  0.89142720767E+02 0.  0.
         11    1    3    3    0    0 -0.13768091136E+02  0.58079274471E+02 -0.14343285511E+02  0.61388046851E+02  0.51100000000E-03 0. -1.
         22    1    1    0    0    0  0.35853468574E+01 -0.30501395156E+02 -0.42247846915E+00  0.30714301337E+02  0.00000000000E+00 0. -1.
</event>
<event>
 5    1  0.8778268E-005  0.9118800E+02  0.7818608E-02  0.1130116E+00
         25   -1    0    0    0    0  0.00000000000E+00  0.00000000000E+00  0.99999998245E-14  0.12500000000E+03  0.12500000000E+03 0.  0.
        -11    1    3    3    0    0  0.20568965973E+02  0.29060890700E+02 -0.16835761061E+02  0.39383506450E+02  0.51100000000E-03 0. -1.
         23    2    1    0    0    0 -0.23308510584E+02 -0.43935936531E+01 -0.19010581882E+02  0.94602754165E+02  0.89586207316E+02 0.  0.
         11    1    3    3    0    0 -0.43877476557E+02 -0.33454484354E+02 -0.21748208209E+01  0.55219247715E+02  0.51100000000E-03 0.  1.
         22    1    1    0    0    0  0.23308510584E+02  0.43935936531E+01  0.19010581882E+02  0.30397245835E+02  0.00000000000E+00 0.  1.
</event>
<event>
 5    1  0.8778268E-005  0.9118800E+02  0.7818608E-02  0.1130116E+00
         25   -1    0    0    0    0  0.00000000000E+00  0.00000000000E+00  0.99999998245E-14  0.12500000000E+03  0.12500000000E+03 0.  0.
        -11    1    3    3    0    0  0.21110639478E+02 -0.30757163148E+02  0.15583275090E+02  0.40428958023E+02  0.51100000000E-03 0. -1.
         23    2    1    0    0    0  0.17871754928E+01 -0.46861475885E+01 -0.28998572056E+02  0.95570913084E+02  0.90927049171E+02 0.  0.
         11    1    3    3    0    0 -0.19323463985E+02  0.26071015559E+02 -0.44581847146E+02  0.55141955060E+02  0.51100000000E-03 0.  1.
         22    1    1    0    0    0 -0.17871754928E+01  0.46861475885E+01  0.28998572056E+02  0.29429086916E+02  0.00000000000E+00 0.  1.
</event>
<event>
 5    1  0.8778268E-005  0.9118800E+02  0.7818608E-02  0.1130116E+00
         25   -1    0    0    0    0  0.00000000000E+00  0.00000000000E+00  0.99999998245E-14  0.12500000000E+03  0.12500000000E+03 0.  0.
        -11    1    3    3    0    0 -0.17377337495E+02 -0.28354695937E+02 -0.14809441922E+02  0.36404398229E+02  0.51100000000E-03 0.  1.
         23    2    1    0    0    0 -0.46484746738E+01  0.23737020845E+02  0.13767927591E+02  0.97168178185E+02  0.93096963142E+02 0.  0.
         11    1    3    3    0    0  0.12728862821E+02  0.52091716782E+02  0.28577369513E+02  0.60763779956E+02  0.51100000000E-03 0. -1.
         22    1    1    0    0    0  0.46484746738E+01 -0.23737020845E+02 -0.13767927591E+02  0.27831821815E+02  0.00000000000E+00 0. -1.
</event>
<event>
 5    1  0.8778268E-005  0.9118800E+02  0.7818608E-02  0.1130116E+00
         25   -1    0    0    0    0  0.00000000000E+00  0.00000000000E+00  0.99999998245E-14  0.12500000000E+03  0.12500000000E+03 0.  0.
        -11    1    3    3    0    0  0.39302155150E+02  0.26906400030E+02  0.18845526720E+02  0.51222725813E+02  0.51100000000E-03 0.  1.
         23    2    1    0    0    0 -0.54763436682E+01  0.17259066662E+02  0.21237727188E+02  0.97091098586E+02  0.92993411845E+02 0.  0.
         11    1    3    3    0    0 -0.44778498819E+02 -0.96473333684E+01  0.23922004676E+01  0.45868372774E+02  0.51100000000E-03 0. -1.
         22    1    1    0    0    0  0.54763436682E+01 -0.17259066662E+02 -0.21237727188E+02  0.27908901414E+02  0.00000000000E+00 0. -1.
</event>
<event>
 5    1  0.8778268E-005  0.9118800E+02  0.7818608E-02  0.1130116E+00
         25   -1    0    0    0    0  0.00000000000E+00  0.00000000000E+00  0.99999998245E-14  0.12500000000E+03  0.12500000000E+03 0.  0.
        -11    1    3    3    0    0  0.46042666079E+02 -0.16540404649E+02 -0.37419736796E+02  0.61593415133E+02  0.51100000000E-03 0. -1.
         23    2    1    0    0    0  0.22100555341E+02 -0.21677676989E+01 -0.23029278834E+02  0.93008103420E+02  0.87332845224E+02 0.  0.
         11    1    3    3    0    0 -0.23942110738E+02  0.14372636950E+02  0.14390457962E+02  0.31414688286E+02  0.51100000000E-03 0.  1.
         22    1    1    0    0    0 -0.22100555341E+02  0.21677676989E+01  0.23029278834E+02  0.31991896580E+02  0.00000000000E+00 0. -1.
</event>
<event>
 5    1  0.8778268E-005  0.9118800E+02  0.7818608E-02  0.1130116E+00
         25   -1    0    0    0    0  0.00000000000E+00  0.00000000000E+00  0.99999998245E-14  0.12500000000E+03  0.12500000000E+03 0.  0.
        -11    1    3    3    0    0  0.14722047123E+02  0.45512572693E+02  0.39652049095E+02  0.62132261687E+02  0.51100000000E-03 0.  1.
         23    2    1    0    0    0  0.30675780257E+01  0.21710560331E+02  0.21762338101E+02  0.94107317623E+02  0.88892234789E+02 0.  0.
         11    1    3    3    0    0 -0.11654469097E+02 -0.23802012362E+02 -0.17889710994E+02  0.31975055936E+02  0.51100000000E-03 0. -1.
         22    1    1    0    0    0 -0.30675780257E+01 -0.21710560331E+02 -0.21762338101E+02  0.30892682377E+02  0.00000000000E+00 0.  1.
</event>
<event>
 5    1  0.8778268E-005  0.9118800E+02  0.7818608E-02  0.1130116E+00
         25   -1    0    0    0    0  0.00000000000E+00  0.00000000000E+00  0.99999998245E-14  0.12500000000E+03  0.12500000000E+03 0.  0.
        -11    1    3    3    0    0 -0.15019497553E+02 -0.26400937510E+02 -0.51692047569E+02  0.59955505087E+02  0.51100000000E-03 0.  1.
         23    2    1    0    0    0 -0.39047316363E+00 -0.22063880627E+02 -0.19621414190E+02  0.95470909387E+02  0.90789467157E+02 0.  0.
         11    1    3    3    0    0  0.14629024390E+02  0.43370568835E+01  0.32070633378E+02  0.35515404299E+02  0.51100000000E-03 0. -1.
         22    1    1    0    0    0  0.39047316363E+00  0.22063880627E+02  0.19621414190E+02  0.29529090613E+02  0.00000000000E+00 0.  1.
</event>
<event>
 5    1  0.8778268E-005  0.9118800E+02  0.7818608E-02  0.1130116E+00
         25   -1    0    0    0    0  0.00000000000E+00  0.00000000000E+00  0.99999998245E-14  0.12500000000E+03  0.12500000000E+03 0.  0.
        -11    1    3    3    0    0 -0.24587303185E+02  0.16285598155E-01 -0.53753115302E+02  0.59109501335E+02  0.51100000000E-03 0. -1.
         23    2    1    0    0    0 -0.69010019764E+01  0.13828739521E+02 -0.25383620053E+02  0.95281554011E+02  0.90528385066E+02 0.  0.
         11    1    3    3    0    0  0.17686301208E+02  0.13812453923E+02  0.28369495249E+02  0.36172052676E+02  0.51100000000E-03 0.  1.
         22    1    1    0    0    0  0.69010019764E+01 -0.13828739521E+02  0.25383620053E+02  0.29718445989E+02  0.00000000000E+00 0. -1.
</event>
<event>
 5    1  0.8778268E-005  0.9118800E+02  0.7818608E-02  0.1130116E+00
         25   -1    0    0    0    0  0.00000000000E+00  0.00000000000E+00  0.99999998245E-14  0.12500000000E+03  0.12500000000E+03 0.  0.
        -11    1    3    3    0    0  0.60859612233E+01 -0.14820960422E+02  0.58867549815E+02  0.61008919129E+02  0.51100000000E-03 0.  1.
         23    2    1    0    0    0 -0.43762154921E+01 -0.53149967577E+00  0.28481692624E+02  0.96179164331E+02  0.91759419586E+02 0.  0.
         11    1    3    3    0    0 -0.10462176715E+02  0.14289460746E+02 -0.30385857191E+02  0.35170245202E+02  0.51100000000E-03 0. -1.
         22    1    1    0    0    0  0.43762154921E+01  0.53149967577E+00 -0.28481692624E+02  0.28820835669E+02  0.00000000000E+00 0.  1.
</event>
<event>
 5    1  0.8778268E-005  0.9118800E+02  0.7818608E-02  0.1130116E+00
         25   -1    0    0    0    0  0.00000000000E+00  0.00000000000E+00  0.99999998245E-14  0.12500000000E+03  0.12500000000E+03 0.  0.
        -11    1    3    3    0    0 -0.17169952103E+02 -0.94436980342E+00 -0.30505889325E+02  0.35018686059E+02  0.51100000000E-03 0.  1.
         23    2    1    0    0    0  0.23198741194E+02  0.78670587276E+01  0.14834367400E+02  0.96362076504E+02  0.92008255749E+02 0.  0.
         11    1    3    3    0    0  0.40368693297E+02  0.88114285311E+01  0.45340256724E+02  0.61343390445E+02  0.51100000000E-03 0. -1.
         22    1    1    0    0    0 -0.23198741194E+02 -0.78670587276E+01 -0.14834367400E+02  0.28637923496E+02  0.00000000000E+00 0. -1.
</event>
<event>
 5    1  0.8778268E-005  0.9118800E+02  0.7818608E-02  0.1130116E+00
         25   -1    0    0    0    0  0.00000000000E+00  0.00000000000E+00  0.99999998245E-14  0.12500000000E+03  0.12500000000E+03 0.  0.
        -11    1    3    3    0    0  0.34797685296E+02  0.47603824231E+02  0.18734373245E+02  0.61870669340E+02  0.51100000000E-03 0.  1.
         23    2    1    0    0    0  0.14408051629E+02  0.25433388995E+02  0.36980054963E+01  0.95536047920E+02  0.90879106400E+02 0.  0.
         11    1    3    3    0    0 -0.20389633667E+02 -0.22170435236E+02 -0.15036367749E+02  0.33665378580E+02  0.51100000000E-03 0. -1.
         22    1    1    0    0    0 -0.14408051629E+02 -0.25433388995E+02 -0.36980054963E+01  0.29463952080E+02  0.00000000000E+00 0.  1.
</event>
<event>
 5    1  0.8778268E-005  0.9118800E+02  0.7818608E-02  0.1130116E+00
         25   -1    0    0    0    0  0.00000000000E+00  0.00000000000E+00  0.99999998245E-14  0.12500000000E+03  0.12500000000E+03 0.  0.
        -11    1    3    3    0    0 -0.23237399444E+02 -0.22327734414E+02 -0.17353231636E+02  0.36601080659E+02  0.51100000000E-03 0. -1.
         23    2    1    0    0    0  0.14326425654E+02  0.23362029597E+02 -0.77120250409E+01  0.96530608909E+02  0.92236935265E+02 0.  0.
         11    1    3    3    0    0  0.37563825098E+02  0.45689764010E+02  0.96412065953E+01  0.59929528249E+02  0.51100000000E-03 0.  1.
         22    1    1    0    0    0 -0.14326425654E+02 -0.23362029597E+02  0.77120250409E+01  0.28469391091E+02  0.00000000000E+00 0.  1.
</event>
<event>
 5    1  0.8778268E-005  0.9118800E+02  0.7818608E-02  0.1130116E+00
         25   -1    0    0    0    0  0.00000000000E+00  0.00000000000E+00  0.99999998245E-14  0.12500000000E+03  0.12500000000E+03 0.  0.
        -11    1    3    3    0    0 -0.52980679074E+02 -0.16964138375E+02 -0.25427861401E+02  0.61166252800E+02  0.51100000000E-03 0.  1.
         23    2    1    0    0    0 -0.25369441512E+02 -0.12049609250E+02 -0.36415641090E+01  0.96679289648E+02  0.92438208615E+02 0.  0.
         11    1    3    3    0    0  0.27611237562E+02  0.49145291244E+01  0.21786297292E+02  0.35513036848E+02  0.51100000000E-03 0. -1.
         22    1    1    0    0    0  0.25369441512E+02  0.12049609250E+02  0.36415641090E+01  0.28320710352E+02  0.00000000000E+00 0.  1.
</event>
<event>
 5    1  0.8778268E-005  0.9118800E+02  0.7818608E-02  0.1130116E+00
         25   -1    0    0    0    0  0.00000000000E+00  0.00000000000E+00  0.99999998245E-14  0.12500000000E+03  0.12500000000E+03 0.  0.
        -11    1    3    3    0    0  0.23808846039E+02  0.49500132297E+02  0.10682630469E+02  0.55957509247E+02  0.51100000000E-03 0. -1.
         23    2    1    0    0    0 -0.72062951654E+01  0.30067618500E+02  0.13557758635E-01  0.94080870709E+02  0.88855037433E+02 0.  0.
         11    1    3    3    0    0 -0.31015141204E+02 -0.19432513797E+02 -0.10669072711E+02  0.38123361462E+02  0.51100000000E-03 0.  1.
         22    1    1    0    0    0  0.72062951654E+01 -0.30067618500E+02 -0.13557758635E-01  0.30919129291E+02  0.00000000000E+00 0. -1.
</event>
<event>
 5    1  0.8778268E-005  0.9118800E+02  0.7818608E-02  0.1130116E+00
         25   -1    0    0    0    0  0.00000000000E+00  0.00000000000E+00  0.99999998245E-14  0.12500000000E+03  0.12500000000E+03 0.  0.
        -11    1    3    3    0    0  0.55460623012E+01  0.28183358235E+02 -0.16224278224E+02  0.32989205699E+02  0.51100000000E-03 0.  1.
         23    2    1    0    0    0  0.20365664606E+02 -0.22354111758E+02  0.11670531957E+02  0.92585991863E+02  0.86726570126E+02 0.  0.
         11    1    3    3    0    0  0.14819602305E+02 -0.50537469993E+02  0.27894810181E+02  0.59596786164E+02  0.51100000000E-03 0. -1.
         22    1    1    0    0    0 -0.20365664606E+02  0.22354111758E+02 -0.11670531957E+02  0.32414008137E+02  0.00000000000E+00 0. -1.
</event>
<event>
 5    1  0.8778268E-005  0.9118800E+02  0.7818608E-02  0.1130116E+00
         25   -1    0    0    0    0  0.00000000000E+00  0.00000000000E+00  0.99999998245E-14  0.12500000000E+03  0.12500000000E+03 0.  0.
        -11    1    3    3    0    0  0.87418284200E+01 -0.14801445010E+02  0.57502700023E+02  0.60017187944E+02  0.51100000000E-03 0. -1.
         23    2    1    0    0    0  0.90088845979E+01 -0.18673439895E+02  0.26059474240E+02  0.91699045706E+02  0.85438641296E+02 0.  0.
         11    1    3    3    0    0  0.26705617793E+00 -0.38719948851E+01 -0.31443225783E+02  0.31681857763E+02  0.51100000000E-03 0.  1.
         22    1    1    0    0    0 -0.90088845979E+01  0.18673439895E+02 -0.26059474240E+02  0.33300954294E+02  0.00000000000E+00 0. -1.
</event>
<event>
 5    1  0.8778268E-005  0.9118800E+02  0.7818608E-02  0.1130116E+00
         25   -1    0    0    0    0  0.00000000000E+00  0.00000000000E+00  0.99999998245E-14  0.12500000000E+03  0.12500000000E+03 0.  0.
        -11    1    3    3    0    0  0.10859837977E+02 -0.54353524236E+02 -0.27672325799E+02  0.61951588302E+02  0.51100000000E-03 0. -1.
         23    2    1    0    0    0  0.68861357253E+01 -0.27735317110E+02 -0.78889109230E+01  0.95353725428E+02  0.90627983300E+02 0.  0.
         11    1    3    3    0    0 -0.39737022515E+01  0.26618207126E+02  0.19783414876E+02  0.33402137126E+02  0.51100000000E-03 0.  1.
         22    1    1    0    0    0 -0.68861357253E+01  0.27735317110E+02  0.78889109230E+01  0.29646274572E+02  0.00000000000E+00 0. -1.
</event>
<event>
 5    1  0.8778268E-005  0.9118800E+02  0.7818608E-02  0.1130116E+00
         25   -1    0    0    0    0  0.00000000000E+00  0.00000000000E+00  0.99999998245E-14  0.12500000000E+03  0.12500000000E+03 0.  0.
        -11    1    3    3    0    0  0.12985763654E+02  0.13307328424E+02  0.30674822481E+02  0.35870040173E+02  0.51100000000E-03 0.  1.
         23    2    1    0    0    0 -0.20604333642E+02 -0.16518204531E+02 -0.10283590504E+02  0.96660242072E+02  0.92412447852E+02 0.  0.
         11    1    3    3    0    0 -0.33590097297E+02 -0.29825532956E+02 -0.40958412985E+02  0.60790201899E+02  0.51100000000E-03 0. -1.
         22    1    1    0    0    0  0.20604333642E+02  0.16518204531E+02  0.10283590504E+02  0.28339757928E+02  0.00000000000E+00 0. -1.
</event>
<event>
 5    1  0.8778268E-005  0.9118800E+02  0.7818608E-02  0.1130116E+00
         25   -1    0    0    0    0  0.00000000000E+00  0.00000000000E+00  0.99999998245E-14  0.12500000000E+03  0.12500000000E+03 0.  0.
        -11    1    3    3    0    0  0.15740058888E+02  0.10189059451E+02 -0.29695977246E+02  0.35120043439E+02  0.51100000000E-03 0. -1.
         23    2    1    0    0    0 -0.20883353125E+02 -0.76674939677E+01  0.16932863740E+02  0.97042411121E+02  0.92927944023E+02 0.  0.
         11    1    3    3    0    0 -0.36623412013E+02 -0.17856553419E+02  0.46628840985E+02  0.61922367682E+02  0.51100000000E-03 0.  1.
         22    1    1    0    0    0  0.20883353125E+02  0.76674939677E+01 -0.16932863740E+02  0.27957588879E+02  0.00000000000E+00 0.  1.
</event>
<event>
 5    1  0.8778268E-005  0.9118800E+02  0.7818608E-02  0.1130116E+00
         25   -1    0    0    0    0  0.00000000000E+00  0.00000000000E+00  0.99999998245E-14  0.12500000000E+03  0.12500000000E+03 0.  0.
        -11    1    3    3    0    0 -0.47831100504E+02  0.16086901817E+02  0.22158520550E+02  0.55114450181E+02  0.51100000000E-03 0. -1.
         23    2    1    0    0    0 -0.99158591176E+01  0.25357972006E+02  0.82704421111E+01  0.96543872030E+02  0.92254907770E+02 0.  0.
         11    1    3    3    0    0  0.37915241386E+02  0.92710701890E+01 -0.13888078438E+02  0.41429421850E+02  0.51100000000E-03 0.  1.
         22    1    1    0    0    0  0.99158591176E+01 -0.25357972006E+02 -0.82704421111E+01  0.28456127970E+02  0.00000000000E+00 0. -1.
</event>
<event>
 5    1  0.8778268E-005  0.9118800E+02  0.7818608E-02  0.1130116E+00
         25   -1    0    0    0    0  0.00000000000E+00  0.00000000000E+00  0.99999998245E-14  0.12500000000E+03  0.12500000000E+03 0.  0.
        -11    1    3    3    0    0 -0.63423246316E+00 -0.34729956495E+02 -0.10966587379E+02  0.36425789874E+02  0.51100000000E-03 0.  1.
         23    2    1    0    0    0  0.10244660668E+02  0.12200544575E+02  0.24169206852E+02  0.96052514444E+02  0.91586727265E+02 0.  0.
         11    1    3    3    0    0  0.10878893132E+02  0.46930501070E+02  0.35135794231E+02  0.59626724570E+02  0.51100000000E-03 0. -1.
         22    1    1    0    0    0 -0.10244660668E+02 -0.12200544575E+02 -0.24169206852E+02  0.28947485556E+02  0.00000000000E+00 0. -1.
</event>
<event>
 5    1  0.8778268E-005  0.9118800E+02  0.7818608E-02  0.1130116E+00
         25   -1    0    0    0    0  0.00000000000E+00  0.00000000000E+00  0.99999998245E-14  0.12500000000E+03  0.12500000000E+03 0.  0.
        -11    1    3    3    0    0 -0.20178909363E+01  0.10431741787E+02  0.32067194218E+02  0.33781623197E+02  0.51100000000E-03 0.  1.
         23    2    1    0    0    0  0.10246647190E+02  0.36414647915E+00 -0.27618097817E+02  0.95540099994E+02  0.90884679669E+02 0.  0.
         11    1    3    3    0    0  0.12264538126E+02 -0.10067595308E+02 -0.59685292035E+02  0.61758476797E+02  0.51100000000E-03 0. -1.
         22    1    1    0    0    0 -0.10246647190E+02 -0.36414647915E+00  0.27618097817E+02  0.29459900006E+02  0.00000000000E+00 0. -1.
</event>
<event>
 5    1  0.8778268E-005  0.9118800E+02  0.7818608E-02  0.1130116E+00
         25   -1    0    0    0    0  0.00000000000E+00  0.00000000000E+00  0.99999998245E-14  0.12500000000E+03  0.12500000000E+03 0.  0.
        -11    1    3    3    0    0 -0.59206224476E+01  0.36162728370E+02  0.45607984659E+01  0.36926922107E+02  0.51100000000E-03 0.  1.
         23    2    1    0    0    0 -0.11645355565E+01 -0.58996756906E+01  0.35268490751E+02  0.89222510483E+02  0.81735106415E+02 0.  0.
         11    1    3    3    0    0  0.47560868911E+01 -0.42062404061E+02  0.30707692285E+02  0.52295588376E+02  0.51100000000E-03 0. -1.
         22    1    1    0    0    0  0.11645355565E+01  0.58996756906E+01 -0.35268490751E+02  0.35777489517E+02  0.00000000000E+00 0. -1.
</event>
<event>
 5    1  0.8778268E-005  0.9118800E+02  0.7818608E-02  0.1130116E+00
         25   -1    0    0    0    0  0.00000000000E+00  0.00000000000E+00  0.99999998245E-14  0.12500000000E+03  0.12500000000E+03 0.  0.
        -11    1    3    3    0    0  0.85206462816E+01  0.99464845728E+01 -0.28126326938E+02  0.31026186290E+02  0.51100000000E-03 0. -1.
         23    2    1    0    0    0 -0.17725333645E+02  0.68172836228E+00  0.26950155540E+02  0.92736040385E+02  0.86942567803E+02 0.  0.
         11    1    3    3    0    0 -0.26245979927E+02 -0.92647562106E+01  0.55076482478E+02  0.61709854095E+02  0.51100000000E-03 0.  1.
         22    1    1    0    0    0  0.17725333645E+02 -0.68172836228E+00 -0.26950155540E+02  0.32263959615E+02  0.00000000000E+00 0.  1.
</event>
<event>
 5    1  0.8778268E-005  0.9118800E+02  0.7818608E-02  0.1130116E+00
         25   -1    0    0    0    0  0.00000000000E+00  0.00000000000E+00  0.99999998245E-14  0.12500000000E+03  0.12500000000E+03 0.  0.
        -11    1    3    3    0    0  0.20004921060E+00  0.52566407381E+02 -0.25380515511E+02  0.58373262479E+02  0.51100000000E-03 0.  1.
         23    2    1    0    0    0 -0.15883812416E+02  0.23122348061E+02 -0.11485005275E+02  0.94687563230E+02  0.89704463700E+02 0.  0.
         11    1    3    3    0    0 -0.16083861627E+02 -0.29444059320E+02  0.13895510236E+02  0.36314300751E+02  0.51100000000E-03 0. -1.
         22    1    1    0    0    0  0.15883812416E+02 -0.23122348061E+02  0.11485005275E+02  0.30312436770E+02  0.00000000000E+00 0.  1.
</event>
<event>
 5    1  0.8778268E-005  0.9118800E+02  0.7818608E-02  0.1130116E+00
         25   -1    0    0    0    0  0.00000000000E+00  0.00000000000E+00  0.99999998245E-14  0.12500000000E+03  0.12500000000E+03 0.  0.
        -11    1    3    3    0    0  0.10197715929E+02  0.23045149229E+02 -0.54703135498E+02  0.60228775072E+02  0.51100000000E-03 0. -1.
         23    2    1    0    0    0  0.17012470557E+02  0.10104111981E+02 -0.27401506551E+02  0.91201186491E+02  0.84707122621E+02 0.  0.
         11    1    3    3    0    0  0.68147546277E+01 -0.12941037248E+02  0.27301628947E+02  0.30972411419E+02  0.51100000000E-03 0.  1.
         22    1    1    0    0    0 -0.17012470557E+02 -0.10104111981E+02  0.27401506551E+02  0.33798813509E+02  0.00000000000E+00 0. -1.
</event>
<event>
 5    1  0.8778268E-005  0.9118800E+02  0.7818608E-02  0.1130116E+00
         25   -1    0    0    0    0  0.00000000000E+00  0.00000000000E+00  0.99999998245E-14  0.12500000000E+03  0.12500000000E+03 0.  0.
        -11    1    3    3    0    0  0.28591029748E+02  0.41884069737E+02 -0.15897147611E+02  0.53145475651E+02  0.51100000000E-03 0. -1.
         23    2    1    0    0    0  0.28270739398E+02  0.82519369191E-01 -0.63146350276E+01  0.96032498708E+02  0.91559405181E+02 0.  0.
         11    1    3    3    0    0 -0.32029034969E+00 -0.41801550368E+02  0.95825125832E+01  0.42887023057E+02  0.51100000000E-03 0.  1.
         22    1    1    0    0    0 -0.28270739398E+02 -0.82519369191E-01  0.63146350276E+01  0.28967501292E+02  0.00000000000E+00 0. -1.
</event>
<event>
 5    1  0.8778268E-005  0.9118800E+02  0.7818608E-02  0.1130116E+00
         25   -1    0    0    0    0  0.00000000000E+00  0.00000000000E+00  0.99999998245E-14  0.12500000000E+03  0.12500000000E+03 0.  0.
        -11    1    3    3    0    0  0.66672344737E+01 -0.31315169992E+02 -0.97641887368E+01  0.33472843756E+02  0.51100000000E-03 0.  1.
         23    2    1    0    0    0  0.33163059849E+00  0.27571172616E+02  0.96299405662E+01  0.95793574447E+02  0.91232634576E+02 0.  0.
         11    1    3    3    0    0 -0.63356038752E+01  0.58886342608E+02  0.19394129303E+02  0.62320730691E+02  0.51100000000E-03 0. -1.
         22    1    1    0    0    0 -0.33163059849E+00 -0.27571172616E+02 -0.96299405662E+01  0.29206425553E+02  0.00000000000E+00 0. -1.
</event>
<event>
 5    1  0.8778268E-005  0.9118800E+02  0.7818608E-02  0.1130116E+00
         25   -1    0    0    0    0  0.00000000000E+00  0.00000000000E+00  0.99999998245E-14  0.12500000000E+03  0.12500000000E+03 0.  0.
        -11    1    3    3    0    0  0.12481472190E+02  0.30124532441E+02  0.36658199296E+02  0.49062186852E+02  0.51100000000E-03 0.  1.
         23    2    1    0    0    0  0.23598378283E+02 -0.94293011904E+01  0.14448370118E+02  0.95767302936E+02  0.91196632252E+02 0.  0.
         11    1    3    3    0    0  0.11116906094E+02 -0.39553833631E+02 -0.22209829179E+02  0.46705116084E+02  0.51100000000E-03 0. -1.
         22    1    1    0    0    0 -0.23598378283E+02  0.94293011904E+01 -0.14448370118E+02  0.29232697064E+02  0.00000000000E+00 0. -1.
</event>
<event>
 5    1  0.8778268E-005  0.9118800E+02  0.7818608E-02  0.1130116E+00
         25   -1    0    0    0    0  0.00000000000E+00  0.00000000000E+00  0.99999998245E-14  0.12500000000E+03  0.12500000000E+03 0.  0.
        -11    1    3    3    0    0  0.32370478962E+01  0.30554924623E+02 -0.74939505744E+01  0.31626589973E+02  0.51100000000E-03 0.  1.
         23    2    1    0    0    0 -0.13054798853E+02 -0.22922167329E+02 -0.23388081939E+02  0.89745838473E+02  0.82531567405E+02 0.  0.
         11    1    3    3    0    0 -0.16291846750E+02 -0.53477091952E+02 -0.15894131365E+02  0.58119248501E+02  0.51100000000E-03 0. -1.
         22    1    1    0    0    0  0.13054798853E+02  0.22922167329E+02  0.23388081939E+02  0.35254161527E+02  0.00000000000E+00 0. -1.
</event>
<event>
 5    1  0.8778268E-005  0.9118800E+02  0.7818608E-02  0.1130116E+00
         25   -1    0    0    0    0  0.00000000000E+00  0.00000000000E+00  0.99999998245E-14  0.12500000000E+03  0.12500000000E+03 0.  0.
        -11    1    3    3    0    0  0.77129869122E+01 -0.61872609156E+01  0.41756544935E+02  0.42911320301E+02  0.51100000000E-03 0. -1.
         23    2    1    0    0    0 -0.13595124452E+02  0.10609392931E+02 -0.12585960324E+02  0.10365069030E+03  0.10142816461E+03 0.  0.
         11    1    3    3    0    0 -0.21308111364E+02  0.16796653846E+02 -0.54342505259E+02  0.60739370004E+02  0.51100000000E-03 0.  1.
         22    1    1    0    0    0  0.13595124452E+02 -0.10609392931E+02  0.12585960324E+02  0.21349309696E+02  0.00000000000E+00 0.  1.
</event>
<event>
 5    1  0.8778268E-005  0.9118800E+02  0.7818608E-02  0.1130116E+00
         25   -1    0    0    0    0  0.00000000000E+00  0.00000000000E+00  0.99999998245E-14  0.12500000000E+03  0.12500000000E+03 0.  0.
        -11    1    3    3    0    0  0.28113624918E+02 -0.19352629369E+02  0.54348934536E+00  0.34134960824E+02  0.51100000000E-03 0.  1.
         23    2    1    0    0    0 -0.18953007963E+02  0.13227144041E+02 -0.19474727661E+02  0.94776848811E+02  0.89828793840E+02 0.  0.
         11    1    3    3    0    0 -0.47066632881E+02  0.32579773411E+02 -0.20018217006E+02  0.60641887987E+02  0.51100000000E-03 0. -1.
         22    1    1    0    0    0  0.18953007963E+02 -0.13227144041E+02  0.19474727661E+02  0.30223151189E+02  0.00000000000E+00 0. -1.
</event>
<event>
 5    1  0.8778268E-005  0.9118800E+02  0.7818608E-02  0.1130116E+00
         25   -1    0    0    0    0  0.00000000000E+00  0.00000000000E+00  0.99999998245E-14  0.12500000000E+03  0.12500000000E+03 0.  0.
        -11    1    3    3    0    0  0.44846651752E+02 -0.11480322468E+02 -0.20013628239E+02  0.50433771353E+02  0.51100000000E-03 0. -1.
         23    2    1    0    0    0  0.50586990454E+01  0.65167261003E+01 -0.28855098276E+02  0.94988754581E+02  0.90123185947E+02 0.  0.
         11    1    3    3    0    0 -0.39787952707E+02  0.17997048568E+02 -0.88414700368E+01  0.44554983228E+02  0.51100000000E-03 0.  1.
         22    1    1    0    0    0 -0.50586990454E+01 -0.65167261003E+01  0.28855098276E+02  0.30011245419E+02  0.00000000000E+00 0.  1.
</event>
<event>
 5    1  0.8778268E-005  0.9118800E+02  0.7818608E-02  0.1130116E+00
         25   -1    0    0    0    0  0.00000000000E+00  0.00000000000E+00  0.99999998245E-14  0.12500000000E+03  0.12500000000E+03 0.  0.
        -11    1    3    3    0    0 -0.14048684528E+02  0.15123624873E+02 -0.10506188584E+01  0.20668656621E+02  0.51100000000E-03 0.  1.
         23    2    1    0    0    0 -0.15622226060E+02 -0.42853939212E+02 -0.65150100412E+01  0.78924416348E+02  0.64078889559E+02 0.  0.
         11    1    3    3    0    0 -0.15735415325E+01 -0.57977564085E+02 -0.54643911828E+01  0.58255759727E+02  0.51100000000E-03 0. -1.
         22    1    1    0    0    0  0.15622226060E+02  0.42853939212E+02  0.65150100412E+01  0.46075583652E+02  0.00000000000E+00 0. -1.
</event>
<event>
 5    1  0.8778268E-005  0.9118800E+02  0.7818608E-02  0.1130116E+00
         25   -1    0    0    0    0  0.00000000000E+00  0.00000000000E+00  0.99999998245E-14  0.12500000000E+03  0.12500000000E+03 0.  0.
        -11    1    3    3    0    0 -0.23178864751E+02  0.41682657034E+02 -0.29270013244E+02  0.55959247173E+02  0.51100000000E-03 0.  1.
         23    2    1    0    0    0 -0.21989236692E+02  0.35265292770E+01 -0.19584341560E+02  0.95343476715E+02  0.90613846506E+02 0.  0.
         11    1    3    3    0    0  0.11896280596E+01 -0.38156127757E+02  0.96856716841E+01  0.39384229542E+02  0.51100000000E-03 0. -1.
         22    1    1    0    0    0  0.21989236692E+02 -0.35265292770E+01  0.19584341560E+02  0.29656523285E+02  0.00000000000E+00 0. -1.
</event>
<event>
 5    1  0.8778268E-005  0.9118800E+02  0.7818608E-02  0.1130116E+00
         25   -1    0    0    0    0  0.00000000000E+00  0.00000000000E+00  0.99999998245E-14  0.12500000000E+03  0.12500000000E+03 0.  0.
        -11    1    3    3    0    0 -0.15556160988E+02 -0.39226537482E+02 -0.40261672208E+02  0.58324245703E+02  0.51100000000E-03 0. -1.
         23    2    1    0    0    0 -0.33695270573E+01 -0.26604136866E+02 -0.49840665551E+01  0.97724099824E+02  0.93840422825E+02 0.  0.
         11    1    3    3    0    0  0.12186633931E+02  0.12622400616E+02  0.35277605653E+02  0.39399854121E+02  0.51100000000E-03 0.  1.
         22    1    1    0    0    0  0.33695270573E+01  0.26604136866E+02  0.49840665551E+01  0.27275900176E+02  0.00000000000E+00 0. -1.
</event>
<event>
 5    1  0.8778268E-005  0.9118800E+02  0.7818608E-02  0.1130116E+00
         25   -1    0    0    0    0  0.00000000000E+00  0.00000000000E+00  0.99999998245E-14  0.12500000000E+03  0.12500000000E+03 0.  0.
        -11    1    3    3    0    0  0.20111511037E+02  0.23327075948E+02  0.40170798576E+02  0.50619348148E+02  0.51100000000E-03 0.  1.
         23    2    1    0    0    0 -0.17549111920E+02  0.53124907463E+01  0.22558245550E+02  0.95929941014E+02  0.91419282723E+02 0.  0.
         11    1    3    3    0    0 -0.37660622958E+02 -0.18014585202E+02 -0.17612553025E+02  0.45310592866E+02  0.51100000000E-03 0. -1.
         22    1    1    0    0    0  0.17549111920E+02 -0.53124907463E+01 -0.22558245550E+02  0.29070058986E+02  0.00000000000E+00 0. -1.
</event>
<event>
 5    1  0.8778268E-005  0.9118800E+02  0.7818608E-02  0.1130116E+00
         25   -1    0    0    0    0  0.00000000000E+00  0.00000000000E+00  0.99999998245E-14  0.12500000000E+03  0.12500000000E+03 0.  0.
        -11    1    3    3    0    0  0.17695713344E+02 -0.57569025468E+02 -0.39605359353E+01  0.60357408901E+02  0.51100000000E-03 0.  1.
         23    2    1    0    0    0  0.12326000255E+02 -0.24096802554E+02  0.87383637713E+01  0.96558038446E+02  0.92274100438E+02 0.  0.
         11    1    3    3    0    0 -0.53697130891E+01  0.33472222914E+02  0.12698899707E+02  0.36200629545E+02  0.51100000000E-03 0. -1.
         22    1    1    0    0    0 -0.12326000255E+02  0.24096802554E+02 -0.87383637713E+01  0.28441961554E+02  0.00000000000E+00 0.  1.
</event>
<event>
 5    1  0.8778268E-005  0.9118800E+02  0.7818608E-02  0.1130116E+00
         25   -1    0    0    0    0  0.00000000000E+00  0.00000000000E+00  0.99999998245E-14  0.12500000000E+03  0.12500000000E+03 0.  0.
        -11    1    3    3    0    0  0.24036726956E+02  0.31722670244E+02  0.16476368049E+02  0.43076243505E+02  0.51100000000E-03 0. -1.
         23    2    1    0    0    0  0.22028739661E+02 -0.58033167699E+01 -0.19435017175E+02  0.95055655807E+02  0.90215929589E+02 0.  0.
         11    1    3    3    0    0 -0.20079872948E+01 -0.37525987013E+02 -0.35911385224E+02  0.51979412302E+02  0.51100000000E-03 0.  1.
         22    1    1    0    0    0 -0.22028739661E+02  0.58033167699E+01  0.19435017175E+02  0.29944344193E+02  0.00000000000E+00 0.  1.
</event>
<event>
 5    1  0.8778268E-005  0.9118800E+02  0.7818608E-02  0.1130116E+00
         25   -1    0    0    0    0  0.00000000000E+00  0.00000000000E+00  0.99999998245E-14  0.12500000000E+03  0.12500000000E+03 0.  0.
        -11    1    3    3    0    0  0.14435193012E+02 -0.27896774969E+02 -0.18911030026E+02  0.36663768326E+02  0.51100000000E-03 0. -1.
         23    2    1    0    0    0  0.96157603634E+01  0.27770571019E+02 -0.12927711528E+00  0.95611495875E+02  0.90982822383E+02 0.  0.
         11    1    3    3    0    0 -0.48194326481E+01  0.55667345989E+02  0.18781752911E+02  0.58947727549E+02  0.51100000000E-03 0.  1.
         22    1    1    0    0    0 -0.96157603634E+01 -0.27770571019E+02  0.12927711528E+00  0.29388504125E+02  0.00000000000E+00 0.  1.
</event>
<event>
 5    1  0.8778268E-005  0.9118800E+02  0.7818608E-02  0.1130116E+00
         25   -1    0    0    0    0  0.00000000000E+00  0.00000000000E+00  0.99999998245E-14  0.12500000000E+03  0.12500000000E+03 0.  0.
        -11    1    3    3    0    0 -0.15796205530E+02  0.50849553998E+02 -0.18007712969E+02  0.56209207231E+02  0.51100000000E-03 0.  1.
         23    2    1    0    0    0 -0.24003567910E+02  0.14013918020E+02 -0.13122650916E+02  0.94262967975E+02  0.89110841056E+02 0.  0.
         11    1    3    3    0    0 -0.82073623799E+01 -0.36835635978E+02  0.48850620530E+01  0.38053760743E+02  0.51100000000E-03 0. -1.
         22    1    1    0    0    0  0.24003567910E+02 -0.14013918020E+02  0.13122650916E+02  0.30737032025E+02  0.00000000000E+00 0.  1.
</event>
<event>
 5    1  0.8778268E-005  0.9118800E+02  0.7818608E-02  0.1130116E+00
         25   -1    0    0    0    0  0.00000000000E+00  0.00000000000E+00  0.99999998245E-14  0.12500000000E+03  0.12500000000E+03 0.  0.
        -11    1    3    3    0    0 -0.26660298752E+02  0.74876510947E+01  0.61707740743E+01  0.28371022213E+02  0.51100000000E-03 0.  1.
         23    2    1    0    0    0  0.20488658505E+02  0.35689735345E+02  0.66534468265E+01  0.83312943364E+02  0.72133458540E+02 0.  0.
         11    1    3    3    0    0  0.47148957257E+02  0.28202084250E+02  0.48267275223E+00  0.54941921151E+02  0.51100000000E-03 0. -1.
         22    1    1    0    0    0 -0.20488658505E+02 -0.35689735345E+02 -0.66534468265E+01  0.41687056636E+02  0.00000000000E+00 0. -1.
</event>
<event>
 5    1  0.8778268E-005  0.9118800E+02  0.7818608E-02  0.1130116E+00
         25   -1    0    0    0    0  0.00000000000E+00  0.00000000000E+00  0.99999998245E-14  0.12500000000E+03  0.12500000000E+03 0.  0.
        -11    1    3    3    0    0  0.53083395300E+02  0.24409285773E+02  0.25914284019E+01  0.58483977207E+02  0.51100000000E-03 0. -1.
         23    2    1    0    0    0  0.16527770483E+02  0.24874140246E+02  0.23472197750E+01  0.95043373174E+02  0.90198909603E+02 0.  0.
         11    1    3    3    0    0 -0.36555624817E+02  0.46485447296E+00 -0.24420862692E+00  0.36559395968E+02  0.51100000000E-03 0.  1.
         22    1    1    0    0    0 -0.16527770483E+02 -0.24874140246E+02 -0.23472197750E+01  0.29956626826E+02  0.00000000000E+00 0. -1.
</event>
<event>
 5    1  0.8778268E-005  0.9118800E+02  0.7818608E-02  0.1130116E+00
         25   -1    0    0    0    0  0.00000000000E+00  0.00000000000E+00  0.99999998245E-14  0.12500000000E+03  0.12500000000E+03 0.  0.
        -11    1    3    3    0    0 -0.28977579361E+02  0.30314816129E+02  0.12759483830E+02  0.43834833300E+02  0.51100000000E-03 0.  1.
         23    2    1    0    0    0  0.20334549777E+02  0.21686647368E+02  0.10225841250E+01  0.95253567155E+02  0.90489733058E+02 0.  0.
         11    1    3    3    0    0  0.49312129138E+02 -0.86281687613E+01 -0.11736899705E+02  0.51418733855E+02  0.51100000000E-03 0. -1.
         22    1    1    0    0    0 -0.20334549777E+02 -0.21686647368E+02 -0.10225841250E+01  0.29746432845E+02  0.00000000000E+00 0. -1.
</event>
<event>
 5    1  0.8778268E-005  0.9118800E+02  0.7818608E-02  0.1130116E+00
         25   -1    0    0    0    0  0.00000000000E+00  0.00000000000E+00  0.99999998245E-14  0.12500000000E+03  0.12500000000E+03 0.  0.
        -11    1    3    3    0    0  0.14129451356E+02 -0.89709627329E+01  0.31566109996E+02  0.35728684114E+02  0.51100000000E-03 0. -1.
         23    2    1    0    0    0 -0.13135138511E+02 -0.14294996379E+02 -0.21749035543E+02  0.95846967015E+02  0.91305759696E+02 0.  0.
         11    1    3    3    0    0 -0.27264589867E+02 -0.53240336458E+01 -0.53315145539E+02  0.60118282901E+02  0.51100000000E-03 0.  1.
         22    1    1    0    0    0  0.13135138511E+02  0.14294996379E+02  0.21749035543E+02  0.29153032985E+02  0.00000000000E+00 0.  1.
</event>
<event>
 5    1  0.8778268E-005  0.9118800E+02  0.7818608E-02  0.1130116E+00
         25   -1    0    0    0    0  0.00000000000E+00  0.00000000000E+00  0.99999998245E-14  0.12500000000E+03  0.12500000000E+03 0.  0.
        -11    1    3    3    0    0  0.16923619601E+02 -0.26495905994E+02  0.51276801828E+02  0.60147754246E+02  0.51100000000E-03 0.  1.
         23    2    1    0    0    0 -0.41573868461E+01 -0.13093370857E+02  0.25449640030E+02  0.96079342963E+02  0.91623336224E+02 0.  0.
         11    1    3    3    0    0 -0.21081006447E+02  0.13402535137E+02 -0.25827161798E+02  0.35931588717E+02  0.51100000000E-03 0. -1.
         22    1    1    0    0    0  0.41573868461E+01  0.13093370857E+02 -0.25449640030E+02  0.28920657037E+02  0.00000000000E+00 0.  1.
</event>
<event>
 5    1  0.8778268E-005  0.9118800E+02  0.7818608E-02  0.1130116E+00
         25   -1    0    0    0    0  0.00000000000E+00  0.00000000000E+00  0.99999998245E-14  0.12500000000E+03  0.12500000000E+03 0.  0.
        -11    1    3    3    0    0 -0.26804788197E+02 -0.44656905418E+01 -0.19654654418E+02  0.33537210720E+02  0.51100000000E-03 0. -1.
         23    2    1    0    0    0  0.24112047411E+02  0.11287699275E+02  0.12291556029E+02  0.95676198492E+02  0.91071672999E+02 0.  0.
         11    1    3    3    0    0  0.50916835608E+02  0.15753389817E+02  0.31946210447E+02  0.62138987772E+02  0.51100000000E-03 0.  1.
         22    1    1    0    0    0 -0.24112047411E+02 -0.11287699275E+02 -0.12291556029E+02  0.29323801508E+02  0.00000000000E+00 0.  1.
</event>
<event>
 5    1  0.8778268E-005  0.9118800E+02  0.7818608E-02  0.1130116E+00
         25   -1    0    0    0    0  0.00000000000E+00  0.00000000000E+00  0.99999998245E-14  0.12500000000E+03  0.12500000000E+03 0.  0.
        -11    1    3    3    0    0  0.12181574293E+02  0.25687960546E+02 -0.46522846279E+02  0.54521897394E+02  0.51100000000E-03 0. -1.
         23    2    1    0    0    0  0.15069245986E+02 -0.82524556753E+01 -0.24471051313E+02  0.95099873719E+02  0.90277175575E+02 0.  0.
         11    1    3    3    0    0  0.28876716931E+01 -0.33940416221E+02  0.22051794967E+02  0.40577976325E+02  0.51100000000E-03 0.  1.
         22    1    1    0    0    0 -0.15069245986E+02  0.82524556753E+01  0.24471051313E+02  0.29900126281E+02  0.00000000000E+00 0. -1.
</event>
<event>
 5    1  0.8778268E-005  0.9118800E+02  0.7818608E-02  0.1130116E+00
         25   -1    0    0    0    0  0.00000000000E+00  0.00000000000E+00  0.99999998245E-14  0.12500000000E+03  0.12500000000E+03 0.  0.
        -11    1    3    3    0    0 -0.28780032813E+01 -0.26284864118E+02 -0.25564105210E+02  0.36779076389E+02  0.51100000000E-03 0.  1.
         23    2    1    0    0    0 -0.74484247345E+01  0.28311701460E+02 -0.49879913014E+01  0.95303004734E+02  0.90557999004E+02 0.  0.
         11    1    3    3    0    0 -0.45704214532E+01  0.54596565578E+02  0.20576113909E+02  0.58523928345E+02  0.51100000000E-03 0. -1.
         22    1    1    0    0    0  0.74484247345E+01 -0.28311701460E+02  0.49879913014E+01  0.29696995266E+02  0.00000000000E+00 0. -1.
</event>
<event>
 5    1  0.8778268E-005  0.9118800E+02  0.7818608E-02  0.1130116E+00
         25   -1    0    0    0    0  0.00000000000E+00  0.00000000000E+00  0.99999998245E-14  0.12500000000E+03  0.12500000000E+03 0.  0.
        -11    1    3    3    0    0  0.10474569433E+02 -0.41008883092E+02  0.37262927672E+02  0.56391230490E+02  0.51100000000E-03 0.  1.
         23    2    1    0    0    0  0.22441087063E+02 -0.10383643590E+02  0.16140302084E+02  0.95471508774E+02  0.90790292396E+02 0.  0.
         11    1    3    3    0    0  0.11966517630E+02  0.30625239502E+02 -0.21122625588E+02  0.39080278284E+02  0.51100000000E-03 0. -1.
         22    1    1    0    0    0 -0.22441087063E+02  0.10383643590E+02 -0.16140302084E+02  0.29528491226E+02  0.00000000000E+00 0.  1.
</event>
<event>
 5    1  0.8778268E-005  0.9118800E+02  0.7818608E-02  0.1130116E+00
         25   -1    0    0    0    0  0.00000000000E+00  0.00000000000E+00  0.99999998245E-14  0.12500000000E+03  0.12500000000E+03 0.  0.
        -11    1    3    3    0    0  0.33885283565E+02 -0.68467986557E+01  0.12727228179E+02  0.36838477595E+02  0.51100000000E-03 0.  1.
         23    2    1    0    0    0 -0.51917566911E+01  0.30276492331E+02 -0.56133680162E+01  0.93772924794E+02  0.88420762260E+02 0.  0.
         11    1    3    3    0    0 -0.39077040256E+02  0.37123290987E+02 -0.18340596195E+02  0.56934447200E+02  0.51100000000E-03 0. -1.
         22    1    1    0    0    0  0.51917566911E+01 -0.30276492331E+02  0.56133680162E+01  0.31227075206E+02  0.00000000000E+00 0. -1.
</event>
<event>
 5    1  0.8778268E-005  0.9118800E+02  0.7818608E-02  0.1130116E+00
         25   -1    0    0    0    0  0.00000000000E+00  0.00000000000E+00  0.99999998245E-14  0.12500000000E+03  0.12500000000E+03 0.  0.
        -11    1    3    3    0    0  0.40382669441E+02 -0.69361037719E+01 -0.24191952269E+02  0.47582770848E+02  0.51100000000E-03 0.  1.
         23    2    1    0    0    0  0.25765331829E+02 -0.33698997314E+02 -0.19012101589E+02  0.78514144613E+02  0.63273502773E+02 0.  0.
         11    1    3    3    0    0 -0.14617337612E+02 -0.26762893543E+02  0.51798506795E+01  0.30931373765E+02  0.51100000000E-03 0. -1.
         22    1    1    0    0    0 -0.25765331829E+02  0.33698997314E+02  0.19012101589E+02  0.46485855387E+02  0.00000000000E+00 0.  1.
</event>
<event>
 5    1  0.8778268E-005  0.9118800E+02  0.7818608E-02  0.1130116E+00
         25   -1    0    0    0    0  0.00000000000E+00  0.00000000000E+00  0.99999998245E-14  0.12500000000E+03  0.12500000000E+03 0.  0.
        -11    1    3    3    0    0  0.34541832402E+02  0.25368235799E+02  0.22786338335E+02  0.48537643002E+02  0.51100000000E-03 0.  1.
         23    2    1    0    0    0  0.22123551470E+02  0.70182276072E+00  0.38704704925E+02  0.80413025802E+02  0.66919776229E+02 0.  0.
         11    1    3    3    0    0 -0.12418280932E+02 -0.24666413038E+02  0.15918366589E+02  0.31875382800E+02  0.51100000000E-03 0. -1.
         22    1    1    0    0    0 -0.22123551470E+02 -0.70182276072E+00 -0.38704704925E+02  0.44586974198E+02  0.00000000000E+00 0.  1.
</event>
<event>
 5    1  0.8778268E-005  0.9118800E+02  0.7818608E-02  0.1130116E+00
         25   -1    0    0    0    0  0.00000000000E+00  0.00000000000E+00  0.99999998245E-14  0.12500000000E+03  0.12500000000E+03 0.  0.
        -11    1    3    3    0    0 -0.24294268059E+02  0.29065739356E+01 -0.24191875455E+02  0.34407941973E+02  0.51100000000E-03 0.  1.
         23    2    1    0    0    0  0.20427545088E+01  0.35834002588E+01  0.30028167542E+02  0.94689862268E+02  0.89707667270E+02 0.  0.
         11    1    3    3    0    0  0.26337022567E+02  0.67682632320E+00  0.54220042997E+02  0.60281920295E+02  0.51100000000E-03 0. -1.
         22    1    1    0    0    0 -0.20427545088E+01 -0.35834002588E+01 -0.30028167542E+02  0.30310137732E+02  0.00000000000E+00 0. -1.
</event>
<event>
 5    1  0.8778268E-005  0.9118800E+02  0.7818608E-02  0.1130116E+00
         25   -1    0    0    0    0  0.00000000000E+00  0.00000000000E+00  0.99999998245E-14  0.12500000000E+03  0.12500000000E+03 0.  0.
        -11    1    3    3    0    0 -0.34016701887E+02 -0.51831248224E+01 -0.18690774099E+02  0.39157959942E+02  0.51100000000E-03 0. -1.
         23    2    1    0    0    0  0.19011273761E+02  0.15268478118E+02 -0.15550683117E+02  0.96079787354E+02  0.91623942496E+02 0.  0.
         11    1    3    3    0    0  0.53027975648E+02  0.20451602941E+02  0.31400909814E+01  0.56921827411E+02  0.51100000000E-03 0.  1.
         22    1    1    0    0    0 -0.19011273761E+02 -0.15268478118E+02  0.15550683117E+02  0.28920212646E+02  0.00000000000E+00 0.  1.
</event>
<event>
 5    1  0.8778268E-005  0.9118800E+02  0.7818608E-02  0.1130116E+00
         25   -1    0    0    0    0  0.00000000000E+00  0.00000000000E+00  0.99999998245E-14  0.12500000000E+03  0.12500000000E+03 0.  0.
        -11    1    3    3    0    0  0.12071175818E+02  0.85409467759E+01  0.16814184952E+02  0.22391468762E+02  0.51100000000E-03 0. -1.
         23    2    1    0    0    0 -0.10469547272E+02  0.11220691227E+02 -0.39239131538E+02  0.82866583623E+02  0.71355769955E+02 0.  0.
         11    1    3    3    0    0 -0.22540723090E+02  0.26797444509E+01 -0.56053316490E+02  0.60475114862E+02  0.51100000000E-03 0.  1.
         22    1    1    0    0    0  0.10469547272E+02 -0.11220691227E+02  0.39239131538E+02  0.42133416377E+02  0.00000000000E+00 0.  1.
</event>
<event>
 5    1  0.8778268E-005  0.9118800E+02  0.7818608E-02  0.1130116E+00
         25   -1    0    0    0    0  0.00000000000E+00  0.00000000000E+00  0.99999998245E-14  0.12500000000E+03  0.12500000000E+03 0.  0.
        -11    1    3    3    0    0  0.44416604995E+02  0.40714616351E+02 -0.33894074415E+01  0.60349008832E+02  0.51100000000E-03 0.  1.
         23    2    1    0    0    0  0.29578808010E+02  0.12282663251E+02  0.21734957557E+01  0.92898694986E+02  0.87176107659E+02 0.  0.
         11    1    3    3    0    0 -0.14837796985E+02 -0.28431953101E+02  0.55629031972E+01  0.32549686154E+02  0.51100000000E-03 0. -1.
         22    1    1    0    0    0 -0.29578808010E+02 -0.12282663251E+02 -0.21734957557E+01  0.32101305014E+02  0.00000000000E+00 0.  1.
</event>
<event>
 5    1  0.8778268E-005  0.9118800E+02  0.7818608E-02  0.1130116E+00
         25   -1    0    0    0    0  0.00000000000E+00  0.00000000000E+00  0.99999998245E-14  0.12500000000E+03  0.12500000000E+03 0.  0.
        -11    1    3    3    0    0 -0.70835394781E+01  0.42189677018E+02  0.22110332206E+02  0.48156122861E+02  0.51100000000E-03 0. -1.
         23    2    1    0    0    0  0.35021307730E+01 -0.34391673015E+01  0.29076632271E+02  0.95511979790E+02  0.90845995770E+02 0.  0.
         11    1    3    3    0    0  0.10585670251E+02 -0.45628844320E+02  0.69663000656E+01  0.47355856929E+02  0.51100000000E-03 0.  1.
         22    1    1    0    0    0 -0.35021307730E+01  0.34391673015E+01 -0.29076632271E+02  0.29488020210E+02  0.00000000000E+00 0. -1.
</event>
<event>
 5    1  0.8778268E-005  0.9118800E+02  0.7818608E-02  0.1130116E+00
         25   -1    0    0    0    0  0.00000000000E+00  0.00000000000E+00  0.99999998245E-14  0.12500000000E+03  0.12500000000E+03 0.  0.
        -11    1    3    3    0    0  0.25365168953E+02 -0.81384207120E+01 -0.22828253899E+02  0.35082116014E+02  0.51100000000E-03 0.  1.
         23    2    1    0    0    0 -0.27438190539E+02  0.10995891666E+02 -0.74463782378E+00  0.95431124150E+02  0.90734673843E+02 0.  0.
         11    1    3    3    0    0 -0.52803359491E+02  0.19134312378E+02  0.22083616075E+02  0.60349008136E+02  0.51100000000E-03 0. -1.
         22    1    1    0    0    0  0.27438190539E+02 -0.10995891666E+02  0.74463782378E+00  0.29568875850E+02  0.00000000000E+00 0. -1.
</event>
<event>
 5    1  0.8778268E-005  0.9118800E+02  0.7818608E-02  0.1130116E+00
         25   -1    0    0    0    0  0.00000000000E+00  0.00000000000E+00  0.99999998245E-14  0.12500000000E+03  0.12500000000E+03 0.  0.
        -11    1    3    3    0    0  0.49114304392E+02  0.30889985019E+01 -0.24480123213E+02  0.54963926719E+02  0.51100000000E-03 0. -1.
         23    2    1    0    0    0  0.23101537220E+02  0.18519031735E+02  0.22211248641E+01  0.95308773115E+02  0.90565960927E+02 0.  0.
         11    1    3    3    0    0 -0.26012767172E+02  0.15430033233E+02  0.26701248077E+02  0.40344846395E+02  0.51100000000E-03 0.  1.
         22    1    1    0    0    0 -0.23101537220E+02 -0.18519031735E+02 -0.22211248641E+01  0.29691226885E+02  0.00000000000E+00 0. -1.
</event>
<event>
 5    1  0.8778268E-005  0.9118800E+02  0.7818608E-02  0.1130116E+00
         25   -1    0    0    0    0  0.00000000000E+00  0.00000000000E+00  0.99999998245E-14  0.12500000000E+03  0.12500000000E+03 0.  0.
        -11    1    3    3    0    0 -0.36719794593E+02 -0.35677787248E+01 -0.97708105190E+01  0.38164657714E+02  0.51100000000E-03 0.  1.
         23    2    1    0    0    0  0.16446235600E+02 -0.12323286159E+01  0.19947491796E+02  0.99117578780E+02  0.95678601030E+02 0.  0.
         11    1    3    3    0    0  0.53166030193E+02  0.23354501089E+01  0.29718302315E+02  0.60952921066E+02  0.51100000000E-03 0. -1.
         22    1    1    0    0    0 -0.16446235600E+02  0.12323286159E+01 -0.19947491796E+02  0.25882421220E+02  0.00000000000E+00 0. -1.
</event>
<event>
 5    1  0.8778268E-005  0.9118800E+02  0.7818608E-02  0.1130116E+00
         25   -1    0    0    0    0  0.00000000000E+00  0.00000000000E+00  0.99999998245E-14  0.12500000000E+03  0.12500000000E+03 0.  0.
        -11    1    3    3    0    0 -0.14508159337E+02  0.26591868552E+02 -0.15800612541E+02  0.34165384783E+02  0.51100000000E-03 0. -1.
         23    2    1    0    0    0 -0.67833625057E+01 -0.17163312394E+02  0.24619160811E+02  0.94231568479E+02  0.89066784604E+02 0.  0.
         11    1    3    3    0    0  0.77247968313E+01 -0.43755180946E+02  0.40419773352E+02  0.60066183696E+02  0.51100000000E-03 0.  1.
         22    1    1    0    0    0  0.67833625057E+01  0.17163312394E+02 -0.24619160811E+02  0.30768431521E+02  0.00000000000E+00 0.  1.
</event>
<event>
 5    1  0.8778268E-005  0.9118800E+02  0.7818608E-02  0.1130116E+00
         25   -1    0    0    0    0  0.00000000000E+00  0.00000000000E+00  0.99999998245E-14  0.12500000000E+03  0.12500000000E+03 0.  0.
        -11    1    3    3    0    0 -0.26097395648E+02 -0.30586228993E+01  0.46394278539E+02  0.53318461297E+02  0.51100000000E-03 0.  1.
         23    2    1    0    0    0  0.10676742270E+02  0.44748045475E+01  0.27113639963E+02  0.95518375668E+02  0.90854795784E+02 0.  0.
         11    1    3    3    0    0  0.36774137918E+02  0.75334274468E+01 -0.19280638577E+02  0.42199914371E+02  0.51100000000E-03 0. -1.
         22    1    1    0    0    0 -0.10676742270E+02 -0.44748045475E+01 -0.27113639963E+02  0.29481624332E+02  0.00000000000E+00 0.  1.
</event>
<event>
 5    1  0.8778268E-005  0.9118800E+02  0.7818608E-02  0.1130116E+00
         25   -1    0    0    0    0  0.00000000000E+00  0.00000000000E+00  0.99999998245E-14  0.12500000000E+03  0.12500000000E+03 0.  0.
        -11    1    3    3    0    0  0.30827053957E+02  0.78880702583E+01  0.15021659188E+01  0.31855696677E+02  0.51100000000E-03 0. -1.
         23    2    1    0    0    0 -0.25675635270E+02  0.79191088523E+01  0.20214083480E+02  0.91376203330E+02  0.84964997691E+02 0.  0.
         11    1    3    3    0    0 -0.56502689227E+02  0.31038593944E-01  0.18711917561E+02  0.59520506654E+02  0.51100000000E-03 0.  1.
         22    1    1    0    0    0  0.25675635270E+02 -0.79191088523E+01 -0.20214083480E+02  0.33623796670E+02  0.00000000000E+00 0.  1.
</event>
<event>
 5    1  0.8778268E-005  0.9118800E+02  0.7818608E-02  0.1130116E+00
         25   -1    0    0    0    0  0.00000000000E+00  0.00000000000E+00  0.99999998245E-14  0.12500000000E+03  0.12500000000E+03 0.  0.
        -11    1    3    3    0    0  0.15313602772E+02  0.10208097174E+02  0.46104740061E+02  0.49642307905E+02  0.51100000000E-03 0. -1.
         23    2    1    0    0    0  0.41516498257E+01 -0.23468830636E+02  0.14890343194E+02  0.96897606363E+02  0.92732958492E+02 0.  0.
         11    1    3    3    0    0 -0.11161952947E+02 -0.33676927810E+02 -0.31214396867E+02  0.47255298458E+02  0.51100000000E-03 0.  1.
         22    1    1    0    0    0 -0.41516498257E+01  0.23468830636E+02 -0.14890343194E+02  0.28102393637E+02  0.00000000000E+00 0. -1.
</event>
<event>
 5    1  0.8778268E-005  0.9118800E+02  0.7818608E-02  0.1130116E+00
         25   -1    0    0    0    0  0.00000000000E+00  0.00000000000E+00  0.99999998245E-14  0.12500000000E+03  0.12500000000E+03 0.  0.
        -11    1    3    3    0    0  0.18759752088E+02 -0.72871153088E+00  0.50567497957E+02  0.53940070159E+02  0.51100000000E-03 0.  1.
         23    2    1    0    0    0 -0.37487225493E+01  0.19322623672E+02  0.22160637347E+02  0.95360321292E+02  0.90637080287E+02 0.  0.
         11    1    3    3    0    0 -0.22508474638E+02  0.20051335203E+02 -0.28406860610E+02  0.41420251133E+02  0.51100000000E-03 0. -1.
         22    1    1    0    0    0  0.37487225493E+01 -0.19322623672E+02 -0.22160637347E+02  0.29639678708E+02  0.00000000000E+00 0.  1.
</event>
<event>
 5    1  0.8778268E-005  0.9118800E+02  0.7818608E-02  0.1130116E+00
         25   -1    0    0    0    0  0.00000000000E+00  0.00000000000E+00  0.99999998245E-14  0.12500000000E+03  0.12500000000E+03 0.  0.
        -11    1    3    3    0    0 -0.22112237277E+00 -0.54802819075E+02  0.20891558692E+02  0.58650277906E+02  0.51100000000E-03 0.  1.
         23    2    1    0    0    0 -0.98396699714E+01 -0.27782316876E+02 -0.21609261617E+01  0.95447574752E+02  0.90757334073E+02 0.  0.
         11    1    3    3    0    0 -0.96185475986E+01  0.27020502199E+02 -0.23052484853E+02  0.36797296846E+02  0.51100000000E-03 0. -1.
         22    1    1    0    0    0  0.98396699714E+01  0.27782316876E+02  0.21609261617E+01  0.29552425248E+02  0.00000000000E+00 0.  1.
</event>
<event>
 5    1  0.8778268E-005  0.9118800E+02  0.7818608E-02  0.1130116E+00
         25   -1    0    0    0    0  0.00000000000E+00  0.00000000000E+00  0.99999998245E-14  0.12500000000E+03  0.12500000000E+03 0.  0.
        -11    1    3    3    0    0  0.19795684485E+01  0.45464705386E+02  0.17803111764E+02  0.48866234926E+02  0.51100000000E-03 0.  1.
         23    2    1    0    0    0  0.21861560954E+02  0.14721801118E+02 -0.11967101348E+02  0.96054002173E+02  0.91588757735E+02 0.  0.
         11    1    3    3    0    0  0.19881992506E+02 -0.30742904268E+02 -0.29770213112E+02  0.47187767248E+02  0.51100000000E-03 0. -1.
         22    1    1    0    0    0 -0.21861560954E+02 -0.14721801118E+02  0.11967101348E+02  0.28945997827E+02  0.00000000000E+00 0.  1.
</event>
<event>
 4    1  0.8778268E-005  0.9118800E+02  0.7818608E-02  0.1130116E+00
         25   -1    0    0    0    0  0.00000000000E+00  0.00000000000E+00  0.99999998245E-14  0.12500000000E+03  0.12500000000E+03 0.  0.
        -11    1    1    0    0    0  0.24016720822E+00 -0.12829899124E+02  0.25040509653E+02  0.28137006162E+02  0.51100000000E-03 0. -1.
         11    1    1    0    0    0  0.23507414326E+02 -0.33591027393E+02 -0.15631776604E+02  0.43878332804E+02  0.51100000000E-03 0.  1.
         22    1    1    0    0    0 -0.23747581534E+02  0.46420926516E+02 -0.94087330483E+01  0.52984661034E+02  0.00000000000E+00 0.  1.
</event>
<event>
 5    1  0.8778268E-005  0.9118800E+02  0.7818608E-02  0.1130116E+00
         25   -1    0    0    0    0  0.00000000000E+00  0.00000000000E+00  0.99999998245E-14  0.12500000000E+03  0.12500000000E+03 0.  0.
        -11    1    3    3    0    0 -0.16735250176E+02 -0.54712772633E+01 -0.34392681654E+02  0.38637546829E+02  0.51100000000E-03 0.  1.
         23    2    1    0    0    0 -0.11155662508E+02 -0.13336376496E+02  0.22625504122E+02  0.96465438836E+02  0.92148574101E+02 0.  0.
         11    1    3    3    0    0  0.55795876673E+01 -0.78650992332E+01  0.57018185776E+02  0.57827892007E+02  0.51100000000E-03 0. -1.
         22    1    1    0    0    0  0.11155662508E+02  0.13336376496E+02 -0.22625504122E+02  0.28534561164E+02  0.00000000000E+00 0. -1.
</event>
<event>
 5    1  0.8778268E-005  0.9118800E+02  0.7818608E-02  0.1130116E+00
         25   -1    0    0    0    0  0.00000000000E+00  0.00000000000E+00  0.99999998245E-14  0.12500000000E+03  0.12500000000E+03 0.  0.
        -11    1    3    3    0    0 -0.12797000706E+02 -0.18399148035E+02 -0.28228041045E+02  0.36043226506E+02  0.51100000000E-03 0. -1.
         23    2    1    0    0    0  0.76028721610E+01  0.63544710268E+00  0.26473273905E+02  0.97449288768E+02  0.93473644371E+02 0.  0.
         11    1    3    3    0    0  0.20399872866E+02  0.19034595138E+02  0.54701314950E+02  0.61406062262E+02  0.51100000000E-03 0.  1.
         22    1    1    0    0    0 -0.76028721610E+01 -0.63544710268E+00 -0.26473273905E+02  0.27550711232E+02  0.00000000000E+00 0.  1.
</event>
<event>
 5    1  0.8778268E-005  0.9118800E+02  0.7818608E-02  0.1130116E+00
         25   -1    0    0    0    0  0.00000000000E+00  0.00000000000E+00  0.99999998245E-14  0.12500000000E+03  0.12500000000E+03 0.  0.
        -11    1    3    3    0    0  0.32050184558E+02 -0.40872697728E+02  0.15968848206E+02  0.54339634367E+02  0.51100000000E-03 0. -1.
         23    2    1    0    0    0  0.27102097045E+02 -0.77691264293E-01  0.11068344765E+02  0.95724789395E+02  0.91138341814E+02 0.  0.
         11    1    3    3    0    0 -0.49480875129E+01  0.40795006464E+02 -0.49005034419E+01  0.41385155028E+02  0.51100000000E-03 0.  1.
         22    1    1    0    0    0 -0.27102097045E+02  0.77691264293E-01 -0.11068344765E+02  0.29275210605E+02  0.00000000000E+00 0. -1.
</event>
<event>
 5    1  0.8778268E-005  0.9118800E+02  0.7818608E-02  0.1130116E+00
         25   -1    0    0    0    0  0.00000000000E+00  0.00000000000E+00  0.99999998245E-14  0.12500000000E+03  0.12500000000E+03 0.  0.
        -11    1    3    3    0    0  0.61685899446E+01 -0.34598152268E+02  0.21932842358E+02  0.41426238261E+02  0.51100000000E-03 0.  1.
         23    2    1    0    0    0  0.80409956228E+01  0.22296686158E+02  0.72190280291E+01  0.10022270818E+03  0.97111673062E+02 0.  0.
         11    1    3    3    0    0  0.18724056782E+01  0.56894838426E+02 -0.14713814329E+02  0.58796469919E+02  0.51100000000E-03 0. -1.
         22    1    1    0    0    0 -0.80409956228E+01 -0.22296686158E+02 -0.72190280291E+01  0.24777291820E+02  0.00000000000E+00 0. -1.
</event>
<event>
 5    1  0.8778268E-005  0.9118800E+02  0.7818608E-02  0.1130116E+00
         25   -1    0    0    0    0  0.00000000000E+00  0.00000000000E+00  0.99999998245E-14  0.12500000000E+03  0.12500000000E+03 0.  0.
        -11    1    3    3    0    0 -0.43371949043E+02  0.29775043100E+01 -0.31425822914E+02  0.53643022303E+02  0.51100000000E-03 0. -1.
         23    2    1    0    0    0 -0.25711614035E+02 -0.11078639328E+02  0.50633316072E+01  0.96548977652E+02  0.92261825329E+02 0.  0.
         11    1    3    3    0    0  0.17660335007E+02 -0.14056143638E+02  0.36489154521E+02  0.42905955350E+02  0.51100000000E-03 0.  1.
         22    1    1    0    0    0  0.25711614035E+02  0.11078639328E+02 -0.50633316072E+01  0.28451022348E+02  0.00000000000E+00 0. -1.
</event>
<event>
 5    1  0.8778268E-005  0.9118800E+02  0.7818608E-02  0.1130116E+00
         25   -1    0    0    0    0  0.00000000000E+00  0.00000000000E+00  0.99999998245E-14  0.12500000000E+03  0.12500000000E+03 0.  0.
        -11    1    3    3    0    0  0.80272388641E+01  0.29499781301E+02 -0.29886457549E+02  0.42753643187E+02  0.51100000000E-03 0.  1.
         23    2    1    0    0    0  0.37467830974E+01 -0.23283366728E+02 -0.74343927777E+01  0.10027301584E+03  0.97176406394E+02 0.  0.
         11    1    3    3    0    0 -0.42804557667E+01 -0.52783148029E+02  0.22452064772E+02  0.57519372652E+02  0.51100000000E-03 0. -1.
         22    1    1    0    0    0 -0.37467830974E+01  0.23283366728E+02  0.74343927777E+01  0.24726984162E+02  0.00000000000E+00 0. -1.
</event>
<event>
 5    1  0.8778268E-005  0.9118800E+02  0.7818608E-02  0.1130116E+00
         25   -1    0    0    0    0  0.00000000000E+00  0.00000000000E+00  0.99999998245E-14  0.12500000000E+03  0.12500000000E+03 0.  0.
        -11    1    3    3    0    0 -0.58532698251E+02 -0.84907979467E+01  0.75620820096E+01  0.59626801851E+02  0.51100000000E-03 0.  1.
         23    2    1    0    0    0 -0.24537054879E+02 -0.56157791632E+01  0.16509288153E+02  0.94897497893E+02  0.89996524785E+02 0.  0.
         11    1    3    3    0    0  0.33995643372E+02  0.28750187835E+01  0.89472061435E+01  0.35270696042E+02  0.51100000000E-03 0. -1.
         22    1    1    0    0    0  0.24537054879E+02  0.56157791632E+01 -0.16509288153E+02  0.30102502107E+02  0.00000000000E+00 0.  1.
</event>
<event>
 5    1  0.8778268E-005  0.9118800E+02  0.7818608E-02  0.1130116E+00
         25   -1    0    0    0    0  0.00000000000E+00  0.00000000000E+00  0.99999998245E-14  0.12500000000E+03  0.12500000000E+03 0.  0.
        -11    1    3    3    0    0 -0.58677776169E+01  0.42304158521E+02 -0.31005885167E+01  0.42821563397E+02  0.51100000000E-03 0. -1.
         23    2    1    0    0    0  0.25628078391E+02  0.53599358601E+01  0.15224838487E+02  0.94712659057E+02  0.89739427033E+02 0.  0.
         11    1    3    3    0    0  0.31495856008E+02 -0.36944222661E+02  0.18325427003E+02  0.51891095660E+02  0.51100000000E-03 0.  1.
         22    1    1    0    0    0 -0.25628078391E+02 -0.53599358601E+01 -0.15224838487E+02  0.30287340943E+02  0.00000000000E+00 0.  1.
</event>
<event>
 4    1  0.8778268E-005  0.9118800E+02  0.7818608E-02  0.1130116E+00
         25   -1    0    0    0    0  0.00000000000E+00  0.00000000000E+00  0.99999998245E-14  0.12500000000E+03  0.12500000000E+03 0.  0.
        -11    1    1    0    0    0  0.37037095408E+01  0.12600611725E+02 -0.16933507850E+02  0.21429805612E+02  0.51100000000E-03 0.  1.
         11    1    1    0    0    0  0.47562351223E+02  0.56989078856E+00 -0.13094826436E+01  0.47583786887E+02  0.51100000000E-03 0. -1.
         22    1    1    0    0    0 -0.51266060764E+02 -0.13170502513E+02  0.18242990494E+02  0.55986407501E+02  0.00000000000E+00 0. -1.
</event>
<event>
 5    1  0.8778268E-005  0.9118800E+02  0.7818608E-02  0.1130116E+00
         25   -1    0    0    0    0  0.00000000000E+00  0.00000000000E+00  0.99999998245E-14  0.12500000000E+03  0.12500000000E+03 0.  0.
        -11    1    3    3    0    0 -0.33475011121E+02  0.23133497566E+02  0.97589993473E+00  0.40702425728E+02  0.51100000000E-03 0.  1.
         23    2    1    0    0    0 -0.21270080856E+01 -0.12301852032E+02  0.27397921139E+02  0.94891765087E+02  0.89988561895E+02 0.  0.
         11    1    3    3    0    0  0.31348003035E+02 -0.35435349598E+02  0.26422021204E+02  0.54189339359E+02  0.51100000000E-03 0. -1.
         22    1    1    0    0    0  0.21270080856E+01  0.12301852032E+02 -0.27397921139E+02  0.30108234913E+02  0.00000000000E+00 0. -1.
</event>
<event>
 5    1  0.8778268E-005  0.9118800E+02  0.7818608E-02  0.1130116E+00
         25   -1    0    0    0    0  0.00000000000E+00  0.00000000000E+00  0.99999998245E-14  0.12500000000E+03  0.12500000000E+03 0.  0.
        -11    1    3    3    0    0  0.18850235553E+02 -0.10110608203E+02  0.54211137319E+02  0.58278668381E+02  0.51100000000E-03 0.  1.
         23    2    1    0    0    0 -0.17043545200E+01 -0.17068201584E+02  0.22390558056E+02  0.96794230737E+02  0.92593507787E+02 0.  0.
         11    1    3    3    0    0 -0.20554590073E+02 -0.69575933816E+01 -0.31820579263E+02  0.38515562356E+02  0.51100000000E-03 0. -1.
         22    1    1    0    0    0  0.17043545200E+01  0.17068201584E+02 -0.22390558056E+02  0.28205769263E+02  0.00000000000E+00 0.  1.
</event>
<event>
 5    1  0.8778268E-005  0.9118800E+02  0.7818608E-02  0.1130116E+00
         25   -1    0    0    0    0  0.00000000000E+00  0.00000000000E+00  0.99999998245E-14  0.12500000000E+03  0.12500000000E+03 0.  0.
        -11    1    3    3    0    0  0.16109276609E+02  0.28034965898E+02 -0.94549278454E+01  0.33687739114E+02  0.51100000000E-03 0.  1.
         23    2    1    0    0    0  0.38189510158E+01 -0.30412448049E+02  0.10526621542E+01  0.94330642641E+02  0.89205721006E+02 0.  0.
         11    1    3    3    0    0 -0.12290325593E+02 -0.58447413948E+02  0.10507590000E+02  0.60642903527E+02  0.51100000000E-03 0. -1.
         22    1    1    0    0    0 -0.38189510158E+01  0.30412448049E+02 -0.10526621542E+01  0.30669357359E+02  0.00000000000E+00 0. -1.
</event>
<event>
 5    1  0.8778268E-005  0.9118800E+02  0.7818608E-02  0.1130116E+00
         25   -1    0    0    0    0  0.00000000000E+00  0.00000000000E+00  0.99999998245E-14  0.12500000000E+03  0.12500000000E+03 0.  0.
        -11    1    3    3    0    0 -0.86765207031E+01  0.48226514319E+02  0.37267237271E+02  0.61562372184E+02  0.51100000000E-03 0. -1.
         23    2    1    0    0    0  0.19738599183E+01  0.25315516827E+02  0.13536758639E+02  0.96224744142E+02  0.91821490053E+02 0.  0.
         11    1    3    3    0    0  0.10650380621E+02 -0.22910997491E+02 -0.23730478632E+02  0.34662371959E+02  0.51100000000E-03 0.  1.
         22    1    1    0    0    0 -0.19738599183E+01 -0.25315516827E+02 -0.13536758639E+02  0.28775255858E+02  0.00000000000E+00 0. -1.
</event>
<event>
 5    1  0.8778268E-005  0.9118800E+02  0.7818608E-02  0.1130116E+00
         25   -1    0    0    0    0  0.00000000000E+00  0.00000000000E+00  0.99999998245E-14  0.12500000000E+03  0.12500000000E+03 0.  0.
        -11    1    3    3    0    0 -0.20990072821E+02  0.23293622419E+01 -0.55712399043E+02  0.59580873550E+02  0.51100000000E-03 0.  1.
         23    2    1    0    0    0 -0.11011129336E+02 -0.12259796754E+02 -0.23983328981E+02  0.95901071245E+02  0.91379799798E+02 0.  0.
         11    1    3    3    0    0  0.99789434847E+01 -0.14589158996E+02  0.31729070063E+02  0.36320197695E+02  0.51100000000E-03 0. -1.
         22    1    1    0    0    0  0.11011129336E+02  0.12259796754E+02  0.23983328981E+02  0.29098928755E+02  0.00000000000E+00 0.  1.
</event>
<event>
 5    1  0.8778268E-005  0.9118800E+02  0.7818608E-02  0.1130116E+00
         25   -1    0    0    0    0  0.00000000000E+00  0.00000000000E+00  0.99999998245E-14  0.12500000000E+03  0.12500000000E+03 0.  0.
        -11    1    3    3    0    0 -0.36093133297E+02 -0.10815752369E+02  0.19198940312E+02  0.42288226256E+02  0.51100000000E-03 0.  1.
         23    2    1    0    0    0 -0.14281158861E+02 -0.26561181508E+00 -0.26999565414E+02  0.94454974536E+02  0.89379771950E+02 0.  0.
         11    1    3    3    0    0  0.21811974435E+02  0.10550140553E+02 -0.46198505727E+02  0.52166748280E+02  0.51100000000E-03 0. -1.
         22    1    1    0    0    0  0.14281158861E+02  0.26561181508E+00  0.26999565414E+02  0.30545025464E+02  0.00000000000E+00 0. -1.
</event>
<event>
 5    1  0.8778268E-005  0.9118800E+02  0.7818608E-02  0.1130116E+00
         25   -1    0    0    0    0  0.00000000000E+00  0.00000000000E+00  0.99999998245E-14  0.12500000000E+03  0.12500000000E+03 0.  0.
        -11    1    3    3    0    0 -0.29807462113E+02 -0.27562151543E+00  0.10549382468E+02  0.31620408530E+02  0.51100000000E-03 0.  1.
         23    2    1    0    0    0  0.13452001773E+02 -0.31939379039E+02 -0.98355603864E+01  0.88974751449E+02  0.81355318586E+02 0.  0.
         11    1    3    3    0    0  0.43259463886E+02 -0.31663757523E+02 -0.20384942855E+02  0.57354342919E+02  0.51100000000E-03 0. -1.
         22    1    1    0    0    0 -0.13452001773E+02  0.31939379039E+02  0.98355603864E+01  0.36025248551E+02  0.00000000000E+00 0. -1.
</event>
<event>
 5    1  0.8778268E-005  0.9118800E+02  0.7818608E-02  0.1130116E+00
         25   -1    0    0    0    0  0.00000000000E+00  0.00000000000E+00  0.99999998245E-14  0.12500000000E+03  0.12500000000E+03 0.  0.
        -11    1    3    3    0    0 -0.25343454753E+02 -0.43651104281E+02  0.35667612285E+02  0.61805243872E+02  0.51100000000E-03 0.  1.
         23    2    1    0    0    0 -0.15968619390E+02 -0.15062765272E+02  0.17253052666E+02  0.97079549983E+02  0.92977887134E+02 0.  0.
         11    1    3    3    0    0  0.93748353632E+01  0.28588339009E+02 -0.18414559619E+02  0.35274306111E+02  0.51100000000E-03 0. -1.
         22    1    1    0    0    0  0.15968619390E+02  0.15062765272E+02 -0.17253052666E+02  0.27920450017E+02  0.00000000000E+00 0.  1.
</event>
<event>
 5    1  0.8778268E-005  0.9118800E+02  0.7818608E-02  0.1130116E+00
         25   -1    0    0    0    0  0.00000000000E+00  0.00000000000E+00  0.99999998245E-14  0.12500000000E+03  0.12500000000E+03 0.  0.
        -11    1    3    3    0    0  0.59318060327E+01  0.58819160194E+02 -0.18408355393E+02  0.61917263160E+02  0.51100000000E-03 0.  1.
         23    2    1    0    0    0  0.82925262674E+01  0.26523748034E+02 -0.61766779181E+01  0.96532008294E+02  0.92238831701E+02 0.  0.
         11    1    3    3    0    0  0.23607202347E+01 -0.32295412160E+02  0.12231677475E+02  0.34614745134E+02  0.51100000000E-03 0. -1.
         22    1    1    0    0    0 -0.82925262674E+01 -0.26523748034E+02  0.61766779181E+01  0.28467991706E+02  0.00000000000E+00 0.  1.
</event>
<event>
 5    1  0.8778268E-005  0.9118800E+02  0.7818608E-02  0.1130116E+00
         25   -1    0    0    0    0  0.00000000000E+00  0.00000000000E+00  0.99999998245E-14  0.12500000000E+03  0.12500000000E+03 0.  0.
        -11    1    3    3    0    0  0.28437171286E+02  0.19910955796E+02 -0.74441066250E+01  0.35503994074E+02  0.51100000000E-03 0. -1.
         23    2    1    0    0    0  0.19874762641E+01 -0.30699260162E+02  0.46818890225E+01  0.93882244277E+02  0.88575171856E+02 0.  0.
         11    1    3    3    0    0 -0.26449695022E+02 -0.50610215959E+02  0.12125995647E+02  0.58378250204E+02  0.51100000000E-03 0.  1.
         22    1    1    0    0    0 -0.19874762641E+01  0.30699260162E+02 -0.46818890225E+01  0.31117755723E+02  0.00000000000E+00 0.  1.
</event>
<event>
 5    1  0.8778268E-005  0.9118800E+02  0.7818608E-02  0.1130116E+00
         25   -1    0    0    0    0  0.00000000000E+00  0.00000000000E+00  0.99999998245E-14  0.12500000000E+03  0.12500000000E+03 0.  0.
        -11    1    3    3    0    0 -0.32329582052E+02 -0.14693849917E+02  0.16717272513E+02  0.39250201293E+02  0.51100000000E-03 0.  1.
         23    2    1    0    0    0  0.23256343567E+02 -0.13985524910E+02  0.12846562241E+02  0.94975233814E+02  0.90104430821E+02 0.  0.
         11    1    3    3    0    0  0.55585925618E+02  0.70832500686E+00 -0.38707102723E+01  0.55725032521E+02  0.51100000000E-03 0. -1.
         22    1    1    0    0    0 -0.23256343567E+02  0.13985524910E+02 -0.12846562241E+02  0.30024766186E+02  0.00000000000E+00 0. -1.
</event>
<event>
 5    1  0.8778268E-005  0.9118800E+02  0.7818608E-02  0.1130116E+00
         25   -1    0    0    0    0  0.00000000000E+00  0.00000000000E+00  0.99999998245E-14  0.12500000000E+03  0.12500000000E+03 0.  0.
        -11    1    3    3    0    0  0.28036295387E+02 -0.45541139626E+02 -0.14534296675E+02  0.55419085499E+02  0.51100000000E-03 0. -1.
         23    2    1    0    0    0  0.26727052535E+02 -0.11230250860E+02  0.59557147789E+01  0.95403979826E+02  0.90697270943E+02 0.  0.
         11    1    3    3    0    0 -0.13092428523E+01  0.34310888765E+02  0.20490011454E+02  0.39984894327E+02  0.51100000000E-03 0.  1.
         22    1    1    0    0    0 -0.26727052535E+02  0.11230250860E+02 -0.59557147789E+01  0.29596020174E+02  0.00000000000E+00 0. -1.
</event>
<event>
 5    1  0.8778268E-005  0.9118800E+02  0.7818608E-02  0.1130116E+00
         25   -1    0    0    0    0  0.00000000000E+00  0.00000000000E+00  0.99999998245E-14  0.12500000000E+03  0.12500000000E+03 0.  0.
        -11    1    3    3    0    0  0.34660058982E+02 -0.14875562312E+02  0.20915540586E+02  0.43128434715E+02  0.51100000000E-03 0.  1.
         23    2    1    0    0    0 -0.25600610711E+01  0.36211935514E+01 -0.21815142473E+02  0.10273865690E+03  0.10029787747E+03 0.  0.
         11    1    3    3    0    0 -0.37220120053E+02  0.18496755863E+02 -0.42730683058E+02  0.59610222187E+02  0.51100000000E-03 0. -1.
         22    1    1    0    0    0  0.25600610711E+01 -0.36211935514E+01  0.21815142473E+02  0.22261343098E+02  0.00000000000E+00 0. -1.
</event>
<event>
 5    1  0.8778268E-005  0.9118800E+02  0.7818608E-02  0.1130116E+00
         25   -1    0    0    0    0  0.00000000000E+00  0.00000000000E+00  0.99999998245E-14  0.12500000000E+03  0.12500000000E+03 0.  0.
        -11    1    3    3    0    0 -0.88605794343E+01  0.36119776186E+02  0.54730734989E+01  0.37591257406E+02  0.51100000000E-03 0.  1.
         23    2    1    0    0    0 -0.21205936706E+02 -0.20130257543E+02  0.58509666106E+01  0.95181334191E+02  0.90389897377E+02 0.  0.
         11    1    3    3    0    0 -0.12345357271E+02 -0.56250033729E+02  0.37789311168E+00  0.57590076785E+02  0.51100000000E-03 0. -1.
         22    1    1    0    0    0  0.21205936706E+02  0.20130257543E+02 -0.58509666106E+01  0.29818665809E+02  0.00000000000E+00 0. -1.
</event>
<event>
 5    1  0.8778268E-005  0.9118800E+02  0.7818608E-02  0.1130116E+00
         25   -1    0    0    0    0  0.00000000000E+00  0.00000000000E+00  0.99999998245E-14  0.12500000000E+03  0.12500000000E+03 0.  0.
        -11    1    3    3    0    0  0.11407346013E+02 -0.40851747102E+02  0.14164563764E+02  0.44717196371E+02  0.51100000000E-03 0. -1.
         23    2    1    0    0    0 -0.21986542865E+02 -0.23805574622E+01  0.18939370999E+02  0.95883425771E+02  0.91355659063E+02 0.  0.
         11    1    3    3    0    0 -0.33393888878E+02  0.38471189640E+02  0.47748072351E+01  0.51166229401E+02  0.51100000000E-03 0.  1.
         22    1    1    0    0    0  0.21986542865E+02  0.23805574622E+01 -0.18939370999E+02  0.29116574229E+02  0.00000000000E+00 0.  1.
</event>
<event>
 5    1  0.8778268E-005  0.9118800E+02  0.7818608E-02  0.1130116E+00
         25   -1    0    0    0    0  0.00000000000E+00  0.00000000000E+00  0.99999998245E-14  0.12500000000E+03  0.12500000000E+03 0.  0.
        -11    1    3    3    0    0 -0.19776176856E+02  0.19495135808E+02  0.18328033120E+02  0.33272725911E+02  0.51100000000E-03 0.  1.
         23    2    1    0    0    0  0.13975256861E+02 -0.18641996403E+02 -0.17771703554E+02  0.95697009002E+02  0.91100231891E+02 0.  0.
         11    1    3    3    0    0  0.33751433718E+02 -0.38137132211E+02 -0.36099736674E+02  0.62424283091E+02  0.51100000000E-03 0. -1.
         22    1    1    0    0    0 -0.13975256861E+02  0.18641996403E+02  0.17771703554E+02  0.29302990998E+02  0.00000000000E+00 0. -1.
</event>
<event>
 5    1  0.8778268E-005  0.9118800E+02  0.7818608E-02  0.1130116E+00
         25   -1    0    0    0    0  0.00000000000E+00  0.00000000000E+00  0.99999998245E-14  0.12500000000E+03  0.12500000000E+03 0.  0.
        -11    1    3    3    0    0  0.28335464205E+02  0.13097994471E+02  0.13418865042E+02  0.33978256726E+02  0.51100000000E-03 0.  1.
         23    2    1    0    0    0 -0.22228897086E+02 -0.84377012173E+01 -0.16024462015E+02  0.96327677974E+02  0.91961510935E+02 0.  0.
         11    1    3    3    0    0 -0.50564361291E+02 -0.21535695688E+02 -0.29443327057E+02  0.62349421248E+02  0.51100000000E-03 0. -1.
         22    1    1    0    0    0  0.22228897086E+02  0.84377012173E+01  0.16024462015E+02  0.28672322026E+02  0.00000000000E+00 0. -1.
</event>
<event>
 5    1  0.8778268E-005  0.9118800E+02  0.7818608E-02  0.1130116E+00
         25   -1    0    0    0    0  0.00000000000E+00  0.00000000000E+00  0.99999998245E-14  0.12500000000E+03  0.12500000000E+03 0.  0.
        -11    1    3    3    0    0 -0.24483672261E+02  0.24067499090E+02  0.16208359693E+02  0.37965848391E+02  0.51100000000E-03 0. -1.
         23    2    1    0    0    0 -0.38018259106E+01 -0.28433323978E+02  0.15223206242E+01  0.96273265888E+02  0.91887520763E+02 0.  0.
         11    1    3    3    0    0  0.20681846351E+02 -0.52500823068E+02 -0.14686039069E+02  0.58307417496E+02  0.51100000000E-03 0.  1.
         22    1    1    0    0    0  0.38018259106E+01  0.28433323978E+02 -0.15223206242E+01  0.28726734112E+02  0.00000000000E+00 0.  1.
</event>
<event>
 5    1  0.8778268E-005  0.9118800E+02  0.7818608E-02  0.1130116E+00
         25   -1    0    0    0    0  0.00000000000E+00  0.00000000000E+00  0.99999998245E-14  0.12500000000E+03  0.12500000000E+03 0.  0.
        -11    1    3    3    0    0  0.21528198796E+01 -0.13988654532E+01  0.37437075448E+02  0.37525006014E+02  0.51100000000E-03 0. -1.
         23    2    1    0    0    0 -0.14627510730E+02  0.17115459914E+02 -0.16578599143E+02  0.97040154010E+02  0.92924907870E+02 0.  0.
         11    1    3    3    0    0 -0.16780330609E+02  0.18514325367E+02 -0.54015674591E+02  0.59515147996E+02  0.51100000000E-03 0.  1.
         22    1    1    0    0    0  0.14627510730E+02 -0.17115459914E+02  0.16578599143E+02  0.27959845990E+02  0.00000000000E+00 0.  1.
</event>
<event>
 5    1  0.8778268E-005  0.9118800E+02  0.7818608E-02  0.1130116E+00
         25   -1    0    0    0    0  0.00000000000E+00  0.00000000000E+00  0.99999998245E-14  0.12500000000E+03  0.12500000000E+03 0.  0.
        -11    1    3    3    0    0 -0.27606109863E+02 -0.39510258227E+02  0.12718953546E+02  0.49849068061E+02  0.51100000000E-03 0.  1.
         23    2    1    0    0    0 -0.19327115538E+01 -0.32524149200E+01  0.27935353362E+02  0.96809619651E+02  0.92614280285E+02 0.  0.
         11    1    3    3    0    0  0.25673398310E+02  0.36257843307E+02  0.15216399816E+02  0.46960551590E+02  0.51100000000E-03 0. -1.
         22    1    1    0    0    0  0.19327115538E+01  0.32524149200E+01 -0.27935353362E+02  0.28190380349E+02  0.00000000000E+00 0. -1.
</event>
<event>
 5    1  0.8778268E-005  0.9118800E+02  0.7818608E-02  0.1130116E+00
         25   -1    0    0    0    0  0.00000000000E+00  0.00000000000E+00  0.99999998245E-14  0.12500000000E+03  0.12500000000E+03 0.  0.
        -11    1    3    3    0    0 -0.28683287903E+02 -0.16865470736E+02  0.21078807110E+02  0.39388973299E+02  0.51100000000E-03 0. -1.
         23    2    1    0    0    0  0.21043252393E+02  0.50316459740E+00 -0.11191105279E+02  0.10116069457E+03  0.98311614996E+02 0.  0.
         11    1    3    3    0    0  0.49726540296E+02  0.17368635333E+02 -0.32269912390E+02  0.61771721274E+02  0.51100000000E-03 0.  1.
         22    1    1    0    0    0 -0.21043252393E+02 -0.50316459740E+00  0.11191105279E+02  0.23839305427E+02  0.00000000000E+00 0.  1.
</event>
<event>
 5    1  0.8778268E-005  0.9118800E+02  0.7818608E-02  0.1130116E+00
         25   -1    0    0    0    0  0.00000000000E+00  0.00000000000E+00  0.99999998245E-14  0.12500000000E+03  0.12500000000E+03 0.  0.
        -11    1    3    3    0    0 -0.57025766373E+02 -0.18442719321E+02 -0.97800502554E+01  0.60726611215E+02  0.51100000000E-03 0.  1.
         23    2    1    0    0    0 -0.27325919722E+02 -0.74399816486E+01  0.59052959544E+01  0.96070227518E+02  0.91610899349E+02 0.  0.
         11    1    3    3    0    0  0.29699846651E+02  0.11002737672E+02  0.15685346210E+02  0.35343616303E+02  0.51100000000E-03 0. -1.
         22    1    1    0    0    0  0.27325919722E+02  0.74399816486E+01 -0.59052959544E+01  0.28929772482E+02  0.00000000000E+00 0.  1.
</event>
<event>
 5    1  0.8778268E-005  0.9118800E+02  0.7818608E-02  0.1130116E+00
         25   -1    0    0    0    0  0.00000000000E+00  0.00000000000E+00  0.99999998245E-14  0.12500000000E+03  0.12500000000E+03 0.  0.
        -11    1    3    3    0    0  0.37018992471E+01 -0.24246266994E+02 -0.29505186844E+02  0.38368497132E+02  0.51100000000E-03 0. -1.
         23    2    1    0    0    0  0.14597343895E+02  0.21119583195E+02  0.78686781615E+01  0.98147898795E+02  0.94403255764E+02 0.  0.
         11    1    3    3    0    0  0.10895444648E+02  0.45365850189E+02  0.37373865006E+02  0.59779401663E+02  0.51100000000E-03 0.  1.
         22    1    1    0    0    0 -0.14597343895E+02 -0.21119583195E+02 -0.78686781615E+01  0.26852101205E+02  0.00000000000E+00 0.  1.
</event>
<event>
 5    1  0.8778268E-005  0.9118800E+02  0.7818608E-02  0.1130116E+00
         25   -1    0    0    0    0  0.00000000000E+00  0.00000000000E+00  0.99999998245E-14  0.12500000000E+03  0.12500000000E+03 0.  0.
        -11    1    3    3    0    0 -0.16821124329E+02  0.85657842819E+01  0.53053117067E+02  0.56311243237E+02  0.51100000000E-03 0. -1.
         23    2    1    0    0    0 -0.11134620905E+01 -0.14703977053E+02  0.24837398510E+02  0.96115002099E+02  0.91671972405E+02 0.  0.
         11    1    3    3    0    0  0.15707662238E+02 -0.23269761335E+02 -0.28215718557E+02  0.39803758862E+02  0.51100000000E-03 0.  1.
         22    1    1    0    0    0  0.11134620905E+01  0.14703977053E+02 -0.24837398510E+02  0.28884997901E+02  0.00000000000E+00 0. -1.
</event>
<event>
 5    1  0.8778268E-005  0.9118800E+02  0.7818608E-02  0.1130116E+00
         25   -1    0    0    0    0  0.00000000000E+00  0.00000000000E+00  0.99999998245E-14  0.12500000000E+03  0.12500000000E+03 0.  0.
        -11    1    3    3    0    0  0.13099196587E+02 -0.38390406192E+02  0.46603660904E+02  0.61784411049E+02  0.51100000000E-03 0.  1.
         23    2    1    0    0    0  0.13056056257E+02 -0.17935564764E+02  0.22401793185E+02  0.93472465585E+02  0.87994979381E+02 0.  0.
         11    1    3    3    0    0 -0.43140329877E-01  0.20454841428E+02 -0.24201867719E+02  0.31688054536E+02  0.51100000000E-03 0. -1.
         22    1    1    0    0    0 -0.13056056257E+02  0.17935564764E+02 -0.22401793185E+02  0.31527534415E+02  0.00000000000E+00 0.  1.
</event>
<event>
 5    1  0.8778268E-005  0.9118800E+02  0.7818608E-02  0.1130116E+00
         25   -1    0    0    0    0  0.00000000000E+00  0.00000000000E+00  0.99999998245E-14  0.12500000000E+03  0.12500000000E+03 0.  0.
        -11    1    3    3    0    0  0.39958821402E+02  0.42499363466E+02  0.16474223180E+01  0.58357667049E+02  0.51100000000E-03 0.  1.
         23    2    1    0    0    0  0.27391473115E+02  0.69132296870E+01 -0.38228872102E+01  0.96492106168E+02  0.92184741372E+02 0.  0.
         11    1    3    3    0    0 -0.12567348286E+02 -0.35586133779E+02 -0.54703095281E+01  0.38134439119E+02  0.51100000000E-03 0. -1.
         22    1    1    0    0    0 -0.27391473115E+02 -0.69132296870E+01  0.38228872102E+01  0.28507893832E+02  0.00000000000E+00 0.  1.
</event>
<event>
 5    1  0.8778268E-005  0.9118800E+02  0.7818608E-02  0.1130116E+00
         25   -1    0    0    0    0  0.00000000000E+00  0.00000000000E+00  0.99999998245E-14  0.12500000000E+03  0.12500000000E+03 0.  0.
        -11    1    3    3    0    0  0.81978107397E+01  0.33155666163E+01  0.34185558089E+02  0.35310755656E+02  0.51100000000E-03 0. -1.
         23    2    1    0    0    0  0.14349269894E+02 -0.31520071771E+01 -0.25451819267E+02  0.95612386967E+02  0.90984046633E+02 0.  0.
         11    1    3    3    0    0  0.61514591548E+01 -0.64675737933E+01 -0.59637377356E+02  0.60301631311E+02  0.51100000000E-03 0.  1.
         22    1    1    0    0    0 -0.14349269894E+02  0.31520071771E+01  0.25451819267E+02  0.29387613033E+02  0.00000000000E+00 0.  1.
</event>
<event>
 5    1  0.8778268E-005  0.9118800E+02  0.7818608E-02  0.1130116E+00
         25   -1    0    0    0    0  0.00000000000E+00  0.00000000000E+00  0.99999998245E-14  0.12500000000E+03  0.12500000000E+03 0.  0.
        -11    1    3    3    0    0 -0.50358976746E+02  0.20917812739E+02 -0.75101145742E+01  0.55045283629E+02  0.51100000000E-03 0. -1.
         23    2    1    0    0    0 -0.15742511391E+02  0.61252580107E+01 -0.23594355652E+02  0.95982090544E+02  0.91490560365E+02 0.  0.
         11    1    3    3    0    0  0.34616465355E+02 -0.14792554728E+02 -0.16084241078E+02  0.40936806915E+02  0.51100000000E-03 0.  1.
         22    1    1    0    0    0  0.15742511391E+02 -0.61252580107E+01  0.23594355652E+02  0.29017909456E+02  0.00000000000E+00 0. -1.
</event>
<event>
 5    1  0.8778268E-005  0.9118800E+02  0.7818608E-02  0.1130116E+00
         25   -1    0    0    0    0  0.00000000000E+00  0.00000000000E+00  0.99999998245E-14  0.12500000000E+03  0.12500000000E+03 0.  0.
        -11    1    3    3    0    0 -0.57105527534E+01 -0.41567401295E+02 -0.84813403899E+01  0.42806452764E+02  0.51100000000E-03 0.  1.
         23    2    1    0    0    0 -0.19858220509E+02  0.13506756000E+02 -0.80503915396E+01  0.99670369459E+02  0.96398093159E+02 0.  0.
         11    1    3    3    0    0 -0.14147667755E+02  0.55074157295E+02  0.43094885031E+00  0.56863916695E+02  0.51100000000E-03 0. -1.
         22    1    1    0    0    0  0.19858220509E+02 -0.13506756000E+02  0.80503915396E+01  0.25329630541E+02  0.00000000000E+00 0. -1.
</event>
<event>
 5    1  0.8778268E-005  0.9118800E+02  0.7818608E-02  0.1130116E+00
         25   -1    0    0    0    0  0.00000000000E+00  0.00000000000E+00  0.99999998245E-14  0.12500000000E+03  0.12500000000E+03 0.  0.
        -11    1    3    3    0    0  0.31812494963E+02  0.37539761363E+02 -0.11456467313E+02  0.50522461961E+02  0.51100000000E-03 0.  1.
         23    2    1    0    0    0 -0.12164759017E+01  0.13122654688E+02 -0.27410002647E+02  0.94586316816E+02  0.89563269280E+02 0.  0.
         11    1    3    3    0    0 -0.33028970865E+02 -0.24417106675E+02 -0.15953535334E+02  0.44063854855E+02  0.51100000000E-03 0. -1.
         22    1    1    0    0    0  0.12164759017E+01 -0.13122654688E+02  0.27410002647E+02  0.30413683184E+02  0.00000000000E+00 0.  1.
</event>
<event>
 5    1  0.8778268E-005  0.9118800E+02  0.7818608E-02  0.1130116E+00
         25   -1    0    0    0    0  0.00000000000E+00  0.00000000000E+00  0.99999998245E-14  0.12500000000E+03  0.12500000000E+03 0.  0.
        -11    1    3    3    0    0  0.91773140098E+01  0.29139550092E+02 -0.18846349262E+02  0.35895979618E+02  0.51100000000E-03 0.  1.
         23    2    1    0    0    0 -0.13329992641E+01 -0.28481840951E+02 -0.58235190087E+01  0.95898358729E+02  0.91376089226E+02 0.  0.
         11    1    3    3    0    0 -0.10510313274E+02 -0.57621391043E+02  0.13022830254E+02  0.60002379111E+02  0.51100000000E-03 0. -1.
         22    1    1    0    0    0  0.13329992641E+01  0.28481840951E+02  0.58235190087E+01  0.29101641271E+02  0.00000000000E+00 0. -1.
</event>
<event>
 5    1  0.8778268E-005  0.9118800E+02  0.7818608E-02  0.1130116E+00
         25   -1    0    0    0    0  0.00000000000E+00  0.00000000000E+00  0.99999998245E-14  0.12500000000E+03  0.12500000000E+03 0.  0.
        -11    1    3    3    0    0 -0.44056261364E+02  0.10767294907E+02  0.35719558674E+02  0.57730197272E+02  0.51100000000E-03 0. -1.
         23    2    1    0    0    0 -0.24881235848E+02 -0.11456011450E+02  0.14048874509E+02  0.94215475144E+02  0.89044195690E+02 0.  0.
         11    1    3    3    0    0  0.19175025516E+02 -0.22223306356E+02 -0.21670684165E+02  0.36485277872E+02  0.51100000000E-03 0.  1.
         22    1    1    0    0    0  0.24881235848E+02  0.11456011450E+02 -0.14048874509E+02  0.30784524856E+02  0.00000000000E+00 0. -1.
</event>
<event>
 5    1  0.8778268E-005  0.9118800E+02  0.7818608E-02  0.1130116E+00
         25   -1    0    0    0    0  0.00000000000E+00  0.00000000000E+00  0.99999998245E-14  0.12500000000E+03  0.12500000000E+03 0.  0.
        -11    1    3    3    0    0 -0.16036869638E+02 -0.28970897510E+02 -0.21354948541E+02  0.39402130878E+02  0.51100000000E-03 0.  1.
         23    2    1    0    0    0  0.25025043893E+02  0.91604990580E+01 -0.97198977395E+01  0.96633752858E+02  0.92376610754E+02 0.  0.
         11    1    3    3    0    0  0.41061913531E+02  0.38131396568E+02  0.11635050801E+02  0.57231621980E+02  0.51100000000E-03 0. -1.
         22    1    1    0    0    0 -0.25025043893E+02 -0.91604990580E+01  0.97198977395E+01  0.28366247142E+02  0.00000000000E+00 0. -1.
</event>
<event>
 5    1  0.8778268E-005  0.9118800E+02  0.7818608E-02  0.1130116E+00
         25   -1    0    0    0    0  0.00000000000E+00  0.00000000000E+00  0.99999998245E-14  0.12500000000E+03  0.12500000000E+03 0.  0.
        -11    1    3    3    0    0  0.39022069523E+02 -0.35718503870E+02  0.20646002971E+02  0.56787242119E+02  0.51100000000E-03 0.  1.
         23    2    1    0    0    0  0.26027474801E+02 -0.52970627335E+01 -0.41333141478E+01  0.98119289370E+02  0.94365366223E+02 0.  0.
         11    1    3    3    0    0 -0.12994594721E+02  0.30421441137E+02 -0.24779317119E+02  0.41332047251E+02  0.51100000000E-03 0. -1.
         22    1    1    0    0    0 -0.26027474801E+02  0.52970627335E+01  0.41333141478E+01  0.26880710630E+02  0.00000000000E+00 0.  1.
</event>
<event>
 5    1  0.8778268E-005  0.9118800E+02  0.7818608E-02  0.1130116E+00
         25   -1    0    0    0    0  0.00000000000E+00  0.00000000000E+00  0.99999998245E-14  0.12500000000E+03  0.12500000000E+03 0.  0.
        -11    1    3    3    0    0 -0.25072656472E+02 -0.15279111192E+01 -0.24170016365E+02  0.34859178222E+02  0.51100000000E-03 0.  1.
         23    2    1    0    0    0  0.33191570704E+01  0.17022666902E+01  0.29288170898E+02  0.95475239712E+02  0.90795429004E+02 0.  0.
         11    1    3    3    0    0  0.28391813542E+02  0.32301778095E+01  0.53458187263E+02  0.60616061490E+02  0.51100000000E-03 0. -1.
         22    1    1    0    0    0 -0.33191570704E+01 -0.17022666902E+01 -0.29288170898E+02  0.29524760288E+02  0.00000000000E+00 0. -1.
</event>
<event>
 5    1  0.8778268E-005  0.9118800E+02  0.7818608E-02  0.1130116E+00
         25   -1    0    0    0    0  0.00000000000E+00  0.00000000000E+00  0.99999998245E-14  0.12500000000E+03  0.12500000000E+03 0.  0.
        -11    1    3    3    0    0 -0.58317050663E+02 -0.21185521505E+01  0.16735865925E+02  0.60707955572E+02  0.51100000000E-03 0.  1.
         23    2    1    0    0    0 -0.24814752689E+02 -0.49708772306E+01  0.17313962283E+02  0.94336424517E+02  0.89213822523E+02 0.  0.
         11    1    3    3    0    0  0.33502297974E+02 -0.28523250801E+01  0.57809635788E+00  0.33628468944E+02  0.51100000000E-03 0. -1.
         22    1    1    0    0    0  0.24814752689E+02  0.49708772306E+01 -0.17313962283E+02  0.30663575483E+02  0.00000000000E+00 0.  1.
</event>
<event>
 5    1  0.8778268E-005  0.9118800E+02  0.7818608E-02  0.1130116E+00
         25   -1    0    0    0    0  0.00000000000E+00  0.00000000000E+00  0.99999998245E-14  0.12500000000E+03  0.12500000000E+03 0.  0.
        -11    1    3    3    0    0  0.12146414363E+02 -0.54205978352E+01  0.34433314615E+02  0.36913025051E+02  0.51100000000E-03 0. -1.
         23    2    1    0    0    0 -0.18032469184E+02 -0.14535867699E+02 -0.16324054703E+02  0.96663871884E+02  0.92417357520E+02 0.  0.
         11    1    3    3    0    0 -0.30178883547E+02 -0.91152698641E+01 -0.50757369318E+02  0.59750846833E+02  0.51100000000E-03 0.  1.
         22    1    1    0    0    0  0.18032469184E+02  0.14535867699E+02  0.16324054703E+02  0.28336128116E+02  0.00000000000E+00 0.  1.
</event>
<event>
 5    1  0.8778268E-005  0.9118800E+02  0.7818608E-02  0.1130116E+00
         25   -1    0    0    0    0  0.00000000000E+00  0.00000000000E+00  0.99999998245E-14  0.12500000000E+03  0.12500000000E+03 0.  0.
        -11    1    3    3    0    0  0.20846165243E+02 -0.27705364085E+02  0.30957701198E+02  0.46481491673E+02  0.51100000000E-03 0. -1.
         23    2    1    0    0    0 -0.22440050571E+02 -0.85465119004E+01  0.16078794549E+02  0.96101446932E+02  0.91653487293E+02 0.  0.
         11    1    3    3    0    0 -0.43286215814E+02  0.19158852185E+02 -0.14878906649E+02  0.49619955259E+02  0.51100000000E-03 0.  1.
         22    1    1    0    0    0  0.22440050571E+02  0.85465119004E+01 -0.16078794549E+02  0.28898553068E+02  0.00000000000E+00 0.  1.
</event>
<event>
 5    1  0.8778268E-005  0.9118800E+02  0.7818608E-02  0.1130116E+00
         25   -1    0    0    0    0  0.00000000000E+00  0.00000000000E+00  0.99999998245E-14  0.12500000000E+03  0.12500000000E+03 0.  0.
        -11    1    3    3    0    0  0.11894231335E+02  0.15033879335E+02 -0.27593716564E+02  0.33599158635E+02  0.51100000000E-03 0.  1.
         23    2    1    0    0    0  0.32227339869E+01 -0.38460562080E+01  0.29874200311E+02  0.94707327505E+02  0.89732000291E+02 0.  0.
         11    1    3    3    0    0 -0.86714973479E+01 -0.18879935543E+02  0.57467916875E+02  0.61108168869E+02  0.51100000000E-03 0. -1.
         22    1    1    0    0    0 -0.32227339869E+01  0.38460562080E+01 -0.29874200311E+02  0.30292672495E+02  0.00000000000E+00 0. -1.
</event>
<event>
 5    1  0.8778268E-005  0.9118800E+02  0.7818608E-02  0.1130116E+00
         25   -1    0    0    0    0  0.00000000000E+00  0.00000000000E+00  0.99999998245E-14  0.12500000000E+03  0.12500000000E+03 0.  0.
        -11    1    3    3    0    0  0.16234094755E+02 -0.19738236564E+01  0.41492343512E+02  0.44598838356E+02  0.51100000000E-03 0. -1.
         23    2    1    0    0    0 -0.96412461655E+01  0.27680076697E+02  0.14696430317E+02  0.92210896053E+02  0.86184244577E+02 0.  0.
         11    1    3    3    0    0 -0.25875340920E+02  0.29653900353E+02 -0.26795913196E+02  0.47612057697E+02  0.51100000000E-03 0.  1.
         22    1    1    0    0    0  0.96412461655E+01 -0.27680076697E+02 -0.14696430317E+02  0.32789103947E+02  0.00000000000E+00 0. -1.
</event>
<event>
 5    1  0.8778268E-005  0.9118800E+02  0.7818608E-02  0.1130116E+00
         25   -1    0    0    0    0  0.00000000000E+00  0.00000000000E+00  0.99999998245E-14  0.12500000000E+03  0.12500000000E+03 0.  0.
        -11    1    3    3    0    0 -0.33855515453E+02 -0.27261196857E+01  0.50495547561E+02  0.60855796592E+02  0.51100000000E-03 0. -1.
         23    2    1    0    0    0 -0.13372293388E+02 -0.11120139293E+02  0.23413943916E+02  0.95833435271E+02  0.91287232502E+02 0.  0.
         11    1    3    3    0    0  0.20483222065E+02 -0.83940196074E+01 -0.27081603645E+02  0.34977638679E+02  0.51100000000E-03 0.  1.
         22    1    1    0    0    0  0.13372293388E+02  0.11120139293E+02 -0.23413943916E+02  0.29166564729E+02  0.00000000000E+00 0. -1.
</event>
<event>
 5    1  0.8778268E-005  0.9118800E+02  0.7818608E-02  0.1130116E+00
         25   -1    0    0    0    0  0.00000000000E+00  0.00000000000E+00  0.99999998245E-14  0.12500000000E+03  0.12500000000E+03 0.  0.
        -11    1    3    3    0    0  0.13069249547E+01  0.14875000893E+02  0.59814578363E+02  0.61650283773E+02  0.51100000000E-03 0. -1.
         23    2    1    0    0    0  0.45476704270E+01  0.12069896366E+02  0.23706863712E+02  0.98011500752E+02  0.94222477085E+02 0.  0.
         11    1    3    3    0    0  0.32407454723E+01 -0.28051045267E+01 -0.36107714650E+02  0.36361216979E+02  0.51100000000E-03 0.  1.
         22    1    1    0    0    0 -0.45476704270E+01 -0.12069896366E+02 -0.23706863712E+02  0.26988499248E+02  0.00000000000E+00 0. -1.
</event>
<event>
 5    1  0.8778268E-005  0.9118800E+02  0.7818608E-02  0.1130116E+00
         25   -1    0    0    0    0  0.00000000000E+00  0.00000000000E+00  0.99999998245E-14  0.12500000000E+03  0.12500000000E+03 0.  0.
        -11    1    3    3    0    0  0.11066606690E+02  0.20451225518E+02  0.36021974016E+02  0.42875459427E+02  0.51100000000E-03 0.  1.
         23    2    1    0    0    0  0.87027306514E+01 -0.25919711594E+02  0.12223958231E+02  0.95050139821E+02  0.90208286511E+02 0.  0.
         11    1    3    3    0    0 -0.23638760386E+01 -0.46370937113E+02 -0.23798015785E+02  0.52174680394E+02  0.51100000000E-03 0. -1.
         22    1    1    0    0    0 -0.87027306514E+01  0.25919711594E+02 -0.12223958231E+02  0.29949860179E+02  0.00000000000E+00 0. -1.
</event>
<event>
 4    1  0.8778268E-005  0.9118800E+02  0.7818608E-02  0.1130116E+00
         25   -1    0    0    0    0  0.00000000000E+00  0.00000000000E+00  0.99999998245E-14  0.12500000000E+03  0.12500000000E+03 0.  0.
        -11    1    1    0    0    0  0.20060759557E+02 -0.55437881387E+01  0.36646242403E+01  0.21132844863E+02  0.51100000000E-03 0. -1.
         11    1    1    0    0    0  0.18380068548E+02  0.37388250733E+02 -0.26075933440E+02  0.49149389800E+02  0.51100000000E-03 0.  1.
         22    1    1    0    0    0 -0.38440828105E+02 -0.31844462594E+02  0.22411309200E+02  0.54717765336E+02  0.00000000000E+00 0.  1.
</event>
<event>
 5    1  0.8778268E-005  0.9118800E+02  0.7818608E-02  0.1130116E+00
         25   -1    0    0    0    0  0.00000000000E+00  0.00000000000E+00  0.99999998245E-14  0.12500000000E+03  0.12500000000E+03 0.  0.
        -11    1    3    3    0    0  0.53765208417E+02  0.25611059410E+01  0.24973083078E+02  0.59337271410E+02  0.51100000000E-03 0.  1.
         23    2    1    0    0    0  0.17805846069E+02  0.10087050935E+02  0.19954889852E+02  0.96416886457E+02  0.92082689004E+02 0.  0.
         11    1    3    3    0    0 -0.35959362348E+02  0.75259449943E+01 -0.50181932263E+01  0.37079615047E+02  0.51100000000E-03 0. -1.
         22    1    1    0    0    0 -0.17805846069E+02 -0.10087050935E+02 -0.19954889852E+02  0.28583113543E+02  0.00000000000E+00 0.  1.
</event>
<event>
 5    1  0.8778268E-005  0.9118800E+02  0.7818608E-02  0.1130116E+00
         25   -1    0    0    0    0  0.00000000000E+00  0.00000000000E+00  0.99999998245E-14  0.12500000000E+03  0.12500000000E+03 0.  0.
        -11    1    3    3    0    0 -0.23046246282E+02  0.20156019048E+02 -0.17893015399E+02  0.35462015902E+02  0.51100000000E-03 0. -1.
         23    2    1    0    0    0  0.78956190841E+01  0.44322755623E+01  0.29464101233E+02  0.94175997521E+02  0.88988759853E+02 0.  0.
         11    1    3    3    0    0  0.30941865366E+02 -0.15723743485E+02  0.47357116632E+02  0.58713981618E+02  0.51100000000E-03 0.  1.
         22    1    1    0    0    0 -0.78956190841E+01 -0.44322755623E+01 -0.29464101233E+02  0.30824002479E+02  0.00000000000E+00 0.  1.
</event>
<event>
 5    1  0.8778268E-005  0.9118800E+02  0.7818608E-02  0.1130116E+00
         25   -1    0    0    0    0  0.00000000000E+00  0.00000000000E+00  0.99999998245E-14  0.12500000000E+03  0.12500000000E+03 0.  0.
        -11    1    3    3    0    0  0.18778851134E+02  0.35359958935E+02  0.34592328689E+02  0.52911257311E+02  0.51100000000E-03 0.  1.
         23    2    1    0    0    0 -0.15705439456E+02  0.17176107673E+02  0.19213840765E+02  0.94819688864E+02  0.89888387549E+02 0.  0.
         11    1    3    3    0    0 -0.34484290590E+02 -0.18183851262E+02 -0.15378487924E+02  0.41908431554E+02  0.51100000000E-03 0. -1.
         22    1    1    0    0    0  0.15705439456E+02 -0.17176107673E+02 -0.19213840765E+02  0.30180311136E+02  0.00000000000E+00 0.  1.
</event>
<event>
 5    1  0.8778268E-005  0.9118800E+02  0.7818608E-02  0.1130116E+00
         25   -1    0    0    0    0  0.00000000000E+00  0.00000000000E+00  0.99999998245E-14  0.12500000000E+03  0.12500000000E+03 0.  0.
        -11    1    3    3    0    0 -0.26263617672E+02 -0.20034919121E+02 -0.40281500800E+02  0.52093904675E+02  0.51100000000E-03 0. -1.
         23    2    1    0    0    0  0.91797160988E+01  0.23148994855E+01 -0.27522152704E+02  0.95895106309E+02  0.91371639896E+02 0.  0.
         11    1    3    3    0    0  0.35443333770E+02  0.22349818606E+02  0.12759348095E+02  0.43801201634E+02  0.51100000000E-03 0.  1.
         22    1    1    0    0    0 -0.91797160988E+01 -0.23148994855E+01  0.27522152704E+02  0.29104893691E+02  0.00000000000E+00 0. -1.
</event>
<event>
 5    1  0.8778268E-005  0.9118800E+02  0.7818608E-02  0.1130116E+00
         25   -1    0    0    0    0  0.00000000000E+00  0.00000000000E+00  0.99999998245E-14  0.12500000000E+03  0.12500000000E+03 0.  0.
        -11    1    3    3    0    0 -0.18655846561E+01  0.39289791232E+02  0.17391624570E+02  0.43007402928E+02  0.51100000000E-03 0.  1.
         23    2    1    0    0    0  0.28279484043E+02  0.42518907582E+01 -0.74045922640E+01  0.95459590738E+02  0.90773882171E+02 0.  0.
         11    1    3    3    0    0  0.30145068699E+02 -0.35037900474E+02 -0.24796216834E+02  0.52452187810E+02  0.51100000000E-03 0. -1.
         22    1    1    0    0    0 -0.28279484043E+02 -0.42518907582E+01  0.74045922640E+01  0.29540409262E+02  0.00000000000E+00 0. -1.
</event>
<event>
 5    1  0.8778268E-005  0.9118800E+02  0.7818608E-02  0.1130116E+00
         25   -1    0    0    0    0  0.00000000000E+00  0.00000000000E+00  0.99999998245E-14  0.12500000000E+03  0.12500000000E+03 0.  0.
        -11    1    3    3    0    0  0.12097113713E+01  0.30386572994E+02  0.18846286255E+02  0.35776944053E+02  0.51100000000E-03 0. -1.
         23    2    1    0    0    0 -0.21200009680E+02 -0.17825515026E+02 -0.91064827149E+01  0.95843226794E+02  0.91300639091E+02 0.  0.
         11    1    3    3    0    0 -0.22409721051E+02 -0.48212088020E+02 -0.27952768970E+02  0.60066282740E+02  0.51100000000E-03 0.  1.
         22    1    1    0    0    0  0.21200009680E+02  0.17825515026E+02  0.91064827149E+01  0.29156773206E+02  0.00000000000E+00 0.  1.
</event>
<event>
 5    1  0.8778268E-005  0.9118800E+02  0.7818608E-02  0.1130116E+00
         25   -1    0    0    0    0  0.00000000000E+00  0.00000000000E+00  0.99999998245E-14  0.12500000000E+03  0.12500000000E+03 0.  0.
        -11    1    3    3    0    0 -0.27684253938E+02  0.26055204048E+02 -0.47579936320E+02  0.60902725018E+02  0.51100000000E-03 0.  1.
         23    2    1    0    0    0 -0.69738941425E+01  0.76827756498E+01 -0.28882709173E+02  0.94310080965E+02  0.89176904192E+02 0.  0.
         11    1    3    3    0    0  0.20710359796E+02 -0.18372428398E+02  0.18697227148E+02  0.33407355947E+02  0.51100000000E-03 0. -1.
         22    1    1    0    0    0  0.69738941425E+01 -0.76827756498E+01  0.28882709173E+02  0.30689919035E+02  0.00000000000E+00 0.  1.
</event>
<event>
 5    1  0.8778268E-005  0.9118800E+02  0.7818608E-02  0.1130116E+00
         25   -1    0    0    0    0  0.00000000000E+00  0.00000000000E+00  0.99999998245E-14  0.12500000000E+03  0.12500000000E+03 0.  0.
        -11    1    3    3    0    0 -0.11712568789E+02 -0.48727494926E+02  0.29679799225E+02  0.58244686554E+02  0.51100000000E-03 0.  1.
         23    2    1    0    0    0 -0.39354553356E+01 -0.28559417632E+02 -0.14397177715E+01  0.96134779900E+02  0.91698936607E+02 0.  0.
         11    1    3    3    0    0  0.77771134535E+01  0.20168077294E+02 -0.31119516997E+02  0.37890093346E+02  0.51100000000E-03 0. -1.
         22    1    1    0    0    0  0.39354553356E+01  0.28559417632E+02  0.14397177715E+01  0.28865220100E+02  0.00000000000E+00 0.  1.
</event>
<event>
 5    1  0.8778268E-005  0.9118800E+02  0.7818608E-02  0.1130116E+00
         25   -1    0    0    0    0  0.00000000000E+00  0.00000000000E+00  0.99999998245E-14  0.12500000000E+03  0.12500000000E+03 0.  0.
        -11    1    3    3    0    0 -0.30880107130E+02  0.52437683594E+02 -0.33014697958E+01  0.60944166088E+02  0.51100000000E-03 0. -1.
         23    2    1    0    0    0 -0.58226152666E+01  0.28734030791E+02  0.73911187652E+00  0.95672646549E+02  0.91066797667E+02 0.  0.
         11    1    3    3    0    0  0.25057491863E+02 -0.23703652802E+02  0.40405816724E+01  0.34728480461E+02  0.51100000000E-03 0.  1.
         22    1    1    0    0    0  0.58226152666E+01 -0.28734030791E+02 -0.73911187652E+00  0.29327353451E+02  0.00000000000E+00 0. -1.
</event>
<event>
 5    1  0.8778268E-005  0.9118800E+02  0.7818608E-02  0.1130116E+00
         25   -1    0    0    0    0  0.00000000000E+00  0.00000000000E+00  0.99999998245E-14  0.12500000000E+03  0.12500000000E+03 0.  0.
        -11    1    3    3    0    0  0.48415314530E+02  0.74201789835E+01  0.33266106830E+02  0.59209252664E+02  0.51100000000E-03 0.  1.
         23    2    1    0    0    0  0.22635618458E+02  0.15568754744E+02  0.75838325138E+01  0.96499616444E+02  0.92194924540E+02 0.  0.
         11    1    3    3    0    0 -0.25779696072E+02  0.81485757604E+01 -0.25682274316E+02  0.37290363780E+02  0.51100000000E-03 0. -1.
         22    1    1    0    0    0 -0.22635618458E+02 -0.15568754744E+02 -0.75838325138E+01  0.28500383556E+02  0.00000000000E+00 0.  1.
</event>
<event>
 5    1  0.8778268E-005  0.9118800E+02  0.7818608E-02  0.1130116E+00
         25   -1    0    0    0    0  0.00000000000E+00  0.00000000000E+00  0.99999998245E-14  0.12500000000E+03  0.12500000000E+03 0.  0.
        -11    1    3    3    0    0 -0.33021821052E+01  0.57120959808E+02  0.16805604184E+02  0.59633352985E+02  0.51100000000E-03 0.  1.
         23    2    1    0    0    0 -0.14663720651E+02  0.23921532636E+02  0.83141940471E+01  0.95735853854E+02  0.91153515915E+02 0.  0.
         11    1    3    3    0    0 -0.11361538545E+02 -0.33199427172E+02 -0.84914101368E+01  0.36102500869E+02  0.51100000000E-03 0. -1.
         22    1    1    0    0    0  0.14663720651E+02 -0.23921532636E+02 -0.83141940471E+01  0.29264146146E+02  0.00000000000E+00 0.  1.
</event>
<event>
 5    1  0.8778268E-005  0.9118800E+02  0.7818608E-02  0.1130116E+00
         25   -1    0    0    0    0  0.00000000000E+00  0.00000000000E+00  0.99999998245E-14  0.12500000000E+03  0.12500000000E+03 0.  0.
        -11    1    3    3    0    0  0.17794370226E+01  0.48849936774E+02 -0.28165585417E+02  0.56416158333E+02  0.51100000000E-03 0. -1.
         23    2    1    0    0    0 -0.18483182813E+02  0.19556991080E+02 -0.12601299063E+02  0.95286422547E+02  0.90535107205E+02 0.  0.
         11    1    3    3    0    0 -0.20262619836E+02 -0.29292945694E+02  0.15564286354E+02  0.38870264213E+02  0.51100000000E-03 0.  1.
         22    1    1    0    0    0  0.18483182813E+02 -0.19556991080E+02  0.12601299063E+02  0.29713577453E+02  0.00000000000E+00 0.  1.
</event>
<event>
 5    1  0.8778268E-005  0.9118800E+02  0.7818608E-02  0.1130116E+00
         25   -1    0    0    0    0  0.00000000000E+00  0.00000000000E+00  0.99999998245E-14  0.12500000000E+03  0.12500000000E+03 0.  0.
        -11    1    3    3    0    0  0.56034651324E+02  0.83242205304E+01  0.17401044657E+01  0.56676298046E+02  0.51100000000E-03 0.  1.
         23    2    1    0    0    0  0.20483207324E+02  0.30890716641E+01  0.19313818639E+02  0.96678140308E+02  0.92436654401E+02 0.  0.
         11    1    3    3    0    0 -0.35551444000E+02 -0.52351488663E+01  0.17573714174E+02  0.40001842261E+02  0.51100000000E-03 0. -1.
         22    1    1    0    0    0 -0.20483207324E+02 -0.30890716641E+01 -0.19313818639E+02  0.28321859692E+02  0.00000000000E+00 0. -1.
</event>
<event>
 5    1  0.8778268E-005  0.9118800E+02  0.7818608E-02  0.1130116E+00
         25   -1    0    0    0    0  0.00000000000E+00  0.00000000000E+00  0.99999998245E-14  0.12500000000E+03  0.12500000000E+03 0.  0.
        -11    1    3    3    0    0  0.87434581473E+01  0.33783698243E+02  0.51157726367E+02  0.61926563724E+02  0.51100000000E-03 0.  1.
         23    2    1    0    0    0  0.57243591336E+01  0.17594077462E+02  0.16881313680E+02  0.99954070175E+02  0.96765270339E+02 0.  0.
         11    1    3    3    0    0 -0.30190990136E+01 -0.16189620781E+02 -0.34276412687E+02  0.38027506451E+02  0.51100000000E-03 0. -1.
         22    1    1    0    0    0 -0.57243591336E+01 -0.17594077462E+02 -0.16881313680E+02  0.25045929825E+02  0.00000000000E+00 0.  1.
</event>
<event>
 5    1  0.8778268E-005  0.9118800E+02  0.7818608E-02  0.1130116E+00
         25   -1    0    0    0    0  0.00000000000E+00  0.00000000000E+00  0.99999998245E-14  0.12500000000E+03  0.12500000000E+03 0.  0.
        -11    1    3    3    0    0 -0.11072982992E+02  0.48674728044E+02 -0.36085594804E+02  0.61595537623E+02  0.51100000000E-03 0.  1.
         23    2    1    0    0    0 -0.12381025568E+02  0.21346681019E+02 -0.15182391901E+02  0.96026294534E+02  0.91550934640E+02 0.  0.
         11    1    3    3    0    0 -0.13080425754E+01 -0.27328047025E+02  0.20903202903E+02  0.34430756911E+02  0.51100000000E-03 0. -1.
         22    1    1    0    0    0  0.12381025568E+02 -0.21346681019E+02  0.15182391901E+02  0.28973705466E+02  0.00000000000E+00 0.  1.
</event>
<event>
 5    1  0.8778268E-005  0.9118800E+02  0.7818608E-02  0.1130116E+00
         25   -1    0    0    0    0  0.00000000000E+00  0.00000000000E+00  0.99999998245E-14  0.12500000000E+03  0.12500000000E+03 0.  0.
        -11    1    3    3    0    0  0.38191816748E+02 -0.45116860156E+02 -0.12695208098E+02  0.60459194882E+02  0.51100000000E-03 0. -1.
         23    2    1    0    0    0  0.25515196659E+02 -0.13458853032E+02 -0.25387221400E+01  0.96041217298E+02  0.91571307321E+02 0.  0.
         11    1    3    3    0    0 -0.12676620089E+02  0.31658007124E+02  0.10156485958E+02  0.35582022416E+02  0.51100000000E-03 0.  1.
         22    1    1    0    0    0 -0.25515196659E+02  0.13458853032E+02  0.25387221400E+01  0.28958782702E+02  0.00000000000E+00 0. -1.
</event>
<event>
 5    1  0.8778268E-005  0.9118800E+02  0.7818608E-02  0.1130116E+00
         25   -1    0    0    0    0  0.00000000000E+00  0.00000000000E+00  0.99999998245E-14  0.12500000000E+03  0.12500000000E+03 0.  0.
        -11    1    3    3    0    0  0.13845624409E+02  0.36361878172E+02 -0.26119538086E+02  0.46862754609E+02  0.51100000000E-03 0.  1.
         23    2    1    0    0    0  0.16846923335E+02 -0.11882421273E+02 -0.21165642816E+02  0.95453507874E+02  0.90765505389E+02 0.  0.
         11    1    3    3    0    0  0.30012989261E+01 -0.48244299445E+02  0.49538952704E+01  0.48590753264E+02  0.51100000000E-03 0. -1.
         22    1    1    0    0    0 -0.16846923335E+02  0.11882421273E+02  0.21165642816E+02  0.29546492126E+02  0.00000000000E+00 0. -1.
</event>
<event>
 5    1  0.8778268E-005  0.9118800E+02  0.7818608E-02  0.1130116E+00
         25   -1    0    0    0    0  0.00000000000E+00  0.00000000000E+00  0.99999998245E-14  0.12500000000E+03  0.12500000000E+03 0.  0.
        -11    1    3    3    0    0  0.67626319577E+01 -0.49746730471E+02  0.31841168450E+01  0.50305158621E+02  0.51100000000E-03 0. -1.
         23    2    1    0    0    0  0.41904366578E+01 -0.11323133708E+02  0.26888225122E+02  0.95525438654E+02  0.90864512674E+02 0.  0.
         11    1    3    3    0    0 -0.25721952999E+01  0.38423596763E+02  0.23704108277E+02  0.45220280033E+02  0.51100000000E-03 0.  1.
         22    1    1    0    0    0 -0.41904366578E+01  0.11323133708E+02 -0.26888225122E+02  0.29474561346E+02  0.00000000000E+00 0.  1.
</event>
<event>
 5    1  0.8778268E-005  0.9118800E+02  0.7818608E-02  0.1130116E+00
         25   -1    0    0    0    0  0.00000000000E+00  0.00000000000E+00  0.99999998245E-14  0.12500000000E+03  0.12500000000E+03 0.  0.
        -11    1    3    3    0    0  0.15247399992E+02 -0.31473671209E+02  0.28977731736E+02  0.45417883292E+02  0.51100000000E-03 0. -1.
         23    2    1    0    0    0  0.26493307283E+02  0.11468121681E+02  0.55800188617E+01  0.95596773031E+02  0.90962592629E+02 0.  0.
         11    1    3    3    0    0  0.11245907291E+02  0.42941792891E+02 -0.23397712874E+02  0.50178889739E+02  0.51100000000E-03 0.  1.
         22    1    1    0    0    0 -0.26493307283E+02 -0.11468121681E+02 -0.55800188617E+01  0.29403226969E+02  0.00000000000E+00 0. -1.
</event>
<event>
 5    1  0.8778268E-005  0.9118800E+02  0.7818608E-02  0.1130116E+00
         25   -1    0    0    0    0  0.00000000000E+00  0.00000000000E+00  0.99999998245E-14  0.12500000000E+03  0.12500000000E+03 0.  0.
        -11    1    3    3    0    0 -0.49694765175E+02  0.84338497233E+01 -0.25058331346E+02  0.56290491889E+02  0.51100000000E-03 0.  1.
         23    2    1    0    0    0 -0.25205712408E+02 -0.17840696273E+01  0.78273239646E+01  0.98546685597E+02  0.94929823550E+02 0.  0.
         11    1    3    3    0    0  0.24489052767E+02 -0.10217919351E+02  0.32885655311E+02  0.42256193709E+02  0.51100000000E-03 0. -1.
         22    1    1    0    0    0  0.25205712408E+02  0.17840696273E+01 -0.78273239646E+01  0.26453314403E+02  0.00000000000E+00 0.  1.
</event>
<event>
 5    1  0.8778268E-005  0.9118800E+02  0.7818608E-02  0.1130116E+00
         25   -1    0    0    0    0  0.00000000000E+00  0.00000000000E+00  0.99999998245E-14  0.12500000000E+03  0.12500000000E+03 0.  0.
        -11    1    3    3    0    0 -0.16774932856E+02 -0.55010045889E+02  0.14055777157E+02  0.59203618071E+02  0.51100000000E-03 0.  1.
         23    2    1    0    0    0 -0.20583986375E+02 -0.19428093793E+02  0.37174830201E+01  0.96452303009E+02  0.92130753563E+02 0.  0.
         11    1    3    3    0    0 -0.38090535195E+01  0.35581952096E+02 -0.10338294137E+02  0.37248684938E+02  0.51100000000E-03 0. -1.
         22    1    1    0    0    0  0.20583986375E+02  0.19428093793E+02 -0.37174830201E+01  0.28547696991E+02  0.00000000000E+00 0.  1.
</event>
<event>
 5    1  0.8778268E-005  0.9118800E+02  0.7818608E-02  0.1130116E+00
         25   -1    0    0    0    0  0.00000000000E+00  0.00000000000E+00  0.99999998245E-14  0.12500000000E+03  0.12500000000E+03 0.  0.
        -11    1    3    3    0    0  0.31797644971E+02 -0.14261080603E+02  0.12109375508E+02  0.36893164965E+02  0.51100000000E-03 0. -1.
         23    2    1    0    0    0  0.43252075318E+01  0.22478491822E+02 -0.21368924244E+02  0.93685132314E+02  0.88296563232E+02 0.  0.
         11    1    3    3    0    0 -0.27472437439E+02  0.36739572426E+02 -0.33478299752E+02  0.56791967350E+02  0.51100000000E-03 0.  1.
         22    1    1    0    0    0 -0.43252075318E+01 -0.22478491822E+02  0.21368924244E+02  0.31314867686E+02  0.00000000000E+00 0.  1.
</event>
<event>
 5    1  0.8778268E-005  0.9118800E+02  0.7818608E-02  0.1130116E+00
         25   -1    0    0    0    0  0.00000000000E+00  0.00000000000E+00  0.99999998245E-14  0.12500000000E+03  0.12500000000E+03 0.  0.
        -11    1    3    3    0    0  0.17338579571E+02 -0.44029197912E+02  0.27900688280E+02  0.54933095826E+02  0.51100000000E-03 0. -1.
         23    2    1    0    0    0 -0.12613334696E+02 -0.24235558773E+02  0.58696310597E+01  0.97055213546E+02  0.92945163330E+02 0.  0.
         11    1    3    3    0    0 -0.29951914267E+02  0.19793639139E+02 -0.22031057221E+02  0.42122117719E+02  0.51100000000E-03 0.  1.
         22    1    1    0    0    0  0.12613334696E+02  0.24235558773E+02 -0.58696310597E+01  0.27944786454E+02  0.00000000000E+00 0. -1.
</event>
<event>
 5    1  0.8778268E-005  0.9118800E+02  0.7818608E-02  0.1130116E+00
         25   -1    0    0    0    0  0.00000000000E+00  0.00000000000E+00  0.99999998245E-14  0.12500000000E+03  0.12500000000E+03 0.  0.
        -11    1    3    3    0    0 -0.45658373126E+02  0.15517774249E+02  0.19015855893E+02  0.51837159739E+02  0.51100000000E-03 0. -1.
         23    2    1    0    0    0 -0.83046777521E+01  0.26673775150E+02 -0.34818554326E+01  0.96847180060E+02  0.92664961097E+02 0.  0.
         11    1    3    3    0    0  0.37353695374E+02  0.11156000901E+02 -0.22497711325E+02  0.45010020322E+02  0.51100000000E-03 0.  1.
         22    1    1    0    0    0  0.83046777521E+01 -0.26673775150E+02  0.34818554326E+01  0.28152819940E+02  0.00000000000E+00 0. -1.
</event>
<event>
 5    1  0.8778268E-005  0.9118800E+02  0.7818608E-02  0.1130116E+00
         25   -1    0    0    0    0  0.00000000000E+00  0.00000000000E+00  0.99999998245E-14  0.12500000000E+03  0.12500000000E+03 0.  0.
        -11    1    3    3    0    0 -0.22896547513E+02 -0.29104076455E+02 -0.91618587443E-01  0.37031169959E+02  0.51100000000E-03 0.  1.
         23    2    1    0    0    0  0.34228299655E+01  0.23158678917E+02  0.14660707175E+02  0.97377970584E+02  0.93378223618E+02 0.  0.
         11    1    3    3    0    0  0.26319377479E+02  0.52262755372E+02  0.14752325763E+02  0.60346800625E+02  0.51100000000E-03 0. -1.
         22    1    1    0    0    0 -0.34228299655E+01 -0.23158678917E+02 -0.14660707175E+02  0.27622029416E+02  0.00000000000E+00 0. -1.
</event>
<event>
 5    1  0.8778268E-005  0.9118800E+02  0.7818608E-02  0.1130116E+00
         25   -1    0    0    0    0  0.00000000000E+00  0.00000000000E+00  0.99999998245E-14  0.12500000000E+03  0.12500000000E+03 0.  0.
        -11    1    3    3    0    0 -0.41352262280E+02  0.36979985197E+02  0.21809876892E+02  0.59608721099E+02  0.51100000000E-03 0.  1.
         23    2    1    0    0    0 -0.24259125938E+02  0.44085857148E+01  0.61458484463E+01  0.99589130822E+02  0.96292692898E+02 0.  0.
         11    1    3    3    0    0  0.17093136342E+02 -0.32571399482E+02 -0.15664028445E+02  0.39980409723E+02  0.51100000000E-03 0. -1.
         22    1    1    0    0    0  0.24259125938E+02 -0.44085857148E+01 -0.61458484463E+01  0.25410869178E+02  0.00000000000E+00 0.  1.
</event>
<event>
 5    1  0.8778268E-005  0.9118800E+02  0.7818608E-02  0.1130116E+00
         25   -1    0    0    0    0  0.00000000000E+00  0.00000000000E+00  0.99999998245E-14  0.12500000000E+03  0.12500000000E+03 0.  0.
        -11    1    3    3    0    0 -0.20040379126E+02  0.27864307605E+02 -0.49177325963E+02  0.59970374544E+02  0.51100000000E-03 0.  1.
         23    2    1    0    0    0  0.15899350631E+01  0.15685361947E+02 -0.29127339533E+02  0.91879607774E+02  0.85702403371E+02 0.  0.
         11    1    3    3    0    0  0.21630314189E+02 -0.12178945659E+02  0.20049986430E+02  0.31909233231E+02  0.51100000000E-03 0. -1.
         22    1    1    0    0    0 -0.15899350631E+01 -0.15685361947E+02  0.29127339533E+02  0.33120392226E+02  0.00000000000E+00 0.  1.
</event>
<event>
 5    1  0.8778268E-005  0.9118800E+02  0.7818608E-02  0.1130116E+00
         25   -1    0    0    0    0  0.00000000000E+00  0.00000000000E+00  0.99999998245E-14  0.12500000000E+03  0.12500000000E+03 0.  0.
        -11    1    3    3    0    0  0.48962040876E+01 -0.38527106382E+02 -0.43362544583E+02  0.58211863168E+02  0.51100000000E-03 0. -1.
         23    2    1    0    0    0 -0.11698818802E+02 -0.10623664379E+02 -0.24753404117E+02  0.95632405247E+02  0.91011544937E+02 0.  0.
         11    1    3    3    0    0 -0.16595022890E+02  0.27903442003E+02  0.18609140465E+02  0.37420542078E+02  0.51100000000E-03 0.  1.
         22    1    1    0    0    0  0.11698818802E+02  0.10623664379E+02  0.24753404117E+02  0.29367594753E+02  0.00000000000E+00 0. -1.
</event>
<event>
 5    1  0.8778268E-005  0.9118800E+02  0.7818608E-02  0.1130116E+00
         25   -1    0    0    0    0  0.00000000000E+00  0.00000000000E+00  0.99999998245E-14  0.12500000000E+03  0.12500000000E+03 0.  0.
        -11    1    3    3    0    0 -0.53285191083E+01  0.30511108535E+02  0.29358421090E+02  0.42675962193E+02  0.51100000000E-03 0. -1.
         23    2    1    0    0    0 -0.12779189726E+02 -0.20725159487E+02  0.14987902726E+02  0.96408442611E+02  0.92071225976E+02 0.  0.
         11    1    3    3    0    0 -0.74506706173E+01 -0.51236268022E+02 -0.14370518364E+02  0.53732480418E+02  0.51100000000E-03 0.  1.
         22    1    1    0    0    0  0.12779189726E+02  0.20725159487E+02 -0.14987902726E+02  0.28591557389E+02  0.00000000000E+00 0.  1.
</event>
<event>
 5    1  0.8778268E-005  0.9118800E+02  0.7818608E-02  0.1130116E+00
         25   -1    0    0    0    0  0.00000000000E+00  0.00000000000E+00  0.99999998245E-14  0.12500000000E+03  0.12500000000E+03 0.  0.
        -11    1    3    3    0    0  0.13103907086E+02 -0.34749826212E+02 -0.33032181653E+02  0.49702996164E+02  0.51100000000E-03 0.  1.
         23    2    1    0    0    0 -0.20806573595E+02 -0.58030688770E+01 -0.18391265638E+02  0.96630513489E+02  0.92372227278E+02 0.  0.
         11    1    3    3    0    0 -0.33910480681E+02  0.28946757335E+02  0.14640916015E+02  0.46927517325E+02  0.51100000000E-03 0. -1.
         22    1    1    0    0    0  0.20806573595E+02  0.58030688770E+01  0.18391265638E+02  0.28369486511E+02  0.00000000000E+00 0. -1.
</event>
<event>
 5    1  0.8778268E-005  0.9118800E+02  0.7818608E-02  0.1130116E+00
         25   -1    0    0    0    0  0.00000000000E+00  0.00000000000E+00  0.99999998245E-14  0.12500000000E+03  0.12500000000E+03 0.  0.
        -11    1    3    3    0    0  0.40045249253E+02 -0.34488270796E+02 -0.10967667995E+02  0.53975481024E+02  0.51100000000E-03 0.  1.
         23    2    1    0    0    0  0.23655199146E+02  0.62626589587E+01  0.36319259253E+01  0.10026176583E+03  0.97161934202E+02 0.  0.
         11    1    3    3    0    0 -0.16390050107E+02  0.40750929755E+02  0.14599593921E+02  0.46286284808E+02  0.51100000000E-03 0. -1.
         22    1    1    0    0    0 -0.23655199146E+02 -0.62626589587E+01 -0.36319259253E+01  0.24738234169E+02  0.00000000000E+00 0.  1.
</event>
<event>
 5    1  0.8778268E-005  0.9118800E+02  0.7818608E-02  0.1130116E+00
         25   -1    0    0    0    0  0.00000000000E+00  0.00000000000E+00  0.99999998245E-14  0.12500000000E+03  0.12500000000E+03 0.  0.
        -11    1    3    3    0    0  0.13262094312E+01  0.30657970560E+02  0.13511729287E+02  0.33529640900E+02  0.51100000000E-03 0.  1.
         23    2    1    0    0    0  0.18764136328E+01 -0.88219391810E+00 -0.34205779052E+02  0.90731435472E+02  0.84011063962E+02 0.  0.
         11    1    3    3    0    0  0.55020420155E+00 -0.31540164478E+02 -0.47717508339E+02  0.57201794572E+02  0.51100000000E-03 0. -1.
         22    1    1    0    0    0 -0.18764136328E+01  0.88219391810E+00  0.34205779052E+02  0.34268564528E+02  0.00000000000E+00 0. -1.
</event>
<event>
 5    1  0.8778268E-005  0.9118800E+02  0.7818608E-02  0.1130116E+00
         25   -1    0    0    0    0  0.00000000000E+00  0.00000000000E+00  0.99999998245E-14  0.12500000000E+03  0.12500000000E+03 0.  0.
        -11    1    3    3    0    0 -0.90813081259E-01 -0.26428559322E+02  0.49855245451E+02  0.56427143238E+02  0.51100000000E-03 0. -1.
         23    2    1    0    0    0  0.11399143460E+02  0.32050542717E+01  0.26826900202E+02  0.95676026549E+02  0.91071437000E+02 0.  0.
         11    1    3    3    0    0  0.11489956542E+02  0.29633613594E+02 -0.23028345249E+02  0.39248883310E+02  0.51100000000E-03 0.  1.
         22    1    1    0    0    0 -0.11399143460E+02 -0.32050542717E+01 -0.26826900202E+02  0.29323973451E+02  0.00000000000E+00 0. -1.
</event>
<event>
 5    1  0.8778268E-005  0.9118800E+02  0.7818608E-02  0.1130116E+00
         25   -1    0    0    0    0  0.00000000000E+00  0.00000000000E+00  0.99999998245E-14  0.12500000000E+03  0.12500000000E+03 0.  0.
        -11    1    3    3    0    0  0.30032061144E+02  0.38718927139E+01 -0.47510570398E+02  0.56339777685E+02  0.51100000000E-03 0. -1.
         23    2    1    0    0    0  0.35205700599E+02 -0.58450895655E+01 -0.24910791279E+02  0.81478121033E+02  0.68880550653E+02 0.  0.
         11    1    3    3    0    0  0.51736394544E+01 -0.97169822794E+01  0.22599779118E+02  0.25138343348E+02  0.51100000000E-03 0.  1.
         22    1    1    0    0    0 -0.35205700599E+02  0.58450895655E+01  0.24910791279E+02  0.43521878967E+02  0.00000000000E+00 0. -1.
</event>
<event>
 5    1  0.8778268E-005  0.9118800E+02  0.7818608E-02  0.1130116E+00
         25   -1    0    0    0    0  0.00000000000E+00  0.00000000000E+00  0.99999998245E-14  0.12500000000E+03  0.12500000000E+03 0.  0.
        -11    1    3    3    0    0 -0.25755971436E+02  0.31164644528E+02 -0.80391585175E+01  0.41221756429E+02  0.51100000000E-03 0. -1.
         23    2    1    0    0    0 -0.15942840037E+02 -0.22586263575E+02 -0.91695639533E+01  0.95872790147E+02  0.91341105406E+02 0.  0.
         11    1    3    3    0    0  0.98131313991E+01 -0.53750908103E+02 -0.11304054358E+01  0.54651033718E+02  0.51100000000E-03 0.  1.
         22    1    1    0    0    0  0.15942840037E+02  0.22586263575E+02  0.91695639533E+01  0.29127209853E+02  0.00000000000E+00 0.  1.
</event>
<event>
 5    1  0.8778268E-005  0.9118800E+02  0.7818608E-02  0.1130116E+00
         25   -1    0    0    0    0  0.00000000000E+00  0.00000000000E+00  0.99999998245E-14  0.12500000000E+03  0.12500000000E+03 0.  0.
        -11    1    3    3    0    0  0.18889480643E+02  0.28718610803E+02 -0.12858630639E+02  0.36700346968E+02  0.51100000000E-03 0. -1.
         23    2    1    0    0    0 -0.17314154669E+02 -0.15619323357E+02  0.11609141558E+02  0.98951672190E+02  0.95461605095E+02 0.  0.
         11    1    3    3    0    0 -0.36203635312E+02 -0.44337934159E+02  0.24467772197E+02  0.62251325222E+02  0.51100000000E-03 0.  1.
         22    1    1    0    0    0  0.17314154669E+02  0.15619323357E+02 -0.11609141558E+02  0.26048327810E+02  0.00000000000E+00 0.  1.
</event>
<event>
 5    1  0.8778268E-005  0.9118800E+02  0.7818608E-02  0.1130116E+00
         25   -1    0    0    0    0  0.00000000000E+00  0.00000000000E+00  0.99999998245E-14  0.12500000000E+03  0.12500000000E+03 0.  0.
        -11    1    3    3    0    0  0.28508646798E+01  0.13935367619E+02 -0.36960488313E+02  0.39603025095E+02  0.51100000000E-03 0. -1.
         23    2    1    0    0    0  0.17852700627E+01 -0.28601903801E+02  0.56514686558E+00  0.96336861979E+02  0.91973993578E+02 0.  0.
         11    1    3    3    0    0 -0.10655946171E+01 -0.42537271420E+02  0.37525635179E+02  0.56733836884E+02  0.51100000000E-03 0.  1.
         22    1    1    0    0    0 -0.17852700627E+01  0.28601903801E+02 -0.56514686558E+00  0.28663138021E+02  0.00000000000E+00 0.  1.
</event>
<event>
 5    1  0.8778268E-005  0.9118800E+02  0.7818608E-02  0.1130116E+00
         25   -1    0    0    0    0  0.00000000000E+00  0.00000000000E+00  0.99999998245E-14  0.12500000000E+03  0.12500000000E+03 0.  0.
        -11    1    3    3    0    0 -0.21904836218E+02  0.45834707900E+02 -0.14509606912E+02  0.52831534059E+02  0.51100000000E-03 0.  1.
         23    2    1    0    0    0  0.12939121378E+02  0.26941084079E+02  0.20695099467E+00  0.95112114459E+02  0.90294122813E+02 0.  0.
         11    1    3    3    0    0  0.34843957596E+02 -0.18893623820E+02  0.14716557907E+02  0.42280580400E+02  0.51100000000E-03 0. -1.
         22    1    1    0    0    0 -0.12939121378E+02 -0.26941084079E+02 -0.20695099467E+00  0.29887885541E+02  0.00000000000E+00 0.  1.
</event>
<event>
 5    1  0.8778268E-005  0.9118800E+02  0.7818608E-02  0.1130116E+00
         25   -1    0    0    0    0  0.00000000000E+00  0.00000000000E+00  0.99999998245E-14  0.12500000000E+03  0.12500000000E+03 0.  0.
        -11    1    3    3    0    0  0.77879698756E+01 -0.55793927721E+02  0.23891910642E+02  0.61191815136E+02  0.51100000000E-03 0.  1.
         23    2    1    0    0    0  0.85859506007E+01 -0.28401245211E+02  0.39859747282E+01  0.95062777822E+02  0.90225797062E+02 0.  0.
         11    1    3    3    0    0  0.79798072513E+00  0.27392682510E+02 -0.19905935914E+02  0.33870962685E+02  0.51100000000E-03 0. -1.
         22    1    1    0    0    0 -0.85859506007E+01  0.28401245211E+02 -0.39859747282E+01  0.29937222178E+02  0.00000000000E+00 0.  1.
</event>
<event>
 5    1  0.8778268E-005  0.9118800E+02  0.7818608E-02  0.1130116E+00
         25   -1    0    0    0    0  0.00000000000E+00  0.00000000000E+00  0.99999998245E-14  0.12500000000E+03  0.12500000000E+03 0.  0.
        -11    1    3    3    0    0 -0.68480734371E-01 -0.57560674786E+02 -0.21927747558E+02  0.61595958346E+02  0.51100000000E-03 0.  1.
         23    2    1    0    0    0  0.56910866028E+01 -0.24067730662E+02 -0.14321016835E+02  0.96421412751E+02  0.92088833133E+02 0.  0.
         11    1    3    3    0    0  0.57595673371E+01  0.33492944123E+02  0.76067307225E+01  0.34825454405E+02  0.51100000000E-03 0. -1.
         22    1    1    0    0    0 -0.56910866028E+01  0.24067730662E+02  0.14321016835E+02  0.28578587249E+02  0.00000000000E+00 0.  1.
</event>
<event>
 5    1  0.8778268E-005  0.9118800E+02  0.7818608E-02  0.1130116E+00
         25   -1    0    0    0    0  0.00000000000E+00  0.00000000000E+00  0.99999998245E-14  0.12500000000E+03  0.12500000000E+03 0.  0.
        -11    1    3    3    0    0 -0.16032806898E+02 -0.35921316092E+02  0.61916514271E+01  0.39821205337E+02  0.51100000000E-03 0. -1.
         23    2    1    0    0    0  0.10773744308E+02  0.10407013446E+02  0.24408985140E+02  0.96361249140E+02  0.92007131707E+02 0.  0.
         11    1    3    3    0    0  0.26806551207E+02  0.46328329538E+02  0.18217333713E+02  0.56540043803E+02  0.51100000000E-03 0.  1.
         22    1    1    0    0    0 -0.10773744308E+02 -0.10407013446E+02 -0.24408985140E+02  0.28638750860E+02  0.00000000000E+00 0.  1.
</event>
<event>
 5    1  0.8778268E-005  0.9118800E+02  0.7818608E-02  0.1130116E+00
         25   -1    0    0    0    0  0.00000000000E+00  0.00000000000E+00  0.99999998245E-14  0.12500000000E+03  0.12500000000E+03 0.  0.
        -11    1    3    3    0    0 -0.45754685581E+02 -0.88421801813E+01 -0.22608777378E+02  0.51796063729E+02  0.51100000000E-03 0.  1.
         23    2    1    0    0    0 -0.26355119310E+02  0.67326634053E+01  0.12692610802E+02  0.94982947524E+02  0.90115131255E+02 0.  0.
         11    1    3    3    0    0  0.19399566272E+02  0.15574843587E+02  0.35301388180E+02  0.43186883796E+02  0.51100000000E-03 0. -1.
         22    1    1    0    0    0  0.26355119310E+02 -0.67326634053E+01 -0.12692610802E+02  0.30017052476E+02  0.00000000000E+00 0.  1.
</event>
<event>
 5    1  0.8778268E-005  0.9118800E+02  0.7818608E-02  0.1130116E+00
         25   -1    0    0    0    0  0.00000000000E+00  0.00000000000E+00  0.99999998245E-14  0.12500000000E+03  0.12500000000E+03 0.  0.
        -11    1    3    3    0    0  0.25274595488E+02  0.12600669315E+02  0.25003017353E+02  0.37719132032E+02  0.51100000000E-03 0.  1.
         23    2    1    0    0    0 -0.62911536595E+01  0.18595540512E+02 -0.22545586178E+02  0.95105582505E+02  0.90285079754E+02 0.  0.
         11    1    3    3    0    0 -0.31565749147E+02  0.59948711965E+01 -0.47548603530E+02  0.57386450473E+02  0.51100000000E-03 0. -1.
         22    1    1    0    0    0  0.62911536595E+01 -0.18595540512E+02  0.22545586178E+02  0.29894417495E+02  0.00000000000E+00 0. -1.
</event>
<event>
 5    1  0.8778268E-005  0.9118800E+02  0.7818608E-02  0.1130116E+00
         25   -1    0    0    0    0  0.00000000000E+00  0.00000000000E+00  0.99999998245E-14  0.12500000000E+03  0.12500000000E+03 0.  0.
        -11    1    3    3    0    0  0.15419701147E+02  0.15826490340E+02 -0.39314954340E+02  0.45098898157E+02  0.51100000000E-03 0.  1.
         23    2    1    0    0    0  0.52161504603E+01  0.28303747048E+02  0.80366644498E+01  0.95118596116E+02  0.90303095345E+02 0.  0.
         11    1    3    3    0    0 -0.10203550686E+02  0.12477256709E+02  0.47351618790E+02  0.50019697959E+02  0.51100000000E-03 0. -1.
         22    1    1    0    0    0 -0.52161504603E+01 -0.28303747048E+02 -0.80366644498E+01  0.29881403884E+02  0.00000000000E+00 0.  1.
</event>
<event>
 5    1  0.8778268E-005  0.9118800E+02  0.7818608E-02  0.1130116E+00
         25   -1    0    0    0    0  0.00000000000E+00  0.00000000000E+00  0.99999998245E-14  0.12500000000E+03  0.12500000000E+03 0.  0.
        -11    1    3    3    0    0  0.11241578821E+02  0.32525755778E+01 -0.54454962557E+02  0.55698252123E+02  0.51100000000E-03 0. -1.
         23    2    1    0    0    0 -0.15320479370E+02 -0.44917750517E+00 -0.26138873254E+02  0.94698852438E+02  0.89720193432E+02 0.  0.
         11    1    3    3    0    0 -0.26562058191E+02 -0.37017530829E+01  0.28316089303E+02  0.39000600315E+02  0.51100000000E-03 0.  1.
         22    1    1    0    0    0  0.15320479370E+02  0.44917750517E+00  0.26138873254E+02  0.30301147562E+02  0.00000000000E+00 0. -1.
</event>
<event>
 5    1  0.8778268E-005  0.9118800E+02  0.7818608E-02  0.1130116E+00
         25   -1    0    0    0    0  0.00000000000E+00  0.00000000000E+00  0.99999998245E-14  0.12500000000E+03  0.12500000000E+03 0.  0.
        -11    1    3    3    0    0  0.28220111254E+02  0.87792280463E+01  0.25512121525E+02  0.39042513613E+02  0.51100000000E-03 0.  1.
         23    2    1    0    0    0  0.81673423623E+01  0.17587117008E+00 -0.27469453161E+02  0.96341541059E+02  0.91980352602E+02 0.  0.
         11    1    3    3    0    0 -0.20052768892E+02 -0.86033568762E+01 -0.52981574686E+02  0.57299027446E+02  0.51100000000E-03 0. -1.
         22    1    1    0    0    0 -0.81673423623E+01 -0.17587117008E+00  0.27469453161E+02  0.28658458941E+02  0.00000000000E+00 0. -1.
</event>
<event>
 5    1  0.8778268E-005  0.9118800E+02  0.7818608E-02  0.1130116E+00
         25   -1    0    0    0    0  0.00000000000E+00  0.00000000000E+00  0.99999998245E-14  0.12500000000E+03  0.12500000000E+03 0.  0.
        -11    1    3    3    0    0 -0.38128184910E+01 -0.15118641942E+02  0.32285356989E+02  0.35853245254E+02  0.51100000000E-03 0.  1.
         23    2    1    0    0    0  0.23321499543E+02  0.36916274814E+00 -0.18330062115E+02  0.95334872338E+02  0.90601976163E+02 0.  0.
         11    1    3    3    0    0  0.27134318034E+02  0.15487804690E+02 -0.50615419104E+02  0.59481627085E+02  0.51100000000E-03 0. -1.
         22    1    1    0    0    0 -0.23321499543E+02 -0.36916274814E+00  0.18330062115E+02  0.29665127662E+02  0.00000000000E+00 0. -1.
</event>
<event>
 5    1  0.8778268E-005  0.9118800E+02  0.7818608E-02  0.1130116E+00
         25   -1    0    0    0    0  0.00000000000E+00  0.00000000000E+00  0.99999998245E-14  0.12500000000E+03  0.12500000000E+03 0.  0.
        -11    1    3    3    0    0  0.27808362483E+02  0.16345094555E+02  0.53344549417E+02  0.62338656489E+02  0.51100000000E-03 0.  1.
         23    2    1    0    0    0  0.15375515041E+02  0.85322978515E+01  0.23010343967E+02  0.96039984480E+02  0.91569624440E+02 0.  0.
         11    1    3    3    0    0 -0.12432847443E+02 -0.78127967035E+01 -0.30334205450E+02  0.33701327992E+02  0.51100000000E-03 0. -1.
         22    1    1    0    0    0 -0.15375515041E+02 -0.85322978515E+01 -0.23010343967E+02  0.28960015520E+02  0.00000000000E+00 0.  1.
</event>
<event>
 5    1  0.8778268E-005  0.9118800E+02  0.7818608E-02  0.1130116E+00
         25   -1    0    0    0    0  0.00000000000E+00  0.00000000000E+00  0.99999998245E-14  0.12500000000E+03  0.12500000000E+03 0.  0.
        -11    1    3    3    0    0  0.47926709543E+02 -0.27959800409E+02 -0.18928102228E+02  0.58625872963E+02  0.51100000000E-03 0.  1.
         23    2    1    0    0    0  0.25398707106E+02  0.22298275406E+01 -0.11546495141E+02  0.97010930642E+02  0.92885589089E+02 0.  0.
         11    1    3    3    0    0 -0.22528002437E+02  0.30189627949E+02  0.73816070869E+01  0.38385057678E+02  0.51100000000E-03 0. -1.
         22    1    1    0    0    0 -0.25398707106E+02 -0.22298275406E+01  0.11546495141E+02  0.27989069358E+02  0.00000000000E+00 0.  1.
</event>
<event>
 5    1  0.8778268E-005  0.9118800E+02  0.7818608E-02  0.1130116E+00
         25   -1    0    0    0    0  0.00000000000E+00  0.00000000000E+00  0.99999998245E-14  0.12500000000E+03  0.12500000000E+03 0.  0.
        -11    1    3    3    0    0 -0.12951900574E+02 -0.47949057692E+02  0.24060669501E+02  0.55188582870E+02  0.51100000000E-03 0. -1.
         23    2    1    0    0    0 -0.18243887030E+02 -0.21858892982E+02 -0.65789712400E+01  0.95777859782E+02  0.91211100999E+02 0.  0.
         11    1    3    3    0    0 -0.52919864552E+01  0.26090164710E+02 -0.30639640741E+02  0.40589276912E+02  0.51100000000E-03 0.  1.
         22    1    1    0    0    0  0.18243887030E+02  0.21858892982E+02  0.65789712400E+01  0.29222140218E+02  0.00000000000E+00 0. -1.
</event>
<event>
 5    1  0.8778268E-005  0.9118800E+02  0.7818608E-02  0.1130116E+00
         25   -1    0    0    0    0  0.00000000000E+00  0.00000000000E+00  0.99999998245E-14  0.12500000000E+03  0.12500000000E+03 0.  0.
        -11    1    3    3    0    0 -0.85893022281E+01 -0.40181443747E+01  0.55686937675E+02  0.56488553043E+02  0.51100000000E-03 0.  1.
         23    2    1    0    0    0  0.15040738780E+02  0.24925853924E+01  0.24321676696E+02  0.96294934902E+02  0.91916993671E+02 0.  0.
         11    1    3    3    0    0  0.23630041008E+02  0.65107297672E+01 -0.31365260979E+02  0.39806381859E+02  0.51100000000E-03 0. -1.
         22    1    1    0    0    0 -0.15040738780E+02 -0.24925853924E+01 -0.24321676696E+02  0.28705065098E+02  0.00000000000E+00 0.  1.
</event>
<event>
 5    1  0.8778268E-005  0.9118800E+02  0.7818608E-02  0.1130116E+00
         25   -1    0    0    0    0  0.00000000000E+00  0.00000000000E+00  0.99999998245E-14  0.12500000000E+03  0.12500000000E+03 0.  0.
        -11    1    3    3    0    0 -0.36674260357E+02  0.17987638478E+02 -0.28736472976E+02  0.49943381845E+02  0.51100000000E-03 0.  1.
         23    2    1    0    0    0 -0.37643078834E+01  0.31704682272E+02 -0.21995955532E+02  0.86229148171E+02  0.77021341476E+02 0.  0.
         11    1    3    3    0    0  0.32909952473E+02  0.13717043793E+02  0.67405174440E+01  0.36285766326E+02  0.51100000000E-03 0. -1.
         22    1    1    0    0    0  0.37643078834E+01 -0.31704682272E+02  0.21995955532E+02  0.38770851829E+02  0.00000000000E+00 0.  1.
</event>
<event>
 5    1  0.8778268E-005  0.9118800E+02  0.7818608E-02  0.1130116E+00
         25   -1    0    0    0    0  0.00000000000E+00  0.00000000000E+00  0.99999998245E-14  0.12500000000E+03  0.12500000000E+03 0.  0.
        -11    1    3    3    0    0  0.76719368226E+00 -0.42273987498E+02 -0.19408311590E+01  0.42325470239E+02  0.51100000000E-03 0.  1.
         23    2    1    0    0    0  0.27097920482E+02  0.40113128201E+01  0.79273292233E+01  0.96482803897E+02  0.92172126883E+02 0.  0.
         11    1    3    3    0    0  0.26330726800E+02  0.46285300318E+02  0.98681603823E+01  0.54157333658E+02  0.51100000000E-03 0. -1.
         22    1    1    0    0    0 -0.27097920482E+02 -0.40113128201E+01 -0.79273292233E+01  0.28517196103E+02  0.00000000000E+00 0. -1.
</event>
<event>
 5    1  0.8778268E-005  0.9118800E+02  0.7818608E-02  0.1130116E+00
         25   -1    0    0    0    0  0.00000000000E+00  0.00000000000E+00  0.99999998245E-14  0.12500000000E+03  0.12500000000E+03 0.  0.
        -11    1    3    3    0    0  0.11175658696E+02 -0.13322234550E+02  0.57741675513E+02  0.60303220246E+02  0.51100000000E-03 0. -1.
         23    2    1    0    0    0  0.67068325948E+00 -0.16408336180E+02  0.22931134611E+02  0.96795031523E+02  0.92594588831E+02 0.  0.
         11    1    3    3    0    0 -0.10504975436E+02 -0.30861016296E+01 -0.34810540901E+02  0.36491811277E+02  0.51100000000E-03 0.  1.
         22    1    1    0    0    0 -0.67068325948E+00  0.16408336180E+02 -0.22931134611E+02  0.28204968477E+02  0.00000000000E+00 0. -1.
</event>
<event>
 5    1  0.8778268E-005  0.9118800E+02  0.7818608E-02  0.1130116E+00
         25   -1    0    0    0    0  0.00000000000E+00  0.00000000000E+00  0.99999998245E-14  0.12500000000E+03  0.12500000000E+03 0.  0.
        -11    1    3    3    0    0  0.26040099412E+02  0.36700502331E+02  0.25249176195E+02  0.51599753367E+02  0.51100000000E-03 0.  1.
         23    2    1    0    0    0 -0.13753601878E+02  0.21579453435E+02  0.14820722315E+02  0.95428253601E+02  0.90730719165E+02 0.  0.
         11    1    3    3    0    0 -0.39793701290E+02 -0.15121048897E+02 -0.10428453880E+02  0.43828500233E+02  0.51100000000E-03 0. -1.
         22    1    1    0    0    0  0.13753601878E+02 -0.21579453435E+02 -0.14820722315E+02  0.29571746399E+02  0.00000000000E+00 0.  1.
</event>
<event>
 5    1  0.8778268E-005  0.9118800E+02  0.7818608E-02  0.1130116E+00
         25   -1    0    0    0    0  0.00000000000E+00  0.00000000000E+00  0.99999998245E-14  0.12500000000E+03  0.12500000000E+03 0.  0.
        -11    1    3    3    0    0 -0.17696662782E+02  0.30481889762E+02 -0.32801072325E+02  0.48147978389E+02  0.51100000000E-03 0. -1.
         23    2    1    0    0    0 -0.17094981934E+02 -0.14691295455E+02 -0.19372002356E+02  0.95278845165E+02  0.90524644662E+02 0.  0.
         11    1    3    3    0    0  0.60168084847E+00 -0.45173185217E+02  0.13429069969E+02  0.47130866775E+02  0.51100000000E-03 0.  1.
         22    1    1    0    0    0  0.17094981934E+02  0.14691295455E+02  0.19372002356E+02  0.29721154835E+02  0.00000000000E+00 0. -1.
</event>
<event>
 5    1  0.8778268E-005  0.9118800E+02  0.7818608E-02  0.1130116E+00
         25   -1    0    0    0    0  0.00000000000E+00  0.00000000000E+00  0.99999998245E-14  0.12500000000E+03  0.12500000000E+03 0.  0.
        -11    1    3    3    0    0 -0.37614669108E+02 -0.29838290147E+01  0.13672280988E+02  0.40133500164E+02  0.51100000000E-03 0.  1.
         23    2    1    0    0    0  0.49078948780E+01  0.29663410920E+02  0.67119458929E+01  0.94193254031E+02  0.89012996285E+02 0.  0.
         11    1    3    3    0    0  0.42522563986E+02  0.32647239935E+02 -0.69603350954E+01  0.54059753867E+02  0.51100000000E-03 0. -1.
         22    1    1    0    0    0 -0.49078948780E+01 -0.29663410920E+02 -0.67119458929E+01  0.30806745969E+02  0.00000000000E+00 0.  1.
</event>
<event>
 5    1  0.8778268E-005  0.9118800E+02  0.7818608E-02  0.1130116E+00
         25   -1    0    0    0    0  0.00000000000E+00  0.00000000000E+00  0.99999998245E-14  0.12500000000E+03  0.12500000000E+03 0.  0.
        -11    1    3    3    0    0 -0.61816678690E+00  0.36724723162E+02  0.32852985118E+02  0.49278860102E+02  0.51100000000E-03 0.  1.
         23    2    1    0    0    0 -0.27058661494E+02  0.91417440292E+01  0.64593143963E+01  0.95717490063E+02  0.91128329929E+02 0.  0.
         11    1    3    3    0    0 -0.26440494707E+02 -0.27582979133E+02 -0.26393670722E+02  0.46438629961E+02  0.51100000000E-03 0. -1.
         22    1    1    0    0    0  0.27058661494E+02 -0.91417440292E+01 -0.64593143963E+01  0.29282509937E+02  0.00000000000E+00 0.  1.
</event>
<event>
 5    1  0.8778268E-005  0.9118800E+02  0.7818608E-02  0.1130116E+00
         25   -1    0    0    0    0  0.00000000000E+00  0.00000000000E+00  0.99999998245E-14  0.12500000000E+03  0.12500000000E+03 0.  0.
        -11    1    3    3    0    0  0.30089089226E+02  0.43963818730E+02 -0.31292543958E+02  0.61785062559E+02  0.51100000000E-03 0.  1.
         23    2    1    0    0    0  0.11518757621E+02  0.18008497074E+02 -0.20245341651E+02  0.95557486477E+02  0.90908589359E+02 0.  0.
         11    1    3    3    0    0 -0.18570331605E+02 -0.25955321656E+02  0.11047202307E+02  0.33772423918E+02  0.51100000000E-03 0. -1.
         22    1    1    0    0    0 -0.11518757621E+02 -0.18008497074E+02  0.20245341651E+02  0.29442513523E+02  0.00000000000E+00 0.  1.
</event>
<event>
 5    1  0.8778268E-005  0.9118800E+02  0.7818608E-02  0.1130116E+00
         25   -1    0    0    0    0  0.00000000000E+00  0.00000000000E+00  0.99999998245E-14  0.12500000000E+03  0.12500000000E+03 0.  0.
        -11    1    3    3    0    0  0.39429938783E+02 -0.25022688262E+02  0.12276259412E+02  0.48286245926E+02  0.51100000000E-03 0.  1.
         23    2    1    0    0    0 -0.63108341172E+01 -0.28475623086E+02 -0.23398211064E+00  0.95832509792E+02  0.91285965230E+02 0.  0.
         11    1    3    3    0    0 -0.45740772900E+02 -0.34529348242E+01 -0.12510241523E+02  0.47546263866E+02  0.51100000000E-03 0. -1.
         22    1    1    0    0    0  0.63108341172E+01  0.28475623086E+02  0.23398211064E+00  0.29167490208E+02  0.00000000000E+00 0.  1.
</event>
<event>
 5    1  0.8778268E-005  0.9118800E+02  0.7818608E-02  0.1130116E+00
         25   -1    0    0    0    0  0.00000000000E+00  0.00000000000E+00  0.99999998245E-14  0.12500000000E+03  0.12500000000E+03 0.  0.
        -11    1    3    3    0    0  0.19412776427E+02  0.26398958117E+02 -0.40396808833E+01  0.33016358070E+02  0.51100000000E-03 0.  1.
         23    2    1    0    0    0 -0.11909967046E+02 -0.26363078028E+02  0.66935319840E+01  0.95307196687E+02  0.90563785100E+02 0.  0.
         11    1    3    3    0    0 -0.31322743473E+02 -0.52762036146E+02  0.10733212867E+02  0.62290838617E+02  0.51100000000E-03 0. -1.
         22    1    1    0    0    0  0.11909967046E+02  0.26363078028E+02 -0.66935319840E+01  0.29692803313E+02  0.00000000000E+00 0. -1.
</event>
<event>
 5    1  0.8778268E-005  0.9118800E+02  0.7818608E-02  0.1130116E+00
         25   -1    0    0    0    0  0.00000000000E+00  0.00000000000E+00  0.99999998245E-14  0.12500000000E+03  0.12500000000E+03 0.  0.
        -11    1    3    3    0    0 -0.48754054774E+02 -0.77371911295E+01 -0.27728568688E+02  0.56618861744E+02  0.51100000000E-03 0.  1.
         23    2    1    0    0    0 -0.26576881263E+02 -0.80514976876E+01  0.56178799003E+01  0.96667724990E+02  0.92422568929E+02 0.  0.
         11    1    3    3    0    0  0.22177173511E+02 -0.31430655813E+00  0.33346448588E+02  0.40048863246E+02  0.51100000000E-03 0. -1.
         22    1    1    0    0    0  0.26576881263E+02  0.80514976876E+01 -0.56178799003E+01  0.28332275010E+02  0.00000000000E+00 0.  1.
</event>
<event>
 5    1  0.8778268E-005  0.9118800E+02  0.7818608E-02  0.1130116E+00
         25   -1    0    0    0    0  0.00000000000E+00  0.00000000000E+00  0.99999998245E-14  0.12500000000E+03  0.12500000000E+03 0.  0.
        -11    1    3    3    0    0 -0.21420191516E+02 -0.45456959858E+02  0.24024760221E+02  0.55698733451E+02  0.51100000000E-03 0.  1.
         23    2    1    0    0    0 -0.14852298843E+02 -0.25304994529E+02 -0.84388656046E+01  0.94468901400E+02  0.89399246921E+02 0.  0.
         11    1    3    3    0    0  0.65678926735E+01  0.20151965329E+02 -0.32463625825E+02  0.38770167949E+02  0.51100000000E-03 0. -1.
         22    1    1    0    0    0  0.14852298843E+02  0.25304994529E+02  0.84388656046E+01  0.30531098600E+02  0.00000000000E+00 0.  1.
</event>
<event>
 5    1  0.8778268E-005  0.9118800E+02  0.7818608E-02  0.1130116E+00
         25   -1    0    0    0    0  0.00000000000E+00  0.00000000000E+00  0.99999998245E-14  0.12500000000E+03  0.12500000000E+03 0.  0.
        -11    1    3    3    0    0  0.22289362607E+02  0.38056916242E+02 -0.19885634099E+02  0.48379572167E+02  0.51100000000E-03 0.  1.
         23    2    1    0    0    0  0.26978725565E+02 -0.76545001493E+01 -0.75017478411E+01  0.95970373300E+02  0.91474550150E+02 0.  0.
         11    1    3    3    0    0  0.46893629584E+01 -0.45711416391E+02  0.12383886258E+02  0.47590801134E+02  0.51100000000E-03 0. -1.
         22    1    1    0    0    0 -0.26978725565E+02  0.76545001493E+01  0.75017478411E+01  0.29029626700E+02  0.00000000000E+00 0.  1.
</event>
<event>
 5    1  0.8778268E-005  0.9118800E+02  0.7818608E-02  0.1130116E+00
         25   -1    0    0    0    0  0.00000000000E+00  0.00000000000E+00  0.99999998245E-14  0.12500000000E+03  0.12500000000E+03 0.  0.
        -11    1    3    3    0    0  0.38075227178E+02 -0.35985794331E+02 -0.19223960583E+02  0.55805564051E+02  0.51100000000E-03 0.  1.
         23    2    1    0    0    0  0.13666314674E+01 -0.27255500536E+02 -0.15228044008E+02  0.93749026970E+02  0.88386971565E+02 0.  0.
         11    1    3    3    0    0 -0.36708595710E+02  0.87302937953E+01  0.39959165752E+01  0.37943462919E+02  0.51100000000E-03 0. -1.
         22    1    1    0    0    0 -0.13666314674E+01  0.27255500536E+02  0.15228044008E+02  0.31250973030E+02  0.00000000000E+00 0.  1.
</event>
<event>
 5    1  0.8778268E-005  0.9118800E+02  0.7818608E-02  0.1130116E+00
         25   -1    0    0    0    0  0.00000000000E+00  0.00000000000E+00  0.99999998245E-14  0.12500000000E+03  0.12500000000E+03 0.  0.
        -11    1    3    3    0    0 -0.54176905148E+01  0.34486858811E+02  0.10557777537E+02  0.36471378750E+02  0.51100000000E-03 0.  1.
         23    2    1    0    0    0  0.29329972408E+02  0.19629462091E+01 -0.16572042994E+02  0.91254881120E+02  0.84786321302E+02 0.  0.
         11    1    3    3    0    0  0.34747662923E+02 -0.32523912602E+02 -0.27129820530E+02  0.54783502369E+02  0.51100000000E-03 0. -1.
         22    1    1    0    0    0 -0.29329972408E+02 -0.19629462091E+01  0.16572042994E+02  0.33745118880E+02  0.00000000000E+00 0. -1.
</event>
<event>
 5    1  0.8778268E-005  0.9118800E+02  0.7818608E-02  0.1130116E+00
         25   -1    0    0    0    0  0.00000000000E+00  0.00000000000E+00  0.99999998245E-14  0.12500000000E+03  0.12500000000E+03 0.  0.
        -11    1    3    3    0    0 -0.17585977659E+02 -0.98180523445E+01  0.20492922420E+02  0.28733615011E+02  0.51100000000E-03 0.  1.
         23    2    1    0    0    0  0.71533133663E+01 -0.12768401683E+02 -0.33634160857E+02  0.88319504499E+02  0.80342243712E+02 0.  0.
         11    1    3    3    0    0  0.24739291025E+02 -0.29503493381E+01 -0.54127083277E+02  0.59585889487E+02  0.51100000000E-03 0. -1.
         22    1    1    0    0    0 -0.71533133663E+01  0.12768401683E+02  0.33634160857E+02  0.36680495501E+02  0.00000000000E+00 0. -1.
</event>
<event>
 5    1  0.8778268E-005  0.9118800E+02  0.7818608E-02  0.1130116E+00
         25   -1    0    0    0    0  0.00000000000E+00  0.00000000000E+00  0.99999998245E-14  0.12500000000E+03  0.12500000000E+03 0.  0.
        -11    1    3    3    0    0  0.49676956125E+02  0.13164306273E+02 -0.11301091435E+02  0.52619517266E+02  0.51100000000E-03 0. -1.
         23    2    1    0    0    0  0.13606118145E+02 -0.79368337853E+01  0.16008580672E+02  0.10254127260E+03  0.10005157744E+03 0.  0.
         11    1    3    3    0    0 -0.36070837979E+02 -0.21101140058E+02  0.27309672107E+02  0.49921755329E+02  0.51100000000E-03 0.  1.
         22    1    1    0    0    0 -0.13606118145E+02  0.79368337853E+01 -0.16008580672E+02  0.22458727405E+02  0.00000000000E+00 0. -1.
</event>
<event>
 5    1  0.8778268E-005  0.9118800E+02  0.7818608E-02  0.1130116E+00
         25   -1    0    0    0    0  0.00000000000E+00  0.00000000000E+00  0.99999998245E-14  0.12500000000E+03  0.12500000000E+03 0.  0.
        -11    1    3    3    0    0  0.34151673179E+02  0.16177340852E+02  0.19948837767E+02  0.42731712656E+02  0.51100000000E-03 0. -1.
         23    2    1    0    0    0 -0.20215694667E+02  0.11988619312E+02  0.14145942446E+02  0.97568102662E+02  0.93632396453E+02 0.  0.
         11    1    3    3    0    0 -0.54367367845E+02 -0.41887215398E+01 -0.58028953218E+01  0.54836390007E+02  0.51100000000E-03 0.  1.
         22    1    1    0    0    0  0.20215694667E+02 -0.11988619312E+02 -0.14145942446E+02  0.27431897338E+02  0.00000000000E+00 0. -1.
</event>
<event>
 5    1  0.8778268E-005  0.9118800E+02  0.7818608E-02  0.1130116E+00
         25   -1    0    0    0    0  0.00000000000E+00  0.00000000000E+00  0.99999998245E-14  0.12500000000E+03  0.12500000000E+03 0.  0.
        -11    1    3    3    0    0  0.16092404165E+02  0.33998790831E+02 -0.31278148003E+02  0.48920402620E+02  0.51100000000E-03 0. -1.
         23    2    1    0    0    0  0.25429604909E+02  0.11283724982E+02  0.87097237404E+01  0.95847872412E+02  0.91306999200E+02 0.  0.
         11    1    3    3    0    0  0.93372007441E+01 -0.22715065849E+02  0.39987871743E+02  0.46927469792E+02  0.51100000000E-03 0.  1.
         22    1    1    0    0    0 -0.25429604909E+02 -0.11283724982E+02 -0.87097237404E+01  0.29152127588E+02  0.00000000000E+00 0. -1.
</event>
<event>
 5    1  0.8778268E-005  0.9118800E+02  0.7818608E-02  0.1130116E+00
         25   -1    0    0    0    0  0.00000000000E+00  0.00000000000E+00  0.99999998245E-14  0.12500000000E+03  0.12500000000E+03 0.  0.
        -11    1    3    3    0    0  0.19142524101E+02 -0.27259035757E+02  0.69974318506E+01  0.34036088379E+02  0.51100000000E-03 0.  1.
         23    2    1    0    0    0  0.82073348479E+01  0.30600226075E+02  0.47646783603E+01  0.92961954788E+02  0.87266767426E+02 0.  0.
         11    1    3    3    0    0 -0.10935189253E+02  0.57859261831E+02 -0.22327534903E+01  0.58925866409E+02  0.51100000000E-03 0. -1.
         22    1    1    0    0    0 -0.82073348479E+01 -0.30600226075E+02 -0.47646783603E+01  0.32038045212E+02  0.00000000000E+00 0. -1.
</event>
<event>
 5    1  0.8778268E-005  0.9118800E+02  0.7818608E-02  0.1130116E+00
         25   -1    0    0    0    0  0.00000000000E+00  0.00000000000E+00  0.99999998245E-14  0.12500000000E+03  0.12500000000E+03 0.  0.
        -11    1    3    3    0    0 -0.36704710283E+02 -0.10265334538E+02 -0.23633274535E+02  0.44845785929E+02  0.51100000000E-03 0.  1.
         23    2    1    0    0    0 -0.94213430635E+01 -0.25173727299E+02  0.14828291688E+02  0.94302174578E+02  0.89165821055E+02 0.  0.
         11    1    3    3    0    0  0.27283367219E+02 -0.14908392761E+02  0.38461566223E+02  0.49456388648E+02  0.51100000000E-03 0. -1.
         22    1    1    0    0    0  0.94213430635E+01  0.25173727299E+02 -0.14828291688E+02  0.30697825422E+02  0.00000000000E+00 0. -1.
</event>
<event>
 5    1  0.8778268E-005  0.9118800E+02  0.7818608E-02  0.1130116E+00
         25   -1    0    0    0    0  0.00000000000E+00  0.00000000000E+00  0.99999998245E-14  0.12500000000E+03  0.12500000000E+03 0.  0.
        -11    1    3    3    0    0 -0.36246832685E+01  0.20546428615E+02 -0.18788768793E+02  0.28076892468E+02  0.51100000000E-03 0. -1.
         23    2    1    0    0    0 -0.44817355772E+02 -0.72287853177E+01 -0.84282347669E+01  0.78827650517E+02  0.63889847622E+02 0.  0.
         11    1    3    3    0    0 -0.41192672503E+02 -0.27775213933E+02  0.10360534026E+02  0.50750758049E+02  0.51100000000E-03 0.  1.
         22    1    1    0    0    0  0.44817355772E+02  0.72287853177E+01  0.84282347669E+01  0.46172349483E+02  0.00000000000E+00 0.  1.
</event>
<event>
 5    1  0.8778268E-005  0.9118800E+02  0.7818608E-02  0.1130116E+00
         25   -1    0    0    0    0  0.00000000000E+00  0.00000000000E+00  0.99999998245E-14  0.12500000000E+03  0.12500000000E+03 0.  0.
        -11    1    3    3    0    0 -0.20321472735E+02 -0.29747810504E+02  0.14797393722E+02  0.38946852827E+02  0.51100000000E-03 0. -1.
         23    2    1    0    0    0 -0.14531571990E+02  0.49501908196E+01 -0.27222142860E+02  0.93747543528E+02  0.88384873604E+02 0.  0.
         11    1    3    3    0    0  0.57899007458E+01  0.34698001323E+02 -0.42019536582E+02  0.54800690701E+02  0.51100000000E-03 0.  1.
         22    1    1    0    0    0  0.14531571990E+02 -0.49501908196E+01  0.27222142860E+02  0.31252456472E+02  0.00000000000E+00 0.  1.
</event>
<event>
 5    1  0.8778268E-005  0.9118800E+02  0.7818608E-02  0.1130116E+00
         25   -1    0    0    0    0  0.00000000000E+00  0.00000000000E+00  0.99999998245E-14  0.12500000000E+03  0.12500000000E+03 0.  0.
        -11    1    3    3    0    0  0.25233516149E+02 -0.44247125117E+02 -0.17430491073E+01  0.50966426585E+02  0.51100000000E-03 0.  1.
         23    2    1    0    0    0  0.32339846729E+02 -0.34956783064E+01  0.13104573846E+01  0.92445388163E+02  0.86523679076E+02 0.  0.
         11    1    3    3    0    0  0.71063305796E+01  0.40751446811E+02  0.30535064918E+01  0.41478961578E+02  0.51100000000E-03 0. -1.
         22    1    1    0    0    0 -0.32339846729E+02  0.34956783064E+01 -0.13104573846E+01  0.32554611837E+02  0.00000000000E+00 0.  1.
</event>
<event>
 5    1  0.8778268E-005  0.9118800E+02  0.7818608E-02  0.1130116E+00
         25   -1    0    0    0    0  0.00000000000E+00  0.00000000000E+00  0.99999998245E-14  0.12500000000E+03  0.12500000000E+03 0.  0.
        -11    1    3    3    0    0  0.48460261741E+01  0.44814180892E+02 -0.11373941326E+02  0.46488292292E+02  0.51100000000E-03 0.  1.
         23    2    1    0    0    0 -0.77539078994E+00  0.13891573275E+02  0.26115627250E+02  0.95409409847E+02  0.90704754351E+02 0.  0.
         11    1    3    3    0    0 -0.56214169640E+01 -0.30922607617E+02  0.37489568576E+02  0.48921117555E+02  0.51100000000E-03 0. -1.
         22    1    1    0    0    0  0.77539078994E+00 -0.13891573275E+02 -0.26115627250E+02  0.29590590153E+02  0.00000000000E+00 0. -1.
</event>
<event>
 5    1  0.8778268E-005  0.9118800E+02  0.7818608E-02  0.1130116E+00
         25   -1    0    0    0    0  0.00000000000E+00  0.00000000000E+00  0.99999998245E-14  0.12500000000E+03  0.12500000000E+03 0.  0.
        -11    1    3    3    0    0  0.38654153842E+02  0.35322193329E+02  0.23416028707E+02  0.57359492252E+02  0.51100000000E-03 0.  1.
         23    2    1    0    0    0  0.26406215229E+02  0.81200973843E+00  0.60034448290E+01  0.97907770259E+02  0.94084762659E+02 0.  0.
         11    1    3    3    0    0 -0.12247938612E+02 -0.34510183591E+02 -0.17412583878E+02  0.40548278006E+02  0.51100000000E-03 0. -1.
         22    1    1    0    0    0 -0.26406215229E+02 -0.81200973843E+00 -0.60034448290E+01  0.27092229741E+02  0.00000000000E+00 0.  1.
</event>
<event>
 5    1  0.8778268E-005  0.9118800E+02  0.7818608E-02  0.1130116E+00
         25   -1    0    0    0    0  0.00000000000E+00  0.00000000000E+00  0.99999998245E-14  0.12500000000E+03  0.12500000000E+03 0.  0.
        -11    1    3    3    0    0  0.27412009130E+02  0.12900645321E+02  0.49281363503E+02  0.57848921193E+02  0.51100000000E-03 0.  1.
         23    2    1    0    0    0  0.36773374603E+01 -0.70347860577E+01  0.29101830297E+02  0.94834994575E+02  0.89909669356E+02 0.  0.
         11    1    3    3    0    0 -0.23734671669E+02 -0.19935431378E+02 -0.20179533207E+02  0.36986073382E+02  0.51100000000E-03 0. -1.
         22    1    1    0    0    0 -0.36773374603E+01  0.70347860577E+01 -0.29101830297E+02  0.30165005425E+02  0.00000000000E+00 0.  1.
</event>
<event>
 5    1  0.8778268E-005  0.9118800E+02  0.7818608E-02  0.1130116E+00
         25   -1    0    0    0    0  0.00000000000E+00  0.00000000000E+00  0.99999998245E-14  0.12500000000E+03  0.12500000000E+03 0.  0.
        -11    1    3    3    0    0  0.27557670797E+02  0.22164716920E+02  0.48948171643E+02  0.60387278489E+02  0.51100000000E-03 0.  1.
         23    2    1    0    0    0  0.19608939721E+02  0.13930357019E+02  0.13983831201E+02  0.97177115557E+02  0.93108962454E+02 0.  0.
         11    1    3    3    0    0 -0.79487310758E+01 -0.82343599014E+01 -0.34964340442E+02  0.36789837068E+02  0.51100000000E-03 0. -1.
         22    1    1    0    0    0 -0.19608939721E+02 -0.13930357019E+02 -0.13983831201E+02  0.27822884443E+02  0.00000000000E+00 0.  1.
</event>
<event>
 5    1  0.8778268E-005  0.9118800E+02  0.7818608E-02  0.1130116E+00
         25   -1    0    0    0    0  0.00000000000E+00  0.00000000000E+00  0.99999998245E-14  0.12500000000E+03  0.12500000000E+03 0.  0.
        -11    1    3    3    0    0  0.50190852893E+02  0.15991120207E+02 -0.34845983013E+01  0.52791856050E+02  0.51100000000E-03 0.  1.
         23    2    1    0    0    0  0.30767825487E+02 -0.82918064878E+01  0.15852245399E+02  0.89409174999E+02  0.82020081382E+02 0.  0.
         11    1    3    3    0    0 -0.19423027406E+02 -0.24282926695E+02  0.19336843700E+02  0.36617318949E+02  0.51100000000E-03 0. -1.
         22    1    1    0    0    0 -0.30767825487E+02  0.82918064878E+01 -0.15852245399E+02  0.35590825001E+02  0.00000000000E+00 0.  1.
</event>
<event>
 5    1  0.8778268E-005  0.9118800E+02  0.7818608E-02  0.1130116E+00
         25   -1    0    0    0    0  0.00000000000E+00  0.00000000000E+00  0.99999998245E-14  0.12500000000E+03  0.12500000000E+03 0.  0.
        -11    1    3    3    0    0  0.10510578116E+02 -0.32120577994E+02 -0.40479658045E+02  0.52733352811E+02  0.51100000000E-03 0.  1.
         23    2    1    0    0    0  0.15121371372E+02  0.76095463181E+01 -0.23145126408E+02  0.96324959568E+02  0.91957815828E+02 0.  0.
         11    1    3    3    0    0  0.46107932568E+01  0.39730124312E+02  0.17334531637E+02  0.43591606757E+02  0.51100000000E-03 0. -1.
         22    1    1    0    0    0 -0.15121371372E+02 -0.76095463181E+01  0.23145126408E+02  0.28675040432E+02  0.00000000000E+00 0.  1.
</event>
<event>
 5    1  0.8778268E-005  0.9118800E+02  0.7818608E-02  0.1130116E+00
         25   -1    0    0    0    0  0.00000000000E+00  0.00000000000E+00  0.99999998245E-14  0.12500000000E+03  0.12500000000E+03 0.  0.
        -11    1    3    3    0    0  0.71507906602E+01 -0.32461597119E+02 -0.96382152577E-01  0.33240011798E+02  0.51100000000E-03 0. -1.
         23    2    1    0    0    0 -0.11341602224E+02  0.27076183526E+02 -0.15891291923E+01  0.95601411821E+02  0.90968966990E+02 0.  0.
         11    1    3    3    0    0 -0.18492392884E+02  0.59537780645E+02 -0.14927470397E+01  0.62361400022E+02  0.51100000000E-03 0.  1.
         22    1    1    0    0    0  0.11341602224E+02 -0.27076183526E+02  0.15891291923E+01  0.29398588179E+02  0.00000000000E+00 0.  1.
</event>
<event>
 5    1  0.8778268E-005  0.9118800E+02  0.7818608E-02  0.1130116E+00
         25   -1    0    0    0    0  0.00000000000E+00  0.00000000000E+00  0.99999998245E-14  0.12500000000E+03  0.12500000000E+03 0.  0.
        -11    1    3    3    0    0  0.79261043203E+01  0.10803700928E+02 -0.39773894910E+02  0.41970296639E+02  0.51100000000E-03 0.  1.
         23    2    1    0    0    0  0.24215730538E+02 -0.19772332692E+02 -0.13474914734E+01  0.93708427990E+02  0.88329536382E+02 0.  0.
         11    1    3    3    0    0  0.16289626218E+02 -0.30576033620E+02  0.38426403437E+02  0.51738131350E+02  0.51100000000E-03 0. -1.
         22    1    1    0    0    0 -0.24215730538E+02  0.19772332692E+02  0.13474914734E+01  0.31291572010E+02  0.00000000000E+00 0. -1.
</event>
<event>
 5    1  0.8778268E-005  0.9118800E+02  0.7818608E-02  0.1130116E+00
         25   -1    0    0    0    0  0.00000000000E+00  0.00000000000E+00  0.99999998245E-14  0.12500000000E+03  0.12500000000E+03 0.  0.
        -11    1    3    3    0    0 -0.17574648582E+02  0.27301971450E+02  0.41785433915E+02  0.52917751327E+02  0.51100000000E-03 0. -1.
         23    2    1    0    0    0  0.16267613272E+02  0.16524148387E+02  0.17639459695E+02  0.95865256826E+02  0.91330795499E+02 0.  0.
         11    1    3    3    0    0  0.33842261854E+02 -0.10777823063E+02 -0.24145974220E+02  0.42947505499E+02  0.51100000000E-03 0.  1.
         22    1    1    0    0    0 -0.16267613272E+02 -0.16524148387E+02 -0.17639459695E+02  0.29134743174E+02  0.00000000000E+00 0. -1.
</event>
<event>
 5    1  0.8778268E-005  0.9118800E+02  0.7818608E-02  0.1130116E+00
         25   -1    0    0    0    0  0.00000000000E+00  0.00000000000E+00  0.99999998245E-14  0.12500000000E+03  0.12500000000E+03 0.  0.
        -11    1    3    3    0    0 -0.28293904821E+02  0.29616553105E+02  0.41948235203E+02  0.58628829979E+02  0.51100000000E-03 0. -1.
         23    2    1    0    0    0 -0.21661971187E+02  0.25282234833E+02  0.11995256410E+02  0.89611886598E+02  0.82328437671E+02 0.  0.
         11    1    3    3    0    0  0.66319336340E+01 -0.43343182720E+01 -0.29952978793E+02  0.30983056619E+02  0.51100000000E-03 0.  1.
         22    1    1    0    0    0  0.21661971187E+02 -0.25282234833E+02 -0.11995256410E+02  0.35388113402E+02  0.00000000000E+00 0. -1.
</event>
<event>
 5    1  0.8778268E-005  0.9118800E+02  0.7818608E-02  0.1130116E+00
         25   -1    0    0    0    0  0.00000000000E+00  0.00000000000E+00  0.99999998245E-14  0.12500000000E+03  0.12500000000E+03 0.  0.
        -11    1    3    3    0    0  0.87539717379E+01 -0.65821030812E+01  0.45638886873E+02  0.46934679049E+02  0.51100000000E-03 0.  1.
         23    2    1    0    0    0  0.23842899916E+02 -0.17684705779E+02  0.10535842612E+01  0.95295745512E+02  0.90547978321E+02 0.  0.
         11    1    3    3    0    0  0.15088928178E+02 -0.11102602698E+02 -0.44585302612E+02  0.48361066463E+02  0.51100000000E-03 0. -1.
         22    1    1    0    0    0 -0.23842899916E+02  0.17684705779E+02 -0.10535842612E+01  0.29704254488E+02  0.00000000000E+00 0. -1.
</event>
<event>
 5    1  0.8778268E-005  0.9118800E+02  0.7818608E-02  0.1130116E+00
         25   -1    0    0    0    0  0.00000000000E+00  0.00000000000E+00  0.99999998245E-14  0.12500000000E+03  0.12500000000E+03 0.  0.
        -11    1    3    3    0    0 -0.19783801898E+02  0.21866060432E+02  0.49942460870E+02  0.57998041470E+02  0.51100000000E-03 0.  1.
         23    2    1    0    0    0 -0.17709055428E+02  0.18692397011E+02  0.11208498387E+02  0.96917144264E+02  0.92759290996E+02 0.  0.
         11    1    3    3    0    0  0.20747464702E+01 -0.31736634210E+01 -0.38733962483E+02  0.38919102794E+02  0.51100000000E-03 0. -1.
         22    1    1    0    0    0  0.17709055428E+02 -0.18692397011E+02 -0.11208498387E+02  0.28082855736E+02  0.00000000000E+00 0.  1.
</event>
<event>
 4    1  0.8778268E-005  0.9118800E+02  0.7818608E-02  0.1130116E+00
         25   -1    0    0    0    0  0.00000000000E+00  0.00000000000E+00  0.99999998245E-14  0.12500000000E+03  0.12500000000E+03 0.  0.
        -11    1    1    0    0    0  0.22361193021E+02  0.38094915826E+02 -0.63712523522E+00  0.44177499860E+02  0.51100000000E-03 0.  1.
         11    1    1    0    0    0  0.19463114010E+02 -0.11557670942E+02 -0.16929893054E+02  0.28266832926E+02  0.51100000000E-03 0. -1.
         22    1    1    0    0    0 -0.41824307031E+02 -0.26537244884E+02  0.17567018290E+02  0.52555667214E+02  0.00000000000E+00 0.  1.
</event>
<event>
 5    1  0.8778268E-005  0.9118800E+02  0.7818608E-02  0.1130116E+00
         25   -1    0    0    0    0  0.00000000000E+00  0.00000000000E+00  0.99999998245E-14  0.12500000000E+03  0.12500000000E+03 0.  0.
        -11    1    3    3    0    0 -0.22126121106E+02  0.16918672503E+02  0.25159145891E+02  0.37533842552E+02  0.51100000000E-03 0.  1.
         23    2    1    0    0    0  0.78937549699E+01 -0.28007944984E+02  0.37236804196E+01  0.95663637826E+02  0.91054431284E+02 0.  0.
         11    1    3    3    0    0  0.30019876076E+02 -0.44926617487E+02 -0.21435465471E+02  0.58129795274E+02  0.51100000000E-03 0. -1.
         22    1    1    0    0    0 -0.78937549699E+01  0.28007944984E+02 -0.37236804196E+01  0.29336362174E+02  0.00000000000E+00 0. -1.
</event>
<event>
 5    1  0.8778268E-005  0.9118800E+02  0.7818608E-02  0.1130116E+00
         25   -1    0    0    0    0  0.00000000000E+00  0.00000000000E+00  0.99999998245E-14  0.12500000000E+03  0.12500000000E+03 0.  0.
        -11    1    3    3    0    0 -0.29431835535E+02  0.26663902345E+02 -0.37919320604E+02  0.54909666786E+02  0.51100000000E-03 0.  1.
         23    2    1    0    0    0 -0.96649715442E+01 -0.66754384038E+01 -0.27578594479E+02  0.95024142610E+02  0.90172255448E+02 0.  0.
         11    1    3    3    0    0  0.19766863990E+02 -0.33339340749E+02  0.10340726125E+02  0.40114475824E+02  0.51100000000E-03 0. -1.
         22    1    1    0    0    0  0.96649715442E+01  0.66754384038E+01  0.27578594479E+02  0.29975857390E+02  0.00000000000E+00 0. -1.
</event>
<event>
 5    1  0.8778268E-005  0.9118800E+02  0.7818608E-02  0.1130116E+00
         25   -1    0    0    0    0  0.00000000000E+00  0.00000000000E+00  0.99999998245E-14  0.12500000000E+03  0.12500000000E+03 0.  0.
        -11    1    3    3    0    0 -0.20937044799E+02  0.28418869817E+02 -0.21377711951E+02  0.41267403299E+02  0.51100000000E-03 0. -1.
         23    2    1    0    0    0 -0.21238860021E+02 -0.83485480458E+01  0.18582980332E+02  0.95570175205E+02  0.90926034782E+02 0.  0.
         11    1    3    3    0    0 -0.30181522196E+00 -0.36767417862E+02  0.39960692282E+02  0.54302771906E+02  0.51100000000E-03 0.  1.
         22    1    1    0    0    0  0.21238860021E+02  0.83485480458E+01 -0.18582980332E+02  0.29429824795E+02  0.00000000000E+00 0.  1.
</event>
<event>
 5    1  0.8778268E-005  0.9118800E+02  0.7818608E-02  0.1130116E+00
         25   -1    0    0    0    0  0.00000000000E+00  0.00000000000E+00  0.99999998245E-14  0.12500000000E+03  0.12500000000E+03 0.  0.
        -11    1    3    3    0    0 -0.54685996928E+02  0.93153019035E+01  0.88462043246E+01  0.56174624528E+02  0.51100000000E-03 0. -1.
         23    2    1    0    0    0 -0.16558330895E+02  0.22450243711E+02  0.46487110709E+01  0.96719224209E+02  0.92492194547E+02 0.  0.
         11    1    3    3    0    0  0.38127666033E+02  0.13134941808E+02 -0.41974932537E+01  0.40544599681E+02  0.51100000000E-03 0.  1.
         22    1    1    0    0    0  0.16558330895E+02 -0.22450243711E+02 -0.46487110709E+01  0.28280775791E+02  0.00000000000E+00 0. -1.
</event>
<event>
 5    1  0.8778268E-005  0.9118800E+02  0.7818608E-02  0.1130116E+00
         25   -1    0    0    0    0  0.00000000000E+00  0.00000000000E+00  0.99999998245E-14  0.12500000000E+03  0.12500000000E+03 0.  0.
        -11    1    3    3    0    0  0.19475754041E+02  0.94948486682E+01 -0.31594756561E+02  0.38310387483E+02  0.51100000000E-03 0.  1.
         23    2    1    0    0    0 -0.10183407115E+02 -0.16410554700E+02  0.15883172134E+02  0.99994335780E+02  0.96817270903E+02 0.  0.
         11    1    3    3    0    0 -0.29659161156E+02 -0.25905403368E+02  0.47477928695E+02  0.61683948297E+02  0.51100000000E-03 0. -1.
         22    1    1    0    0    0  0.10183407115E+02  0.16410554700E+02 -0.15883172134E+02  0.25005664220E+02  0.00000000000E+00 0. -1.
</event>
<event>
 5    1  0.8778268E-005  0.9118800E+02  0.7818608E-02  0.1130116E+00
         25   -1    0    0    0    0  0.00000000000E+00  0.00000000000E+00  0.99999998245E-14  0.12500000000E+03  0.12500000000E+03 0.  0.
        -11    1    3    3    0    0 -0.31684122643E+02 -0.31607603597E+01 -0.34905570669E+02  0.47246935326E+02  0.51100000000E-03 0.  1.
         23    2    1    0    0    0 -0.63466353561E+01  0.24687355839E+02  0.12949347055E+01  0.99477026534E+02  0.96147057331E+02 0.  0.
         11    1    3    3    0    0  0.25337487287E+02  0.27848116199E+02  0.36200505375E+02  0.52230091207E+02  0.51100000000E-03 0. -1.
         22    1    1    0    0    0  0.63466353561E+01 -0.24687355839E+02 -0.12949347055E+01  0.25522973466E+02  0.00000000000E+00 0. -1.
</event>
<event>
 5    1  0.8778268E-005  0.9118800E+02  0.7818608E-02  0.1130116E+00
         25   -1    0    0    0    0  0.00000000000E+00  0.00000000000E+00  0.99999998245E-14  0.12500000000E+03  0.12500000000E+03 0.  0.
        -11    1    3    3    0    0 -0.97405717688E+01 -0.22671416269E+02  0.29702223092E+02  0.38614685172E+02  0.51100000000E-03 0.  1.
         23    2    1    0    0    0 -0.84737755945E+01  0.70620523648E+01 -0.23198749789E+02  0.99312270474E+02  0.95932620201E+02 0.  0.
         11    1    3    3    0    0  0.12667961743E+01  0.29733468634E+02 -0.52900972881E+02  0.60697585303E+02  0.51100000000E-03 0. -1.
         22    1    1    0    0    0  0.84737755945E+01 -0.70620523648E+01  0.23198749789E+02  0.25687729526E+02  0.00000000000E+00 0. -1.
</event>
<event>
 5    1  0.8778268E-005  0.9118800E+02  0.7818608E-02  0.1130116E+00
         25   -1    0    0    0    0  0.00000000000E+00  0.00000000000E+00  0.99999998245E-14  0.12500000000E+03  0.12500000000E+03 0.  0.
        -11    1    3    3    0    0  0.37862172091E+02  0.25745588966E+02 -0.21483086744E+02  0.50575710009E+02  0.51100000000E-03 0. -1.
         23    2    1    0    0    0  0.37079242247E+01  0.26394796793E+02  0.95096827214E+01  0.96700387542E+02  0.92466733940E+02 0.  0.
         11    1    3    3    0    0 -0.34154247866E+02  0.64920782724E+00  0.30992769465E+02  0.46124677533E+02  0.51100000000E-03 0.  1.
         22    1    1    0    0    0 -0.37079242247E+01 -0.26394796793E+02 -0.95096827214E+01  0.28299612458E+02  0.00000000000E+00 0.  1.
</event>
<event>
 5    1  0.8778268E-005  0.9118800E+02  0.7818608E-02  0.1130116E+00
         25   -1    0    0    0    0  0.00000000000E+00  0.00000000000E+00  0.99999998245E-14  0.12500000000E+03  0.12500000000E+03 0.  0.
        -11    1    3    3    0    0  0.14922503739E+02 -0.49471425555E+02  0.41410917504E+01  0.51838708563E+02  0.51100000000E-03 0. -1.
         23    2    1    0    0    0  0.16483639111E+01 -0.18634671386E+02 -0.23243472093E+02  0.95163326657E+02  0.90364991364E+02 0.  0.
         11    1    3    3    0    0 -0.13274139828E+02  0.30836754169E+02 -0.27384563843E+02  0.43324618094E+02  0.51100000000E-03 0.  1.
         22    1    1    0    0    0 -0.16483639111E+01  0.18634671386E+02  0.23243472093E+02  0.29836673343E+02  0.00000000000E+00 0. -1.
</event>
<event>
 5    1  0.8778268E-005  0.9118800E+02  0.7818608E-02  0.1130116E+00
         25   -1    0    0    0    0  0.00000000000E+00  0.00000000000E+00  0.99999998245E-14  0.12500000000E+03  0.12500000000E+03 0.  0.
        -11    1    3    3    0    0 -0.49251757103E+02 -0.32015614377E+02 -0.15365231846E+02  0.60719234939E+02  0.51100000000E-03 0. -1.
         23    2    1    0    0    0 -0.18199623490E+02 -0.14822558872E+02 -0.16626604727E+02  0.96235811650E+02  0.91836555426E+02 0.  0.
         11    1    3    3    0    0  0.31052133613E+02  0.17193055504E+02 -0.12613728811E+01  0.35516576711E+02  0.51100000000E-03 0.  1.
         22    1    1    0    0    0  0.18199623490E+02  0.14822558872E+02  0.16626604727E+02  0.28764188350E+02  0.00000000000E+00 0. -1.
</event>
<event>
 5    1  0.8778268E-005  0.9118800E+02  0.7818608E-02  0.1130116E+00
         25   -1    0    0    0    0  0.00000000000E+00  0.00000000000E+00  0.99999998245E-14  0.12500000000E+03  0.12500000000E+03 0.  0.
        -11    1    3    3    0    0 -0.30368177962E+02 -0.12020634036E+02 -0.22318433466E+02  0.39557987158E+02  0.51100000000E-03 0.  1.
         23    2    1    0    0    0 -0.30333932794E+01 -0.16845366069E+02  0.25168798805E+02  0.94562584438E+02  0.89530140788E+02 0.  0.
         11    1    3    3    0    0  0.27334784683E+02 -0.48247320329E+01  0.47487232272E+02  0.55004597280E+02  0.51100000000E-03 0. -1.
         22    1    1    0    0    0  0.30333932794E+01  0.16845366069E+02 -0.25168798805E+02  0.30437415562E+02  0.00000000000E+00 0. -1.
</event>
<event>
 5    1  0.8778268E-005  0.9118800E+02  0.7818608E-02  0.1130116E+00
         25   -1    0    0    0    0  0.00000000000E+00  0.00000000000E+00  0.99999998245E-14  0.12500000000E+03  0.12500000000E+03 0.  0.
        -11    1    3    3    0    0 -0.84759852732E+01 -0.32230118172E+02  0.55383870743E+01  0.33783081200E+02  0.51100000000E-03 0.  1.
         23    2    1    0    0    0 -0.52587399553E+01  0.28841888414E+02 -0.29857676792E+01  0.95530970803E+02  0.90872122792E+02 0.  0.
         11    1    3    3    0    0  0.32172453179E+01  0.61072006586E+02 -0.85241547535E+01  0.61747889603E+02  0.51100000000E-03 0. -1.
         22    1    1    0    0    0  0.52587399553E+01 -0.28841888414E+02  0.29857676792E+01  0.29469029197E+02  0.00000000000E+00 0. -1.
</event>
<event>
 5    1  0.8778268E-005  0.9118800E+02  0.7818608E-02  0.1130116E+00
         25   -1    0    0    0    0  0.00000000000E+00  0.00000000000E+00  0.99999998245E-14  0.12500000000E+03  0.12500000000E+03 0.  0.
        -11    1    3    3    0    0 -0.39355012610E+02 -0.36924038390E+02 -0.13446749158E+02  0.55614896312E+02  0.51100000000E-03 0. -1.
         23    2    1    0    0    0 -0.25395029923E+02  0.12125680814E+00 -0.15485552130E+02  0.95255679992E+02  0.90492651624E+02 0.  0.
         11    1    3    3    0    0  0.13959982688E+02  0.37045295198E+02 -0.20388029714E+01  0.39640783680E+02  0.51100000000E-03 0.  1.
         22    1    1    0    0    0  0.25395029923E+02 -0.12125680814E+00  0.15485552130E+02  0.29744320008E+02  0.00000000000E+00 0. -1.
</event>
<event>
 5    1  0.8778268E-005  0.9118800E+02  0.7818608E-02  0.1130116E+00
         25   -1    0    0    0    0  0.00000000000E+00  0.00000000000E+00  0.99999998245E-14  0.12500000000E+03  0.12500000000E+03 0.  0.
        -11    1    3    3    0    0 -0.27199269084E+02 -0.29192570342E+01 -0.23436027555E+02  0.36021794627E+02  0.51100000000E-03 0. -1.
         23    2    1    0    0    0  0.26919945304E+02 -0.81673941210E+01  0.34121251920E+01  0.96662174038E+02  0.92415061054E+02 0.  0.
         11    1    3    3    0    0  0.54119214388E+02 -0.52481370867E+01  0.26848152747E+02  0.60640379411E+02  0.51100000000E-03 0.  1.
         22    1    1    0    0    0 -0.26919945304E+02  0.81673941210E+01 -0.34121251920E+01  0.28337825962E+02  0.00000000000E+00 0.  1.
</event>
<event>
 5    1  0.8778268E-005  0.9118800E+02  0.7818608E-02  0.1130116E+00
         25   -1    0    0    0    0  0.00000000000E+00  0.00000000000E+00  0.99999998245E-14  0.12500000000E+03  0.12500000000E+03 0.  0.
        -11    1    3    3    0    0  0.49735631883E+01 -0.15942554673E+02 -0.24191017479E+02  0.29395691984E+02  0.51100000000E-03 0.  1.
         23    2    1    0    0    0 -0.78404921774E+01  0.62021896585E+01  0.32180970428E+02  0.91301998103E+02  0.84855757175E+02 0.  0.
         11    1    3    3    0    0 -0.12814055366E+02  0.22144744332E+02  0.56371987907E+02  0.61906306119E+02  0.51100000000E-03 0. -1.
         22    1    1    0    0    0  0.78404921774E+01 -0.62021896585E+01 -0.32180970428E+02  0.33698001897E+02  0.00000000000E+00 0. -1.
</event>
<event>
 5    1  0.8778268E-005  0.9118800E+02  0.7818608E-02  0.1130116E+00
         25   -1    0    0    0    0  0.00000000000E+00  0.00000000000E+00  0.99999998245E-14  0.12500000000E+03  0.12500000000E+03 0.  0.
        -11    1    3    3    0    0 -0.44175931801E+02  0.27641015513E+02 -0.12902551516E+02  0.53684397407E+02  0.51100000000E-03 0.  1.
         23    2    1    0    0    0 -0.31023190215E+02 -0.58744540272E+01  0.34685926959E+01  0.93235575300E+02  0.87657822384E+02 0.  0.
         11    1    3    3    0    0  0.13152741586E+02 -0.33515469540E+02  0.16371144212E+02  0.39551177893E+02  0.51100000000E-03 0. -1.
         22    1    1    0    0    0  0.31023190215E+02  0.58744540272E+01 -0.34685926959E+01  0.31764424700E+02  0.00000000000E+00 0.  1.
</event>
<event>
 5    1  0.8778268E-005  0.9118800E+02  0.7818608E-02  0.1130116E+00
         25   -1    0    0    0    0  0.00000000000E+00  0.00000000000E+00  0.99999998245E-14  0.12500000000E+03  0.12500000000E+03 0.  0.
        -11    1    3    3    0    0 -0.24630155919E+02 -0.30472549451E+02 -0.29694519644E+02  0.49162845196E+02  0.51100000000E-03 0.  1.
         23    2    1    0    0    0 -0.30538645716E+00 -0.28486968477E+02  0.91846936043E+01  0.95067421920E+02  0.90232230827E+02 0.  0.
         11    1    3    3    0    0  0.24324769462E+02  0.19855809747E+01  0.38879213248E+02  0.45904576724E+02  0.51100000000E-03 0. -1.
         22    1    1    0    0    0  0.30538645716E+00  0.28486968477E+02 -0.91846936043E+01  0.29932578080E+02  0.00000000000E+00 0.  1.
</event>
<event>
 5    1  0.8778268E-005  0.9118800E+02  0.7818608E-02  0.1130116E+00
         25   -1    0    0    0    0  0.00000000000E+00  0.00000000000E+00  0.99999998245E-14  0.12500000000E+03  0.12500000000E+03 0.  0.
        -11    1    3    3    0    0 -0.23430467354E+02  0.24717489592E+02 -0.82183105517E+01  0.35035435216E+02  0.51100000000E-03 0.  1.
         23    2    1    0    0    0  0.18656086383E+00 -0.29626519545E+02  0.25628708787E+01  0.95262250044E+02  0.90501726563E+02 0.  0.
         11    1    3    3    0    0  0.23617028218E+02 -0.54344009138E+02  0.10781181430E+02  0.60226814828E+02  0.51100000000E-03 0. -1.
         22    1    1    0    0    0 -0.18656086383E+00  0.29626519545E+02 -0.25628708787E+01  0.29737749956E+02  0.00000000000E+00 0. -1.
</event>
<event>
 5    1  0.8778268E-005  0.9118800E+02  0.7818608E-02  0.1130116E+00
         25   -1    0    0    0    0  0.00000000000E+00  0.00000000000E+00  0.99999998245E-14  0.12500000000E+03  0.12500000000E+03 0.  0.
        -11    1    3    3    0    0 -0.31693280144E+02  0.23866880094E+02  0.17842811386E+02  0.43502389476E+02  0.51100000000E-03 0. -1.
         23    2    1    0    0    0  0.17235821094E+02  0.23729301575E+02 -0.25250239739E+00  0.95670543143E+02  0.91063910447E+02 0.  0.
         11    1    3    3    0    0  0.48929101238E+02 -0.13757851912E+00 -0.18095313783E+02  0.52168153667E+02  0.51100000000E-03 0.  1.
         22    1    1    0    0    0 -0.17235821094E+02 -0.23729301575E+02  0.25250239739E+00  0.29329456857E+02  0.00000000000E+00 0.  1.
</event>
<event>
 5    1  0.8778268E-005  0.9118800E+02  0.7818608E-02  0.1130116E+00
         25   -1    0    0    0    0  0.00000000000E+00  0.00000000000E+00  0.99999998245E-14  0.12500000000E+03  0.12500000000E+03 0.  0.
        -11    1    3    3    0    0 -0.25031458622E+01 -0.39563760165E+02 -0.90096343256E+01  0.40653786645E+02  0.51100000000E-03 0. -1.
         23    2    1    0    0    0 -0.21341868216E+02  0.42573623741E+01  0.19121738387E+02  0.96030337381E+02  0.91556454417E+02 0.  0.
         11    1    3    3    0    0 -0.18838722353E+02  0.43821122539E+02  0.28131372712E+02  0.55376550736E+02  0.51100000000E-03 0.  1.
         22    1    1    0    0    0  0.21341868216E+02 -0.42573623741E+01 -0.19121738387E+02  0.28969662619E+02  0.00000000000E+00 0.  1.
</event>
<event>
 5    1  0.8778268E-005  0.9118800E+02  0.7818608E-02  0.1130116E+00
         25   -1    0    0    0    0  0.00000000000E+00  0.00000000000E+00  0.99999998245E-14  0.12500000000E+03  0.12500000000E+03 0.  0.
        -11    1    3    3    0    0  0.16877287070E+02  0.26646117072E+02  0.53878449327E+02  0.62431928338E+02  0.51100000000E-03 0. -1.
         23    2    1    0    0    0  0.69596608763E+01  0.12148624066E+02  0.27785819547E+02  0.93886052739E+02  0.88580546312E+02 0.  0.
         11    1    3    3    0    0 -0.99176261938E+01 -0.14497493006E+02 -0.26092629780E+02  0.31454124401E+02  0.51100000000E-03 0.  1.
         22    1    1    0    0    0 -0.69596608763E+01 -0.12148624066E+02 -0.27785819547E+02  0.31113947261E+02  0.00000000000E+00 0. -1.
</event>
<event>
 5    1  0.8778268E-005  0.9118800E+02  0.7818608E-02  0.1130116E+00
         25   -1    0    0    0    0  0.00000000000E+00  0.00000000000E+00  0.99999998245E-14  0.12500000000E+03  0.12500000000E+03 0.  0.
        -11    1    3    3    0    0 -0.95390870097E+01 -0.11574031590E+02 -0.26133709901E+02  0.30131763667E+02  0.51100000000E-03 0.  1.
         23    2    1    0    0    0 -0.28104707754E+02  0.24288898196E+02  0.12289528350E+02  0.85873823589E+02  0.76442500595E+02 0.  0.
         11    1    3    3    0    0 -0.18565620744E+02  0.35862929786E+02  0.38423238251E+02  0.55742059922E+02  0.51100000000E-03 0. -1.
         22    1    1    0    0    0  0.28104707754E+02 -0.24288898196E+02 -0.12289528350E+02  0.39126176411E+02  0.00000000000E+00 0. -1.
</event>
<event>
 5    1  0.8778268E-005  0.9118800E+02  0.7818608E-02  0.1130116E+00
         25   -1    0    0    0    0  0.00000000000E+00  0.00000000000E+00  0.99999998245E-14  0.12500000000E+03  0.12500000000E+03 0.  0.
        -11    1    3    3    0    0 -0.11587904047E+02  0.20236516244E+02  0.28472670483E+02  0.36803384010E+02  0.51100000000E-03 0.  1.
         23    2    1    0    0    0  0.23277995830E+02  0.47960277139E+01 -0.16725305928E+02  0.95937948626E+02  0.91430231086E+02 0.  0.
         11    1    3    3    0    0  0.34865899877E+02 -0.15440488530E+02 -0.45197976412E+02  0.59134564615E+02  0.51100000000E-03 0. -1.
         22    1    1    0    0    0 -0.23277995830E+02 -0.47960277139E+01  0.16725305928E+02  0.29062051374E+02  0.00000000000E+00 0. -1.
</event>
<event>
 5    1  0.8778268E-005  0.9118800E+02  0.7818608E-02  0.1130116E+00
         25   -1    0    0    0    0  0.00000000000E+00  0.00000000000E+00  0.99999998245E-14  0.12500000000E+03  0.12500000000E+03 0.  0.
        -11    1    3    3    0    0  0.34468960974E+02 -0.19682088465E+02  0.23600694767E+02  0.46178855234E+02  0.51100000000E-03 0.  1.
         23    2    1    0    0    0 -0.12424151799E+02 -0.24943800172E+02  0.11185920830E+02  0.94972054020E+02  0.90100019451E+02 0.  0.
         11    1    3    3    0    0 -0.46893112773E+02 -0.52617117074E+01 -0.12414773937E+02  0.48793198787E+02  0.51100000000E-03 0. -1.
         22    1    1    0    0    0  0.12424151799E+02  0.24943800172E+02 -0.11185920830E+02  0.30027945980E+02  0.00000000000E+00 0.  1.
</event>
<event>
 5    1  0.8778268E-005  0.9118800E+02  0.7818608E-02  0.1130116E+00
         25   -1    0    0    0    0  0.00000000000E+00  0.00000000000E+00  0.99999998245E-14  0.12500000000E+03  0.12500000000E+03 0.  0.
        -11    1    3    3    0    0  0.54556681489E+02 -0.31089216117E+01 -0.16977700235E+01  0.54671558529E+02  0.51100000000E-03 0. -1.
         23    2    1    0    0    0  0.17004166904E+02 -0.20967923235E+02 -0.82585728863E+01  0.96768820021E+02  0.92559197302E+02 0.  0.
         11    1    3    3    0    0 -0.37552514585E+02 -0.17859001623E+02 -0.65608028629E+01  0.42097261492E+02  0.51100000000E-03 0.  1.
         22    1    1    0    0    0 -0.17004166904E+02  0.20967923235E+02  0.82585728863E+01  0.28231179979E+02  0.00000000000E+00 0.  1.
</event>
<event>
 5    1  0.8778268E-005  0.9118800E+02  0.7818608E-02  0.1130116E+00
         25   -1    0    0    0    0  0.00000000000E+00  0.00000000000E+00  0.99999998245E-14  0.12500000000E+03  0.12500000000E+03 0.  0.
        -11    1    3    3    0    0  0.26268573392E+02  0.22531275374E+02  0.92830662034E+01  0.35831154551E+02  0.51100000000E-03 0. -1.
         23    2    1    0    0    0 -0.26159150413E+02 -0.49129303881E+01  0.13496086534E+02  0.95157372987E+02  0.90356755402E+02 0.  0.
         11    1    3    3    0    0 -0.52427723805E+02 -0.27444205762E+02  0.42130203309E+01  0.59326218436E+02  0.51100000000E-03 0.  1.
         22    1    1    0    0    0  0.26159150413E+02  0.49129303881E+01 -0.13496086534E+02  0.29842627013E+02  0.00000000000E+00 0.  1.
</event>
<event>
 5    1  0.8778268E-005  0.9118800E+02  0.7818608E-02  0.1130116E+00
         25   -1    0    0    0    0  0.00000000000E+00  0.00000000000E+00  0.99999998245E-14  0.12500000000E+03  0.12500000000E+03 0.  0.
        -11    1    3    3    0    0 -0.46400719554E+01 -0.83859980721E+01 -0.35153359297E+02  0.36436436455E+02  0.51100000000E-03 0.  1.
         23    2    1    0    0    0  0.27995522764E+02  0.60384868496E+01  0.10603355890E+02  0.94460783009E+02  0.89387894887E+02 0.  0.
         11    1    3    3    0    0  0.32635594720E+02  0.14424484922E+02  0.45756715188E+02  0.58024346554E+02  0.51100000000E-03 0. -1.
         22    1    1    0    0    0 -0.27995522764E+02 -0.60384868496E+01 -0.10603355890E+02  0.30539216991E+02  0.00000000000E+00 0. -1.
</event>
<event>
 5    1  0.8778268E-005  0.9118800E+02  0.7818608E-02  0.1130116E+00
         25   -1    0    0    0    0  0.00000000000E+00  0.00000000000E+00  0.99999998245E-14  0.12500000000E+03  0.12500000000E+03 0.  0.
        -11    1    3    3    0    0  0.28221972845E+02  0.13938266317E+02 -0.49511535964E+02  0.58669815177E+02  0.51100000000E-03 0.  1.
         23    2    1    0    0    0  0.22391373849E+02  0.12551716145E+02 -0.11987464739E+02  0.96669477381E+02  0.92424938979E+02 0.  0.
         11    1    3    3    0    0 -0.58305989960E+01 -0.13865501724E+01  0.37524071225E+02  0.37999662204E+02  0.51100000000E-03 0. -1.
         22    1    1    0    0    0 -0.22391373849E+02 -0.12551716145E+02  0.11987464739E+02  0.28330522619E+02  0.00000000000E+00 0.  1.
</event>
<event>
 5    1  0.8778268E-005  0.9118800E+02  0.7818608E-02  0.1130116E+00
         25   -1    0    0    0    0  0.00000000000E+00  0.00000000000E+00  0.99999998245E-14  0.12500000000E+03  0.12500000000E+03 0.  0.
        -11    1    3    3    0    0 -0.35350890841E+02 -0.36152760106E+01  0.27265282352E+02  0.44790080664E+02  0.51100000000E-03 0.  1.
         23    2    1    0    0    0 -0.15335159484E+02 -0.12687226342E+02 -0.19919399807E+02  0.96841247945E+02  0.92656958649E+02 0.  0.
         11    1    3    3    0    0  0.20015731357E+02 -0.90719503310E+01 -0.47184682159E+02  0.52051167281E+02  0.51100000000E-03 0. -1.
         22    1    1    0    0    0  0.15335159484E+02  0.12687226342E+02  0.19919399807E+02  0.28158752055E+02  0.00000000000E+00 0. -1.
</event>
<event>
 5    1  0.8778268E-005  0.9118800E+02  0.7818608E-02  0.1130116E+00
         25   -1    0    0    0    0  0.00000000000E+00  0.00000000000E+00  0.99999998245E-14  0.12500000000E+03  0.12500000000E+03 0.  0.
        -11    1    3    3    0    0  0.19240708039E+02 -0.41283613278E+02  0.13780016445E+01  0.45567976255E+02  0.51100000000E-03 0.  1.
         23    2    1    0    0    0 -0.22930943445E+02 -0.15506117622E+02  0.96565891785E+01  0.95682469996E+02  0.91080280517E+02 0.  0.
         11    1    3    3    0    0 -0.42171651483E+02  0.25777495656E+02  0.82785875340E+01  0.50114493741E+02  0.51100000000E-03 0. -1.
         22    1    1    0    0    0  0.22930943445E+02  0.15506117622E+02 -0.96565891785E+01  0.29317530004E+02  0.00000000000E+00 0. -1.
</event>
<event>
 5    1  0.8778268E-005  0.9118800E+02  0.7818608E-02  0.1130116E+00
         25   -1    0    0    0    0  0.00000000000E+00  0.00000000000E+00  0.99999998245E-14  0.12500000000E+03  0.12500000000E+03 0.  0.
        -11    1    3    3    0    0  0.10440940299E+02 -0.43283138274E+02  0.33488212395E+02  0.55712688526E+02  0.51100000000E-03 0. -1.
         23    2    1    0    0    0  0.48460114191E+01 -0.34490839976E+01  0.28076741949E+02  0.96300114189E+02  0.91924036830E+02 0.  0.
         11    1    3    3    0    0 -0.55949288802E+01  0.39834054276E+02 -0.54114704457E+01  0.40587425662E+02  0.51100000000E-03 0.  1.
         22    1    1    0    0    0 -0.48460114191E+01  0.34490839976E+01 -0.28076741949E+02  0.28699885811E+02  0.00000000000E+00 0. -1.
</event>
<event>
 5    1  0.8778268E-005  0.9118800E+02  0.7818608E-02  0.1130116E+00
         25   -1    0    0    0    0  0.00000000000E+00  0.00000000000E+00  0.99999998245E-14  0.12500000000E+03  0.12500000000E+03 0.  0.
        -11    1    3    3    0    0  0.33513857240E+02  0.94859557766E+01  0.42468215862E+02  0.54924596884E+02  0.51100000000E-03 0.  1.
         23    2    1    0    0    0  0.95110141314E+01  0.24439518779E+02  0.13136587749E+02  0.95668798087E+02  0.91061515043E+02 0.  0.
         11    1    3    3    0    0 -0.24002843109E+02  0.14953563002E+02 -0.29331628112E+02  0.40744201204E+02  0.51100000000E-03 0. -1.
         22    1    1    0    0    0 -0.95110141314E+01 -0.24439518779E+02 -0.13136587749E+02  0.29331201913E+02  0.00000000000E+00 0.  1.
</event>
<event>
 5    1  0.8778268E-005  0.9118800E+02  0.7818608E-02  0.1130116E+00
         25   -1    0    0    0    0  0.00000000000E+00  0.00000000000E+00  0.99999998245E-14  0.12500000000E+03  0.12500000000E+03 0.  0.
        -11    1    3    3    0    0  0.35423264283E+02 -0.29975059637E+02 -0.51837636127E+01  0.46692432558E+02  0.51100000000E-03 0.  1.
         23    2    1    0    0    0 -0.14277034753E+02 -0.22826689336E+02 -0.77903420442E+01  0.96971783922E+02  0.92832892772E+02 0.  0.
         11    1    3    3    0    0 -0.49700299036E+02  0.71483703005E+01 -0.26065784315E+01  0.50279351364E+02  0.51100000000E-03 0. -1.
         22    1    1    0    0    0  0.14277034753E+02  0.22826689336E+02  0.77903420442E+01  0.28028216078E+02  0.00000000000E+00 0.  1.
</event>
<event>
 5    1  0.8778268E-005  0.9118800E+02  0.7818608E-02  0.1130116E+00
         25   -1    0    0    0    0  0.00000000000E+00  0.00000000000E+00  0.99999998245E-14  0.12500000000E+03  0.12500000000E+03 0.  0.
        -11    1    3    3    0    0 -0.10755942497E+02  0.21443050718E+02  0.36962425918E+02  0.44064902735E+02  0.51100000000E-03 0.  1.
         23    2    1    0    0    0 -0.14625102540E+00 -0.24051219617E+02  0.56796941581E+01  0.10028681566E+03  0.97194155767E+02 0.  0.
         11    1    3    3    0    0  0.10609691472E+02 -0.45494270335E+02 -0.31282731760E+02  0.56221912926E+02  0.51100000000E-03 0. -1.
         22    1    1    0    0    0  0.14625102540E+00  0.24051219617E+02 -0.56796941581E+01  0.24713184339E+02  0.00000000000E+00 0. -1.
</event>
<event>
 5    1  0.8778268E-005  0.9118800E+02  0.7818608E-02  0.1130116E+00
         25   -1    0    0    0    0  0.00000000000E+00  0.00000000000E+00  0.99999998245E-14  0.12500000000E+03  0.12500000000E+03 0.  0.
        -11    1    3    3    0    0  0.43373356327E+01  0.51436427427E+01  0.34023438884E+02  0.34682328855E+02  0.51100000000E-03 0.  1.
         23    2    1    0    0    0 -0.11525358333E+02 -0.16058879677E+02 -0.21254085394E+02  0.95974879034E+02  0.91480707028E+02 0.  0.
         11    1    3    3    0    0 -0.15862693966E+02 -0.21202522419E+02 -0.55277524278E+02  0.61292550178E+02  0.51100000000E-03 0. -1.
         22    1    1    0    0    0  0.11525358333E+02  0.16058879677E+02  0.21254085394E+02  0.29025120966E+02  0.00000000000E+00 0. -1.
</event>
<event>
 5    1  0.8778268E-005  0.9118800E+02  0.7818608E-02  0.1130116E+00
         25   -1    0    0    0    0  0.00000000000E+00  0.00000000000E+00  0.99999998245E-14  0.12500000000E+03  0.12500000000E+03 0.  0.
        -11    1    3    3    0    0 -0.42820600151E+02 -0.18009654766E+02 -0.10030459154E+02  0.47524326120E+02  0.51100000000E-03 0.  1.
         23    2    1    0    0    0 -0.18972485437E+02  0.22074413770E+02 -0.10172241924E+02  0.94166423290E+02  0.88975310186E+02 0.  0.
         11    1    3    3    0    0  0.23848114714E+02  0.40084068536E+02 -0.14178276944E+00  0.46642097170E+02  0.51100000000E-03 0. -1.
         22    1    1    0    0    0  0.18972485437E+02 -0.22074413770E+02  0.10172241924E+02  0.30833576710E+02  0.00000000000E+00 0. -1.
</event>
<event>
 5    1  0.8778268E-005  0.9118800E+02  0.7818608E-02  0.1130116E+00
         25   -1    0    0    0    0  0.00000000000E+00  0.00000000000E+00  0.99999998245E-14  0.12500000000E+03  0.12500000000E+03 0.  0.
        -11    1    3    3    0    0  0.50537579574E+02  0.13926463188E+00  0.12285981979E+02  0.52009726949E+02  0.51100000000E-03 0.  1.
         23    2    1    0    0    0  0.22067333199E+02 -0.42036419788E+01 -0.19750473086E+02  0.95088146371E+02  0.90260936139E+02 0.  0.
         11    1    3    3    0    0 -0.28470246375E+02 -0.43429066107E+01 -0.32036455065E+02  0.43078419422E+02  0.51100000000E-03 0. -1.
         22    1    1    0    0    0 -0.22067333199E+02  0.42036419788E+01  0.19750473086E+02  0.29911853629E+02  0.00000000000E+00 0.  1.
</event>
<event>
 5    1  0.8778268E-005  0.9118800E+02  0.7818608E-02  0.1130116E+00
         25   -1    0    0    0    0  0.00000000000E+00  0.00000000000E+00  0.99999998245E-14  0.12500000000E+03  0.12500000000E+03 0.  0.
        -11    1    3    3    0    0  0.15720289783E+02 -0.25668835176E+02 -0.19909057197E+02  0.36088601648E+02  0.51100000000E-03 0. -1.
         23    2    1    0    0    0 -0.21067453798E+02  0.18358362274E+02  0.68846014101E+00  0.97047521536E+02  0.92934817931E+02 0.  0.
         11    1    3    3    0    0 -0.36787743581E+02  0.44027197451E+02  0.20597517338E+02  0.60958919888E+02  0.51100000000E-03 0.  1.
         22    1    1    0    0    0  0.21067453798E+02 -0.18358362274E+02 -0.68846014101E+00  0.27952478464E+02  0.00000000000E+00 0.  1.
</event>
<event>
 5    1  0.8778268E-005  0.9118800E+02  0.7818608E-02  0.1130116E+00
         25   -1    0    0    0    0  0.00000000000E+00  0.00000000000E+00  0.99999998245E-14  0.12500000000E+03  0.12500000000E+03 0.  0.
        -11    1    3    3    0    0  0.33634230060E+02  0.20169857670E+02 -0.16439674921E+02  0.42524669333E+02  0.51100000000E-03 0.  1.
         23    2    1    0    0    0 -0.14404316318E+02  0.37098921553E+01 -0.26798078401E+02  0.94350617716E+02  0.89233706799E+02 0.  0.
         11    1    3    3    0    0 -0.48038546378E+02 -0.16459965515E+02 -0.10358403480E+02  0.51825948383E+02  0.51100000000E-03 0. -1.
         22    1    1    0    0    0  0.14404316318E+02 -0.37098921553E+01  0.26798078401E+02  0.30649382284E+02  0.00000000000E+00 0. -1.
</event>
<event>
 5    1  0.8778268E-005  0.9118800E+02  0.7818608E-02  0.1130116E+00
         25   -1    0    0    0    0  0.00000000000E+00  0.00000000000E+00  0.99999998245E-14  0.12500000000E+03  0.12500000000E+03 0.  0.
        -11    1    3    3    0    0 -0.41598002524E+02 -0.31705778538E+02 -0.98555375135E+01  0.53223883987E+02  0.51100000000E-03 0.  1.
         23    2    1    0    0    0 -0.20358359309E+02 -0.24811777968E+02 -0.28317964351E+02  0.82198198348E+02  0.70175135105E+02 0.  0.
         11    1    3    3    0    0  0.21239643214E+02  0.68940005703E+01 -0.18462426837E+02  0.28974314361E+02  0.51100000000E-03 0. -1.
         22    1    1    0    0    0  0.20358359309E+02  0.24811777968E+02  0.28317964351E+02  0.42801801652E+02  0.00000000000E+00 0.  1.
</event>
<event>
 5    1  0.8778268E-005  0.9118800E+02  0.7818608E-02  0.1130116E+00
         25   -1    0    0    0    0  0.00000000000E+00  0.00000000000E+00  0.99999998245E-14  0.12500000000E+03  0.12500000000E+03 0.  0.
        -11    1    3    3    0    0  0.17909078321E+02  0.26722458869E+02  0.39673615833E+02  0.51076615861E+02  0.51100000000E-03 0.  1.
         23    2    1    0    0    0 -0.11383563573E+02 -0.89550082186E+01  0.17487303449E+02  0.10229353674E+03  0.99741587040E+02 0.  0.
         11    1    3    3    0    0 -0.29292641894E+02 -0.35677467087E+02 -0.22186312384E+02  0.51216920879E+02  0.51100000000E-03 0. -1.
         22    1    1    0    0    0  0.11383563573E+02  0.89550082186E+01 -0.17487303449E+02  0.22706463259E+02  0.00000000000E+00 0. -1.
</event>
<event>
 5    1  0.8778268E-005  0.9118800E+02  0.7818608E-02  0.1130116E+00
         25   -1    0    0    0    0  0.00000000000E+00  0.00000000000E+00  0.99999998245E-14  0.12500000000E+03  0.12500000000E+03 0.  0.
        -11    1    3    3    0    0 -0.35672661541E+02 -0.41957692308E+02 -0.14431023550E+02  0.56931899373E+02  0.51100000000E-03 0. -1.
         23    2    1    0    0    0 -0.14417322307E+02  0.46800560361E+00 -0.14727226788E+02  0.10438521354E+03  0.10232938672E+03 0.  0.
         11    1    3    3    0    0  0.21255339234E+02  0.42425697912E+02 -0.29620323830E+00  0.47453314172E+02  0.51100000000E-03 0.  1.
         22    1    1    0    0    0  0.14417322307E+02 -0.46800560361E+00  0.14727226788E+02  0.20614786456E+02  0.00000000000E+00 0. -1.
</event>
<event>
 5    1  0.8778268E-005  0.9118800E+02  0.7818608E-02  0.1130116E+00
         25   -1    0    0    0    0  0.00000000000E+00  0.00000000000E+00  0.99999998245E-14  0.12500000000E+03  0.12500000000E+03 0.  0.
        -11    1    3    3    0    0  0.32392304245E+02 -0.87146597431E+01  0.20597088872E+01  0.33607277035E+02  0.51100000000E-03 0.  1.
         23    2    1    0    0    0 -0.29039001775E+02 -0.34192616063E+01 -0.36650603274E+01  0.95531582309E+02  0.90872963951E+02 0.  0.
         11    1    3    3    0    0 -0.61431306020E+02  0.52953981368E+01 -0.57247692146E+01  0.61924305274E+02  0.51100000000E-03 0. -1.
         22    1    1    0    0    0  0.29039001775E+02  0.34192616063E+01  0.36650603274E+01  0.29468417691E+02  0.00000000000E+00 0. -1.
</event>
<event>
 5    1  0.8778268E-005  0.9118800E+02  0.7818608E-02  0.1130116E+00
         25   -1    0    0    0    0  0.00000000000E+00  0.00000000000E+00  0.99999998245E-14  0.12500000000E+03  0.12500000000E+03 0.  0.
        -11    1    3    3    0    0  0.45867189635E-01  0.28911093598E+02 -0.21620246912E+02  0.36101087430E+02  0.51100000000E-03 0. -1.
         23    2    1    0    0    0  0.16298789334E+01 -0.12392455203E+02  0.24171020691E+02  0.97788463981E+02  0.93926119877E+02 0.  0.
         11    1    3    3    0    0  0.15840117437E+01 -0.41303548801E+02  0.45791267603E+02  0.61687376551E+02  0.51100000000E-03 0.  1.
         22    1    1    0    0    0 -0.16298789334E+01  0.12392455203E+02 -0.24171020691E+02  0.27211536019E+02  0.00000000000E+00 0.  1.
</event>
<event>
 5    1  0.8778268E-005  0.9118800E+02  0.7818608E-02  0.1130116E+00
         25   -1    0    0    0    0  0.00000000000E+00  0.00000000000E+00  0.99999998245E-14  0.12500000000E+03  0.12500000000E+03 0.  0.
        -11    1    3    3    0    0  0.28586820974E+02 -0.15674426419E+02 -0.21073936766E+02  0.38820159557E+02  0.51100000000E-03 0. -1.
         23    2    1    0    0    0 -0.24761584361E+02  0.60959037542E+01 -0.10599733817E+02  0.97383873197E+02  0.93386124768E+02 0.  0.
         11    1    3    3    0    0 -0.53348405335E+02  0.21770330173E+02  0.10474202949E+02  0.58563713640E+02  0.51100000000E-03 0.  1.
         22    1    1    0    0    0  0.24761584361E+02 -0.60959037542E+01  0.10599733817E+02  0.27616126803E+02  0.00000000000E+00 0.  1.
</event>
<event>
 5    1  0.8778268E-005  0.9118800E+02  0.7818608E-02  0.1130116E+00
         25   -1    0    0    0    0  0.00000000000E+00  0.00000000000E+00  0.99999998245E-14  0.12500000000E+03  0.12500000000E+03 0.  0.
        -11    1    3    3    0    0 -0.39844668508E+02  0.35043402131E+02 -0.40103744974E+01  0.53213914960E+02  0.51100000000E-03 0. -1.
         23    2    1    0    0    0  0.32779203792E+01  0.27413127439E+02 -0.46037169319E+01  0.97010385362E+02  0.92884855281E+02 0.  0.
         11    1    3    3    0    0  0.43122588887E+02 -0.76302746926E+01 -0.59334243454E+00  0.43796470403E+02  0.51100000000E-03 0.  1.
         22    1    1    0    0    0 -0.32779203792E+01 -0.27413127439E+02  0.46037169319E+01  0.27989614638E+02  0.00000000000E+00 0. -1.
</event>
<event>
 5    1  0.8778268E-005  0.9118800E+02  0.7818608E-02  0.1130116E+00
         25   -1    0    0    0    0  0.00000000000E+00  0.00000000000E+00  0.99999998245E-14  0.12500000000E+03  0.12500000000E+03 0.  0.
        -11    1    3    3    0    0 -0.23866638842E+02  0.17717398223E+02 -0.28069098020E+02  0.40882721452E+02  0.51100000000E-03 0.  1.
         23    2    1    0    0    0 -0.13671499058E+02 -0.65695526655E+01  0.22479178996E+02  0.97882065029E+02  0.94050604769E+02 0.  0.
         11    1    3    3    0    0  0.10195139783E+02 -0.24286950889E+02  0.50548277016E+02  0.56999343577E+02  0.51100000000E-03 0. -1.
         22    1    1    0    0    0  0.13671499058E+02  0.65695526655E+01 -0.22479178996E+02  0.27117934971E+02  0.00000000000E+00 0. -1.
</event>
<event>
 5    1  0.8778268E-005  0.9118800E+02  0.7818608E-02  0.1130116E+00
         25   -1    0    0    0    0  0.00000000000E+00  0.00000000000E+00  0.99999998245E-14  0.12500000000E+03  0.12500000000E+03 0.  0.
        -11    1    3    3    0    0 -0.55947144604E+00 -0.33902356036E+02 -0.18910166991E+01  0.33959662800E+02  0.51100000000E-03 0. -1.
         23    2    1    0    0    0  0.31356897825E+02  0.13218285170E+02 -0.25469748522E+01  0.90875739057E+02  0.84225499489E+02 0.  0.
         11    1    3    3    0    0  0.31916369271E+02  0.47120641206E+02 -0.65595815302E+00  0.56916076257E+02  0.51100000000E-03 0.  1.
         22    1    1    0    0    0 -0.31356897825E+02 -0.13218285170E+02  0.25469748522E+01  0.34124260943E+02  0.00000000000E+00 0.  1.
</event>
<event>
 4    1  0.8778268E-005  0.9118800E+02  0.7818608E-02  0.1130116E+00
         25   -1    0    0    0    0  0.00000000000E+00  0.00000000000E+00  0.99999998245E-14  0.12500000000E+03  0.12500000000E+03 0.  0.
        -11    1    1    0    0    0 -0.40376611269E+01 -0.15413848042E+01  0.51149432239E+01  0.66963586325E+01  0.51100000000E-03 0.  1.
         11    1    1    0    0    0  0.24304293637E+01 -0.42652588644E+02 -0.42599551099E+02  0.60331352206E+02  0.51100000000E-03 0. -1.
         22    1    1    0    0    0  0.16072317633E+01  0.44193973448E+02  0.37484607875E+02  0.57972289161E+02  0.00000000000E+00 0. -1.
</event>
<event>
 5    1  0.8778268E-005  0.9118800E+02  0.7818608E-02  0.1130116E+00
         25   -1    0    0    0    0  0.00000000000E+00  0.00000000000E+00  0.99999998245E-14  0.12500000000E+03  0.12500000000E+03 0.  0.
        -11    1    3    3    0    0 -0.17588967741E+02 -0.62973353397E+01  0.54786431495E+01  0.19469045934E+02  0.51100000000E-03 0.  1.
         23    2    1    0    0    0 -0.17059105929E+02  0.44336300332E+02 -0.16557039440E+02  0.74692384500E+02  0.55209565521E+02 0.  0.
         11    1    3    3    0    0  0.52986181191E+00  0.50633635672E+02 -0.22035682589E+02  0.55223338566E+02  0.51100000000E-03 0. -1.
         22    1    1    0    0    0  0.17059105929E+02 -0.44336300332E+02  0.16557039440E+02  0.50307615500E+02  0.00000000000E+00 0. -1.
</event>
<event>
 5    1  0.8778268E-005  0.9118800E+02  0.7818608E-02  0.1130116E+00
         25   -1    0    0    0    0  0.00000000000E+00  0.00000000000E+00  0.99999998245E-14  0.12500000000E+03  0.12500000000E+03 0.  0.
        -11    1    3    3    0    0 -0.14868740474E+02 -0.87293785465E+01 -0.32986386451E+02  0.37220735947E+02  0.51100000000E-03 0. -1.
         23    2    1    0    0    0  0.57950322616E+00  0.26974041520E+02  0.10930272281E+02  0.95889768258E+02  0.91364336940E+02 0.  0.
         11    1    3    3    0    0  0.15448243700E+02  0.35703420067E+02  0.43916658732E+02  0.58669032311E+02  0.51100000000E-03 0.  1.
         22    1    1    0    0    0 -0.57950322616E+00 -0.26974041520E+02 -0.10930272281E+02  0.29110231742E+02  0.00000000000E+00 0.  1.
</event>
<event>
 5    1  0.8778268E-005  0.9118800E+02  0.7818608E-02  0.1130116E+00
         25   -1    0    0    0    0  0.00000000000E+00  0.00000000000E+00  0.99999998245E-14  0.12500000000E+03  0.12500000000E+03 0.  0.
        -11    1    3    3    0    0 -0.31936335798E+02  0.49338061691E+02  0.78152917100E+01  0.59289566202E+02  0.51100000000E-03 0.  1.
         23    2    1    0    0    0 -0.17858148030E+02  0.16206250293E+02  0.15808223816E+02  0.96165022285E+02  0.91740152448E+02 0.  0.
         11    1    3    3    0    0  0.14078187768E+02 -0.33131811398E+02  0.79929321063E+01  0.36875456082E+02  0.51100000000E-03 0. -1.
         22    1    1    0    0    0  0.17858148030E+02 -0.16206250293E+02 -0.15808223816E+02  0.28834977715E+02  0.00000000000E+00 0.  1.
</event>
<event>
 5    1  0.8778268E-005  0.9118800E+02  0.7818608E-02  0.1130116E+00
         25   -1    0    0    0    0  0.00000000000E+00  0.00000000000E+00  0.99999998245E-14  0.12500000000E+03  0.12500000000E+03 0.  0.
        -11    1    3    3    0    0 -0.30071402947E+02 -0.11561734584E+01 -0.16340118980E+02  0.34243619856E+02  0.51100000000E-03 0.  1.
         23    2    1    0    0    0  0.28767994992E+02 -0.40850095587E+01  0.18063372937E+01  0.95887327615E+02  0.91360997717E+02 0.  0.
         11    1    3    3    0    0  0.58839397939E+02 -0.29288361003E+01  0.18146456274E+02  0.61643707759E+02  0.51100000000E-03 0. -1.
         22    1    1    0    0    0 -0.28767994992E+02  0.40850095587E+01 -0.18063372937E+01  0.29112672385E+02  0.00000000000E+00 0. -1.
</event>
<event>
 5    1  0.8778268E-005  0.9118800E+02  0.7818608E-02  0.1130116E+00
         25   -1    0    0    0    0  0.00000000000E+00  0.00000000000E+00  0.99999998245E-14  0.12500000000E+03  0.12500000000E+03 0.  0.
        -11    1    3    3    0    0  0.25436698061E+02 -0.28282761754E+02 -0.19519940347E+02  0.42754745843E+02  0.51100000000E-03 0. -1.
         23    2    1    0    0    0 -0.60580318295E+01 -0.18179620845E+02  0.21990940393E+02  0.95831526898E+02  0.91284619321E+02 0.  0.
         11    1    3    3    0    0 -0.31494729891E+02  0.10103140910E+02  0.41510880740E+02  0.53076781055E+02  0.51100000000E-03 0.  1.
         22    1    1    0    0    0  0.60580318295E+01  0.18179620845E+02 -0.21990940393E+02  0.29168473102E+02  0.00000000000E+00 0.  1.
</event>
<event>
 5    1  0.8778268E-005  0.9118800E+02  0.7818608E-02  0.1130116E+00
         25   -1    0    0    0    0  0.00000000000E+00  0.00000000000E+00  0.99999998245E-14  0.12500000000E+03  0.12500000000E+03 0.  0.
        -11    1    3    3    0    0  0.17987953800E+02  0.30758388995E+02 -0.46216014263E+02  0.58357218492E+02  0.51100000000E-03 0.  1.
         23    2    1    0    0    0 -0.71225693846E+01  0.18795657020E+02 -0.21519482430E+02  0.95553508842E+02  0.90903119917E+02 0.  0.
         11    1    3    3    0    0 -0.25110523185E+02 -0.11962731975E+02  0.24696531833E+02  0.37196290350E+02  0.51100000000E-03 0. -1.
         22    1    1    0    0    0  0.71225693846E+01 -0.18795657020E+02  0.21519482430E+02  0.29446491158E+02  0.00000000000E+00 0.  1.
</event>
<event>
 5    1  0.8778268E-005  0.9118800E+02  0.7818608E-02  0.1130116E+00
         25   -1    0    0    0    0  0.00000000000E+00  0.00000000000E+00  0.99999998245E-14  0.12500000000E+03  0.12500000000E+03 0.  0.
        -11    1    3    3    0    0  0.67403807713E+01  0.30839370286E+02  0.31343566217E+02  0.44485038339E+02  0.51100000000E-03 0.  1.
         23    2    1    0    0    0  0.16487100340E+02  0.39064955149E+01 -0.17204773302E+02  0.10085275566E+03  0.97919297971E+02 0.  0.
         11    1    3    3    0    0  0.97467195685E+01 -0.26932874771E+02 -0.48548339518E+02  0.56367717322E+02  0.51100000000E-03 0. -1.
         22    1    1    0    0    0 -0.16487100340E+02 -0.39064955149E+01  0.17204773302E+02  0.24147244339E+02  0.00000000000E+00 0. -1.
</event>
<event>
 5    1  0.8778268E-005  0.9118800E+02  0.7818608E-02  0.1130116E+00
         25   -1    0    0    0    0  0.00000000000E+00  0.00000000000E+00  0.99999998245E-14  0.12500000000E+03  0.12500000000E+03 0.  0.
        -11    1    3    3    0    0  0.33102218305E+02  0.40619890254E+02  0.18000273042E+02  0.55405254000E+02  0.51100000000E-03 0.  1.
         23    2    1    0    0    0  0.26207704804E+02  0.14147282980E+02 -0.90462695064E+01  0.93874055857E+02  0.88563615352E+02 0.  0.
         11    1    3    3    0    0 -0.68945135007E+01 -0.26472607274E+02 -0.27046542548E+02  0.38468801858E+02  0.51100000000E-03 0. -1.
         22    1    1    0    0    0 -0.26207704804E+02 -0.14147282980E+02  0.90462695064E+01  0.31125944143E+02  0.00000000000E+00 0.  1.
</event>
<event>
 5    1  0.8778268E-005  0.9118800E+02  0.7818608E-02  0.1130116E+00
         25   -1    0    0    0    0  0.00000000000E+00  0.00000000000E+00  0.99999998245E-14  0.12500000000E+03  0.12500000000E+03 0.  0.
        -11    1    3    3    0    0 -0.21649429532E+02  0.30258963340E+02  0.13229902239E+02  0.39488390382E+02  0.51100000000E-03 0. -1.
         23    2    1    0    0    0 -0.12201259674E+02 -0.25296403089E+02  0.56988194451E+01  0.96342447942E+02  0.91981585035E+02 0.  0.
         11    1    3    3    0    0  0.94481698581E+01 -0.55555366429E+02 -0.75310827935E+01  0.56854057560E+02  0.51100000000E-03 0.  1.
         22    1    1    0    0    0  0.12201259674E+02  0.25296403089E+02 -0.56988194451E+01  0.28657552058E+02  0.00000000000E+00 0.  1.
</event>
<event>
 5    1  0.8778268E-005  0.9118800E+02  0.7818608E-02  0.1130116E+00
         25   -1    0    0    0    0  0.00000000000E+00  0.00000000000E+00  0.99999998245E-14  0.12500000000E+03  0.12500000000E+03 0.  0.
        -11    1    3    3    0    0  0.32111282892E+02 -0.10803777137E+02  0.84393528350E+01  0.34915308475E+02  0.51100000000E-03 0.  1.
         23    2    1    0    0    0  0.42877611924E+01  0.35180231011E+02 -0.12933550460E+01  0.89535844614E+02  0.82212901380E+02 0.  0.
         11    1    3    3    0    0 -0.27823521699E+02  0.45984008148E+02 -0.97327078811E+01  0.54620536138E+02  0.51100000000E-03 0. -1.
         22    1    1    0    0    0 -0.42877611924E+01 -0.35180231011E+02  0.12933550460E+01  0.35464155386E+02  0.00000000000E+00 0. -1.
</event>
<event>
 5    1  0.8778268E-005  0.9118800E+02  0.7818608E-02  0.1130116E+00
         25   -1    0    0    0    0  0.00000000000E+00  0.00000000000E+00  0.99999998245E-14  0.12500000000E+03  0.12500000000E+03 0.  0.
        -11    1    3    3    0    0 -0.30865235622E+02 -0.47636434867E+02 -0.23007646017E+02  0.61247403800E+02  0.51100000000E-03 0. -1.
         23    2    1    0    0    0 -0.20807156551E+02 -0.18076748291E+02 -0.15564206870E+02  0.93346388389E+02  0.87815699606E+02 0.  0.
         11    1    3    3    0    0  0.10058079071E+02  0.29559686575E+02  0.74434391468E+01  0.32098984588E+02  0.51100000000E-03 0.  1.
         22    1    1    0    0    0  0.20807156551E+02  0.18076748291E+02  0.15564206870E+02  0.31653611611E+02  0.00000000000E+00 0. -1.
</event>
<event>
 5    1  0.8778268E-005  0.9118800E+02  0.7818608E-02  0.1130116E+00
         25   -1    0    0    0    0  0.00000000000E+00  0.00000000000E+00  0.99999998245E-14  0.12500000000E+03  0.12500000000E+03 0.  0.
        -11    1    3    3    0    0  0.28387438190E+02  0.32705691744E+02 -0.30396399264E+01  0.43413688286E+02  0.51100000000E-03 0. -1.
         23    2    1    0    0    0 -0.22584868565E+02  0.14873506183E+02 -0.52160516670E+01  0.97459036523E+02  0.93486678895E+02 0.  0.
         11    1    3    3    0    0 -0.50972306755E+02 -0.17832185561E+02 -0.21764117406E+01  0.54045348237E+02  0.51100000000E-03 0.  1.
         22    1    1    0    0    0  0.22584868565E+02 -0.14873506183E+02  0.52160516670E+01  0.27540963477E+02  0.00000000000E+00 0.  1.
</event>
<event>
 5    1  0.8778268E-005  0.9118800E+02  0.7818608E-02  0.1130116E+00
         25   -1    0    0    0    0  0.00000000000E+00  0.00000000000E+00  0.99999998245E-14  0.12500000000E+03  0.12500000000E+03 0.  0.
        -11    1    3    3    0    0 -0.22370627769E+02  0.45741008370E+01 -0.42253603865E+02  0.48028475148E+02  0.51100000000E-03 0. -1.
         23    2    1    0    0    0  0.18776252076E+02 -0.68906902983E+01 -0.21890595267E+02  0.95348230813E+02  0.90620404453E+02 0.  0.
         11    1    3    3    0    0  0.41146879844E+02 -0.11464791135E+02  0.20363008598E+02  0.47319755664E+02  0.51100000000E-03 0.  1.
         22    1    1    0    0    0 -0.18776252076E+02  0.68906902983E+01  0.21890595267E+02  0.29651769187E+02  0.00000000000E+00 0. -1.
</event>
<event>
 5    1  0.8778268E-005  0.9118800E+02  0.7818608E-02  0.1130116E+00
         25   -1    0    0    0    0  0.00000000000E+00  0.00000000000E+00  0.99999998245E-14  0.12500000000E+03  0.12500000000E+03 0.  0.
        -11    1    3    3    0    0 -0.14325795686E+02 -0.51942238840E+02  0.28055547415E+02  0.60748155023E+02  0.51100000000E-03 0.  1.
         23    2    1    0    0    0 -0.15218849350E+01 -0.27676435250E+02  0.44807170805E+01  0.96921929777E+02  0.92765739603E+02 0.  0.
         11    1    3    3    0    0  0.12803910751E+02  0.24265803589E+02 -0.23574830334E+02  0.36173774754E+02  0.51100000000E-03 0. -1.
         22    1    1    0    0    0  0.15218849350E+01  0.27676435250E+02 -0.44807170805E+01  0.28078070223E+02  0.00000000000E+00 0.  1.
</event>
<event>
 5    1  0.8778268E-005  0.9118800E+02  0.7818608E-02  0.1130116E+00
         25   -1    0    0    0    0  0.00000000000E+00  0.00000000000E+00  0.99999998245E-14  0.12500000000E+03  0.12500000000E+03 0.  0.
        -11    1    3    3    0    0  0.12972089416E+02  0.23873567107E+02 -0.16430315866E+02  0.31751812389E+02  0.51100000000E-03 0.  1.
         23    2    1    0    0    0 -0.32999644850E+02 -0.40243218103E+01  0.79864528950E+01  0.90810013804E+02  0.84127899362E+02 0.  0.
         11    1    3    3    0    0 -0.45971734266E+02 -0.27897888918E+02  0.24416768761E+02  0.59058201415E+02  0.51100000000E-03 0. -1.
         22    1    1    0    0    0  0.32999644850E+02  0.40243218103E+01 -0.79864528950E+01  0.34189986196E+02  0.00000000000E+00 0. -1.
</event>
<event>
 5    1  0.8778268E-005  0.9118800E+02  0.7818608E-02  0.1130116E+00
         25   -1    0    0    0    0  0.00000000000E+00  0.00000000000E+00  0.99999998245E-14  0.12500000000E+03  0.12500000000E+03 0.  0.
        -11    1    3    3    0    0  0.19795125636E+02  0.36445413776E+01  0.53923556596E+02  0.57557620148E+02  0.51100000000E-03 0.  1.
         23    2    1    0    0    0 -0.65483171796E+01  0.83019955182E+01  0.29045957644E+02  0.94089302128E+02  0.88866897842E+02 0.  0.
         11    1    3    3    0    0 -0.26343442815E+02  0.46574541406E+01 -0.24877598953E+02  0.36531681981E+02  0.51100000000E-03 0. -1.
         22    1    1    0    0    0  0.65483171796E+01 -0.83019955182E+01 -0.29045957644E+02  0.30910697872E+02  0.00000000000E+00 0.  1.
</event>
<event>
 5    1  0.8778268E-005  0.9118800E+02  0.7818608E-02  0.1130116E+00
         25   -1    0    0    0    0  0.00000000000E+00  0.00000000000E+00  0.99999998245E-14  0.12500000000E+03  0.12500000000E+03 0.  0.
        -11    1    3    3    0    0 -0.51189585948E+02 -0.22668320200E+02 -0.12234293275E+00  0.55984296175E+02  0.51100000000E-03 0.  1.
         23    2    1    0    0    0 -0.16764864478E+02 -0.29287179061E+02  0.26563793444E+01  0.91149506806E+02  0.84630825952E+02 0.  0.
         11    1    3    3    0    0  0.34424721470E+02 -0.66188588609E+01  0.27787222771E+01  0.35165210630E+02  0.51100000000E-03 0. -1.
         22    1    1    0    0    0  0.16764864478E+02  0.29287179061E+02 -0.26563793444E+01  0.33850493194E+02  0.00000000000E+00 0.  1.
</event>
<event>
 5    1  0.8778268E-005  0.9118800E+02  0.7818608E-02  0.1130116E+00
         25   -1    0    0    0    0  0.00000000000E+00  0.00000000000E+00  0.99999998245E-14  0.12500000000E+03  0.12500000000E+03 0.  0.
        -11    1    3    3    0    0 -0.56956513520E+01  0.18761415485E+02  0.39178470303E+02  0.43810771403E+02  0.51100000000E-03 0. -1.
         23    2    1    0    0    0 -0.31106035250E+02 -0.17946395391E+01  0.13361108570E+01  0.93813603089E+02  0.88478250278E+02 0.  0.
         11    1    3    3    0    0 -0.25410383898E+02 -0.20556055024E+02 -0.37842359446E+02  0.50002831687E+02  0.51100000000E-03 0.  1.
         22    1    1    0    0    0  0.31106035250E+02  0.17946395391E+01 -0.13361108570E+01  0.31186396911E+02  0.00000000000E+00 0.  1.
</event>
<event>
 5    1  0.8778268E-005  0.9118800E+02  0.7818608E-02  0.1130116E+00
         25   -1    0    0    0    0  0.00000000000E+00  0.00000000000E+00  0.99999998245E-14  0.12500000000E+03  0.12500000000E+03 0.  0.
        -11    1    3    3    0    0  0.50360199192E+01  0.43846828570E+01 -0.37380496588E+02  0.37972206491E+02  0.51100000000E-03 0.  1.
         23    2    1    0    0    0 -0.19430104195E+02  0.20603994344E+02  0.11046696814E+02  0.94601265775E+02  0.89584130535E+02 0.  0.
         11    1    3    3    0    0 -0.24466124114E+02  0.16219311487E+02  0.48427193402E+02  0.56629059284E+02  0.51100000000E-03 0. -1.
         22    1    1    0    0    0  0.19430104195E+02 -0.20603994344E+02 -0.11046696814E+02  0.30398734225E+02  0.00000000000E+00 0. -1.
</event>
<event>
 5    1  0.8778268E-005  0.9118800E+02  0.7818608E-02  0.1130116E+00
         25   -1    0    0    0    0  0.00000000000E+00  0.00000000000E+00  0.99999998245E-14  0.12500000000E+03  0.12500000000E+03 0.  0.
        -11    1    3    3    0    0  0.31359988971E+02  0.32436232752E+02 -0.39777186548E+02  0.60148006395E+02  0.51100000000E-03 0.  1.
         23    2    1    0    0    0  0.14284768508E+02  0.42742869371E+01 -0.24188332985E+02  0.96585222282E+02  0.92310917937E+02 0.  0.
         11    1    3    3    0    0 -0.17075220463E+02 -0.28161945815E+02  0.15588853562E+02  0.36437215887E+02  0.51100000000E-03 0. -1.
         22    1    1    0    0    0 -0.14284768508E+02 -0.42742869371E+01  0.24188332985E+02  0.28414777718E+02  0.00000000000E+00 0.  1.
</event>
<event>
 5    1  0.8778268E-005  0.9118800E+02  0.7818608E-02  0.1130116E+00
         25   -1    0    0    0    0  0.00000000000E+00  0.00000000000E+00  0.99999998245E-14  0.12500000000E+03  0.12500000000E+03 0.  0.
        -11    1    3    3    0    0 -0.10549593358E+02  0.22935945093E+02  0.25245774250E+02  0.35702949669E+02  0.51100000000E-03 0.  1.
         23    2    1    0    0    0  0.26354647647E+02 -0.13396653895E+02 -0.39814152346E+01  0.95168985008E+02  0.90372818103E+02 0.  0.
         11    1    3    3    0    0  0.36904241006E+02 -0.36332598988E+02 -0.29227189484E+02  0.59466035338E+02  0.51100000000E-03 0. -1.
         22    1    1    0    0    0 -0.26354647647E+02  0.13396653895E+02  0.39814152346E+01  0.29831014992E+02  0.00000000000E+00 0. -1.
</event>
<event>
 5    1  0.8778268E-005  0.9118800E+02  0.7818608E-02  0.1130116E+00
         25   -1    0    0    0    0  0.00000000000E+00  0.00000000000E+00  0.99999998245E-14  0.12500000000E+03  0.12500000000E+03 0.  0.
        -11    1    3    3    0    0 -0.11533738482E+02  0.44883425603E+02 -0.37763674593E+02  0.59779964338E+02  0.51100000000E-03 0.  1.
         23    2    1    0    0    0 -0.99320902343E+01  0.10340154965E+02 -0.24091223806E+02  0.96965159433E+02  0.92823972433E+02 0.  0.
         11    1    3    3    0    0  0.16016482480E+01 -0.34543270638E+02  0.13672450787E+02  0.37185195095E+02  0.51100000000E-03 0. -1.
         22    1    1    0    0    0  0.99320902343E+01 -0.10340154965E+02  0.24091223806E+02  0.28034840567E+02  0.00000000000E+00 0.  1.
</event>
<event>
 5    1  0.8778268E-005  0.9118800E+02  0.7818608E-02  0.1130116E+00
         25   -1    0    0    0    0  0.00000000000E+00  0.00000000000E+00  0.99999998245E-14  0.12500000000E+03  0.12500000000E+03 0.  0.
        -11    1    3    3    0    0 -0.49144742133E+02  0.18144843985E+02 -0.17928673907E+02  0.55370374668E+02  0.51100000000E-03 0. -1.
         23    2    1    0    0    0 -0.56923106039E+01  0.20233406772E+02 -0.15394124607E+02  0.98946742584E+02  0.95455149918E+02 0.  0.
         11    1    3    3    0    0  0.43452431529E+02  0.20885627868E+01  0.25345493002E+01  0.43576367916E+02  0.51100000000E-03 0.  1.
         22    1    1    0    0    0  0.56923106039E+01 -0.20233406772E+02  0.15394124607E+02  0.26053257416E+02  0.00000000000E+00 0. -1.
</event>
<event>
 5    1  0.8778268E-005  0.9118800E+02  0.7818608E-02  0.1130116E+00
         25   -1    0    0    0    0  0.00000000000E+00  0.00000000000E+00  0.99999998245E-14  0.12500000000E+03  0.12500000000E+03 0.  0.
        -11    1    3    3    0    0 -0.50547934508E+01  0.18840853850E+02  0.53545081391E+02  0.56987757036E+02  0.51100000000E-03 0.  1.
         23    2    1    0    0    0  0.86265646801E+01 -0.34360605842E+01  0.34340385636E+02  0.89426326924E+02  0.82046217042E+02 0.  0.
         11    1    3    3    0    0  0.13681358131E+02 -0.22276914434E+02 -0.19204695755E+02  0.32438569887E+02  0.51100000000E-03 0. -1.
         22    1    1    0    0    0 -0.86265646801E+01  0.34360605842E+01 -0.34340385636E+02  0.35573673076E+02  0.00000000000E+00 0.  1.
</event>
<event>
 5    1  0.8778268E-005  0.9118800E+02  0.7818608E-02  0.1130116E+00
         25   -1    0    0    0    0  0.00000000000E+00  0.00000000000E+00  0.99999998245E-14  0.12500000000E+03  0.12500000000E+03 0.  0.
        -11    1    3    3    0    0  0.23792283922E+02 -0.22818527588E+02 -0.46211481045E+02  0.56764944783E+02  0.51100000000E-03 0. -1.
         23    2    1    0    0    0 -0.21464971211E+01 -0.23684585238E+02 -0.17463001084E+02  0.95495365878E+02  0.90823132899E+02 0.  0.
         11    1    3    3    0    0 -0.25938781043E+02 -0.86605765057E+00  0.28748479962E+02  0.38730421095E+02  0.51100000000E-03 0.  1.
         22    1    1    0    0    0  0.21464971211E+01  0.23684585238E+02  0.17463001084E+02  0.29504634122E+02  0.00000000000E+00 0. -1.
</event>
<event>
 5    1  0.8778268E-005  0.9118800E+02  0.7818608E-02  0.1130116E+00
         25   -1    0    0    0    0  0.00000000000E+00  0.00000000000E+00  0.99999998245E-14  0.12500000000E+03  0.12500000000E+03 0.  0.
        -11    1    3    3    0    0  0.37893052007E+02 -0.12996843211E+02  0.39360972398E+02  0.56161263093E+02  0.51100000000E-03 0.  1.
         23    2    1    0    0    0  0.82823484978E+01  0.92892990736E+01  0.27069344035E+02  0.95206749751E+02  0.90425037670E+02 0.  0.
         11    1    3    3    0    0 -0.29610703509E+02  0.22286142285E+02 -0.12291628363E+02  0.39045486657E+02  0.51100000000E-03 0. -1.
         22    1    1    0    0    0 -0.82823484978E+01 -0.92892990736E+01 -0.27069344035E+02  0.29793250249E+02  0.00000000000E+00 0.  1.
</event>
<event>
 5    1  0.8778268E-005  0.9118800E+02  0.7818608E-02  0.1130116E+00
         25   -1    0    0    0    0  0.00000000000E+00  0.00000000000E+00  0.99999998245E-14  0.12500000000E+03  0.12500000000E+03 0.  0.
        -11    1    3    3    0    0 -0.45364630551E+01  0.32811799203E+02  0.12682615415E+02  0.35468893386E+02  0.51100000000E-03 0. -1.
         23    2    1    0    0    0  0.39305795779E+01 -0.15232970434E+02 -0.23858484727E+02  0.96421684137E+02  0.92089201507E+02 0.  0.
         11    1    3    3    0    0  0.84670426330E+01 -0.48044769638E+02 -0.36541100142E+02  0.60952790751E+02  0.51100000000E-03 0.  1.
         22    1    1    0    0    0 -0.39305795779E+01  0.15232970434E+02  0.23858484727E+02  0.28578315863E+02  0.00000000000E+00 0.  1.
</event>
<event>
 5    1  0.8778268E-005  0.9118800E+02  0.7818608E-02  0.1130116E+00
         25   -1    0    0    0    0  0.00000000000E+00  0.00000000000E+00  0.99999998245E-14  0.12500000000E+03  0.12500000000E+03 0.  0.
        -11    1    3    3    0    0 -0.36115021665E+02  0.31846937411E+01  0.75117193576E+01  0.37025167009E+02  0.51100000000E-03 0. -1.
         23    2    1    0    0    0  0.49201934015E+01 -0.10945890787E+02 -0.28919673889E+02  0.93689165357E+02  0.88302272559E+02 0.  0.
         11    1    3    3    0    0  0.41035215066E+02 -0.14130584528E+02 -0.36431393246E+02  0.56663998348E+02  0.51100000000E-03 0.  1.
         22    1    1    0    0    0 -0.49201934015E+01  0.10945890787E+02  0.28919673889E+02  0.31310834643E+02  0.00000000000E+00 0.  1.
</event>
<event>
 5    1  0.8778268E-005  0.9118800E+02  0.7818608E-02  0.1130116E+00
         25   -1    0    0    0    0  0.00000000000E+00  0.00000000000E+00  0.99999998245E-14  0.12500000000E+03  0.12500000000E+03 0.  0.
        -11    1    3    3    0    0 -0.42481884868E+02  0.41868064731E+02  0.23049525643E+01  0.59690520126E+02  0.51100000000E-03 0. -1.
         23    2    1    0    0    0 -0.28032496211E+02  0.91369640682E+01  0.14890835749E+01  0.95478443027E+02  0.90799838969E+02 0.  0.
         11    1    3    3    0    0  0.14449388658E+02 -0.32731100662E+02 -0.81586898941E+00  0.35787922902E+02  0.51100000000E-03 0.  1.
         22    1    1    0    0    0  0.28032496211E+02 -0.91369640682E+01 -0.14890835749E+01  0.29521556973E+02  0.00000000000E+00 0. -1.
</event>
<event>
 5    1  0.8778268E-005  0.9118800E+02  0.7818608E-02  0.1130116E+00
         25   -1    0    0    0    0  0.00000000000E+00  0.00000000000E+00  0.99999998245E-14  0.12500000000E+03  0.12500000000E+03 0.  0.
        -11    1    3    3    0    0 -0.44638137929E+02 -0.15385938105E+01 -0.16706553438E+02  0.47686890827E+02  0.51100000000E-03 0.  1.
         23    2    1    0    0    0 -0.19532777853E+02 -0.12197022679E+02  0.20737142191E+02  0.94010875470E+02  0.88756514507E+02 0.  0.
         11    1    3    3    0    0  0.25105360076E+02 -0.10658428869E+02  0.37443695630E+02  0.46323984643E+02  0.51100000000E-03 0. -1.
         22    1    1    0    0    0  0.19532777853E+02  0.12197022679E+02 -0.20737142191E+02  0.30989124530E+02  0.00000000000E+00 0.  1.
</event>
<event>
 5    1  0.8778268E-005  0.9118800E+02  0.7818608E-02  0.1130116E+00
         25   -1    0    0    0    0  0.00000000000E+00  0.00000000000E+00  0.99999998245E-14  0.12500000000E+03  0.12500000000E+03 0.  0.
        -11    1    3    3    0    0 -0.10203010826E+02 -0.32803354661E+02 -0.38864429244E+00  0.34355677137E+02  0.51100000000E-03 0.  1.
         23    2    1    0    0    0  0.10591808465E+02  0.25051950488E+02  0.85674557370E+01  0.96483549877E+02  0.92173138545E+02 0.  0.
         11    1    3    3    0    0  0.20794819291E+02  0.57855305149E+02  0.89561000294E+01  0.62127872740E+02  0.51100000000E-03 0. -1.
         22    1    1    0    0    0 -0.10591808465E+02 -0.25051950488E+02 -0.85674557370E+01  0.28516450123E+02  0.00000000000E+00 0. -1.
</event>
<event>
 5    1  0.8778268E-005  0.9118800E+02  0.7818608E-02  0.1130116E+00
         25   -1    0    0    0    0  0.00000000000E+00  0.00000000000E+00  0.99999998245E-14  0.12500000000E+03  0.12500000000E+03 0.  0.
        -11    1    3    3    0    0  0.28812904245E+02 -0.43173083578E+02  0.14902575016E+02  0.54001716075E+02  0.51100000000E-03 0.  1.
         23    2    1    0    0    0  0.25126812371E+02 -0.10159449584E+02 -0.10617449111E+02  0.95891558932E+02  0.91366786815E+02 0.  0.
         11    1    3    3    0    0 -0.36860918738E+01  0.33013633995E+02 -0.25520024127E+02  0.41889842857E+02  0.51100000000E-03 0. -1.
         22    1    1    0    0    0 -0.25126812371E+02  0.10159449584E+02  0.10617449111E+02  0.29108441068E+02  0.00000000000E+00 0.  1.
</event>
<event>
 5    1  0.8778268E-005  0.9118800E+02  0.7818608E-02  0.1130116E+00
         25   -1    0    0    0    0  0.00000000000E+00  0.00000000000E+00  0.99999998245E-14  0.12500000000E+03  0.12500000000E+03 0.  0.
        -11    1    3    3    0    0  0.34045547519E+02 -0.32932085115E+02  0.29435091182E+02  0.55767787557E+02  0.51100000000E-03 0.  1.
         23    2    1    0    0    0  0.21174965526E+02  0.38968349144E+01  0.19322869420E+02  0.96070123229E+02  0.91610757050E+02 0.  0.
         11    1    3    3    0    0 -0.12870581993E+02  0.36828920030E+02 -0.10112221762E+02  0.40302335672E+02  0.51100000000E-03 0. -1.
         22    1    1    0    0    0 -0.21174965526E+02 -0.38968349144E+01 -0.19322869420E+02  0.28929876771E+02  0.00000000000E+00 0.  1.
</event>
<event>
 5    1  0.8778268E-005  0.9118800E+02  0.7818608E-02  0.1130116E+00
         25   -1    0    0    0    0  0.00000000000E+00  0.00000000000E+00  0.99999998245E-14  0.12500000000E+03  0.12500000000E+03 0.  0.
        -11    1    3    3    0    0  0.88151578224E+01 -0.27320253757E+02 -0.39675300578E+02  0.48971754604E+02  0.51100000000E-03 0.  1.
         23    2    1    0    0    0  0.22036460129E+02  0.10732665157E+02 -0.16596294404E+02  0.95398772588E+02  0.90690093984E+02 0.  0.
         11    1    3    3    0    0  0.13221302307E+02  0.38052918914E+02  0.23079006174E+02  0.46427017983E+02  0.51100000000E-03 0. -1.
         22    1    1    0    0    0 -0.22036460129E+02 -0.10732665157E+02  0.16596294404E+02  0.29601227412E+02  0.00000000000E+00 0. -1.
</event>
<event>
 5    1  0.8778268E-005  0.9118800E+02  0.7818608E-02  0.1130116E+00
         25   -1    0    0    0    0  0.00000000000E+00  0.00000000000E+00  0.99999998245E-14  0.12500000000E+03  0.12500000000E+03 0.  0.
        -11    1    3    3    0    0  0.54255439993E+01 -0.48595585842E+02 -0.38507952794E+02  0.62240098969E+02  0.51100000000E-03 0. -1.
         23    2    1    0    0    0  0.18526984734E+01 -0.19917606287E+02 -0.20842690430E+02  0.96111225775E+02  0.91666823027E+02 0.  0.
         11    1    3    3    0    0 -0.35728455259E+01  0.28677979555E+02  0.17665262364E+02  0.33871126807E+02  0.51100000000E-03 0.  1.
         22    1    1    0    0    0 -0.18526984734E+01  0.19917606287E+02  0.20842690430E+02  0.28888774225E+02  0.00000000000E+00 0. -1.
</event>
<event>
 5    1  0.8778268E-005  0.9118800E+02  0.7818608E-02  0.1130116E+00
         25   -1    0    0    0    0  0.00000000000E+00  0.00000000000E+00  0.99999998245E-14  0.12500000000E+03  0.12500000000E+03 0.  0.
        -11    1    3    3    0    0 -0.30396135929E+02 -0.28963887179E+02 -0.53579894819E+01  0.42326586107E+02  0.51100000000E-03 0. -1.
         23    2    1    0    0    0 -0.16582136188E+02  0.21660442465E+02  0.81818235738E+01  0.96520459180E+02  0.92223179271E+02 0.  0.
         11    1    3    3    0    0  0.13813999741E+02  0.50624329644E+02  0.13539813056E+02  0.54193873072E+02  0.51100000000E-03 0.  1.
         22    1    1    0    0    0  0.16582136188E+02 -0.21660442465E+02 -0.81818235738E+01  0.28479540820E+02  0.00000000000E+00 0. -1.
</event>
<event>
 5    1  0.8778268E-005  0.9118800E+02  0.7818608E-02  0.1130116E+00
         25   -1    0    0    0    0  0.00000000000E+00  0.00000000000E+00  0.99999998245E-14  0.12500000000E+03  0.12500000000E+03 0.  0.
        -11    1    3    3    0    0  0.13007272828E+02  0.31343340158E+02  0.33436612068E+02  0.47640331081E+02  0.51100000000E-03 0.  1.
         23    2    1    0    0    0  0.26923580406E+02 -0.67534493584E+01  0.21409582396E+02  0.89944922216E+02  0.82832545258E+02 0.  0.
         11    1    3    3    0    0  0.13916307578E+02 -0.38096789517E+02 -0.12027029672E+02  0.42304591134E+02  0.51100000000E-03 0. -1.
         22    1    1    0    0    0 -0.26923580406E+02  0.67534493584E+01 -0.21409582396E+02  0.35055077784E+02  0.00000000000E+00 0. -1.
</event>
<event>
 5    1  0.8778268E-005  0.9118800E+02  0.7818608E-02  0.1130116E+00
         25   -1    0    0    0    0  0.00000000000E+00  0.00000000000E+00  0.99999998245E-14  0.12500000000E+03  0.12500000000E+03 0.  0.
        -11    1    3    3    0    0 -0.34951895641E+02 -0.67492214123E+01 -0.16338715351E+02  0.39168107156E+02  0.51100000000E-03 0. -1.
         23    2    1    0    0    0  0.20270311246E+02  0.28887810889E+01 -0.21313072956E+02  0.95445344647E+02  0.90754262499E+02 0.  0.
         11    1    3    3    0    0  0.55222206888E+02  0.96380025012E+01 -0.49743576047E+01  0.56277237491E+02  0.51100000000E-03 0.  1.
         22    1    1    0    0    0 -0.20270311246E+02 -0.28887810889E+01  0.21313072956E+02  0.29554655353E+02  0.00000000000E+00 0.  1.
</event>
<event>
 5    1  0.8778268E-005  0.9118800E+02  0.7818608E-02  0.1130116E+00
         25   -1    0    0    0    0  0.00000000000E+00  0.00000000000E+00  0.99999998245E-14  0.12500000000E+03  0.12500000000E+03 0.  0.
        -11    1    3    3    0    0 -0.61200806629E+02 -0.15602759974E+01 -0.12847312382E+01  0.61234171243E+02  0.51100000000E-03 0.  1.
         23    2    1    0    0    0 -0.27523181114E+02 -0.58548999317E+00 -0.94367479721E+01  0.95898101274E+02  0.91375737033E+02 0.  0.
         11    1    3    3    0    0  0.33677625515E+02  0.97478600419E+00 -0.81520167340E+01  0.34663930030E+02  0.51100000000E-03 0. -1.
         22    1    1    0    0    0  0.27523181114E+02  0.58548999317E+00  0.94367479721E+01  0.29101898726E+02  0.00000000000E+00 0.  1.
</event>
<event>
 5    1  0.8778268E-005  0.9118800E+02  0.7818608E-02  0.1130116E+00
         25   -1    0    0    0    0  0.00000000000E+00  0.00000000000E+00  0.99999998245E-14  0.12500000000E+03  0.12500000000E+03 0.  0.
        -11    1    3    3    0    0  0.76281928402E+01 -0.17285562733E+02  0.44354725226E+02  0.48211219183E+02  0.51100000000E-03 0.  1.
         23    2    1    0    0    0  0.27206138748E+02  0.64260827505E+01  0.34698959541E+02  0.80441203805E+02  0.66972389469E+02 0.  0.
         11    1    3    3    0    0  0.19577945908E+02  0.23711645483E+02 -0.96557656847E+01  0.32229984622E+02  0.51100000000E-03 0. -1.
         22    1    1    0    0    0 -0.27206138748E+02 -0.64260827505E+01 -0.34698959541E+02  0.44558796195E+02  0.00000000000E+00 0.  1.
</event>
<event>
 5    1  0.8778268E-005  0.9118800E+02  0.7818608E-02  0.1130116E+00
         25   -1    0    0    0    0  0.00000000000E+00  0.00000000000E+00  0.99999998245E-14  0.12500000000E+03  0.12500000000E+03 0.  0.
        -11    1    3    3    0    0  0.24094283504E+02 -0.32143453769E+02  0.41075989300E+02  0.57454094850E+02  0.51100000000E-03 0. -1.
         23    2    1    0    0    0  0.27986490283E+01 -0.45733928655E+01  0.30745531055E+02  0.93790449562E+02  0.88445533468E+02 0.  0.
         11    1    3    3    0    0 -0.21295634476E+02  0.27570060903E+02 -0.10330458245E+02  0.36336354712E+02  0.51100000000E-03 0.  1.
         22    1    1    0    0    0 -0.27986490283E+01  0.45733928655E+01 -0.30745531055E+02  0.31209550438E+02  0.00000000000E+00 0. -1.
</event>
<event>
 5    1  0.8778268E-005  0.9118800E+02  0.7818608E-02  0.1130116E+00
         25   -1    0    0    0    0  0.00000000000E+00  0.00000000000E+00  0.99999998245E-14  0.12500000000E+03  0.12500000000E+03 0.  0.
        -11    1    3    3    0    0  0.19763130651E+02  0.35540378682E+02 -0.15976993527E+02  0.43691694548E+02  0.51100000000E-03 0. -1.
         23    2    1    0    0    0  0.19315897535E+02 -0.19815771306E+01  0.21017441531E+02  0.96385958097E+02  0.92040694936E+02 0.  0.
         11    1    3    3    0    0 -0.44723311651E+00 -0.37521955813E+02  0.36994435059E+02  0.52694263550E+02  0.51100000000E-03 0.  1.
         22    1    1    0    0    0 -0.19315897535E+02  0.19815771306E+01 -0.21017441531E+02  0.28614041903E+02  0.00000000000E+00 0.  1.
</event>
<event>
 5    1  0.8778268E-005  0.9118800E+02  0.7818608E-02  0.1130116E+00
         25   -1    0    0    0    0  0.00000000000E+00  0.00000000000E+00  0.99999998245E-14  0.12500000000E+03  0.12500000000E+03 0.  0.
        -11    1    3    3    0    0 -0.45903221883E+02  0.18265602872E+02  0.34747774112E+02  0.60399882728E+02  0.51100000000E-03 0. -1.
         23    2    1    0    0    0 -0.14807968534E+02  0.91063122697E+01  0.25552159739E+02  0.94095085785E+02  0.88875032750E+02 0.  0.
         11    1    3    3    0    0  0.31095253348E+02 -0.91592906025E+01 -0.91956143730E+01  0.33695203058E+02  0.51100000000E-03 0.  1.
         22    1    1    0    0    0  0.14807968534E+02 -0.91063122697E+01 -0.25552159739E+02  0.30904914215E+02  0.00000000000E+00 0. -1.
</event>
<event>
 5    1  0.8778268E-005  0.9118800E+02  0.7818608E-02  0.1130116E+00
         25   -1    0    0    0    0  0.00000000000E+00  0.00000000000E+00  0.99999998245E-14  0.12500000000E+03  0.12500000000E+03 0.  0.
        -11    1    3    3    0    0  0.25168732914E+02  0.25209842297E+01 -0.28060135645E+02  0.37778190675E+02  0.51100000000E-03 0.  1.
         23    2    1    0    0    0 -0.14114599327E+02 -0.17248010133E+02 -0.36187412084E+02  0.82500063988E+02  0.70710791234E+02 0.  0.
         11    1    3    3    0    0 -0.39283332241E+02 -0.19768994363E+02 -0.81272764390E+01  0.44721873313E+02  0.51100000000E-03 0. -1.
         22    1    1    0    0    0  0.14114599327E+02  0.17248010133E+02  0.36187412084E+02  0.42499936012E+02  0.00000000000E+00 0. -1.
</event>
<event>
 5    1  0.8778268E-005  0.9118800E+02  0.7818608E-02  0.1130116E+00
         25   -1    0    0    0    0  0.00000000000E+00  0.00000000000E+00  0.99999998245E-14  0.12500000000E+03  0.12500000000E+03 0.  0.
        -11    1    3    3    0    0 -0.48620150676E+02 -0.14520284428E+01  0.20599988713E+02  0.52824113562E+02  0.51100000000E-03 0.  1.
         23    2    1    0    0    0 -0.63951883680E+01 -0.90779654759E+01  0.26624082050E+02  0.96152996058E+02  0.91723764720E+02 0.  0.
         11    1    3    3    0    0  0.42224962308E+02 -0.76259370331E+01  0.60240933369E+01  0.43328882496E+02  0.51100000000E-03 0. -1.
         22    1    1    0    0    0  0.63951883680E+01  0.90779654759E+01 -0.26624082050E+02  0.28847003942E+02  0.00000000000E+00 0.  1.
</event>
<event>
 5    1  0.8778268E-005  0.9118800E+02  0.7818608E-02  0.1130116E+00
         25   -1    0    0    0    0  0.00000000000E+00  0.00000000000E+00  0.99999998245E-14  0.12500000000E+03  0.12500000000E+03 0.  0.
        -11    1    3    3    0    0 -0.85503618091E+01 -0.39169147260E+02  0.13464184957E+01  0.40114132511E+02  0.51100000000E-03 0. -1.
         23    2    1    0    0    0  0.20008681694E+01  0.63676641126E+01 -0.28602719957E+02  0.95628820102E+02  0.91006620778E+02 0.  0.
         11    1    3    3    0    0  0.10551229978E+02  0.45536811372E+02 -0.29949138452E+02  0.55514687591E+02  0.51100000000E-03 0.  1.
         22    1    1    0    0    0 -0.20008681694E+01 -0.63676641126E+01  0.28602719957E+02  0.29371179898E+02  0.00000000000E+00 0. -1.
</event>
<event>
 5    1  0.8778268E-005  0.9118800E+02  0.7818608E-02  0.1130116E+00
         25   -1    0    0    0    0  0.00000000000E+00  0.00000000000E+00  0.99999998245E-14  0.12500000000E+03  0.12500000000E+03 0.  0.
        -11    1    3    3    0    0  0.12802704671E+02 -0.17021529343E+02  0.25914304949E+02  0.33543895262E+02  0.51100000000E-03 0. -1.
         23    2    1    0    0    0 -0.82377083526E+01  0.25558849249E+02 -0.13205062231E+02  0.95075289770E+02  0.90243129614E+02 0.  0.
         11    1    3    3    0    0 -0.21040413023E+02  0.42580378592E+02 -0.39119367181E+02  0.61531394508E+02  0.51100000000E-03 0.  1.
         22    1    1    0    0    0  0.82377083526E+01 -0.25558849249E+02  0.13205062231E+02  0.29924710230E+02  0.00000000000E+00 0.  1.
</event>
<event>
 5    1  0.8778268E-005  0.9118800E+02  0.7818608E-02  0.1130116E+00
         25   -1    0    0    0    0  0.00000000000E+00  0.00000000000E+00  0.99999998245E-14  0.12500000000E+03  0.12500000000E+03 0.  0.
        -11    1    3    3    0    0  0.14662722548E+01 -0.21754283334E+02 -0.47438116706E+02  0.52208942860E+02  0.51100000000E-03 0. -1.
         23    2    1    0    0    0 -0.47117959284E+00  0.15443384204E+02 -0.24751297354E+02  0.95822151439E+02  0.91271780194E+02 0.  0.
         11    1    3    3    0    0 -0.19374518477E+01  0.37197667539E+02  0.22686819352E+02  0.43613208579E+02  0.51100000000E-03 0.  1.
         22    1    1    0    0    0  0.47117959284E+00 -0.15443384204E+02  0.24751297354E+02  0.29177848561E+02  0.00000000000E+00 0. -1.
</event>
<event>
 5    1  0.8778268E-005  0.9118800E+02  0.7818608E-02  0.1130116E+00
         25   -1    0    0    0    0  0.00000000000E+00  0.00000000000E+00  0.99999998245E-14  0.12500000000E+03  0.12500000000E+03 0.  0.
        -11    1    3    3    0    0 -0.58223666839E+01  0.26422854326E+02  0.30935239436E+02  0.41098129200E+02  0.51100000000E-03 0. -1.
         23    2    1    0    0    0  0.29741124366E+02  0.11331230906E+02 -0.36684383330E+01  0.92962698113E+02  0.87267832151E+02 0.  0.
         11    1    3    3    0    0  0.35563491050E+02 -0.15091623420E+02 -0.34603677769E+02  0.51864568913E+02  0.51100000000E-03 0.  1.
         22    1    1    0    0    0 -0.29741124366E+02 -0.11331230906E+02  0.36684383330E+01  0.32037301887E+02  0.00000000000E+00 0. -1.
</event>
<event>
 5    1  0.8778268E-005  0.9118800E+02  0.7818608E-02  0.1130116E+00
         25   -1    0    0    0    0  0.00000000000E+00  0.00000000000E+00  0.99999998245E-14  0.12500000000E+03  0.12500000000E+03 0.  0.
        -11    1    3    3    0    0 -0.80959922392E+01  0.14182301725E+02  0.60087146717E+02  0.62266748537E+02  0.51100000000E-03 0.  1.
         23    2    1    0    0    0 -0.39425995048E+01  0.30655655802E+01  0.29590314088E+02  0.94991193443E+02  0.90126568562E+02 0.  0.
         11    1    3    3    0    0  0.41533927345E+01 -0.11116736145E+02 -0.30496832629E+02  0.32724444906E+02  0.51100000000E-03 0. -1.
         22    1    1    0    0    0  0.39425995048E+01 -0.30655655802E+01 -0.29590314088E+02  0.30008806557E+02  0.00000000000E+00 0.  1.
</event>
<event>
 5    1  0.8778268E-005  0.9118800E+02  0.7818608E-02  0.1130116E+00
         25   -1    0    0    0    0  0.00000000000E+00  0.00000000000E+00  0.99999998245E-14  0.12500000000E+03  0.12500000000E+03 0.  0.
        -11    1    3    3    0    0  0.51403570354E+02  0.21521256784E+02 -0.27202511666E+02  0.62011839030E+02  0.51100000000E-03 0. -1.
         23    2    1    0    0    0  0.27628706253E+02  0.99869195787E+01 -0.83973591061E+01  0.94445137673E+02  0.89366013776E+02 0.  0.
         11    1    3    3    0    0 -0.23774864101E+02 -0.11534337205E+02  0.18805152560E+02  0.32433298643E+02  0.51100000000E-03 0.  1.
         22    1    1    0    0    0 -0.27628706253E+02 -0.99869195787E+01  0.83973591061E+01  0.30554862327E+02  0.00000000000E+00 0. -1.
</event>
<event>
 5    1  0.8778268E-005  0.9118800E+02  0.7818608E-02  0.1130116E+00
         25   -1    0    0    0    0  0.00000000000E+00  0.00000000000E+00  0.99999998245E-14  0.12500000000E+03  0.12500000000E+03 0.  0.
        -11    1    3    3    0    0 -0.11640602750E+02 -0.32471874932E+02  0.13713988990E+02  0.37121419534E+02  0.51100000000E-03 0. -1.
         23    2    1    0    0    0 -0.13581083506E+02  0.14954532547E+02 -0.20949633459E+02  0.95897233552E+02  0.91374550001E+02 0.  0.
         11    1    3    3    0    0 -0.19404807561E+01  0.47426407479E+02 -0.34663622448E+02  0.58775814017E+02  0.51100000000E-03 0.  1.
         22    1    1    0    0    0  0.13581083506E+02 -0.14954532547E+02  0.20949633459E+02  0.29102766448E+02  0.00000000000E+00 0.  1.
</event>
<event>
 5    1  0.8778268E-005  0.9118800E+02  0.7818608E-02  0.1130116E+00
         25   -1    0    0    0    0  0.00000000000E+00  0.00000000000E+00  0.99999998245E-14  0.12500000000E+03  0.12500000000E+03 0.  0.
        -11    1    3    3    0    0  0.37050803509E+02 -0.24831045441E+02  0.14714434477E+02  0.46966556618E+02  0.51100000000E-03 0.  1.
         23    2    1    0    0    0  0.19991587202E+02 -0.95535357500E+00 -0.22843759462E+02  0.94628737174E+02  0.89622454181E+02 0.  0.
         11    1    3    3    0    0 -0.17059216307E+02  0.23875691866E+02 -0.37558193939E+02  0.47662180556E+02  0.51100000000E-03 0. -1.
         22    1    1    0    0    0 -0.19991587202E+02  0.95535357500E+00  0.22843759462E+02  0.30371262826E+02  0.00000000000E+00 0.  1.
</event>
<event>
 5    1  0.8778268E-005  0.9118800E+02  0.7818608E-02  0.1130116E+00
         25   -1    0    0    0    0  0.00000000000E+00  0.00000000000E+00  0.99999998245E-14  0.12500000000E+03  0.12500000000E+03 0.  0.
        -11    1    3    3    0    0 -0.36856445122E+02  0.11085198920E+02 -0.28719901799E+02  0.48021994353E+02  0.51100000000E-03 0. -1.
         23    2    1    0    0    0 -0.48228994621E+01  0.28689302963E+02  0.20988323461E+01  0.95832525633E+02  0.91285986922E+02 0.  0.
         11    1    3    3    0    0  0.32033545660E+02  0.17604104043E+02  0.30818734145E+02  0.47810531280E+02  0.51100000000E-03 0.  1.
         22    1    1    0    0    0  0.48228994621E+01 -0.28689302963E+02 -0.20988323461E+01  0.29167474367E+02  0.00000000000E+00 0. -1.
</event>
<event>
 5    1  0.8778268E-005  0.9118800E+02  0.7818608E-02  0.1130116E+00
         25   -1    0    0    0    0  0.00000000000E+00  0.00000000000E+00  0.99999998245E-14  0.12500000000E+03  0.12500000000E+03 0.  0.
        -11    1    3    3    0    0 -0.51512258599E+01 -0.70605810590E+01  0.61822062022E+02  0.62436802334E+02  0.51100000000E-03 0.  1.
         23    2    1    0    0    0 -0.17748053207E+01 -0.52548791794E+01  0.29673188794E+02  0.94812886486E+02  0.89878927572E+02 0.  0.
         11    1    3    3    0    0  0.33764205393E+01  0.18057018796E+01 -0.32148873228E+02  0.32376084152E+02  0.51100000000E-03 0. -1.
         22    1    1    0    0    0  0.17748053207E+01  0.52548791794E+01 -0.29673188794E+02  0.30187113514E+02  0.00000000000E+00 0.  1.
</event>
<event>
 5    1  0.8778268E-005  0.9118800E+02  0.7818608E-02  0.1130116E+00
         25   -1    0    0    0    0  0.00000000000E+00  0.00000000000E+00  0.99999998245E-14  0.12500000000E+03  0.12500000000E+03 0.  0.
        -11    1    3    3    0    0 -0.26985835946E+02 -0.17666084057E+02 -0.22444277634E+02  0.39294674784E+02  0.51100000000E-03 0. -1.
         23    2    1    0    0    0  0.23838748866E+02  0.58387194177E+01 -0.16094779285E+02  0.95650067936E+02  0.91035800562E+02 0.  0.
         11    1    3    3    0    0  0.50824584812E+02  0.23504803475E+02  0.63494983493E+01  0.56355393152E+02  0.51100000000E-03 0.  1.
         22    1    1    0    0    0 -0.23838748866E+02 -0.58387194177E+01  0.16094779285E+02  0.29349932064E+02  0.00000000000E+00 0.  1.
</event>
<event>
 5    1  0.8778268E-005  0.9118800E+02  0.7818608E-02  0.1130116E+00
         25   -1    0    0    0    0  0.00000000000E+00  0.00000000000E+00  0.99999998245E-14  0.12500000000E+03  0.12500000000E+03 0.  0.
        -11    1    3    3    0    0 -0.89802776843E+01  0.50542163033E+02 -0.16502486627E+01  0.51360285749E+02  0.51100000000E-03 0.  1.
         23    2    1    0    0    0  0.75607241942E+01  0.15417353926E+02  0.22206458396E+02  0.96928909054E+02  0.92775143565E+02 0.  0.
         11    1    3    3    0    0  0.16541001879E+02 -0.35124809107E+02  0.23856707059E+02  0.45568623304E+02  0.51100000000E-03 0. -1.
         22    1    1    0    0    0 -0.75607241942E+01 -0.15417353926E+02 -0.22206458396E+02  0.28071090946E+02  0.00000000000E+00 0.  1.
</event>
<event>
 5    1  0.8778268E-005  0.9118800E+02  0.7818608E-02  0.1130116E+00
         25   -1    0    0    0    0  0.00000000000E+00  0.00000000000E+00  0.99999998245E-14  0.12500000000E+03  0.12500000000E+03 0.  0.
        -11    1    3    3    0    0 -0.47068547454E+01 -0.25620893175E+02  0.54841045203E+02  0.60713465458E+02  0.51100000000E-03 0. -1.
         23    2    1    0    0    0 -0.15011680367E+01 -0.20167298950E+02  0.18530490199E+02  0.97570954821E+02  0.93636204030E+02 0.  0.
         11    1    3    3    0    0  0.32056867086E+01  0.54535942251E+01 -0.36310555003E+02  0.36857489363E+02  0.51100000000E-03 0.  1.
         22    1    1    0    0    0  0.15011680367E+01  0.20167298950E+02 -0.18530490199E+02  0.27429045179E+02  0.00000000000E+00 0. -1.
</event>
<event>
 5    1  0.8778268E-005  0.9118800E+02  0.7818608E-02  0.1130116E+00
         25   -1    0    0    0    0  0.00000000000E+00  0.00000000000E+00  0.99999998245E-14  0.12500000000E+03  0.12500000000E+03 0.  0.
        -11    1    3    3    0    0  0.18842473059E+02 -0.35183399193E+02  0.44777774767E+02  0.59982993283E+02  0.51100000000E-03 0.  1.
         23    2    1    0    0    0  0.44144292337E+01 -0.68498675588E+01  0.27805694354E+02  0.96024760406E+02  0.91548839979E+02 0.  0.
         11    1    3    3    0    0 -0.14428043825E+02  0.28333531635E+02 -0.16972080413E+02  0.36041767123E+02  0.51100000000E-03 0. -1.
         22    1    1    0    0    0 -0.44144292337E+01  0.68498675588E+01 -0.27805694354E+02  0.28975239594E+02  0.00000000000E+00 0.  1.
</event>
<event>
 5    1  0.8778268E-005  0.9118800E+02  0.7818608E-02  0.1130116E+00
         25   -1    0    0    0    0  0.00000000000E+00  0.00000000000E+00  0.99999998245E-14  0.12500000000E+03  0.12500000000E+03 0.  0.
        -11    1    3    3    0    0  0.47192021463E+02  0.15432614468E+02 -0.19981157298E+02  0.53521015745E+02  0.51100000000E-03 0.  1.
         23    2    1    0    0    0  0.53282614768E+01  0.24909502667E+02 -0.10307253828E+02  0.97520677320E+02  0.93569061821E+02 0.  0.
         11    1    3    3    0    0 -0.41863759986E+02  0.94768881994E+01  0.96739034707E+01  0.43999661576E+02  0.51100000000E-03 0. -1.
         22    1    1    0    0    0 -0.53282614768E+01 -0.24909502667E+02  0.10307253828E+02  0.27479322680E+02  0.00000000000E+00 0. -1.
</event>
<event>
 5    1  0.8778268E-005  0.9118800E+02  0.7818608E-02  0.1130116E+00
         25   -1    0    0    0    0  0.00000000000E+00  0.00000000000E+00  0.99999998245E-14  0.12500000000E+03  0.12500000000E+03 0.  0.
        -11    1    3    3    0    0  0.26877835644E+02 -0.14850034322E+02 -0.44248999182E+02  0.53860147578E+02  0.51100000000E-03 0. -1.
         23    2    1    0    0    0 -0.73865836626E+01 -0.19753801431E+02 -0.16900282267E+02  0.97974200662E+02  0.94172980018E+02 0.  0.
         11    1    3    3    0    0 -0.34264419307E+02 -0.49037671087E+01  0.27348716915E+02  0.44114053084E+02  0.51100000000E-03 0.  1.
         22    1    1    0    0    0  0.73865836626E+01  0.19753801431E+02  0.16900282267E+02  0.27025799338E+02  0.00000000000E+00 0. -1.
</event>
<event>
 5    1  0.8778268E-005  0.9118800E+02  0.7818608E-02  0.1130116E+00
         25   -1    0    0    0    0  0.00000000000E+00  0.00000000000E+00  0.99999998245E-14  0.12500000000E+03  0.12500000000E+03 0.  0.
        -11    1    3    3    0    0 -0.45927640811E+01  0.18376400610E+02 -0.54906011704E+02  0.58081457478E+02  0.51100000000E-03 0.  1.
         23    2    1    0    0    0  0.52862609864E+01 -0.60051034883E+01 -0.28668963097E+02  0.95235671213E+02  0.90465008723E+02 0.  0.
         11    1    3    3    0    0  0.98790250675E+01 -0.24381504098E+02  0.26237048607E+02  0.37154213735E+02  0.51100000000E-03 0. -1.
         22    1    1    0    0    0 -0.52862609864E+01  0.60051034883E+01  0.28668963097E+02  0.29764328787E+02  0.00000000000E+00 0.  1.
</event>
<event>
 5    1  0.8778268E-005  0.9118800E+02  0.7818608E-02  0.1130116E+00
         25   -1    0    0    0    0  0.00000000000E+00  0.00000000000E+00  0.99999998245E-14  0.12500000000E+03  0.12500000000E+03 0.  0.
        -11    1    3    3    0    0 -0.11287852043E+01 -0.41349931600E+02 -0.39206903484E+02  0.56993616138E+02  0.51100000000E-03 0. -1.
         23    2    1    0    0    0 -0.86586622929E+01 -0.28723671260E+02 -0.45280418351E+01  0.94659846965E+02  0.89665833745E+02 0.  0.
         11    1    3    3    0    0 -0.75298770886E+01  0.12626260340E+02  0.34678861649E+02  0.37666230827E+02  0.51100000000E-03 0.  1.
         22    1    1    0    0    0  0.86586622929E+01  0.28723671260E+02  0.45280418351E+01  0.30340153035E+02  0.00000000000E+00 0. -1.
</event>
<event>
 5    1  0.8778268E-005  0.9118800E+02  0.7818608E-02  0.1130116E+00
         25   -1    0    0    0    0  0.00000000000E+00  0.00000000000E+00  0.99999998245E-14  0.12500000000E+03  0.12500000000E+03 0.  0.
        -11    1    3    3    0    0  0.37785910982E+02 -0.25590245275E+02  0.29337242723E+02  0.54252276752E+02  0.51100000000E-03 0.  1.
         23    2    1    0    0    0  0.28455995009E+02  0.51018045229E+01  0.26711531803E+01  0.95967137229E+02  0.91470127951E+02 0.  0.
         11    1    3    3    0    0 -0.93299159724E+01  0.30692049798E+02 -0.26666089543E+02  0.41714860477E+02  0.51100000000E-03 0. -1.
         22    1    1    0    0    0 -0.28455995009E+02 -0.51018045229E+01 -0.26711531803E+01  0.29032862771E+02  0.00000000000E+00 0.  1.
</event>
<event>
 5    1  0.8778268E-005  0.9118800E+02  0.7818608E-02  0.1130116E+00
         25   -1    0    0    0    0  0.00000000000E+00  0.00000000000E+00  0.99999998245E-14  0.12500000000E+03  0.12500000000E+03 0.  0.
        -11    1    3    3    0    0 -0.20435175562E+02 -0.26480171390E+02  0.19567875328E+00  0.33448978572E+02  0.51100000000E-03 0. -1.
         23    2    1    0    0    0  0.27867012818E+02 -0.12129249626E+02 -0.20941281392E+02  0.88091649099E+02  0.79986950653E+02 0.  0.
         11    1    3    3    0    0  0.48302188381E+02  0.14350921764E+02 -0.21136960145E+02  0.54642670527E+02  0.51100000000E-03 0.  1.
         22    1    1    0    0    0 -0.27867012818E+02  0.12129249626E+02  0.20941281392E+02  0.36908350901E+02  0.00000000000E+00 0.  1.
</event>
<event>
 5    1  0.8778268E-005  0.9118800E+02  0.7818608E-02  0.1130116E+00
         25   -1    0    0    0    0  0.00000000000E+00  0.00000000000E+00  0.99999998245E-14  0.12500000000E+03  0.12500000000E+03 0.  0.
        -11    1    3    3    0    0  0.10981590458E+02 -0.32828688228E+02  0.36485584441E+02  0.50294293633E+02  0.51100000000E-03 0.  1.
         23    2    1    0    0    0  0.26021206157E+02  0.27952562404E+01  0.10967175984E+02  0.96624031710E+02  0.92363455585E+02 0.  0.
         11    1    3    3    0    0  0.15039615699E+02  0.35623944469E+02 -0.25518408457E+02  0.46329738077E+02  0.51100000000E-03 0. -1.
         22    1    1    0    0    0 -0.26021206157E+02 -0.27952562404E+01 -0.10967175984E+02  0.28375968290E+02  0.00000000000E+00 0. -1.
</event>
<event>
 5    1  0.8778268E-005  0.9118800E+02  0.7818608E-02  0.1130116E+00
         25   -1    0    0    0    0  0.00000000000E+00  0.00000000000E+00  0.99999998245E-14  0.12500000000E+03  0.12500000000E+03 0.  0.
        -11    1    3    3    0    0 -0.42390344469E+01 -0.38543390076E+02  0.40706217551E+02  0.56218844520E+02  0.51100000000E-03 0.  1.
         23    2    1    0    0    0 -0.21755469443E+02 -0.17685584602E+02  0.17972127531E+02  0.91697181480E+02  0.85435913818E+02 0.  0.
         11    1    3    3    0    0 -0.17516434996E+02  0.20857805473E+02 -0.22734090020E+02  0.35478336960E+02  0.51100000000E-03 0. -1.
         22    1    1    0    0    0  0.21755469443E+02  0.17685584602E+02 -0.17972127531E+02  0.33302818520E+02  0.00000000000E+00 0.  1.
</event>
<event>
 5    1  0.8778268E-005  0.9118800E+02  0.7818608E-02  0.1130116E+00
         25   -1    0    0    0    0  0.00000000000E+00  0.00000000000E+00  0.99999998245E-14  0.12500000000E+03  0.12500000000E+03 0.  0.
        -11    1    3    3    0    0 -0.22267031146E+02  0.60342482341E+01  0.13371891383E+02  0.26665339061E+02  0.51100000000E-03 0. -1.
         23    2    1    0    0    0  0.21949430826E+02  0.18158680897E+02 -0.25494197494E+02  0.86770831668E+02  0.77895493560E+02 0.  0.
         11    1    3    3    0    0  0.44216461972E+02  0.12124432663E+02 -0.38866088877E+02  0.60105492607E+02  0.51100000000E-03 0.  1.
         22    1    1    0    0    0 -0.21949430826E+02 -0.18158680897E+02  0.25494197494E+02  0.38229168332E+02  0.00000000000E+00 0.  1.
</event>
<event>
 5    1  0.8778268E-005  0.9118800E+02  0.7818608E-02  0.1130116E+00
         25   -1    0    0    0    0  0.00000000000E+00  0.00000000000E+00  0.99999998245E-14  0.12500000000E+03  0.12500000000E+03 0.  0.
        -11    1    3    3    0    0  0.60311855530E+00 -0.32257156116E+02 -0.43722787643E+02  0.54337556370E+02  0.51100000000E-03 0. -1.
         23    2    1    0    0    0 -0.20987301963E+02 -0.72416720546E+01 -0.20996553682E+02  0.94442448980E+02  0.89362252909E+02 0.  0.
         11    1    3    3    0    0 -0.21590420518E+02  0.25015484061E+02  0.22726233962E+02  0.40104892610E+02  0.51100000000E-03 0.  1.
         22    1    1    0    0    0  0.20987301963E+02  0.72416720546E+01  0.20996553682E+02  0.30557551020E+02  0.00000000000E+00 0. -1.
</event>
<event>
 5    1  0.8778268E-005  0.9118800E+02  0.7818608E-02  0.1130116E+00
         25   -1    0    0    0    0  0.00000000000E+00  0.00000000000E+00  0.99999998245E-14  0.12500000000E+03  0.12500000000E+03 0.  0.
        -11    1    3    3    0    0  0.29299468006E+02  0.31528248510E+02 -0.28856965241E+01  0.43137182618E+02  0.51100000000E-03 0.  1.
         23    2    1    0    0    0  0.99070078517E+01 -0.79908916652E+01  0.26181364652E+02  0.95888713370E+02  0.91362893685E+02 0.  0.
         11    1    3    3    0    0 -0.19392460154E+02 -0.39519140175E+02  0.29067061176E+02  0.52751530752E+02  0.51100000000E-03 0. -1.
         22    1    1    0    0    0 -0.99070078517E+01  0.79908916652E+01 -0.26181364652E+02  0.29111286630E+02  0.00000000000E+00 0.  1.
</event>
<event>
 5    1  0.8778268E-005  0.9118800E+02  0.7818608E-02  0.1130116E+00
         25   -1    0    0    0    0  0.00000000000E+00  0.00000000000E+00  0.99999998245E-14  0.12500000000E+03  0.12500000000E+03 0.  0.
        -11    1    3    3    0    0  0.12436548336E+01 -0.35252297579E+02 -0.37367664810E+02  0.51386900428E+02  0.51100000000E-03 0. -1.
         23    2    1    0    0    0  0.23157832867E+02 -0.28985085893E+02 -0.10866991785E+02  0.86341082041E+02  0.77202788229E+02 0.  0.
         11    1    3    3    0    0  0.21914178033E+02  0.62672116865E+01  0.26500673025E+02  0.34954181613E+02  0.51100000000E-03 0.  1.
         22    1    1    0    0    0 -0.23157832867E+02  0.28985085893E+02  0.10866991785E+02  0.38658917959E+02  0.00000000000E+00 0. -1.
</event>
<event>
 5    1  0.8778268E-005  0.9118800E+02  0.7818608E-02  0.1130116E+00
         25   -1    0    0    0    0  0.00000000000E+00  0.00000000000E+00  0.99999998245E-14  0.12500000000E+03  0.12500000000E+03 0.  0.
        -11    1    3    3    0    0  0.32854616527E+02  0.22829063394E+02  0.64796115845E+01  0.40528722274E+02  0.51100000000E-03 0.  1.
         23    2    1    0    0    0  0.75427038417E+01 -0.10876977005E+02 -0.27375064668E+02  0.94592843349E+02  0.89572377646E+02 0.  0.
         11    1    3    3    0    0 -0.25311912686E+02 -0.33706040399E+02 -0.33854676253E+02  0.54064121075E+02  0.51100000000E-03 0. -1.
         22    1    1    0    0    0 -0.75427038417E+01  0.10876977005E+02  0.27375064668E+02  0.30407156651E+02  0.00000000000E+00 0. -1.
</event>
<event>
 5    1  0.8778268E-005  0.9118800E+02  0.7818608E-02  0.1130116E+00
         25   -1    0    0    0    0  0.00000000000E+00  0.00000000000E+00  0.99999998245E-14  0.12500000000E+03  0.12500000000E+03 0.  0.
        -11    1    3    3    0    0 -0.40639019547E+01  0.61448093256E+02 -0.27622392871E+01  0.61644248962E+02  0.51100000000E-03 0.  1.
         23    2    1    0    0    0 -0.77075880505E+01  0.26186666943E+02 -0.53330011775E+01  0.97186525914E+02  0.93121595125E+02 0.  0.
         11    1    3    3    0    0 -0.36436860959E+01 -0.35261426313E+02 -0.25707618904E+01  0.35542276952E+02  0.51100000000E-03 0. -1.
         22    1    1    0    0    0  0.77075880505E+01 -0.26186666943E+02  0.53330011775E+01  0.27813474086E+02  0.00000000000E+00 0.  1.
</event>
<event>
 5    1  0.8778268E-005  0.9118800E+02  0.7818608E-02  0.1130116E+00
         25   -1    0    0    0    0  0.00000000000E+00  0.00000000000E+00  0.99999998245E-14  0.12500000000E+03  0.12500000000E+03 0.  0.
        -11    1    3    3    0    0  0.17385290277E+02  0.73156809205E+01 -0.57105639694E+02  0.60140016548E+02  0.51100000000E-03 0. -1.
         23    2    1    0    0    0  0.18154184926E+02  0.68586167490E+01 -0.20446636824E+02  0.96809930623E+02  0.92614699998E+02 0.  0.
         11    1    3    3    0    0  0.76889464954E+00 -0.45706417144E+00  0.36659002869E+02  0.36669914075E+02  0.51100000000E-03 0.  1.
         22    1    1    0    0    0 -0.18154184926E+02 -0.68586167490E+01  0.20446636824E+02  0.28190069377E+02  0.00000000000E+00 0. -1.
</event>
<event>
 5    1  0.8778268E-005  0.9118800E+02  0.7818608E-02  0.1130116E+00
         25   -1    0    0    0    0  0.00000000000E+00  0.00000000000E+00  0.99999998245E-14  0.12500000000E+03  0.12500000000E+03 0.  0.
        -11    1    3    3    0    0 -0.30058311139E+02 -0.50197765598E+02  0.34282066070E+01  0.58609473128E+02  0.51100000000E-03 0.  1.
         23    2    1    0    0    0 -0.14785335202E+02 -0.17665302864E+02  0.16295614639E+02  0.96782698237E+02  0.92577937757E+02 0.  0.
         11    1    3    3    0    0  0.15272975937E+02  0.32532462734E+02  0.12867408032E+02  0.38173225109E+02  0.51100000000E-03 0. -1.
         22    1    1    0    0    0  0.14785335202E+02  0.17665302864E+02 -0.16295614639E+02  0.28217301763E+02  0.00000000000E+00 0.  1.
</event>
<event>
 5    1  0.8778268E-005  0.9118800E+02  0.7818608E-02  0.1130116E+00
         25   -1    0    0    0    0  0.00000000000E+00  0.00000000000E+00  0.99999998245E-14  0.12500000000E+03  0.12500000000E+03 0.  0.
        -11    1    3    3    0    0  0.38186325559E+02  0.11928422836E+02 -0.47034941923E+02  0.61747619331E+02  0.51100000000E-03 0. -1.
         23    2    1    0    0    0  0.22008062150E+02  0.12977152718E+01 -0.18550968503E+02  0.96187202549E+02  0.91770369060E+02 0.  0.
         11    1    3    3    0    0 -0.16178263409E+02 -0.10630707564E+02  0.28483973420E+02  0.34439583219E+02  0.51100000000E-03 0.  1.
         22    1    1    0    0    0 -0.22008062150E+02 -0.12977152718E+01  0.18550968503E+02  0.28812797451E+02  0.00000000000E+00 0. -1.
</event>
<event>
 5    1  0.8778268E-005  0.9118800E+02  0.7818608E-02  0.1130116E+00
         25   -1    0    0    0    0  0.00000000000E+00  0.00000000000E+00  0.99999998245E-14  0.12500000000E+03  0.12500000000E+03 0.  0.
        -11    1    3    3    0    0  0.25969983551E+02  0.14429515013E+02  0.20918186130E+02  0.36334851869E+02  0.51100000000E-03 0. -1.
         23    2    1    0    0    0 -0.23346078213E+02 -0.14560226200E+02  0.14498209187E+02  0.93899555879E+02  0.88599599151E+02 0.  0.
         11    1    3    3    0    0 -0.49316061764E+02 -0.28989741213E+02 -0.64199769425E+01  0.57564704009E+02  0.51100000000E-03 0.  1.
         22    1    1    0    0    0  0.23346078213E+02  0.14560226200E+02 -0.14498209187E+02  0.31100444121E+02  0.00000000000E+00 0.  1.
</event>
<event>
 5    1  0.8778268E-005  0.9118800E+02  0.7818608E-02  0.1130116E+00
         25   -1    0    0    0    0  0.00000000000E+00  0.00000000000E+00  0.99999998245E-14  0.12500000000E+03  0.12500000000E+03 0.  0.
        -11    1    3    3    0    0  0.56273715612E+01 -0.22275724831E+02  0.54870889915E+02  0.59486887528E+02  0.51100000000E-03 0.  1.
         23    2    1    0    0    0  0.48148335727E+01  0.24945979440E+01  0.29692158132E+02  0.94816728213E+02  0.89884270333E+02 0.  0.
         11    1    3    3    0    0 -0.81253798856E+00  0.24770322775E+02 -0.25178731783E+02  0.35329840685E+02  0.51100000000E-03 0. -1.
         22    1    1    0    0    0 -0.48148335727E+01 -0.24945979440E+01 -0.29692158132E+02  0.30183271787E+02  0.00000000000E+00 0.  1.
</event>
<event>
 5    1  0.8778268E-005  0.9118800E+02  0.7818608E-02  0.1130116E+00
         25   -1    0    0    0    0  0.00000000000E+00  0.00000000000E+00  0.99999998245E-14  0.12500000000E+03  0.12500000000E+03 0.  0.
        -11    1    3    3    0    0  0.60985227257E+02 -0.85304770784E+01 -0.44912182674E+01  0.61742513915E+02  0.51100000000E-03 0.  1.
         23    2    1    0    0    0  0.30017665247E+02  0.27192459263E+01 -0.15933676577E+01  0.94817333687E+02  0.89885112347E+02 0.  0.
         11    1    3    3    0    0 -0.30967562010E+02  0.11249723005E+02  0.28978506097E+01  0.33074819772E+02  0.51100000000E-03 0. -1.
         22    1    1    0    0    0 -0.30017665247E+02 -0.27192459263E+01  0.15933676577E+01  0.30182666313E+02  0.00000000000E+00 0.  1.
</event>
<event>
 5    1  0.8778268E-005  0.9118800E+02  0.7818608E-02  0.1130116E+00
         25   -1    0    0    0    0  0.00000000000E+00  0.00000000000E+00  0.99999998245E-14  0.12500000000E+03  0.12500000000E+03 0.  0.
        -11    1    3    3    0    0 -0.30364006458E+02 -0.34789216958E+02 -0.17732243937E+02  0.49464077673E+02  0.51100000000E-03 0.  1.
         23    2    1    0    0    0 -0.20867430763E+02 -0.80252708438E+01  0.18836765853E+02  0.95765116956E+02  0.91193635957E+02 0.  0.
         11    1    3    3    0    0  0.94965756942E+01  0.26763946114E+02  0.36569009789E+02  0.46301039284E+02  0.51100000000E-03 0. -1.
         22    1    1    0    0    0  0.20867430763E+02  0.80252708438E+01 -0.18836765853E+02  0.29234883044E+02  0.00000000000E+00 0.  1.
</event>
<event>
 5    1  0.8778268E-005  0.9118800E+02  0.7818608E-02  0.1130116E+00
         25   -1    0    0    0    0  0.00000000000E+00  0.00000000000E+00  0.99999998245E-14  0.12500000000E+03  0.12500000000E+03 0.  0.
        -11    1    3    3    0    0  0.38019173052E+02  0.30594887772E+02  0.25845584975E+02  0.55222268519E+02  0.51100000000E-03 0.  1.
         23    2    1    0    0    0  0.13004692983E+02 -0.20695699536E+01  0.25425547816E+02  0.96366738902E+02  0.92014589742E+02 0.  0.
         11    1    3    3    0    0 -0.25014480070E+02 -0.32664457725E+02 -0.42003715928E+00  0.41144470383E+02  0.51100000000E-03 0. -1.
         22    1    1    0    0    0 -0.13004692983E+02  0.20695699536E+01 -0.25425547816E+02  0.28633261098E+02  0.00000000000E+00 0.  1.
</event>
<event>
 5    1  0.8778268E-005  0.9118800E+02  0.7818608E-02  0.1130116E+00
         25   -1    0    0    0    0  0.00000000000E+00  0.00000000000E+00  0.99999998245E-14  0.12500000000E+03  0.12500000000E+03 0.  0.
        -11    1    3    3    0    0  0.25730793102E+02 -0.29456991741E+02  0.41652231803E+02  0.57137522615E+02  0.51100000000E-03 0. -1.
         23    2    1    0    0    0  0.20844406547E+02  0.15559685648E+01  0.24069484559E+02  0.93121317320E+02  0.87494738870E+02 0.  0.
         11    1    3    3    0    0 -0.48863865550E+01  0.31012960306E+02 -0.17582747244E+02  0.35983794705E+02  0.51100000000E-03 0.  1.
         22    1    1    0    0    0 -0.20844406547E+02 -0.15559685648E+01 -0.24069484559E+02  0.31878682680E+02  0.00000000000E+00 0. -1.
</event>
<event>
 5    1  0.8778268E-005  0.9118800E+02  0.7818608E-02  0.1130116E+00
         25   -1    0    0    0    0  0.00000000000E+00  0.00000000000E+00  0.99999998245E-14  0.12500000000E+03  0.12500000000E+03 0.  0.
        -11    1    3    3    0    0 -0.46231871449E+02  0.25679989443E+02 -0.77846564032E+00  0.52890961463E+02  0.51100000000E-03 0.  1.
         23    2    1    0    0    0 -0.20506517138E+02 -0.11153890428E+01 -0.21369538170E+02  0.95361874225E+02  0.90639221954E+02 0.  0.
         11    1    3    3    0    0  0.25725354312E+02 -0.26795378486E+02 -0.20591072530E+02  0.42470912762E+02  0.51100000000E-03 0. -1.
         22    1    1    0    0    0  0.20506517138E+02  0.11153890428E+01  0.21369538170E+02  0.29638125775E+02  0.00000000000E+00 0.  1.
</event>
<event>
 5    1  0.8778268E-005  0.9118800E+02  0.7818608E-02  0.1130116E+00
         25   -1    0    0    0    0  0.00000000000E+00  0.00000000000E+00  0.99999998245E-14  0.12500000000E+03  0.12500000000E+03 0.  0.
        -11    1    3    3    0    0 -0.79614241582E+00  0.96792668657E+01 -0.56474072445E+02  0.57303079399E+02  0.51100000000E-03 0.  1.
         23    2    1    0    0    0 -0.12888952821E+02  0.16278471111E+02 -0.20512512209E+02  0.95813069986E+02  0.91259341968E+02 0.  0.
         11    1    3    3    0    0 -0.12092810405E+02  0.65992042450E+01  0.35961560236E+02  0.38509990587E+02  0.51100000000E-03 0. -1.
         22    1    1    0    0    0  0.12888952821E+02 -0.16278471111E+02  0.20512512209E+02  0.29186930014E+02  0.00000000000E+00 0.  1.
</event>
<event>
 5    1  0.8778268E-005  0.9118800E+02  0.7818608E-02  0.1130116E+00
         25   -1    0    0    0    0  0.00000000000E+00  0.00000000000E+00  0.99999998245E-14  0.12500000000E+03  0.12500000000E+03 0.  0.
        -11    1    3    3    0    0 -0.10676311924E+02 -0.32105831375E+02 -0.27770652783E+02  0.43771876826E+02  0.51100000000E-03 0. -1.
         23    2    1    0    0    0 -0.23149879096E+02  0.14297813013E+02 -0.36185434122E+01  0.97551170962E+02  0.93609789769E+02 0.  0.
         11    1    3    3    0    0 -0.12473567172E+02  0.46403644388E+02  0.24152109371E+02  0.53779294137E+02  0.51100000000E-03 0.  1.
         22    1    1    0    0    0  0.23149879096E+02 -0.14297813013E+02  0.36185434122E+01  0.27448829038E+02  0.00000000000E+00 0. -1.
</event>
<event>
 5    1  0.8778268E-005  0.9118800E+02  0.7818608E-02  0.1130116E+00
         25   -1    0    0    0    0  0.00000000000E+00  0.00000000000E+00  0.99999998245E-14  0.12500000000E+03  0.12500000000E+03 0.  0.
        -11    1    3    3    0    0 -0.14230856593E+02  0.32032701930E+02  0.57314585702E+01  0.35517050692E+02  0.51100000000E-03 0. -1.
         23    2    1    0    0    0 -0.41975514983E+01 -0.19700920665E+02 -0.22087562082E+02  0.95106754737E+02  0.90286702699E+02 0.  0.
         11    1    3    3    0    0  0.10033305094E+02 -0.51733622595E+02 -0.27819020652E+02  0.59589704045E+02  0.51100000000E-03 0.  1.
         22    1    1    0    0    0  0.41975514983E+01  0.19700920665E+02  0.22087562082E+02  0.29893245263E+02  0.00000000000E+00 0.  1.
</event>
<event>
 5    1  0.8778268E-005  0.9118800E+02  0.7818608E-02  0.1130116E+00
         25   -1    0    0    0    0  0.00000000000E+00  0.00000000000E+00  0.99999998245E-14  0.12500000000E+03  0.12500000000E+03 0.  0.
        -11    1    3    3    0    0 -0.20946203798E+02 -0.27139138506E+02  0.52176896277E+02  0.62431600954E+02  0.51100000000E-03 0.  1.
         23    2    1    0    0    0 -0.11555706291E+02 -0.12686500979E+02  0.23269466811E+02  0.96087204552E+02  0.91634061014E+02 0.  0.
         11    1    3    3    0    0  0.93904975073E+01  0.14452637527E+02 -0.28907429466E+02  0.33655603597E+02  0.51100000000E-03 0. -1.
         22    1    1    0    0    0  0.11555706291E+02  0.12686500979E+02 -0.23269466811E+02  0.28912795448E+02  0.00000000000E+00 0.  1.
</event>
<event>
 5    1  0.8778268E-005  0.9118800E+02  0.7818608E-02  0.1130116E+00
         25   -1    0    0    0    0  0.00000000000E+00  0.00000000000E+00  0.99999998245E-14  0.12500000000E+03  0.12500000000E+03 0.  0.
        -11    1    3    3    0    0 -0.42263355828E+02  0.15050885448E+02  0.31397150613E+01  0.44973083167E+02  0.51100000000E-03 0. -1.
         23    2    1    0    0    0 -0.83603250358E+01 -0.10917571553E+02 -0.25245998034E+02  0.96251977111E+02  0.91858555822E+02 0.  0.
         11    1    3    3    0    0  0.33903030792E+02 -0.25968457001E+02 -0.28385713095E+02  0.51278893944E+02  0.51100000000E-03 0.  1.
         22    1    1    0    0    0  0.83603250358E+01  0.10917571553E+02  0.25245998034E+02  0.28748022889E+02  0.00000000000E+00 0.  1.
</event>
<event>
 5    1  0.8778268E-005  0.9118800E+02  0.7818608E-02  0.1130116E+00
         25   -1    0    0    0    0  0.00000000000E+00  0.00000000000E+00  0.99999998245E-14  0.12500000000E+03  0.12500000000E+03 0.  0.
        -11    1    3    3    0    0  0.20601343559E+02  0.14603619989E+02 -0.24927377844E+02  0.35483168399E+02  0.51100000000E-03 0. -1.
         23    2    1    0    0    0 -0.10419631494E+02 -0.20301010197E+02  0.15636019652E+02  0.97338025268E+02  0.93324735826E+02 0.  0.
         11    1    3    3    0    0 -0.31020975054E+02 -0.34904630186E+02  0.40563397495E+02  0.61854856869E+02  0.51100000000E-03 0.  1.
         22    1    1    0    0    0  0.10419631494E+02  0.20301010197E+02 -0.15636019652E+02  0.27661974732E+02  0.00000000000E+00 0.  1.
</event>
<event>
 5    1  0.8778268E-005  0.9118800E+02  0.7818608E-02  0.1130116E+00
         25   -1    0    0    0    0  0.00000000000E+00  0.00000000000E+00  0.99999998245E-14  0.12500000000E+03  0.12500000000E+03 0.  0.
        -11    1    3    3    0    0  0.31753339779E+02 -0.50303547648E+02 -0.54561472337E+01  0.59736848226E+02  0.51100000000E-03 0. -1.
         23    2    1    0    0    0  0.14505098708E+02 -0.20524792804E+02 -0.15357625748E+02  0.95546279067E+02  0.90893177779E+02 0.  0.
         11    1    3    3    0    0 -0.17248241071E+02  0.29778754844E+02 -0.99014785141E+01  0.35809430840E+02  0.51100000000E-03 0.  1.
         22    1    1    0    0    0 -0.14505098708E+02  0.20524792804E+02  0.15357625748E+02  0.29453720933E+02  0.00000000000E+00 0. -1.
</event>
<event>
 5    1  0.8778268E-005  0.9118800E+02  0.7818608E-02  0.1130116E+00
         25   -1    0    0    0    0  0.00000000000E+00  0.00000000000E+00  0.99999998245E-14  0.12500000000E+03  0.12500000000E+03 0.  0.
        -11    1    3    3    0    0 -0.15610392675E+02 -0.52189787219E+02  0.89182219891E+01  0.55199573668E+02  0.51100000000E-03 0.  1.
         23    2    1    0    0    0  0.13379892685E+01 -0.17885770612E+02  0.22878417307E+02  0.95929172971E+02  0.91418232551E+02 0.  0.
         11    1    3    3    0    0  0.16948381943E+02  0.34304016606E+02  0.13960195318E+02  0.40729599303E+02  0.51100000000E-03 0. -1.
         22    1    1    0    0    0 -0.13379892685E+01  0.17885770612E+02 -0.22878417307E+02  0.29070827029E+02  0.00000000000E+00 0.  1.
</event>
<event>
 5    1  0.8778268E-005  0.9118800E+02  0.7818608E-02  0.1130116E+00
         25   -1    0    0    0    0  0.00000000000E+00  0.00000000000E+00  0.99999998245E-14  0.12500000000E+03  0.12500000000E+03 0.  0.
        -11    1    3    3    0    0  0.56784103644E+02  0.12107002515E+02 -0.19628960310E+02  0.61288743010E+02  0.51100000000E-03 0.  1.
         23    2    1    0    0    0  0.26295528407E+02  0.12279756693E+02 -0.35373066448E+01  0.95763724982E+02  0.91191727945E+02 0.  0.
         11    1    3    3    0    0 -0.30488575238E+02  0.17275417756E+00  0.16091653666E+02  0.34474981972E+02  0.51100000000E-03 0. -1.
         22    1    1    0    0    0 -0.26295528407E+02 -0.12279756693E+02  0.35373066448E+01  0.29236275018E+02  0.00000000000E+00 0.  1.
</event>
<event>
 5    1  0.8778268E-005  0.9118800E+02  0.7818608E-02  0.1130116E+00
         25   -1    0    0    0    0  0.00000000000E+00  0.00000000000E+00  0.99999998245E-14  0.12500000000E+03  0.12500000000E+03 0.  0.
        -11    1    3    3    0    0 -0.54733226668E+02 -0.23173484546E+01  0.14581242294E+02  0.56689583104E+02  0.51100000000E-03 0.  1.
         23    2    1    0    0    0 -0.23338240779E+02  0.17604273325E+02  0.31064253964E+01  0.95602146325E+02  0.90969976262E+02 0.  0.
         11    1    3    3    0    0  0.31394985889E+02  0.19921621780E+02 -0.11474816897E+02  0.38912563221E+02  0.51100000000E-03 0. -1.
         22    1    1    0    0    0  0.23338240779E+02 -0.17604273325E+02 -0.31064253964E+01  0.29397853675E+02  0.00000000000E+00 0.  1.
</event>
<event>
 5    1  0.8778268E-005  0.9118800E+02  0.7818608E-02  0.1130116E+00
         25   -1    0    0    0    0  0.00000000000E+00  0.00000000000E+00  0.99999998245E-14  0.12500000000E+03  0.12500000000E+03 0.  0.
        -11    1    3    3    0    0  0.17991186476E+02  0.28997404492E+02  0.25117015690E+02  0.42372122150E+02  0.51100000000E-03 0.  1.
         23    2    1    0    0    0 -0.14892616671E+02  0.16653690100E+02 -0.16790531150E+02  0.97052596515E+02  0.92941643674E+02 0.  0.
         11    1    3    3    0    0 -0.32883803147E+02 -0.12343714392E+02 -0.41907546840E+02  0.54680474365E+02  0.51100000000E-03 0. -1.
         22    1    1    0    0    0  0.14892616671E+02 -0.16653690100E+02  0.16790531150E+02  0.27947403485E+02  0.00000000000E+00 0.  1.
</event>
<event>
 5    1  0.8778268E-005  0.9118800E+02  0.7818608E-02  0.1130116E+00
         25   -1    0    0    0    0  0.00000000000E+00  0.00000000000E+00  0.99999998245E-14  0.12500000000E+03  0.12500000000E+03 0.  0.
        -11    1    3    3    0    0 -0.13814233768E+01  0.19558159695E+02 -0.51871262596E+02  0.55453203918E+02  0.51100000000E-03 0. -1.
         23    2    1    0    0    0  0.16646247827E+02 -0.30620427470E+01 -0.24086616117E+02  0.95561271283E+02  0.90913793347E+02 0.  0.
         11    1    3    3    0    0  0.18027671204E+02 -0.22620202442E+02  0.27784646479E+02  0.40108067365E+02  0.51100000000E-03 0.  1.
         22    1    1    0    0    0 -0.16646247827E+02  0.30620427470E+01  0.24086616117E+02  0.29438728717E+02  0.00000000000E+00 0. -1.
</event>
<event>
 5    1  0.8778268E-005  0.9118800E+02  0.7818608E-02  0.1130116E+00
         25   -1    0    0    0    0  0.00000000000E+00  0.00000000000E+00  0.99999998245E-14  0.12500000000E+03  0.12500000000E+03 0.  0.
        -11    1    3    3    0    0 -0.20641638065E+02  0.39835137069E+02  0.39852340377E+02  0.60009369278E+02  0.51100000000E-03 0.  1.
         23    2    1    0    0    0  0.20190737327E+01  0.18509847895E+02  0.23036542042E+02  0.95379510519E+02  0.90663540797E+02 0.  0.
         11    1    3    3    0    0  0.22660711798E+02 -0.21325289174E+02 -0.16815798335E+02  0.35370141242E+02  0.51100000000E-03 0. -1.
         22    1    1    0    0    0 -0.20190737327E+01 -0.18509847895E+02 -0.23036542042E+02  0.29620489481E+02  0.00000000000E+00 0.  1.
</event>
<event>
 5    1  0.8778268E-005  0.9118800E+02  0.7818608E-02  0.1130116E+00
         25   -1    0    0    0    0  0.00000000000E+00  0.00000000000E+00  0.99999998245E-14  0.12500000000E+03  0.12500000000E+03 0.  0.
        -11    1    3    3    0    0 -0.33833441378E+02  0.48600365900E+01 -0.98082361895E+00  0.34194790925E+02  0.51100000000E-03 0.  1.
         23    2    1    0    0    0  0.25978751307E+02  0.79755898121E+01 -0.12337188883E+02  0.95155205113E+02  0.90353756304E+02 0.  0.
         11    1    3    3    0    0  0.59812192685E+02  0.31155532221E+01 -0.11356365264E+02  0.60960414188E+02  0.51100000000E-03 0. -1.
         22    1    1    0    0    0 -0.25978751307E+02 -0.79755898121E+01  0.12337188883E+02  0.29844794887E+02  0.00000000000E+00 0. -1.
</event>
<event>
 5    1  0.8778268E-005  0.9118800E+02  0.7818608E-02  0.1130116E+00
         25   -1    0    0    0    0  0.00000000000E+00  0.00000000000E+00  0.99999998245E-14  0.12500000000E+03  0.12500000000E+03 0.  0.
        -11    1    3    3    0    0 -0.43747118275E+02  0.10185556083E+02  0.13318506718E+02  0.46850171094E+02  0.51100000000E-03 0. -1.
         23    2    1    0    0    0  0.15159679025E+01 -0.21354979295E+02  0.74599972232E+01  0.10232876585E+03  0.99785727748E+02 0.  0.
         11    1    3    3    0    0  0.45263086177E+02 -0.31540535378E+02 -0.58585094951E+01  0.55478594755E+02  0.51100000000E-03 0.  1.
         22    1    1    0    0    0 -0.15159679025E+01  0.21354979295E+02 -0.74599972232E+01  0.22671234151E+02  0.00000000000E+00 0.  1.
</event>
<event>
 5    1  0.8778268E-005  0.9118800E+02  0.7818608E-02  0.1130116E+00
         25   -1    0    0    0    0  0.00000000000E+00  0.00000000000E+00  0.99999998245E-14  0.12500000000E+03  0.12500000000E+03 0.  0.
        -11    1    3    3    0    0  0.10945942388E+02 -0.37497049488E+02 -0.38988782887E+02  0.55190285072E+02  0.51100000000E-03 0.  1.
         23    2    1    0    0    0 -0.14592567965E+02 -0.21375028499E+02 -0.94167874034E+01  0.97458925799E+02  0.93486530847E+02 0.  0.
         11    1    3    3    0    0 -0.25538510352E+02  0.16122020990E+02  0.29571995483E+02  0.42268640727E+02  0.51100000000E-03 0. -1.
         22    1    1    0    0    0  0.14592567965E+02  0.21375028499E+02  0.94167874034E+01  0.27541074201E+02  0.00000000000E+00 0.  1.
</event>
<event>
 5    1  0.8778268E-005  0.9118800E+02  0.7818608E-02  0.1130116E+00
         25   -1    0    0    0    0  0.00000000000E+00  0.00000000000E+00  0.99999998245E-14  0.12500000000E+03  0.12500000000E+03 0.  0.
        -11    1    3    3    0    0  0.47241912620E+01  0.53262206388E+02  0.27219329272E+02  0.60000604152E+02  0.51100000000E-03 0. -1.
         23    2    1    0    0    0 -0.22853684164E+01  0.28588044360E+02  0.15657857685E+01  0.96278041950E+02  0.91894017692E+02 0.  0.
         11    1    3    3    0    0 -0.70095596784E+01 -0.24674162027E+02 -0.25653543503E+02  0.36277437798E+02  0.51100000000E-03 0.  1.
         22    1    1    0    0    0  0.22853684164E+01 -0.28588044360E+02 -0.15657857685E+01  0.28721958050E+02  0.00000000000E+00 0. -1.
</event>
<event>
 5    1  0.8778268E-005  0.9118800E+02  0.7818608E-02  0.1130116E+00
         25   -1    0    0    0    0  0.00000000000E+00  0.00000000000E+00  0.99999998245E-14  0.12500000000E+03  0.12500000000E+03 0.  0.
        -11    1    3    3    0    0 -0.48690096657E+02  0.15436582891E+01  0.31847913499E+02  0.58201357268E+02  0.51100000000E-03 0. -1.
         23    2    1    0    0    0 -0.25197139324E+02 -0.12780696531E+02  0.56632267870E+01  0.96184827407E+02  0.91767133832E+02 0.  0.
         11    1    3    3    0    0  0.23492957333E+02 -0.14324354821E+02 -0.26184686712E+02  0.37983470138E+02  0.51100000000E-03 0.  1.
         22    1    1    0    0    0  0.25197139324E+02  0.12780696531E+02 -0.56632267870E+01  0.28815172593E+02  0.00000000000E+00 0. -1.
</event>
<event>
 5    1  0.8778268E-005  0.9118800E+02  0.7818608E-02  0.1130116E+00
         25   -1    0    0    0    0  0.00000000000E+00  0.00000000000E+00  0.99999998245E-14  0.12500000000E+03  0.12500000000E+03 0.  0.
        -11    1    3    3    0    0  0.38678379203E+02 -0.39347388016E+02 -0.12526277347E+02  0.56578631884E+02  0.51100000000E-03 0. -1.
         23    2    1    0    0    0  0.23494374752E+02 -0.12544986388E+02  0.11837983097E+02  0.95853813761E+02  0.91315132592E+02 0.  0.
         11    1    3    3    0    0 -0.15184004451E+02  0.26802401628E+02  0.24364260444E+02  0.39275181877E+02  0.51100000000E-03 0.  1.
         22    1    1    0    0    0 -0.23494374752E+02  0.12544986388E+02 -0.11837983097E+02  0.29146186239E+02  0.00000000000E+00 0. -1.
</event>
<event>
 5    1  0.8778268E-005  0.9118800E+02  0.7818608E-02  0.1130116E+00
         25   -1    0    0    0    0  0.00000000000E+00  0.00000000000E+00  0.99999998245E-14  0.12500000000E+03  0.12500000000E+03 0.  0.
        -11    1    3    3    0    0 -0.33474095937E+02  0.31369839395E+02  0.47698536701E+01  0.46123024910E+02  0.51100000000E-03 0. -1.
         23    2    1    0    0    0 -0.31054947106E+01  0.96937826514E+01 -0.27640336109E+02  0.95544920647E+02  0.90891309605E+02 0.  0.
         11    1    3    3    0    0  0.30368601227E+02 -0.21676056744E+02 -0.32410189779E+02  0.49421895737E+02  0.51100000000E-03 0.  1.
         22    1    1    0    0    0  0.31054947106E+01 -0.96937826514E+01  0.27640336109E+02  0.29455079353E+02  0.00000000000E+00 0.  1.
</event>
<event>
 5    1  0.8778268E-005  0.9118800E+02  0.7818608E-02  0.1130116E+00
         25   -1    0    0    0    0  0.00000000000E+00  0.00000000000E+00  0.99999998245E-14  0.12500000000E+03  0.12500000000E+03 0.  0.
        -11    1    3    3    0    0  0.83677000799E-01 -0.12612752894E+02 -0.34834969931E+02  0.37048126373E+02  0.51100000000E-03 0. -1.
         23    2    1    0    0    0  0.17939176951E+02  0.24809846921E+02  0.43234957215E+01  0.94080181288E+02  0.88854067561E+02 0.  0.
         11    1    3    3    0    0  0.17855499950E+02  0.37422599815E+02  0.39158465652E+02  0.57032054915E+02  0.51100000000E-03 0.  1.
         22    1    1    0    0    0 -0.17939176951E+02 -0.24809846921E+02 -0.43234957215E+01  0.30919818712E+02  0.00000000000E+00 0.  1.
</event>
<event>
 5    1  0.8778268E-005  0.9118800E+02  0.7818608E-02  0.1130116E+00
         25   -1    0    0    0    0  0.00000000000E+00  0.00000000000E+00  0.99999998245E-14  0.12500000000E+03  0.12500000000E+03 0.  0.
        -11    1    3    3    0    0  0.21495430911E+02 -0.23394276088E+02 -0.17074840986E+02  0.36067934494E+02  0.51100000000E-03 0.  1.
         23    2    1    0    0    0 -0.26731306036E+01  0.21842253245E+02  0.16610949045E+02  0.97429122571E+02  0.93446672721E+02 0.  0.
         11    1    3    3    0    0 -0.24168561514E+02  0.45236529334E+02  0.33685790031E+02  0.61361188076E+02  0.51100000000E-03 0. -1.
         22    1    1    0    0    0  0.26731306036E+01 -0.21842253245E+02 -0.16610949045E+02  0.27570877429E+02  0.00000000000E+00 0. -1.
</event>
<event>
 5    1  0.8778268E-005  0.9118800E+02  0.7818608E-02  0.1130116E+00
         25   -1    0    0    0    0  0.00000000000E+00  0.00000000000E+00  0.99999998245E-14  0.12500000000E+03  0.12500000000E+03 0.  0.
        -11    1    3    3    0    0  0.38877790597E+02  0.46080556901E+02 -0.11898957312E+02  0.61453116369E+02  0.51100000000E-03 0.  1.
         23    2    1    0    0    0  0.13829931229E+02  0.27570771510E+02 -0.21853342606E+01  0.94077675940E+02  0.88850542964E+02 0.  0.
         11    1    3    3    0    0 -0.25047859369E+02 -0.18509785391E+02  0.97136230513E+01  0.32624559572E+02  0.51100000000E-03 0. -1.
         22    1    1    0    0    0 -0.13829931229E+02 -0.27570771510E+02  0.21853342606E+01  0.30922324060E+02  0.00000000000E+00 0.  1.
</event>
<event>
 5    1  0.8778268E-005  0.9118800E+02  0.7818608E-02  0.1130116E+00
         25   -1    0    0    0    0  0.00000000000E+00  0.00000000000E+00  0.99999998245E-14  0.12500000000E+03  0.12500000000E+03 0.  0.
        -11    1    3    3    0    0 -0.17300054022E+02  0.27501918736E+02  0.47048259412E+02  0.57176797018E+02  0.51100000000E-03 0. -1.
         23    2    1    0    0    0  0.60916670503E+01  0.23130263327E+02  0.16312286658E+02  0.96048174755E+02  0.91580804150E+02 0.  0.
         11    1    3    3    0    0  0.23391721072E+02 -0.43716554091E+01 -0.30735972754E+02  0.38871377737E+02  0.51100000000E-03 0.  1.
         22    1    1    0    0    0 -0.60916670503E+01 -0.23130263327E+02 -0.16312286658E+02  0.28951825245E+02  0.00000000000E+00 0. -1.
</event>
<event>
 5    1  0.8778268E-005  0.9118800E+02  0.7818608E-02  0.1130116E+00
         25   -1    0    0    0    0  0.00000000000E+00  0.00000000000E+00  0.99999998245E-14  0.12500000000E+03  0.12500000000E+03 0.  0.
        -11    1    3    3    0    0 -0.30289173889E+02 -0.22658359812E+02  0.33446361617E+02  0.50492518554E+02  0.51100000000E-03 0.  1.
         23    2    1    0    0    0  0.11626980747E+02 -0.10811268932E+02  0.25784521576E+02  0.94719448980E+02  0.89748884366E+02 0.  0.
         11    1    3    3    0    0  0.41916154636E+02  0.11847090880E+02 -0.76618400415E+01  0.44226930426E+02  0.51100000000E-03 0. -1.
         22    1    1    0    0    0 -0.11626980747E+02  0.10811268932E+02 -0.25784521576E+02  0.30280551020E+02  0.00000000000E+00 0.  1.
</event>
<event>
 5    1  0.8778268E-005  0.9118800E+02  0.7818608E-02  0.1130116E+00
         25   -1    0    0    0    0  0.00000000000E+00  0.00000000000E+00  0.99999998245E-14  0.12500000000E+03  0.12500000000E+03 0.  0.
        -11    1    3    3    0    0 -0.50276166488E+00  0.31890951708E+02 -0.18236202660E+02  0.36740232142E+02  0.51100000000E-03 0. -1.
         23    2    1    0    0    0 -0.73524202081E+01 -0.65737053087E+01  0.26847952729E+02  0.96397827877E+02  0.92056813813E+02 0.  0.
         11    1    3    3    0    0 -0.68496585432E+01 -0.38464657016E+02  0.45084155389E+02  0.59657595736E+02  0.51100000000E-03 0.  1.
         22    1    1    0    0    0  0.73524202081E+01  0.65737053087E+01 -0.26847952729E+02  0.28602172123E+02  0.00000000000E+00 0.  1.
</event>
<event>
 5    1  0.8778268E-005  0.9118800E+02  0.7818608E-02  0.1130116E+00
         25   -1    0    0    0    0  0.00000000000E+00  0.00000000000E+00  0.99999998245E-14  0.12500000000E+03  0.12500000000E+03 0.  0.
        -11    1    3    3    0    0  0.44497189014E+02 -0.26760628388E+02 -0.27843915113E+02  0.58918712400E+02  0.51100000000E-03 0.  1.
         23    2    1    0    0    0  0.30151968460E+02 -0.79073657256E+01 -0.23205621726E+01  0.93742158688E+02  0.88377257662E+02 0.  0.
         11    1    3    3    0    0 -0.14345220554E+02  0.18853262662E+02  0.25523352940E+02  0.34823446287E+02  0.51100000000E-03 0. -1.
         22    1    1    0    0    0 -0.30151968460E+02  0.79073657256E+01  0.23205621726E+01  0.31257841312E+02  0.00000000000E+00 0.  1.
</event>
<event>
 5    1  0.8778268E-005  0.9118800E+02  0.7818608E-02  0.1130116E+00
         25   -1    0    0    0    0  0.00000000000E+00  0.00000000000E+00  0.99999998245E-14  0.12500000000E+03  0.12500000000E+03 0.  0.
        -11    1    3    3    0    0  0.12569478608E+01 -0.35845634437E+01 -0.38683274602E+02  0.38869329133E+02  0.51100000000E-03 0.  1.
         23    2    1    0    0    0 -0.18211281057E+02 -0.18723744752E+02  0.12768745671E+02  0.95926468373E+02  0.91414534365E+02 0.  0.
         11    1    3    3    0    0 -0.19468228918E+02 -0.15139181308E+02  0.51452020273E+02  0.57057139240E+02  0.51100000000E-03 0. -1.
         22    1    1    0    0    0  0.18211281057E+02  0.18723744752E+02 -0.12768745671E+02  0.29073531627E+02  0.00000000000E+00 0. -1.
</event>
<event>
 5    1  0.8778268E-005  0.9118800E+02  0.7818608E-02  0.1130116E+00
         25   -1    0    0    0    0  0.00000000000E+00  0.00000000000E+00  0.99999998245E-14  0.12500000000E+03  0.12500000000E+03 0.  0.
        -11    1    3    3    0    0 -0.27571147039E+02  0.52342392643E+02 -0.10071011832E+02  0.60010994795E+02  0.51100000000E-03 0. -1.
         23    2    1    0    0    0 -0.16158502780E+02  0.18853532308E+02 -0.15387347541E+02  0.95788301026E+02  0.91225409051E+02 0.  0.
         11    1    3    3    0    0  0.11412644258E+02 -0.33488860335E+02 -0.53163357093E+01  0.35777306231E+02  0.51100000000E-03 0.  1.
         22    1    1    0    0    0  0.16158502780E+02 -0.18853532308E+02  0.15387347541E+02  0.29211698974E+02  0.00000000000E+00 0. -1.
</event>
<event>
 5    1  0.8778268E-005  0.9118800E+02  0.7818608E-02  0.1130116E+00
         25   -1    0    0    0    0  0.00000000000E+00  0.00000000000E+00  0.99999998245E-14  0.12500000000E+03  0.12500000000E+03 0.  0.
        -11    1    3    3    0    0 -0.36264985785E+02  0.28471262577E+02  0.37777388212E+02  0.59606149407E+02  0.51100000000E-03 0. -1.
         23    2    1    0    0    0 -0.51461060299E+01  0.15966561967E+02  0.23666329278E+02  0.95991231501E+02  0.91503048448E+02 0.  0.
         11    1    3    3    0    0  0.31118879755E+02 -0.12504700610E+02 -0.14111058934E+02  0.36385082095E+02  0.51100000000E-03 0.  1.
         22    1    1    0    0    0  0.51461060299E+01 -0.15966561967E+02 -0.23666329278E+02  0.29008768499E+02  0.00000000000E+00 0. -1.
</event>
<event>
 5    1  0.8778268E-005  0.9118800E+02  0.7818608E-02  0.1130116E+00
         25   -1    0    0    0    0  0.00000000000E+00  0.00000000000E+00  0.99999998245E-14  0.12500000000E+03  0.12500000000E+03 0.  0.
        -11    1    3    3    0    0  0.28636659485E+02  0.23670142257E+02  0.43889892692E+02  0.57503535384E+02  0.51100000000E-03 0.  1.
         23    2    1    0    0    0  0.12740623920E+02 -0.59834437762E+01  0.25566289026E+02  0.95815068411E+02  0.91262079215E+02 0.  0.
         11    1    3    3    0    0 -0.15896035564E+02 -0.29653586033E+02 -0.18323603666E+02  0.38311533026E+02  0.51100000000E-03 0. -1.
         22    1    1    0    0    0 -0.12740623920E+02  0.59834437762E+01 -0.25566289026E+02  0.29184931589E+02  0.00000000000E+00 0.  1.
</event>
<event>
 5    1  0.8778268E-005  0.9118800E+02  0.7818608E-02  0.1130116E+00
         25   -1    0    0    0    0  0.00000000000E+00  0.00000000000E+00  0.99999998245E-14  0.12500000000E+03  0.12500000000E+03 0.  0.
        -11    1    3    3    0    0  0.11333614614E+02 -0.24908503724E+02  0.25029423130E+02  0.37085797827E+02  0.51100000000E-03 0.  1.
         23    2    1    0    0    0  0.14541304927E+02  0.10412256672E+02 -0.22417022409E+02  0.96322700063E+02  0.91954744390E+02 0.  0.
         11    1    3    3    0    0  0.32076903135E+01  0.35320760396E+02 -0.47446445538E+02  0.59236902237E+02  0.51100000000E-03 0. -1.
         22    1    1    0    0    0 -0.14541304927E+02 -0.10412256672E+02  0.22417022409E+02  0.28677299937E+02  0.00000000000E+00 0. -1.
</event>
<event>
 5    1  0.8778268E-005  0.9118800E+02  0.7818608E-02  0.1130116E+00
         25   -1    0    0    0    0  0.00000000000E+00  0.00000000000E+00  0.99999998245E-14  0.12500000000E+03  0.12500000000E+03 0.  0.
        -11    1    3    3    0    0 -0.27055781042E+02  0.20738408910E+01 -0.38037394364E+02  0.46724292120E+02  0.51100000000E-03 0.  1.
         23    2    1    0    0    0 -0.30360334257E+02  0.20789563328E+01  0.85196572311E+01  0.93398472902E+02  0.87889807289E+02 0.  0.
         11    1    3    3    0    0 -0.33045532150E+01  0.51154418374E-02  0.46557051595E+02  0.46674180782E+02  0.51100000000E-03 0. -1.
         22    1    1    0    0    0  0.30360334257E+02 -0.20789563328E+01 -0.85196572311E+01  0.31601527098E+02  0.00000000000E+00 0. -1.
</event>
<event>
 5    1  0.8778268E-005  0.9118800E+02  0.7818608E-02  0.1130116E+00
         25   -1    0    0    0    0  0.00000000000E+00  0.00000000000E+00  0.99999998245E-14  0.12500000000E+03  0.12500000000E+03 0.  0.
        -11    1    3    3    0    0  0.33012463171E+02  0.36447697035E+02 -0.31851203203E+02  0.58589730239E+02  0.51100000000E-03 0. -1.
         23    2    1    0    0    0  0.38341041960E+01  0.14793627286E+02 -0.25198610232E+02  0.95529307425E+02  0.90869834688E+02 0.  0.
         11    1    3    3    0    0 -0.29178358975E+02 -0.21654069749E+02  0.66525929716E+01  0.36939577186E+02  0.51100000000E-03 0.  1.
         22    1    1    0    0    0 -0.38341041960E+01 -0.14793627286E+02  0.25198610232E+02  0.29470692575E+02  0.00000000000E+00 0. -1.
</event>
<event>
 5    1  0.8778268E-005  0.9118800E+02  0.7818608E-02  0.1130116E+00
         25   -1    0    0    0    0  0.00000000000E+00  0.00000000000E+00  0.99999998245E-14  0.12500000000E+03  0.12500000000E+03 0.  0.
        -11    1    3    3    0    0 -0.28920325843E+02 -0.42504957295E+01  0.20783064246E+02  0.35866247650E+02  0.51100000000E-03 0. -1.
         23    2    1    0    0    0  0.99877160558E+01  0.28444737309E+02 -0.73705955548E+01  0.93964806567E+02  0.88691609760E+02 0.  0.
         11    1    3    3    0    0  0.38908041899E+02  0.32695233038E+02 -0.28153659801E+02  0.58098558917E+02  0.51100000000E-03 0.  1.
         22    1    1    0    0    0 -0.99877160558E+01 -0.28444737309E+02  0.73705955548E+01  0.31035193433E+02  0.00000000000E+00 0.  1.
</event>
<event>
 5    1  0.8778268E-005  0.9118800E+02  0.7818608E-02  0.1130116E+00
         25   -1    0    0    0    0  0.00000000000E+00  0.00000000000E+00  0.99999998245E-14  0.12500000000E+03  0.12500000000E+03 0.  0.
        -11    1    3    3    0    0  0.23786132580E+02 -0.29603880034E+02  0.20599320092E+02  0.43203030041E+02  0.51100000000E-03 0.  1.
         23    2    1    0    0    0 -0.83319062246E+01 -0.20016724575E+02 -0.19759287490E+02  0.95665389620E+02  0.91056836125E+02 0.  0.
         11    1    3    3    0    0 -0.32118038804E+02  0.95871554594E+01 -0.40358607582E+02  0.52462359579E+02  0.51100000000E-03 0. -1.
         22    1    1    0    0    0  0.83319062246E+01  0.20016724575E+02  0.19759287490E+02  0.29334610380E+02  0.00000000000E+00 0. -1.
</event>
<event>
 5    1  0.8778268E-005  0.9118800E+02  0.7818608E-02  0.1130116E+00
         25   -1    0    0    0    0  0.00000000000E+00  0.00000000000E+00  0.99999998245E-14  0.12500000000E+03  0.12500000000E+03 0.  0.
        -11    1    3    3    0    0  0.55373206230E+01 -0.30259875118E+02 -0.28097186700E+02  0.41662619488E+02  0.51100000000E-03 0.  1.
         23    2    1    0    0    0 -0.25764286656E+02  0.92079752634E+01 -0.45660557835E+01  0.97261324099E+02  0.93221944974E+02 0.  0.
         11    1    3    3    0    0 -0.31301607279E+02  0.39467850382E+02  0.23531130917E+02  0.55598704611E+02  0.51100000000E-03 0. -1.
         22    1    1    0    0    0  0.25764286656E+02 -0.92079752634E+01  0.45660557835E+01  0.27738675901E+02  0.00000000000E+00 0. -1.
</event>
<event>
 5    1  0.8778268E-005  0.9118800E+02  0.7818608E-02  0.1130116E+00
         25   -1    0    0    0    0  0.00000000000E+00  0.00000000000E+00  0.99999998245E-14  0.12500000000E+03  0.12500000000E+03 0.  0.
        -11    1    3    3    0    0  0.69275736159E+01  0.20192393657E+02  0.48076436622E+02  0.52602925739E+02  0.51100000000E-03 0. -1.
         23    2    1    0    0    0  0.80642091301E+01 -0.15075655927E+02  0.24810635330E+02  0.94869044224E+02  0.89956995592E+02 0.  0.
         11    1    3    3    0    0  0.11366355142E+01 -0.35268049584E+02 -0.23265801291E+02  0.42266118484E+02  0.51100000000E-03 0.  1.
         22    1    1    0    0    0 -0.80642091301E+01  0.15075655927E+02 -0.24810635330E+02  0.30130955776E+02  0.00000000000E+00 0. -1.
</event>
<event>
 5    1  0.8778268E-005  0.9118800E+02  0.7818608E-02  0.1130116E+00
         25   -1    0    0    0    0  0.00000000000E+00  0.00000000000E+00  0.99999998245E-14  0.12500000000E+03  0.12500000000E+03 0.  0.
        -11    1    3    3    0    0  0.32093867541E+02 -0.33472292821E+02 -0.14140065837E+02  0.48480430924E+02  0.51100000000E-03 0.  1.
         23    2    1    0    0    0  0.20691547855E+02  0.10396067836E+02 -0.20277685550E+02  0.94220089176E+02  0.89050672619E+02 0.  0.
         11    1    3    3    0    0 -0.11402319686E+02  0.43868360657E+02 -0.61376197123E+01  0.45739658252E+02  0.51100000000E-03 0. -1.
         22    1    1    0    0    0 -0.20691547855E+02 -0.10396067836E+02  0.20277685550E+02  0.30779910824E+02  0.00000000000E+00 0. -1.
</event>
<event>
 5    1  0.8778268E-005  0.9118800E+02  0.7818608E-02  0.1130116E+00
         25   -1    0    0    0    0  0.00000000000E+00  0.00000000000E+00  0.99999998245E-14  0.12500000000E+03  0.12500000000E+03 0.  0.
        -11    1    3    3    0    0  0.56840273625E+01  0.31726847075E+02 -0.10596401694E+02  0.33929113185E+02  0.51100000000E-03 0. -1.
         23    2    1    0    0    0 -0.22226342780E+02 -0.63464559840E+01  0.23403487105E+02  0.92106063999E+02  0.86032063789E+02 0.  0.
         11    1    3    3    0    0 -0.27910370143E+02 -0.38073303059E+02  0.33999888800E+02  0.58176950814E+02  0.51100000000E-03 0.  1.
         22    1    1    0    0    0  0.22226342780E+02  0.63464559840E+01 -0.23403487105E+02  0.32893936001E+02  0.00000000000E+00 0.  1.
</event>
<event>
 5    1  0.8778268E-005  0.9118800E+02  0.7818608E-02  0.1130116E+00
         25   -1    0    0    0    0  0.00000000000E+00  0.00000000000E+00  0.99999998245E-14  0.12500000000E+03  0.12500000000E+03 0.  0.
        -11    1    3    3    0    0 -0.95293134790E+01  0.14450506063E+02  0.59904530760E+02  0.62355254363E+02  0.51100000000E-03 0. -1.
         23    2    1    0    0    0 -0.62179701416E+01  0.82222632513E+01  0.25133513521E+02  0.97834539070E+02  0.93987418134E+02 0.  0.
         11    1    3    3    0    0  0.33113433374E+01 -0.62282428118E+01 -0.34771017239E+02  0.35479284707E+02  0.51100000000E-03 0.  1.
         22    1    1    0    0    0  0.62179701416E+01 -0.82222632513E+01 -0.25133513521E+02  0.27165460930E+02  0.00000000000E+00 0. -1.
</event>
<event>
 5    1  0.8778268E-005  0.9118800E+02  0.7818608E-02  0.1130116E+00
         25   -1    0    0    0    0  0.00000000000E+00  0.00000000000E+00  0.99999998245E-14  0.12500000000E+03  0.12500000000E+03 0.  0.
        -11    1    3    3    0    0 -0.23337374404E+02 -0.10797451847E+02  0.30854211997E+02  0.40164666172E+02  0.51100000000E-03 0. -1.
         23    2    1    0    0    0  0.53506029733E+01  0.29029859682E+02  0.73814180755E+01  0.94572265314E+02  0.89543655992E+02 0.  0.
         11    1    3    3    0    0  0.28687977377E+02  0.39827311529E+02 -0.23472793922E+02  0.54407599142E+02  0.51100000000E-03 0.  1.
         22    1    1    0    0    0 -0.53506029733E+01 -0.29029859682E+02 -0.73814180755E+01  0.30427734686E+02  0.00000000000E+00 0.  1.
</event>
<event>
 5    1  0.8778268E-005  0.9118800E+02  0.7818608E-02  0.1130116E+00
         25   -1    0    0    0    0  0.00000000000E+00  0.00000000000E+00  0.99999998245E-14  0.12500000000E+03  0.12500000000E+03 0.  0.
        -11    1    3    3    0    0  0.26018181795E+02 -0.19498551999E+02  0.30758974324E+02  0.44757723531E+02  0.51100000000E-03 0.  1.
         23    2    1    0    0    0 -0.22531377813E+02 -0.77627771022E+01  0.13543938916E+02  0.97589017240E+02  0.93660313421E+02 0.  0.
         11    1    3    3    0    0 -0.48549559608E+02  0.11735774897E+02 -0.17215035408E+02  0.52831293709E+02  0.51100000000E-03 0. -1.
         22    1    1    0    0    0  0.22531377813E+02  0.77627771022E+01 -0.13543938916E+02  0.27410982760E+02  0.00000000000E+00 0.  1.
</event>
<event>
 5    1  0.8778268E-005  0.9118800E+02  0.7818608E-02  0.1130116E+00
         25   -1    0    0    0    0  0.00000000000E+00  0.00000000000E+00  0.99999998245E-14  0.12500000000E+03  0.12500000000E+03 0.  0.
        -11    1    3    3    0    0 -0.36633671455E+02 -0.27835760947E+02 -0.29384587168E+01  0.46103036903E+02  0.51100000000E-03 0. -1.
         23    2    1    0    0    0 -0.14754387843E+02  0.10331835284E+02  0.21915625275E+02  0.96632176464E+02  0.92374477623E+02 0.  0.
         11    1    3    3    0    0  0.21879283612E+02  0.38167596231E+02  0.24854083992E+02  0.50529139561E+02  0.51100000000E-03 0.  1.
         22    1    1    0    0    0  0.14754387843E+02 -0.10331835284E+02 -0.21915625275E+02  0.28367823536E+02  0.00000000000E+00 0.  1.
</event>
<event>
 5    1  0.8778268E-005  0.9118800E+02  0.7818608E-02  0.1130116E+00
         25   -1    0    0    0    0  0.00000000000E+00  0.00000000000E+00  0.99999998245E-14  0.12500000000E+03  0.12500000000E+03 0.  0.
        -11    1    3    3    0    0 -0.13315720263E+02  0.33770195572E+02 -0.99533546292E+01  0.37640454085E+02  0.51100000000E-03 0.  1.
         23    2    1    0    0    0 -0.16026251430E+02 -0.21307910516E+02  0.10343395505E+02  0.96401859920E+02  0.92062288588E+02 0.  0.
         11    1    3    3    0    0 -0.27105311676E+01 -0.55078106088E+02  0.20296750135E+02  0.58761405835E+02  0.51100000000E-03 0. -1.
         22    1    1    0    0    0  0.16026251430E+02  0.21307910516E+02 -0.10343395505E+02  0.28598140080E+02  0.00000000000E+00 0. -1.
</event>
<event>
 5    1  0.8778268E-005  0.9118800E+02  0.7818608E-02  0.1130116E+00
         25   -1    0    0    0    0  0.00000000000E+00  0.00000000000E+00  0.99999998245E-14  0.12500000000E+03  0.12500000000E+03 0.  0.
        -11    1    3    3    0    0 -0.21330317709E+02 -0.88857308698E+01 -0.32047950434E+02  0.39509616474E+02  0.51100000000E-03 0. -1.
         23    2    1    0    0    0  0.22770345758E+02 -0.18643843949E+02  0.11236636247E+01  0.95549292317E+02  0.90897321628E+02 0.  0.
         11    1    3    3    0    0  0.44100663466E+02 -0.97581130790E+01  0.33171614059E+02  0.56039675843E+02  0.51100000000E-03 0.  1.
         22    1    1    0    0    0 -0.22770345758E+02  0.18643843949E+02 -0.11236636247E+01  0.29450707683E+02  0.00000000000E+00 0. -1.
</event>
<event>
 5    1  0.8778268E-005  0.9118800E+02  0.7818608E-02  0.1130116E+00
         25   -1    0    0    0    0  0.00000000000E+00  0.00000000000E+00  0.99999998245E-14  0.12500000000E+03  0.12500000000E+03 0.  0.
        -11    1    3    3    0    0  0.15100965547E+01 -0.22728382143E+02  0.10070852165E+02  0.24905457434E+02  0.51100000000E-03 0. -1.
         23    2    1    0    0    0 -0.12549916903E+01  0.38153743728E+02 -0.82517925152E+00  0.86816704105E+02  0.77969070960E+02 0.  0.
         11    1    3    3    0    0 -0.27650882450E+01  0.60882125870E+02 -0.10896031417E+02  0.61911246671E+02  0.51100000000E-03 0.  1.
         22    1    1    0    0    0  0.12549916903E+01 -0.38153743728E+02  0.82517925152E+00  0.38183295895E+02  0.00000000000E+00 0.  1.
</event>
<event>
 5    1  0.8778268E-005  0.9118800E+02  0.7818608E-02  0.1130116E+00
         25   -1    0    0    0    0  0.00000000000E+00  0.00000000000E+00  0.99999998245E-14  0.12500000000E+03  0.12500000000E+03 0.  0.
        -11    1    3    3    0    0 -0.22580969833E+02 -0.19607713795E+01 -0.15576583312E+02  0.27502268469E+02  0.51100000000E-03 0. -1.
         23    2    1    0    0    0  0.32962742452E+02  0.16990904810E+02 -0.10754404667E+02  0.86387949342E+02  0.77278634406E+02 0.  0.
         11    1    3    3    0    0  0.55543712285E+02  0.18951676189E+02  0.48221786457E+01  0.58885680874E+02  0.51100000000E-03 0.  1.
         22    1    1    0    0    0 -0.32962742452E+02 -0.16990904810E+02  0.10754404667E+02  0.38612050658E+02  0.00000000000E+00 0.  1.
</event>
<event>
 5    1  0.8778268E-005  0.9118800E+02  0.7818608E-02  0.1130116E+00
         25   -1    0    0    0    0  0.00000000000E+00  0.00000000000E+00  0.99999998245E-14  0.12500000000E+03  0.12500000000E+03 0.  0.
        -11    1    3    3    0    0  0.38127777234E+02  0.27080595860E+02 -0.27342626788E+02  0.54172920439E+02  0.51100000000E-03 0.  1.
         23    2    1    0    0    0  0.10837055712E+02  0.22601812820E+00 -0.30539519045E+02  0.92593903595E+02  0.86737972646E+02 0.  0.
         11    1    3    3    0    0 -0.27290721522E+02 -0.26854577732E+02 -0.31968922574E+01  0.38420983156E+02  0.51100000000E-03 0. -1.
         22    1    1    0    0    0 -0.10837055712E+02 -0.22601812820E+00  0.30539519045E+02  0.32406096405E+02  0.00000000000E+00 0.  1.
</event>
<event>
 5    1  0.8778268E-005  0.9118800E+02  0.7818608E-02  0.1130116E+00
         25   -1    0    0    0    0  0.00000000000E+00  0.00000000000E+00  0.99999998245E-14  0.12500000000E+03  0.12500000000E+03 0.  0.
        -11    1    3    3    0    0 -0.30549534743E+02  0.17507947230E+02 -0.46984497696E+02  0.58714098079E+02  0.51100000000E-03 0. -1.
         23    2    1    0    0    0 -0.20958412062E+02  0.18171010984E+02 -0.12389615716E+02  0.94620018862E+02  0.89610293580E+02 0.  0.
         11    1    3    3    0    0  0.95911226808E+01  0.66306375431E+00  0.34594881980E+02  0.35905920783E+02  0.51100000000E-03 0.  1.
         22    1    1    0    0    0  0.20958412062E+02 -0.18171010984E+02  0.12389615716E+02  0.30379981138E+02  0.00000000000E+00 0. -1.
</event>
<event>
 5    1  0.8778268E-005  0.9118800E+02  0.7818608E-02  0.1130116E+00
         25   -1    0    0    0    0  0.00000000000E+00  0.00000000000E+00  0.99999998245E-14  0.12500000000E+03  0.12500000000E+03 0.  0.
        -11    1    3    3    0    0  0.28403672953E+02 -0.31684279281E+02  0.20340842922E+02  0.47163673328E+02  0.51100000000E-03 0.  1.
         23    2    1    0    0    0  0.16978759669E+02 -0.93758263198E+01 -0.21566905221E+02  0.95994555685E+02  0.91507589419E+02 0.  0.
         11    1    3    3    0    0 -0.11424913284E+02  0.22308452961E+02 -0.41907748143E+02  0.48830882357E+02  0.51100000000E-03 0. -1.
         22    1    1    0    0    0 -0.16978759669E+02  0.93758263198E+01  0.21566905221E+02  0.29005444315E+02  0.00000000000E+00 0. -1.
</event>
<event>
 5    1  0.8778268E-005  0.9118800E+02  0.7818608E-02  0.1130116E+00
         25   -1    0    0    0    0  0.00000000000E+00  0.00000000000E+00  0.99999998245E-14  0.12500000000E+03  0.12500000000E+03 0.  0.
        -11    1    3    3    0    0  0.32824531527E+02  0.14921766918E+02 -0.48330432278E+01  0.36379490170E+02  0.51100000000E-03 0.  1.
         23    2    1    0    0    0 -0.31189580192E+01 -0.58725169640E+01 -0.36057630012E+02  0.88334388909E+02  0.80365398196E+02 0.  0.
         11    1    3    3    0    0 -0.35943489546E+02 -0.20794283882E+02 -0.31224586784E+02  0.51954898739E+02  0.51100000000E-03 0. -1.
         22    1    1    0    0    0  0.31189580192E+01  0.58725169640E+01  0.36057630012E+02  0.36665611091E+02  0.00000000000E+00 0. -1.
</event>
<event>
 5    1  0.8778268E-005  0.9118800E+02  0.7818608E-02  0.1130116E+00
         25   -1    0    0    0    0  0.00000000000E+00  0.00000000000E+00  0.99999998245E-14  0.12500000000E+03  0.12500000000E+03 0.  0.
        -11    1    3    3    0    0  0.32054214659E+02  0.15827982014E+02  0.11432847165E+02  0.37532754850E+02  0.51100000000E-03 0.  1.
         23    2    1    0    0    0 -0.29265778475E+01 -0.25767369938E+02 -0.11637211532E+02  0.96575593170E+02  0.92297878050E+02 0.  0.
         11    1    3    3    0    0 -0.34980792507E+02 -0.41595351951E+02 -0.23070058697E+02  0.59042838320E+02  0.51100000000E-03 0. -1.
         22    1    1    0    0    0  0.29265778475E+01  0.25767369938E+02  0.11637211532E+02  0.28424406830E+02  0.00000000000E+00 0. -1.
</event>
<event>
 5    1  0.8778268E-005  0.9118800E+02  0.7818608E-02  0.1130116E+00
         25   -1    0    0    0    0  0.00000000000E+00  0.00000000000E+00  0.99999998245E-14  0.12500000000E+03  0.12500000000E+03 0.  0.
        -11    1    3    3    0    0 -0.19853092021E+02 -0.13864746022E+02 -0.30497217884E+02  0.38941709567E+02  0.51100000000E-03 0.  1.
         23    2    1    0    0    0  0.16326524985E+02 -0.21921427727E+02  0.11840747620E+02  0.95212289180E+02  0.90432694835E+02 0.  0.
         11    1    3    3    0    0  0.36179617005E+02 -0.80566817052E+01  0.42337965504E+02  0.56270579613E+02  0.51100000000E-03 0. -1.
         22    1    1    0    0    0 -0.16326524985E+02  0.21921427727E+02 -0.11840747620E+02  0.29787710820E+02  0.00000000000E+00 0. -1.
</event>
<event>
 5    1  0.8778268E-005  0.9118800E+02  0.7818608E-02  0.1130116E+00
         25   -1    0    0    0    0  0.00000000000E+00  0.00000000000E+00  0.99999998245E-14  0.12500000000E+03  0.12500000000E+03 0.  0.
        -11    1    3    3    0    0  0.33210748399E+02 -0.40323472943E+02 -0.27237524793E+02  0.58913657470E+02  0.51100000000E-03 0. -1.
         23    2    1    0    0    0  0.19432725214E+02 -0.60717669470E+01 -0.19851955977E+02  0.96564154325E+02  0.92282385000E+02 0.  0.
         11    1    3    3    0    0 -0.13778023185E+02  0.34251705996E+02  0.73855688153E+01  0.37650496856E+02  0.51100000000E-03 0.  1.
         22    1    1    0    0    0 -0.19432725214E+02  0.60717669470E+01  0.19851955977E+02  0.28435845675E+02  0.00000000000E+00 0. -1.
</event>
<event>
 5    1  0.8778268E-005  0.9118800E+02  0.7818608E-02  0.1130116E+00
         25   -1    0    0    0    0  0.00000000000E+00  0.00000000000E+00  0.99999998245E-14  0.12500000000E+03  0.12500000000E+03 0.  0.
        -11    1    3    3    0    0 -0.30698464625E+02 -0.47375199926E+02 -0.24370340310E+02  0.61487549841E+02  0.51100000000E-03 0.  1.
         23    2    1    0    0    0 -0.20426573096E+02 -0.19269458148E+02 -0.71101044753E+01  0.96032596053E+02  0.91559538079E+02 0.  0.
         11    1    3    3    0    0  0.10271891529E+02  0.28105741778E+02  0.17260235835E+02  0.34545046212E+02  0.51100000000E-03 0. -1.
         22    1    1    0    0    0  0.20426573096E+02  0.19269458148E+02  0.71101044753E+01  0.28967403947E+02  0.00000000000E+00 0.  1.
</event>
<event>
 5    1  0.8778268E-005  0.9118800E+02  0.7818608E-02  0.1130116E+00
         25   -1    0    0    0    0  0.00000000000E+00  0.00000000000E+00  0.99999998245E-14  0.12500000000E+03  0.12500000000E+03 0.  0.
        -11    1    3    3    0    0  0.13971259171E+02 -0.33605480313E+02  0.13046553880E+02  0.38661828182E+02  0.51100000000E-03 0.  1.
         23    2    1    0    0    0  0.59989764824E+01  0.25147137767E+02  0.67108598911E+01  0.98290415631E+02  0.94591775053E+02 0.  0.
         11    1    3    3    0    0 -0.79722826890E+01  0.58752618080E+02 -0.63356939893E+01  0.59628587449E+02  0.51100000000E-03 0. -1.
         22    1    1    0    0    0 -0.59989764824E+01 -0.25147137767E+02 -0.67108598911E+01  0.26709584369E+02  0.00000000000E+00 0. -1.
</event>
<event>
 5    1  0.8778268E-005  0.9118800E+02  0.7818608E-02  0.1130116E+00
         25   -1    0    0    0    0  0.00000000000E+00  0.00000000000E+00  0.99999998245E-14  0.12500000000E+03  0.12500000000E+03 0.  0.
        -11    1    3    3    0    0 -0.13248617631E+02  0.30200852548E+02 -0.23064178365E+02  0.40243927339E+02  0.51100000000E-03 0.  1.
         23    2    1    0    0    0  0.30729556316E+02  0.88519295511E+01 -0.14552052222E+02  0.89865622077E+02  0.82712789333E+02 0.  0.
         11    1    3    3    0    0  0.43978173947E+02 -0.21348922997E+02  0.85121261428E+01  0.49621694737E+02  0.51100000000E-03 0. -1.
         22    1    1    0    0    0 -0.30729556316E+02 -0.88519295511E+01  0.14552052222E+02  0.35134377923E+02  0.00000000000E+00 0. -1.
</event>
<event>
 5    1  0.8778268E-005  0.9118800E+02  0.7818608E-02  0.1130116E+00
         25   -1    0    0    0    0  0.00000000000E+00  0.00000000000E+00  0.99999998245E-14  0.12500000000E+03  0.12500000000E+03 0.  0.
        -11    1    3    3    0    0  0.10325272120E+02 -0.39132051809E+02 -0.10181665711E+02  0.41732421929E+02  0.51100000000E-03 0. -1.
         23    2    1    0    0    0  0.65583657565E+01  0.10051884529E+02 -0.28282187385E+02  0.94276480227E+02  0.89129793317E+02 0.  0.
         11    1    3    3    0    0 -0.37669063634E+01  0.49183936338E+02 -0.18100521674E+02  0.52544058298E+02  0.51100000000E-03 0.  1.
         22    1    1    0    0    0 -0.65583657565E+01 -0.10051884529E+02  0.28282187385E+02  0.30723519773E+02  0.00000000000E+00 0.  1.
</event>
<event>
 5    1  0.8778268E-005  0.9118800E+02  0.7818608E-02  0.1130116E+00
         25   -1    0    0    0    0  0.00000000000E+00  0.00000000000E+00  0.99999998245E-14  0.12500000000E+03  0.12500000000E+03 0.  0.
        -11    1    3    3    0    0  0.13587936465E+02  0.49527099870E+02 -0.21052782176E+01  0.51400368049E+02  0.51100000000E-03 0.  1.
         23    2    1    0    0    0  0.23707321380E+02  0.46484224096E+01 -0.11321799484E+02  0.98319893901E+02  0.94630721625E+02 0.  0.
         11    1    3    3    0    0  0.10119384915E+02 -0.44878677461E+02 -0.92165212660E+01  0.46919525852E+02  0.51100000000E-03 0. -1.
         22    1    1    0    0    0 -0.23707321380E+02 -0.46484224096E+01  0.11321799484E+02  0.26680106099E+02  0.00000000000E+00 0.  1.
</event>
<event>
 5    1  0.8778268E-005  0.9118800E+02  0.7818608E-02  0.1130116E+00
         25   -1    0    0    0    0  0.00000000000E+00  0.00000000000E+00  0.99999998245E-14  0.12500000000E+03  0.12500000000E+03 0.  0.
        -11    1    3    3    0    0 -0.10989337434E+02 -0.45006143588E+02  0.70510158419E+01  0.46861874937E+02  0.51100000000E-03 0.  1.
         23    2    1    0    0    0 -0.21673848275E+01 -0.16257871544E+02 -0.27694280900E+02  0.92813214844E+02  0.87053453183E+02 0.  0.
         11    1    3    3    0    0  0.88219526062E+01  0.28748272045E+02 -0.34745296742E+02  0.45951339907E+02  0.51100000000E-03 0. -1.
         22    1    1    0    0    0  0.21673848275E+01  0.16257871544E+02  0.27694280900E+02  0.32186785156E+02  0.00000000000E+00 0.  1.
</event>
<event>
 5    1  0.8778268E-005  0.9118800E+02  0.7818608E-02  0.1130116E+00
         25   -1    0    0    0    0  0.00000000000E+00  0.00000000000E+00  0.99999998245E-14  0.12500000000E+03  0.12500000000E+03 0.  0.
        -11    1    3    3    0    0 -0.15979690751E+02 -0.44509509253E+02 -0.30975054635E+01  0.47392419972E+02  0.51100000000E-03 0.  1.
         23    2    1    0    0    0  0.23209150809E+02 -0.10833091186E+02 -0.40323686662E+01  0.99071626681E+02  0.95618547732E+02 0.  0.
         11    1    3    3    0    0  0.39188841560E+02  0.33676418067E+02 -0.93486320274E+00  0.51679206709E+02  0.51100000000E-03 0. -1.
         22    1    1    0    0    0 -0.23209150809E+02  0.10833091186E+02  0.40323686662E+01  0.25928373319E+02  0.00000000000E+00 0. -1.
</event>
<event>
 5    1  0.8778268E-005  0.9118800E+02  0.7818608E-02  0.1130116E+00
         25   -1    0    0    0    0  0.00000000000E+00  0.00000000000E+00  0.99999998245E-14  0.12500000000E+03  0.12500000000E+03 0.  0.
        -11    1    3    3    0    0 -0.22757858613E+02 -0.19382684588E+02 -0.54729736005E+02  0.62361467221E+02  0.51100000000E-03 0. -1.
         23    2    1    0    0    0 -0.13210301168E+02 -0.87350500539E+01 -0.24147401207E+02  0.96122497659E+02  0.91682192463E+02 0.  0.
         11    1    3    3    0    0  0.95475574451E+01  0.10647634534E+02  0.30582334797E+02  0.33761030438E+02  0.51100000000E-03 0.  1.
         22    1    1    0    0    0  0.13210301168E+02  0.87350500539E+01  0.24147401207E+02  0.28877502341E+02  0.00000000000E+00 0. -1.
</event>
<event>
 5    1  0.8778268E-005  0.9118800E+02  0.7818608E-02  0.1130116E+00
         25   -1    0    0    0    0  0.00000000000E+00  0.00000000000E+00  0.99999998245E-14  0.12500000000E+03  0.12500000000E+03 0.  0.
        -11    1    3    3    0    0  0.37355759739E+02 -0.67014526841E+01 -0.14957462629E+02  0.40793234026E+02  0.51100000000E-03 0.  1.
         23    2    1    0    0    0  0.26657855115E+01  0.27314488479E+02  0.10466011170E+02  0.95627817870E+02  0.91005244176E+02 0.  0.
         11    1    3    3    0    0 -0.34689974227E+02  0.34015941163E+02  0.25423473799E+02  0.54834583844E+02  0.51100000000E-03 0. -1.
         22    1    1    0    0    0 -0.26657855115E+01 -0.27314488479E+02 -0.10466011170E+02  0.29372182130E+02  0.00000000000E+00 0. -1.
</event>
<event>
 5    1  0.8778268E-005  0.9118800E+02  0.7818608E-02  0.1130116E+00
         25   -1    0    0    0    0  0.00000000000E+00  0.00000000000E+00  0.99999998245E-14  0.12500000000E+03  0.12500000000E+03 0.  0.
        -11    1    3    3    0    0  0.78983564768E+00 -0.40235783098E+02 -0.40301557965E+02  0.56953995966E+02  0.51100000000E-03 0.  1.
         23    2    1    0    0    0 -0.30166706270E+01 -0.70004986303E+01 -0.32916965215E+02  0.91211926931E+02  0.84722970514E+02 0.  0.
         11    1    3    3    0    0 -0.38065062746E+01  0.33235284467E+02  0.73845927498E+01  0.34257930965E+02  0.51100000000E-03 0. -1.
         22    1    1    0    0    0  0.30166706270E+01  0.70004986303E+01  0.32916965215E+02  0.33788073069E+02  0.00000000000E+00 0.  1.
</event>
<event>
 5    1  0.8778268E-005  0.9118800E+02  0.7818608E-02  0.1130116E+00
         25   -1    0    0    0    0  0.00000000000E+00  0.00000000000E+00  0.99999998245E-14  0.12500000000E+03  0.12500000000E+03 0.  0.
        -11    1    3    3    0    0  0.98398703719E+01 -0.41791473633E+02 -0.20413679026E+02  0.47540178891E+02  0.51100000000E-03 0.  1.
         23    2    1    0    0    0 -0.17250121482E+02 -0.25258714357E+02  0.11286869385E+02  0.92396890292E+02  0.86453586235E+02 0.  0.
         11    1    3    3    0    0 -0.27089991854E+02  0.16532759276E+02  0.31700548411E+02  0.44856711401E+02  0.51100000000E-03 0. -1.
         22    1    1    0    0    0  0.17250121482E+02  0.25258714357E+02 -0.11286869385E+02  0.32603109708E+02  0.00000000000E+00 0.  1.
</event>
<event>
 5    1  0.8778268E-005  0.9118800E+02  0.7818608E-02  0.1130116E+00
         25   -1    0    0    0    0  0.00000000000E+00  0.00000000000E+00  0.99999998245E-14  0.12500000000E+03  0.12500000000E+03 0.  0.
        -11    1    3    3    0    0 -0.18249648124E+02 -0.27286336161E+02  0.29385799930E+01  0.32957989174E+02  0.51100000000E-03 0. -1.
         23    2    1    0    0    0 -0.24597641778E+01  0.31132341620E+02 -0.22160925018E+01  0.93692106419E+02  0.88306435805E+02 0.  0.
         11    1    3    3    0    0  0.15789883946E+02  0.58418677781E+02 -0.51546724948E+01  0.60734117245E+02  0.51100000000E-03 0.  1.
         22    1    1    0    0    0  0.24597641778E+01 -0.31132341620E+02  0.22160925018E+01  0.31307893581E+02  0.00000000000E+00 0.  1.
</event>
<event>
 5    1  0.8778268E-005  0.9118800E+02  0.7818608E-02  0.1130116E+00
         25   -1    0    0    0    0  0.00000000000E+00  0.00000000000E+00  0.99999998245E-14  0.12500000000E+03  0.12500000000E+03 0.  0.
        -11    1    3    3    0    0 -0.44460889306E+02 -0.28348723491E+02 -0.98184979509E+01  0.53636029903E+02  0.51100000000E-03 0. -1.
         23    2    1    0    0    0 -0.37419254309E+01 -0.27713004682E+02  0.42350221383E+01  0.96716647176E+02  0.92488711711E+02 0.  0.
         11    1    3    3    0    0  0.40718963875E+02  0.63571880876E+00  0.14053520089E+02  0.43080617273E+02  0.51100000000E-03 0.  1.
         22    1    1    0    0    0  0.37419254309E+01  0.27713004682E+02 -0.42350221383E+01  0.28283352824E+02  0.00000000000E+00 0. -1.
</event>
<event>
 5    1  0.8778268E-005  0.9118800E+02  0.7818608E-02  0.1130116E+00
         25   -1    0    0    0    0  0.00000000000E+00  0.00000000000E+00  0.99999998245E-14  0.12500000000E+03  0.12500000000E+03 0.  0.
        -11    1    3    3    0    0 -0.15731913736E+02  0.26401322828E+02 -0.17206739599E+02  0.35222078938E+02  0.51100000000E-03 0. -1.
         23    2    1    0    0    0  0.48004029208E+01 -0.28739209311E+02 -0.33520981606E+01  0.95670448655E+02  0.91063780746E+02 0.  0.
         11    1    3    3    0    0  0.20532316657E+02 -0.55140532138E+02  0.13854641438E+02  0.60448369717E+02  0.51100000000E-03 0.  1.
         22    1    1    0    0    0 -0.48004029208E+01  0.28739209311E+02  0.33520981606E+01  0.29329551345E+02  0.00000000000E+00 0.  1.
</event>
<event>
 5    1  0.8778268E-005  0.9118800E+02  0.7818608E-02  0.1130116E+00
         25   -1    0    0    0    0  0.00000000000E+00  0.00000000000E+00  0.99999998245E-14  0.12500000000E+03  0.12500000000E+03 0.  0.
        -11    1    3    3    0    0  0.33121812501E+02  0.23229529875E+01  0.42964986745E+02  0.54299545672E+02  0.51100000000E-03 0.  1.
         23    2    1    0    0    0 -0.48042722950E+01 -0.58016740750E+01  0.28216239671E+02  0.95795605887E+02  0.91235417858E+02 0.  0.
         11    1    3    3    0    0 -0.37926084796E+02 -0.81246270625E+01 -0.14748747074E+02  0.41496060215E+02  0.51100000000E-03 0. -1.
         22    1    1    0    0    0  0.48042722950E+01  0.58016740750E+01 -0.28216239671E+02  0.29204394113E+02  0.00000000000E+00 0. -1.
</event>
<event>
 5    1  0.8778268E-005  0.9118800E+02  0.7818608E-02  0.1130116E+00
         25   -1    0    0    0    0  0.00000000000E+00  0.00000000000E+00  0.99999998245E-14  0.12500000000E+03  0.12500000000E+03 0.  0.
        -11    1    3    3    0    0 -0.29826789650E+02 -0.70781150179E+00 -0.20169581243E+02  0.36013197383E+02  0.51100000000E-03 0. -1.
         23    2    1    0    0    0  0.23524824286E+02  0.41153072032E+01  0.11763371285E+02  0.98378016320E+02  0.94707465809E+02 0.  0.
         11    1    3    3    0    0  0.53351613936E+02  0.48231187050E+01  0.31932952528E+02  0.62364818937E+02  0.51100000000E-03 0.  1.
         22    1    1    0    0    0 -0.23524824286E+02 -0.41153072032E+01 -0.11763371285E+02  0.26621983680E+02  0.00000000000E+00 0.  1.
</event>
<event>
 5    1  0.8778268E-005  0.9118800E+02  0.7818608E-02  0.1130116E+00
         25   -1    0    0    0    0  0.00000000000E+00  0.00000000000E+00  0.99999998245E-14  0.12500000000E+03  0.12500000000E+03 0.  0.
        -11    1    3    3    0    0  0.28577572434E+02  0.38832636160E+02  0.39142493822E+02  0.62103028109E+02  0.51100000000E-03 0. -1.
         23    2    1    0    0    0  0.88712196694E+01  0.20413703348E+02  0.17490823314E+02  0.96691931839E+02  0.92455302497E+02 0.  0.
         11    1    3    3    0    0 -0.19706352765E+02 -0.18418932812E+02 -0.21651670508E+02  0.34588903730E+02  0.51100000000E-03 0.  1.
         22    1    1    0    0    0 -0.88712196694E+01 -0.20413703348E+02 -0.17490823314E+02  0.28308068161E+02  0.00000000000E+00 0. -1.
</event>
<event>
 5    1  0.8778268E-005  0.9118800E+02  0.7818608E-02  0.1130116E+00
         25   -1    0    0    0    0  0.00000000000E+00  0.00000000000E+00  0.99999998245E-14  0.12500000000E+03  0.12500000000E+03 0.  0.
        -11    1    3    3    0    0 -0.73313521713E+01  0.35683044548E+02 -0.21730283000E+01  0.36493156141E+02  0.51100000000E-03 0. -1.
         23    2    1    0    0    0 -0.79734553496E+01 -0.21342553986E+02 -0.18320558792E+02  0.95764345820E+02  0.91192578947E+02 0.  0.
         11    1    3    3    0    0 -0.64210317831E+00 -0.57025598534E+02 -0.16147530492E+02  0.59271189679E+02  0.51100000000E-03 0.  1.
         22    1    1    0    0    0  0.79734553496E+01  0.21342553986E+02  0.18320558792E+02  0.29235654180E+02  0.00000000000E+00 0.  1.
</event>
<event>
 5    1  0.8778268E-005  0.9118800E+02  0.7818608E-02  0.1130116E+00
         25   -1    0    0    0    0  0.00000000000E+00  0.00000000000E+00  0.99999998245E-14  0.12500000000E+03  0.12500000000E+03 0.  0.
        -11    1    3    3    0    0  0.31242924272E+02 -0.44707551516E+01  0.25448212291E+01  0.31663608197E+02  0.51100000000E-03 0. -1.
         23    2    1    0    0    0 -0.21179630977E+02 -0.15483683257E+02 -0.22164598859E+02  0.90654830644E+02  0.83897006269E+02 0.  0.
         11    1    3    3    0    0 -0.52422555250E+02 -0.11012928105E+02 -0.24709420088E+02  0.58991222446E+02  0.51100000000E-03 0.  1.
         22    1    1    0    0    0  0.21179630977E+02  0.15483683257E+02  0.22164598859E+02  0.34345169356E+02  0.00000000000E+00 0.  1.
</event>
<event>
 5    1  0.8778268E-005  0.9118800E+02  0.7818608E-02  0.1130116E+00
         25   -1    0    0    0    0  0.00000000000E+00  0.00000000000E+00  0.99999998245E-14  0.12500000000E+03  0.12500000000E+03 0.  0.
        -11    1    3    3    0    0 -0.42336722087E+02  0.22146982852E+02  0.24290104308E+02  0.53599403486E+02  0.51100000000E-03 0. -1.
         23    2    1    0    0    0 -0.24907743776E+02 -0.12650203356E+02  0.69095117545E+01  0.96222149183E+02  0.91817957371E+02 0.  0.
         11    1    3    3    0    0  0.17428978312E+02 -0.34797186208E+02 -0.17380592554E+02  0.42622745697E+02  0.51100000000E-03 0.  1.
         22    1    1    0    0    0  0.24907743776E+02  0.12650203356E+02 -0.69095117545E+01  0.28777850817E+02  0.00000000000E+00 0. -1.
</event>
<event>
 5    1  0.8778268E-005  0.9118800E+02  0.7818608E-02  0.1130116E+00
         25   -1    0    0    0    0  0.00000000000E+00  0.00000000000E+00  0.99999998245E-14  0.12500000000E+03  0.12500000000E+03 0.  0.
        -11    1    3    3    0    0 -0.11768702993E+01 -0.53313506174E+02  0.84395191263E+00  0.53333171848E+02  0.51100000000E-03 0. -1.
         23    2    1    0    0    0 -0.74125231164E+01 -0.16130083104E+02  0.22130194468E+02  0.96629758776E+02  0.92371205979E+02 0.  0.
         11    1    3    3    0    0 -0.62356528171E+01  0.37183423070E+02  0.21286242555E+02  0.43296586928E+02  0.51100000000E-03 0.  1.
         22    1    1    0    0    0  0.74125231164E+01  0.16130083104E+02 -0.22130194468E+02  0.28370241224E+02  0.00000000000E+00 0. -1.
</event>
<event>
 5    1  0.8778268E-005  0.9118800E+02  0.7818608E-02  0.1130116E+00
         25   -1    0    0    0    0  0.00000000000E+00  0.00000000000E+00  0.99999998245E-14  0.12500000000E+03  0.12500000000E+03 0.  0.
        -11    1    3    3    0    0 -0.14692975972E+02  0.55645065617E+02  0.23382761980E+02  0.62120933899E+02  0.51100000000E-03 0.  1.
         23    2    1    0    0    0 -0.69120860861E+01  0.25366096418E+02  0.54898545805E+01  0.98141960517E+02  0.94395392521E+02 0.  0.
         11    1    3    3    0    0  0.77808898858E+01 -0.30278969199E+02 -0.17892907399E+02  0.36021026618E+02  0.51100000000E-03 0. -1.
         22    1    1    0    0    0  0.69120860861E+01 -0.25366096418E+02 -0.54898545805E+01  0.26858039483E+02  0.00000000000E+00 0.  1.
</event>
<event>
 5    1  0.8778268E-005  0.9118800E+02  0.7818608E-02  0.1130116E+00
         25   -1    0    0    0    0  0.00000000000E+00  0.00000000000E+00  0.99999998245E-14  0.12500000000E+03  0.12500000000E+03 0.  0.
        -11    1    3    3    0    0 -0.53777454736E+02 -0.69719158607E+01 -0.10049254908E+02  0.55150791228E+02  0.51100000000E-03 0. -1.
         23    2    1    0    0    0 -0.17537759253E+02 -0.23450768156E+02 -0.32628504505E+01  0.95535483717E+02  0.90878330361E+02 0.  0.
         11    1    3    3    0    0  0.36239695483E+02 -0.16478852295E+02  0.67864044574E+01  0.40384692489E+02  0.51100000000E-03 0.  1.
         22    1    1    0    0    0  0.17537759253E+02  0.23450768156E+02  0.32628504505E+01  0.29464516283E+02  0.00000000000E+00 0. -1.
</event>
<event>
 5    1  0.8778268E-005  0.9118800E+02  0.7818608E-02  0.1130116E+00
         25   -1    0    0    0    0  0.00000000000E+00  0.00000000000E+00  0.99999998245E-14  0.12500000000E+03  0.12500000000E+03 0.  0.
        -11    1    3    3    0    0 -0.35609758181E+02 -0.37071811316E+02  0.24530902931E+02  0.56957346065E+02  0.51100000000E-03 0.  1.
         23    2    1    0    0    0 -0.73913359867E+01 -0.10187253647E+02  0.26163425252E+02  0.95966626006E+02  0.91469429328E+02 0.  0.
         11    1    3    3    0    0  0.28218422194E+02  0.26884557668E+02  0.16325223209E+01  0.39009279941E+02  0.51100000000E-03 0. -1.
         22    1    1    0    0    0  0.73913359867E+01  0.10187253647E+02 -0.26163425252E+02  0.29033373994E+02  0.00000000000E+00 0.  1.
</event>
<event>
 5    1  0.8778268E-005  0.9118800E+02  0.7818608E-02  0.1130116E+00
         25   -1    0    0    0    0  0.00000000000E+00  0.00000000000E+00  0.99999998245E-14  0.12500000000E+03  0.12500000000E+03 0.  0.
        -11    1    3    3    0    0 -0.49423791647E+02 -0.53101605475E+01 -0.36604548622E+02  0.61731693367E+02  0.51100000000E-03 0.  1.
         23    2    1    0    0    0 -0.27432733583E+02  0.69514101151E+00 -0.12704349342E+02  0.94760314402E+02  0.89805782667E+02 0.  0.
         11    1    3    3    0    0  0.21991058064E+02  0.60053015590E+01  0.23900199281E+02  0.33028621035E+02  0.51100000000E-03 0. -1.
         22    1    1    0    0    0  0.27432733583E+02 -0.69514101151E+00  0.12704349342E+02  0.30239685598E+02  0.00000000000E+00 0.  1.
</event>
<event>
 5    1  0.8778268E-005  0.9118800E+02  0.7818608E-02  0.1130116E+00
         25   -1    0    0    0    0  0.00000000000E+00  0.00000000000E+00  0.99999998245E-14  0.12500000000E+03  0.12500000000E+03 0.  0.
        -11    1    3    3    0    0 -0.11968241725E+02  0.42487830839E+02  0.12428023847E+01  0.44158794565E+02  0.51100000000E-03 0.  1.
         23    2    1    0    0    0  0.27299139835E+02  0.10220401041E+02 -0.52011008499E+01  0.95390017170E+02  0.90678025411E+02 0.  0.
         11    1    3    3    0    0  0.39267381560E+02 -0.32267429799E+02 -0.64439032346E+01  0.51231222604E+02  0.51100000000E-03 0. -1.
         22    1    1    0    0    0 -0.27299139835E+02 -0.10220401041E+02  0.52011008499E+01  0.29609982830E+02  0.00000000000E+00 0. -1.
</event>
<event>
 5    1  0.8778268E-005  0.9118800E+02  0.7818608E-02  0.1130116E+00
         25   -1    0    0    0    0  0.00000000000E+00  0.00000000000E+00  0.99999998245E-14  0.12500000000E+03  0.12500000000E+03 0.  0.
        -11    1    3    3    0    0 -0.30679395438E+02 -0.10106377537E+02 -0.80009808503E+01  0.33277317593E+02  0.51100000000E-03 0.  1.
         23    2    1    0    0    0  0.28586910301E+02  0.64719567041E+01  0.19802428468E+01  0.95622814535E+02  0.90998371599E+02 0.  0.
         11    1    3    3    0    0  0.59266305739E+02  0.16578334241E+02  0.99812236971E+01  0.62345496942E+02  0.51100000000E-03 0. -1.
         22    1    1    0    0    0 -0.28586910301E+02 -0.64719567041E+01 -0.19802428468E+01  0.29377185465E+02  0.00000000000E+00 0. -1.
</event>
<event>
 5    1  0.8778268E-005  0.9118800E+02  0.7818608E-02  0.1130116E+00
         25   -1    0    0    0    0  0.00000000000E+00  0.00000000000E+00  0.99999998245E-14  0.12500000000E+03  0.12500000000E+03 0.  0.
        -11    1    3    3    0    0 -0.44301722160E+02  0.18180048082E+02 -0.29458232780E+02  0.56222275064E+02  0.51100000000E-03 0.  1.
         23    2    1    0    0    0 -0.74117020637E+01  0.12322352383E+02 -0.27906384046E+02  0.93606689148E+02  0.88185442602E+02 0.  0.
         11    1    3    3    0    0  0.36890020097E+02 -0.58576956987E+01  0.15518487342E+01  0.37384414084E+02  0.51100000000E-03 0. -1.
         22    1    1    0    0    0  0.74117020637E+01 -0.12322352383E+02  0.27906384046E+02  0.31393310852E+02  0.00000000000E+00 0.  1.
</event>
<event>
 5    1  0.8778268E-005  0.9118800E+02  0.7818608E-02  0.1130116E+00
         25   -1    0    0    0    0  0.00000000000E+00  0.00000000000E+00  0.99999998245E-14  0.12500000000E+03  0.12500000000E+03 0.  0.
        -11    1    3    3    0    0  0.16168470047E+02  0.28272640389E+02  0.34725168314E+01  0.32753930934E+02  0.51100000000E-03 0.  1.
         23    2    1    0    0    0 -0.10791780439E+02 -0.27872357029E+02  0.17460138876E+01  0.95060404547E+02  0.90222509036E+02 0.  0.
         11    1    3    3    0    0 -0.26960250486E+02 -0.56144997418E+02 -0.17265029437E+01  0.62306473613E+02  0.51100000000E-03 0. -1.
         22    1    1    0    0    0  0.10791780439E+02  0.27872357029E+02 -0.17460138876E+01  0.29939595453E+02  0.00000000000E+00 0. -1.
</event>
<event>
 5    1  0.8778268E-005  0.9118800E+02  0.7818608E-02  0.1130116E+00
         25   -1    0    0    0    0  0.00000000000E+00  0.00000000000E+00  0.99999998245E-14  0.12500000000E+03  0.12500000000E+03 0.  0.
        -11    1    3    3    0    0 -0.22948457783E+02 -0.19934300039E+02 -0.21715475909E+02  0.37357327620E+02  0.51100000000E-03 0.  1.
         23    2    1    0    0    0  0.29103699051E+02 -0.12936756419E+02 -0.34454122302E+01  0.92964772039E+02  0.87270802734E+02 0.  0.
         11    1    3    3    0    0  0.52052156833E+02  0.69975436204E+01  0.18270063679E+02  0.55607444419E+02  0.51100000000E-03 0. -1.
         22    1    1    0    0    0 -0.29103699051E+02  0.12936756419E+02  0.34454122302E+01  0.32035227961E+02  0.00000000000E+00 0. -1.
</event>
<event>
 5    1  0.8778268E-005  0.9118800E+02  0.7818608E-02  0.1130116E+00
         25   -1    0    0    0    0  0.00000000000E+00  0.00000000000E+00  0.99999998245E-14  0.12500000000E+03  0.12500000000E+03 0.  0.
        -11    1    3    3    0    0 -0.27573797805E+02  0.38734534278E+02  0.39265563142E+02  0.61664113715E+02  0.51100000000E-03 0. -1.
         23    2    1    0    0    0 -0.16057201950E+02  0.12503683557E+02  0.11191631956E+02  0.10177440070E+03  0.99088849904E+02 0.  0.
         11    1    3    3    0    0  0.11516595855E+02 -0.26230850721E+02 -0.28073931186E+02  0.40110286986E+02  0.51100000000E-03 0.  1.
         22    1    1    0    0    0  0.16057201950E+02 -0.12503683557E+02 -0.11191631956E+02  0.23225599299E+02  0.00000000000E+00 0. -1.
</event>
<event>
 5    1  0.8778268E-005  0.9118800E+02  0.7818608E-02  0.1130116E+00
         25   -1    0    0    0    0  0.00000000000E+00  0.00000000000E+00  0.99999998245E-14  0.12500000000E+03  0.12500000000E+03 0.  0.
        -11    1    3    3    0    0  0.21696387276E+02  0.23130124872E+02  0.20275619260E+02  0.37640890452E+02  0.51100000000E-03 0.  1.
         23    2    1    0    0    0 -0.12968414131E+02  0.10631616931E+02 -0.24299920739E+02  0.95475481518E+02  0.90795761903E+02 0.  0.
         11    1    3    3    0    0 -0.34664801407E+02 -0.12498507941E+02 -0.44575539999E+02  0.57834591066E+02  0.51100000000E-03 0. -1.
         22    1    1    0    0    0  0.12968414131E+02 -0.10631616931E+02  0.24299920739E+02  0.29524518482E+02  0.00000000000E+00 0. -1.
</event>
<event>
 5    1  0.8778268E-005  0.9118800E+02  0.7818608E-02  0.1130116E+00
         25   -1    0    0    0    0  0.00000000000E+00  0.00000000000E+00  0.99999998245E-14  0.12500000000E+03  0.12500000000E+03 0.  0.
        -11    1    3    3    0    0 -0.41995437746E+02 -0.17777084096E+02 -0.22587809740E+02  0.50890575350E+02  0.51100000000E-03 0.  1.
         23    2    1    0    0    0 -0.14677169782E+02 -0.22666706040E+02  0.12180013628E+02  0.95376502443E+02  0.90659393395E+02 0.  0.
         11    1    3    3    0    0  0.27318267963E+02 -0.48896219441E+01  0.34767823368E+02  0.44485927093E+02  0.51100000000E-03 0. -1.
         22    1    1    0    0    0  0.14677169782E+02  0.22666706040E+02 -0.12180013628E+02  0.29623497557E+02  0.00000000000E+00 0.  1.
</event>
<event>
 5    1  0.8778268E-005  0.9118800E+02  0.7818608E-02  0.1130116E+00
         25   -1    0    0    0    0  0.00000000000E+00  0.00000000000E+00  0.99999998245E-14  0.12500000000E+03  0.12500000000E+03 0.  0.
        -11    1    3    3    0    0 -0.28682287973E+02  0.17844346526E+02  0.23163505267E+02  0.40959032249E+02  0.51100000000E-03 0. -1.
         23    2    1    0    0    0 -0.12368644833E+02 -0.10913458744E+02 -0.22355022371E+02  0.97218099741E+02  0.93163968009E+02 0.  0.
         11    1    3    3    0    0  0.16313643140E+02 -0.28757805270E+02 -0.45518527638E+02  0.56259067492E+02  0.51100000000E-03 0.  1.
         22    1    1    0    0    0  0.12368644833E+02  0.10913458744E+02  0.22355022371E+02  0.27781900259E+02  0.00000000000E+00 0.  1.
</event>
<event>
 5    1  0.8778268E-005  0.9118800E+02  0.7818608E-02  0.1130116E+00
         25   -1    0    0    0    0  0.00000000000E+00  0.00000000000E+00  0.99999998245E-14  0.12500000000E+03  0.12500000000E+03 0.  0.
        -11    1    3    3    0    0 -0.58691058218E+02  0.11673721407E+02 -0.84658369780E+01  0.60436631957E+02  0.51100000000E-03 0.  1.
         23    2    1    0    0    0 -0.84109568203E+01  0.48206553928E+01 -0.98216472158E+01  0.11119972221E+03  0.11034006776E+03 0.  0.
         11    1    3    3    0    0  0.50280101398E+02 -0.68530660145E+01 -0.13558102378E+01  0.50763090253E+02  0.51100000000E-03 0. -1.
         22    1    1    0    0    0  0.84109568203E+01 -0.48206553928E+01  0.98216472158E+01  0.13800277790E+02  0.00000000000E+00 0.  1.
</event>
<event>
 5    1  0.8778268E-005  0.9118800E+02  0.7818608E-02  0.1130116E+00
         25   -1    0    0    0    0  0.00000000000E+00  0.00000000000E+00  0.99999998245E-14  0.12500000000E+03  0.12500000000E+03 0.  0.
        -11    1    3    3    0    0  0.23732611685E+02 -0.23358315440E+02  0.81272762549E+01  0.34276819823E+02  0.51100000000E-03 0.  1.
         23    2    1    0    0    0 -0.11487855449E+02  0.24791245955E+02 -0.88107733770E+01  0.96291004436E+02  0.91911648385E+02 0.  0.
         11    1    3    3    0    0 -0.35220467134E+02  0.48149561395E+02 -0.16938049632E+02  0.62014184613E+02  0.51100000000E-03 0. -1.
         22    1    1    0    0    0  0.11487855449E+02 -0.24791245955E+02  0.88107733770E+01  0.28708995564E+02  0.00000000000E+00 0. -1.
</event>
<event>
 5    1  0.8778268E-005  0.9118800E+02  0.7818608E-02  0.1130116E+00
         25   -1    0    0    0    0  0.00000000000E+00  0.00000000000E+00  0.99999998245E-14  0.12500000000E+03  0.12500000000E+03 0.  0.
        -11    1    3    3    0    0  0.43872391045E+02  0.36616817638E+02  0.12422436795E+02  0.58479868041E+02  0.51100000000E-03 0.  1.
         23    2    1    0    0    0  0.16615917667E+02  0.22063799783E+02 -0.88538237210E+01  0.95994997410E+02  0.91508192816E+02 0.  0.
         11    1    3    3    0    0 -0.27256473378E+02 -0.14553017855E+02 -0.21276260516E+02  0.37515129368E+02  0.51100000000E-03 0. -1.
         22    1    1    0    0    0 -0.16615917667E+02 -0.22063799783E+02  0.88538237210E+01  0.29005002590E+02  0.00000000000E+00 0.  1.
</event>
<event>
 5    1  0.8778268E-005  0.9118800E+02  0.7818608E-02  0.1130116E+00
         25   -1    0    0    0    0  0.00000000000E+00  0.00000000000E+00  0.99999998245E-14  0.12500000000E+03  0.12500000000E+03 0.  0.
        -11    1    3    3    0    0  0.20711851631E+02 -0.22379082853E+02 -0.13940688727E+02  0.33528300729E+02  0.51100000000E-03 0.  1.
         23    2    1    0    0    0 -0.21066803940E+02  0.91811540354E+01  0.18823801272E+02  0.95294119909E+02  0.90545734175E+02 0.  0.
         11    1    3    3    0    0 -0.41778655572E+02  0.31560236888E+02  0.32764489999E+02  0.61765819180E+02  0.51100000000E-03 0. -1.
         22    1    1    0    0    0  0.21066803940E+02 -0.91811540354E+01 -0.18823801272E+02  0.29705880091E+02  0.00000000000E+00 0. -1.
</event>
<event>
 5    1  0.8778268E-005  0.9118800E+02  0.7818608E-02  0.1130116E+00
         25   -1    0    0    0    0  0.00000000000E+00  0.00000000000E+00  0.99999998245E-14  0.12500000000E+03  0.12500000000E+03 0.  0.
        -11    1    3    3    0    0 -0.34608760271E+02 -0.19568993836E+02  0.22849405961E+02  0.45856375350E+02  0.51100000000E-03 0.  1.
         23    2    1    0    0    0  0.20147501982E+01  0.15272945344E+02  0.24072020374E+02  0.96420562589E+02  0.92087679128E+02 0.  0.
         11    1    3    3    0    0  0.36623510469E+02  0.34841939179E+02  0.12226144128E+01  0.50564187239E+02  0.51100000000E-03 0. -1.
         22    1    1    0    0    0 -0.20147501982E+01 -0.15272945344E+02 -0.24072020374E+02  0.28579437411E+02  0.00000000000E+00 0.  1.
</event>
<event>
 5    1  0.8778268E-005  0.9118800E+02  0.7818608E-02  0.1130116E+00
         25   -1    0    0    0    0  0.00000000000E+00  0.00000000000E+00  0.99999998245E-14  0.12500000000E+03  0.12500000000E+03 0.  0.
        -11    1    3    3    0    0 -0.27619471381E+02  0.29384576851E+02  0.23270085930E+02  0.46559482982E+02  0.51100000000E-03 0.  1.
         23    2    1    0    0    0 -0.23393674472E+02 -0.16340994626E+02  0.47612287454E+01  0.96069714661E+02  0.91610199570E+02 0.  0.
         11    1    3    3    0    0  0.42257969095E+01 -0.45725571476E+02 -0.18508857185E+02  0.49510231679E+02  0.51100000000E-03 0. -1.
         22    1    1    0    0    0  0.23393674472E+02  0.16340994626E+02 -0.47612287454E+01  0.28930285339E+02  0.00000000000E+00 0.  1.
</event>
<event>
 5    1  0.8778268E-005  0.9118800E+02  0.7818608E-02  0.1130116E+00
         25   -1    0    0    0    0  0.00000000000E+00  0.00000000000E+00  0.99999998245E-14  0.12500000000E+03  0.12500000000E+03 0.  0.
        -11    1    3    3    0    0 -0.58247487850E+02 -0.11571720404E+02 -0.11064464533E+02  0.60407755541E+02  0.51100000000E-03 0. -1.
         23    2    1    0    0    0 -0.31555726997E+02 -0.50362324896E+01  0.56172508472E+01  0.92554953367E+02  0.86681822441E+02 0.  0.
         11    1    3    3    0    0  0.26691760853E+02  0.65354879139E+01  0.16681715380E+02  0.32147197825E+02  0.51100000000E-03 0.  1.
         22    1    1    0    0    0  0.31555726997E+02  0.50362324896E+01 -0.56172508472E+01  0.32445046633E+02  0.00000000000E+00 0. -1.
</event>
<event>
 5    1  0.8778268E-005  0.9118800E+02  0.7818608E-02  0.1130116E+00
         25   -1    0    0    0    0  0.00000000000E+00  0.00000000000E+00  0.99999998245E-14  0.12500000000E+03  0.12500000000E+03 0.  0.
        -11    1    3    3    0    0 -0.75962809095E+00  0.29370298350E+02  0.29475536413E+02  0.41617288561E+02  0.51100000000E-03 0. -1.
         23    2    1    0    0    0 -0.25180014957E+02 -0.13424017438E+02  0.80070794820E+01  0.95363017710E+02  0.90640798912E+02 0.  0.
         11    1    3    3    0    0 -0.24420386867E+02 -0.42794315789E+02 -0.21468456931E+02  0.53745729149E+02  0.51100000000E-03 0.  1.
         22    1    1    0    0    0  0.25180014957E+02  0.13424017438E+02 -0.80070794820E+01  0.29636982290E+02  0.00000000000E+00 0.  1.
</event>
<event>
 5    1  0.8778268E-005  0.9118800E+02  0.7818608E-02  0.1130116E+00
         25   -1    0    0    0    0  0.00000000000E+00  0.00000000000E+00  0.99999998245E-14  0.12500000000E+03  0.12500000000E+03 0.  0.
        -11    1    3    3    0    0 -0.24322648824E+02  0.28139480298E+02  0.46809188057E+02  0.59787303703E+02  0.51100000000E-03 0.  1.
         23    2    1    0    0    0  0.14374628733E+01  0.14326710935E+02  0.24594753203E+02  0.96500476656E+02  0.92196090828E+02 0.  0.
         11    1    3    3    0    0  0.25760111697E+02 -0.13812769363E+02 -0.22214434854E+02  0.36713172953E+02  0.51100000000E-03 0. -1.
         22    1    1    0    0    0 -0.14374628733E+01 -0.14326710935E+02 -0.24594753203E+02  0.28499523344E+02  0.00000000000E+00 0.  1.
</event>
<event>
 5    1  0.8778268E-005  0.9118800E+02  0.7818608E-02  0.1130116E+00
         25   -1    0    0    0    0  0.00000000000E+00  0.00000000000E+00  0.99999998245E-14  0.12500000000E+03  0.12500000000E+03 0.  0.
        -11    1    3    3    0    0 -0.13962829221E+02  0.49365797387E+02 -0.15859953772E+02  0.53698051039E+02  0.51100000000E-03 0. -1.
         23    2    1    0    0    0  0.11425616701E+02  0.17673750477E+02 -0.21755392428E+02  0.94731150128E+02  0.89765179953E+02 0.  0.
         11    1    3    3    0    0  0.25388445921E+02 -0.31692046910E+02 -0.58954386551E+01  0.41033099089E+02  0.51100000000E-03 0.  1.
         22    1    1    0    0    0 -0.11425616701E+02 -0.17673750477E+02  0.21755392428E+02  0.30268849872E+02  0.00000000000E+00 0. -1.
</event>
<event>
 5    1  0.8778268E-005  0.9118800E+02  0.7818608E-02  0.1130116E+00
         25   -1    0    0    0    0  0.00000000000E+00  0.00000000000E+00  0.99999998245E-14  0.12500000000E+03  0.12500000000E+03 0.  0.
        -11    1    3    3    0    0 -0.33845285506E+02  0.10382812361E+02  0.28357928564E+02  0.45359434038E+02  0.51100000000E-03 0.  1.
         23    2    1    0    0    0 -0.23982614647E+02  0.82535832017E+01 -0.18700979674E+02  0.93487874052E+02  0.88016864936E+02 0.  0.
         11    1    3    3    0    0  0.98626708597E+01 -0.21292291596E+01 -0.47058908239E+02  0.48128440014E+02  0.51100000000E-03 0. -1.
         22    1    1    0    0    0  0.23982614647E+02 -0.82535832017E+01  0.18700979674E+02  0.31512125948E+02  0.00000000000E+00 0. -1.
</event>
<event>
 5    1  0.8778268E-005  0.9118800E+02  0.7818608E-02  0.1130116E+00
         25   -1    0    0    0    0  0.00000000000E+00  0.00000000000E+00  0.99999998245E-14  0.12500000000E+03  0.12500000000E+03 0.  0.
        -11    1    3    3    0    0  0.34444420554E+02  0.14188233107E+02  0.36206426036E+02  0.51948333492E+02  0.51100000000E-03 0.  1.
         23    2    1    0    0    0 -0.66627941318E+01  0.70004187170E+01  0.29173120133E+02  0.94267775444E+02  0.89117584466E+02 0.  0.
         11    1    3    3    0    0 -0.41107214686E+02 -0.71878143904E+01 -0.70333059029E+01  0.42319441952E+02  0.51100000000E-03 0. -1.
         22    1    1    0    0    0  0.66627941318E+01 -0.70004187170E+01 -0.29173120133E+02  0.30732224556E+02  0.00000000000E+00 0.  1.
</event>
<event>
 5    1  0.8778268E-005  0.9118800E+02  0.7818608E-02  0.1130116E+00
         25   -1    0    0    0    0  0.00000000000E+00  0.00000000000E+00  0.99999998245E-14  0.12500000000E+03  0.12500000000E+03 0.  0.
        -11    1    3    3    0    0  0.50677329951E+01  0.49298933299E+02 -0.32817577604E+02  0.59439550320E+02  0.51100000000E-03 0.  1.
         23    2    1    0    0    0 -0.75276334862E+01  0.18635966201E+02 -0.23910019092E+02  0.93764547143E+02  0.88408918022E+02 0.  0.
         11    1    3    3    0    0 -0.12595366481E+02 -0.30662967098E+02  0.89075585122E+01  0.34324996824E+02  0.51100000000E-03 0. -1.
         22    1    1    0    0    0  0.75276334862E+01 -0.18635966201E+02  0.23910019092E+02  0.31235452857E+02  0.00000000000E+00 0.  1.
</event>
<event>
 5    1  0.8778268E-005  0.9118800E+02  0.7818608E-02  0.1130116E+00
         25   -1    0    0    0    0  0.00000000000E+00  0.00000000000E+00  0.99999998245E-14  0.12500000000E+03  0.12500000000E+03 0.  0.
        -11    1    3    3    0    0  0.38252290822E+02 -0.13113763627E+02 -0.28714178080E+01  0.40539531202E+02  0.51100000000E-03 0. -1.
         23    2    1    0    0    0 -0.11708223006E+02 -0.24664589029E+02  0.13731679187E+02  0.94438857167E+02  0.89357228537E+02 0.  0.
         11    1    3    3    0    0 -0.49960513828E+02 -0.11550825403E+02  0.16603096995E+02  0.53899325965E+02  0.51100000000E-03 0.  1.
         22    1    1    0    0    0  0.11708223006E+02  0.24664589029E+02 -0.13731679187E+02  0.30561142833E+02  0.00000000000E+00 0.  1.
</event>
<event>
 5    1  0.8778268E-005  0.9118800E+02  0.7818608E-02  0.1130116E+00
         25   -1    0    0    0    0  0.00000000000E+00  0.00000000000E+00  0.99999998245E-14  0.12500000000E+03  0.12500000000E+03 0.  0.
        -11    1    3    3    0    0  0.27009788514E+02  0.51993462604E+02 -0.21023122624E+02  0.62248056309E+02  0.51100000000E-03 0. -1.
         23    2    1    0    0    0  0.15696313190E+02  0.23227873174E+02 -0.12452793799E+02  0.94324595955E+02  0.89197247652E+02 0.  0.
         11    1    3    3    0    0 -0.11313475324E+02 -0.28765589430E+02  0.85703288249E+01  0.32076539645E+02  0.51100000000E-03 0.  1.
         22    1    1    0    0    0 -0.15696313190E+02 -0.23227873174E+02  0.12452793799E+02  0.30675404045E+02  0.00000000000E+00 0. -1.
</event>
<event>
 5    1  0.8778268E-005  0.9118800E+02  0.7818608E-02  0.1130116E+00
         25   -1    0    0    0    0  0.00000000000E+00  0.00000000000E+00  0.99999998245E-14  0.12500000000E+03  0.12500000000E+03 0.  0.
        -11    1    3    3    0    0  0.41557572013E+01  0.33930633395E+01 -0.49949355291E+02  0.50236652864E+02  0.51100000000E-03 0. -1.
         23    2    1    0    0    0 -0.20797247348E+02 -0.14105167989E+02 -0.23647814315E+02  0.90493473325E+02  0.83656250999E+02 0.  0.
         11    1    3    3    0    0 -0.24953004550E+02 -0.17498231329E+02  0.26301540975E+02  0.40256820461E+02  0.51100000000E-03 0.  1.
         22    1    1    0    0    0  0.20797247348E+02  0.14105167989E+02  0.23647814315E+02  0.34506526675E+02  0.00000000000E+00 0. -1.
</event>
<event>
 5    1  0.8778268E-005  0.9118800E+02  0.7818608E-02  0.1130116E+00
         25   -1    0    0    0    0  0.00000000000E+00  0.00000000000E+00  0.99999998245E-14  0.12500000000E+03  0.12500000000E+03 0.  0.
        -11    1    3    3    0    0  0.10798087292E+02  0.19469385557E+02 -0.15654543868E+02  0.27216179142E+02  0.51100000000E-03 0.  1.
         23    2    1    0    0    0  0.29412225945E+02 -0.20165062148E+02  0.20381307909E+02  0.83925598257E+02  0.73187427637E+02 0.  0.
         11    1    3    3    0    0  0.18614138653E+02 -0.39634447705E+02  0.36035851777E+02  0.56709419114E+02  0.51100000000E-03 0. -1.
         22    1    1    0    0    0 -0.29412225945E+02  0.20165062148E+02 -0.20381307909E+02  0.41074401743E+02  0.00000000000E+00 0. -1.
</event>
<event>
 5    1  0.8778268E-005  0.9118800E+02  0.7818608E-02  0.1130116E+00
         25   -1    0    0    0    0  0.00000000000E+00  0.00000000000E+00  0.99999998245E-14  0.12500000000E+03  0.12500000000E+03 0.  0.
        -11    1    3    3    0    0 -0.33777516475E+02 -0.18512918212E+02  0.16431762615E+02  0.41876623346E+02  0.51100000000E-03 0.  1.
         23    2    1    0    0    0 -0.51058362132E+01  0.27105954540E+02  0.47025528202E+01  0.97019357799E+02  0.92896929172E+02 0.  0.
         11    1    3    3    0    0  0.28671680262E+02  0.45618872752E+02 -0.11729209795E+02  0.55142734453E+02  0.51100000000E-03 0. -1.
         22    1    1    0    0    0  0.51058362132E+01 -0.27105954540E+02 -0.47025528202E+01  0.27980642201E+02  0.00000000000E+00 0. -1.
</event>
<event>
 5    1  0.8778268E-005  0.9118800E+02  0.7818608E-02  0.1130116E+00
         25   -1    0    0    0    0  0.00000000000E+00  0.00000000000E+00  0.99999998245E-14  0.12500000000E+03  0.12500000000E+03 0.  0.
        -11    1    3    3    0    0  0.15472521987E+02  0.24743419603E+02 -0.45134477259E+02  0.53747156092E+02  0.51100000000E-03 0. -1.
         23    2    1    0    0    0 -0.13162891977E+02 -0.72959309271E+00 -0.24261317392E+02  0.97388307678E+02  0.93392060259E+02 0.  0.
         11    1    3    3    0    0 -0.28635413964E+02 -0.25473012696E+02  0.20873159866E+02  0.43641151586E+02  0.51100000000E-03 0.  1.
         22    1    1    0    0    0  0.13162891977E+02  0.72959309271E+00  0.24261317392E+02  0.27611692322E+02  0.00000000000E+00 0. -1.
</event>
<event>
 5    1  0.8778268E-005  0.9118800E+02  0.7818608E-02  0.1130116E+00
         25   -1    0    0    0    0  0.00000000000E+00  0.00000000000E+00  0.99999998245E-14  0.12500000000E+03  0.12500000000E+03 0.  0.
        -11    1    3    3    0    0 -0.10960489792E+02 -0.31032918089E+02  0.31194792922E+01  0.33059121176E+02  0.51100000000E-03 0.  1.
         23    2    1    0    0    0 -0.38996586530E+01  0.24556188555E+02  0.21600466643E+02  0.92063790547E+02  0.85970620776E+02 0.  0.
         11    1    3    3    0    0  0.70608311388E+01  0.55589106644E+02  0.18480987351E+02  0.59004669371E+02  0.51100000000E-03 0. -1.
         22    1    1    0    0    0  0.38996586530E+01 -0.24556188555E+02 -0.21600466643E+02  0.32936209453E+02  0.00000000000E+00 0. -1.
</event>
<event>
 5    1  0.8778268E-005  0.9118800E+02  0.7818608E-02  0.1130116E+00
         25   -1    0    0    0    0  0.00000000000E+00  0.00000000000E+00  0.99999998245E-14  0.12500000000E+03  0.12500000000E+03 0.  0.
        -11    1    3    3    0    0  0.43061910502E+02  0.53132836332E+01  0.18457631526E+02  0.47151280798E+02  0.51100000000E-03 0.  1.
         23    2    1    0    0    0  0.51446478859E+01 -0.23641169598E+02  0.17970089848E+02  0.94862043351E+02  0.89947266983E+02 0.  0.
         11    1    3    3    0    0 -0.37917262616E+02 -0.28954453232E+02 -0.48754167772E+00  0.47710762553E+02  0.51100000000E-03 0. -1.
         22    1    1    0    0    0 -0.51446478859E+01  0.23641169598E+02 -0.17970089848E+02  0.30137956649E+02  0.00000000000E+00 0.  1.
</event>
<event>
 5    1  0.8778268E-005  0.9118800E+02  0.7818608E-02  0.1130116E+00
         25   -1    0    0    0    0  0.00000000000E+00  0.00000000000E+00  0.99999998245E-14  0.12500000000E+03  0.12500000000E+03 0.  0.
        -11    1    3    3    0    0 -0.45806837330E+02  0.20001853338E+02 -0.25754191515E+02  0.56228274595E+02  0.51100000000E-03 0.  1.
         23    2    1    0    0    0 -0.13568870944E+02  0.25786332803E+02 -0.39025449203E+01  0.95601376308E+02  0.90968918192E+02 0.  0.
         11    1    3    3    0    0  0.32237966385E+02  0.57844794650E+01  0.21851646594E+02  0.39373101713E+02  0.51100000000E-03 0. -1.
         22    1    1    0    0    0  0.13568870944E+02 -0.25786332803E+02  0.39025449203E+01  0.29398623692E+02  0.00000000000E+00 0.  1.
</event>
<event>
 5    1  0.8778268E-005  0.9118800E+02  0.7818608E-02  0.1130116E+00
         25   -1    0    0    0    0  0.00000000000E+00  0.00000000000E+00  0.99999998245E-14  0.12500000000E+03  0.12500000000E+03 0.  0.
        -11    1    3    3    0    0  0.16186577559E+02  0.42357150186E+02 -0.13163348697E+02  0.47216598926E+02  0.51100000000E-03 0. -1.
         23    2    1    0    0    0 -0.12746356699E+02  0.47576432764E+01 -0.25376515513E+02  0.96206384072E+02  0.91796492406E+02 0.  0.
         11    1    3    3    0    0 -0.28932934259E+02 -0.37599506910E+02 -0.12213166815E+02  0.48989785146E+02  0.51100000000E-03 0.  1.
         22    1    1    0    0    0  0.12746356699E+02 -0.47576432764E+01  0.25376515513E+02  0.28793615928E+02  0.00000000000E+00 0.  1.
</event>
<event>
 5    1  0.8778268E-005  0.9118800E+02  0.7818608E-02  0.1130116E+00
         25   -1    0    0    0    0  0.00000000000E+00  0.00000000000E+00  0.99999998245E-14  0.12500000000E+03  0.12500000000E+03 0.  0.
        -11    1    3    3    0    0  0.31162705459E+02  0.10209998771E+02 -0.89903283716E+01  0.34002710052E+02  0.51100000000E-03 0. -1.
         23    2    1    0    0    0 -0.18429899565E+02 -0.23931960879E+02 -0.64468663924E+00  0.94787162160E+02  0.89843144090E+02 0.  0.
         11    1    3    3    0    0 -0.49592605024E+02 -0.34141959650E+02  0.83456417323E+01  0.60784452107E+02  0.51100000000E-03 0.  1.
         22    1    1    0    0    0  0.18429899565E+02  0.23931960879E+02  0.64468663924E+00  0.30212837840E+02  0.00000000000E+00 0.  1.
</event>
<event>
 5    1  0.8778268E-005  0.9118800E+02  0.7818608E-02  0.1130116E+00
         25   -1    0    0    0    0  0.00000000000E+00  0.00000000000E+00  0.99999998245E-14  0.12500000000E+03  0.12500000000E+03 0.  0.
        -11    1    3    3    0    0  0.37492687716E+02 -0.39890234928E+02 -0.23669118393E+02  0.59641928544E+02  0.51100000000E-03 0.  1.
         23    2    1    0    0    0  0.19918387308E+02 -0.20862669338E+02  0.19715095404E+01  0.96088411066E+02  0.91635706831E+02 0.  0.
         11    1    3    3    0    0 -0.17574300408E+02  0.19027565590E+02  0.25640627933E+02  0.36446482521E+02  0.51100000000E-03 0. -1.
         22    1    1    0    0    0 -0.19918387308E+02  0.20862669338E+02 -0.19715095404E+01  0.28911588934E+02  0.00000000000E+00 0.  1.
</event>
<event>
 5    1  0.8778268E-005  0.9118800E+02  0.7818608E-02  0.1130116E+00
         25   -1    0    0    0    0  0.00000000000E+00  0.00000000000E+00  0.99999998245E-14  0.12500000000E+03  0.12500000000E+03 0.  0.
        -11    1    3    3    0    0 -0.34375046482E+01 -0.13427048299E+02 -0.46654232816E+02  0.48669492540E+02  0.51100000000E-03 0. -1.
         23    2    1    0    0    0  0.17077233146E+02 -0.29495655857E+02 -0.22828063362E+02  0.83978711828E+02  0.73278086473E+02 0.  0.
         11    1    3    3    0    0  0.20514737794E+02 -0.16068607559E+02  0.23826169454E+02  0.35309219288E+02  0.51100000000E-03 0.  1.
         22    1    1    0    0    0 -0.17077233146E+02  0.29495655857E+02  0.22828063362E+02  0.41021288172E+02  0.00000000000E+00 0. -1.
</event>
<event>
 5    1  0.8778268E-005  0.9118800E+02  0.7818608E-02  0.1130116E+00
         25   -1    0    0    0    0  0.00000000000E+00  0.00000000000E+00  0.99999998245E-14  0.12500000000E+03  0.12500000000E+03 0.  0.
        -11    1    3    3    0    0 -0.11966121446E+02  0.17265026391E+02  0.38099615136E+02  0.43506894540E+02  0.51100000000E-03 0.  1.
         23    2    1    0    0    0  0.22952368120E+02 -0.97089109795E+01  0.29795542587E+01  0.99901157431E+02  0.96696894251E+02 0.  0.
         11    1    3    3    0    0  0.34918489566E+02 -0.26973937370E+02 -0.35120060877E+02  0.56394262891E+02  0.51100000000E-03 0. -1.
         22    1    1    0    0    0 -0.22952368120E+02  0.97089109795E+01 -0.29795542587E+01  0.25098842569E+02  0.00000000000E+00 0. -1.
</event>
<event>
 5    1  0.8778268E-005  0.9118800E+02  0.7818608E-02  0.1130116E+00
         25   -1    0    0    0    0  0.00000000000E+00  0.00000000000E+00  0.99999998245E-14  0.12500000000E+03  0.12500000000E+03 0.  0.
        -11    1    3    3    0    0  0.34627308578E+02 -0.54656113783E+01  0.19739567671E+02  0.40231504312E+02  0.51100000000E-03 0.  1.
         23    2    1    0    0    0 -0.18355168576E+02  0.50851159573E+01 -0.11612294044E+02  0.10269269199E+03  0.10024057560E+03 0.  0.
         11    1    3    3    0    0 -0.52982477154E+02  0.10550727336E+02 -0.31351861715E+02  0.62461187677E+02  0.51100000000E-03 0. -1.
         22    1    1    0    0    0  0.18355168576E+02 -0.50851159573E+01  0.11612294044E+02  0.22307308011E+02  0.00000000000E+00 0. -1.
</event>
<event>
 5    1  0.8778268E-005  0.9118800E+02  0.7818608E-02  0.1130116E+00
         25   -1    0    0    0    0  0.00000000000E+00  0.00000000000E+00  0.99999998245E-14  0.12500000000E+03  0.12500000000E+03 0.  0.
        -11    1    3    3    0    0 -0.19749432062E+02 -0.42537708810E+02 -0.28557747907E+02  0.54909395402E+02  0.51100000000E-03 0. -1.
         23    2    1    0    0    0 -0.96791897518E+00 -0.33357735559E+02  0.15835698522E+01  0.91590673723E+02  0.85279941550E+02 0.  0.
         11    1    3    3    0    0  0.18781513087E+02  0.91799732510E+01  0.30141317759E+02  0.36681278321E+02  0.51100000000E-03 0.  1.
         22    1    1    0    0    0  0.96791897518E+00  0.33357735559E+02 -0.15835698522E+01  0.33409326277E+02  0.00000000000E+00 0. -1.
</event>
<event>
 5    1  0.8778268E-005  0.9118800E+02  0.7818608E-02  0.1130116E+00
         25   -1    0    0    0    0  0.00000000000E+00  0.00000000000E+00  0.99999998245E-14  0.12500000000E+03  0.12500000000E+03 0.  0.
        -11    1    3    3    0    0 -0.25349985857E+02  0.12829895900E+02  0.50909149606E+02  0.58300682034E+02  0.51100000000E-03 0.  1.
         23    2    1    0    0    0 -0.11561412296E+02  0.22180397575E+02  0.21893719212E+02  0.91758892440E+02  0.85526154538E+02 0.  0.
         11    1    3    3    0    0  0.13788573561E+02  0.93505016754E+01 -0.29015430394E+02  0.33458210407E+02  0.51100000000E-03 0. -1.
         22    1    1    0    0    0  0.11561412296E+02 -0.22180397575E+02 -0.21893719212E+02  0.33241107560E+02  0.00000000000E+00 0.  1.
</event>
<event>
 5    1  0.8778268E-005  0.9118800E+02  0.7818608E-02  0.1130116E+00
         25   -1    0    0    0    0  0.00000000000E+00  0.00000000000E+00  0.99999998245E-14  0.12500000000E+03  0.12500000000E+03 0.  0.
        -11    1    3    3    0    0 -0.40019582738E+02  0.10026920859E+02 -0.58384796649E+01  0.41667661195E+02  0.51100000000E-03 0.  1.
         23    2    1    0    0    0 -0.73752393179E+00  0.10507121051E+02  0.28982114740E+02  0.94163227972E+02  0.88970821020E+02 0.  0.
         11    1    3    3    0    0  0.39282058806E+02  0.48020019240E+00  0.34820594405E+02  0.52495566777E+02  0.51100000000E-03 0. -1.
         22    1    1    0    0    0  0.73752393179E+00 -0.10507121051E+02 -0.28982114740E+02  0.30836772028E+02  0.00000000000E+00 0. -1.
</event>
<event>
 5    1  0.8778268E-005  0.9118800E+02  0.7818608E-02  0.1130116E+00
         25   -1    0    0    0    0  0.00000000000E+00  0.00000000000E+00  0.99999998245E-14  0.12500000000E+03  0.12500000000E+03 0.  0.
        -11    1    3    3    0    0  0.19030019588E+01  0.21770813833E+02  0.54204488623E+02  0.58444130060E+02  0.51100000000E-03 0.  1.
         23    2    1    0    0    0  0.58470125504E+01 -0.48706429756E+01  0.27863489969E+02  0.96116011494E+02  0.91673348763E+02 0.  0.
         11    1    3    3    0    0  0.39440105916E+01 -0.26641456809E+02 -0.26340998653E+02  0.37671881434E+02  0.51100000000E-03 0. -1.
         22    1    1    0    0    0 -0.58470125504E+01  0.48706429756E+01 -0.27863489969E+02  0.28883988506E+02  0.00000000000E+00 0. -1.
</event>
<event>
 5    1  0.8778268E-005  0.9118800E+02  0.7818608E-02  0.1130116E+00
         25   -1    0    0    0    0  0.00000000000E+00  0.00000000000E+00  0.99999998245E-14  0.12500000000E+03  0.12500000000E+03 0.  0.
        -11    1    3    3    0    0 -0.45835411998E+01 -0.58898264631E+02 -0.16703726519E+02  0.61392417336E+02  0.51100000000E-03 0.  1.
         23    2    1    0    0    0 -0.48716030714E+01 -0.25957004196E+02 -0.15543321655E+02  0.94355368636E+02  0.89240361715E+02 0.  0.
         11    1    3    3    0    0 -0.28806187159E+00  0.32941260435E+02  0.11604048636E+01  0.32962951300E+02  0.51100000000E-03 0. -1.
         22    1    1    0    0    0  0.48716030714E+01  0.25957004196E+02  0.15543321655E+02  0.30644631364E+02  0.00000000000E+00 0.  1.
</event>
<event>
 5    1  0.8778268E-005  0.9118800E+02  0.7818608E-02  0.1130116E+00
         25   -1    0    0    0    0  0.00000000000E+00  0.00000000000E+00  0.99999998245E-14  0.12500000000E+03  0.12500000000E+03 0.  0.
        -11    1    3    3    0    0  0.16408281491E+02 -0.20001157318E+02  0.31025486924E+02  0.40396272535E+02  0.51100000000E-03 0.  1.
         23    2    1    0    0    0 -0.24911291354E+02 -0.15800363425E+02 -0.46360315358E+01  0.95138373961E+02  0.90330468228E+02 0.  0.
         11    1    3    3    0    0 -0.41319572845E+02  0.42007938925E+01 -0.35661518460E+02  0.54742101426E+02  0.51100000000E-03 0. -1.
         22    1    1    0    0    0  0.24911291354E+02  0.15800363425E+02  0.46360315358E+01  0.29861626039E+02  0.00000000000E+00 0. -1.
</event>
<event>
 5    1  0.8778268E-005  0.9118800E+02  0.7818608E-02  0.1130116E+00
         25   -1    0    0    0    0  0.00000000000E+00  0.00000000000E+00  0.99999998245E-14  0.12500000000E+03  0.12500000000E+03 0.  0.
        -11    1    3    3    0    0 -0.14826068138E+01  0.75444046309E+01 -0.36026412552E+02  0.36837732909E+02  0.51100000000E-03 0. -1.
         23    2    1    0    0    0  0.10245631229E+02  0.12373330178E+02  0.22851789428E+02  0.97066569509E+02  0.92960434472E+02 0.  0.
         11    1    3    3    0    0  0.11728238043E+02  0.48289255467E+01  0.58878201980E+02  0.60228836600E+02  0.51100000000E-03 0.  1.
         22    1    1    0    0    0 -0.10245631229E+02 -0.12373330178E+02 -0.22851789428E+02  0.27933430491E+02  0.00000000000E+00 0.  1.
</event>
<event>
 5    1  0.8778268E-005  0.9118800E+02  0.7818608E-02  0.1130116E+00
         25   -1    0    0    0    0  0.00000000000E+00  0.00000000000E+00  0.99999998245E-14  0.12500000000E+03  0.12500000000E+03 0.  0.
        -11    1    3    3    0    0 -0.33070285484E+02  0.20693911657E+02  0.21310933275E+01  0.39069467883E+02  0.51100000000E-03 0. -1.
         23    2    1    0    0    0  0.38064473702E+01 -0.11534273666E+02  0.28016112829E+02  0.94464265383E+02  0.89392764504E+02 0.  0.
         11    1    3    3    0    0  0.36876732854E+02 -0.32228185323E+02  0.25885019501E+02  0.55394797500E+02  0.51100000000E-03 0.  1.
         22    1    1    0    0    0 -0.38064473702E+01  0.11534273666E+02 -0.28016112829E+02  0.30535734617E+02  0.00000000000E+00 0.  1.
</event>
<event>
 5    1  0.8778268E-005  0.9118800E+02  0.7818608E-02  0.1130116E+00
         25   -1    0    0    0    0  0.00000000000E+00  0.00000000000E+00  0.99999998245E-14  0.12500000000E+03  0.12500000000E+03 0.  0.
        -11    1    3    3    0    0 -0.25962843877E+02  0.43109169974E+02  0.28321851286E+02  0.57745970063E+02  0.51100000000E-03 0. -1.
         23    2    1    0    0    0 -0.19419210767E+02  0.53989013005E+01  0.19354634057E+02  0.97056203881E+02  0.92946495201E+02 0.  0.
         11    1    3    3    0    0  0.65436331091E+01 -0.37710268673E+02 -0.89672172292E+01  0.39310233817E+02  0.51100000000E-03 0.  1.
         22    1    1    0    0    0  0.19419210767E+02 -0.53989013005E+01 -0.19354634057E+02  0.27943796119E+02  0.00000000000E+00 0. -1.
</event>
<event>
 5    1  0.8778268E-005  0.9118800E+02  0.7818608E-02  0.1130116E+00
         25   -1    0    0    0    0  0.00000000000E+00  0.00000000000E+00  0.99999998245E-14  0.12500000000E+03  0.12500000000E+03 0.  0.
        -11    1    3    3    0    0  0.21584391612E+02  0.31011641503E+02 -0.18771881965E+02  0.42189944568E+02  0.51100000000E-03 0. -1.
         23    2    1    0    0    0 -0.24772697650E+02  0.53805486327E+01 -0.15553424699E+02  0.95258684086E+02  0.90496801167E+02 0.  0.
         11    1    3    3    0    0 -0.46357089262E+02 -0.25631092870E+02  0.32184572659E+01  0.53068739517E+02  0.51100000000E-03 0.  1.
         22    1    1    0    0    0  0.24772697650E+02 -0.53805486327E+01  0.15553424699E+02  0.29741315914E+02  0.00000000000E+00 0.  1.
</event>
<event>
 5    1  0.8778268E-005  0.9118800E+02  0.7818608E-02  0.1130116E+00
         25   -1    0    0    0    0  0.00000000000E+00  0.00000000000E+00  0.99999998245E-14  0.12500000000E+03  0.12500000000E+03 0.  0.
        -11    1    3    3    0    0  0.45433134056E+02 -0.93064014628E+01 -0.38205787825E+02  0.60087111779E+02  0.51100000000E-03 0. -1.
         23    2    1    0    0    0  0.25170124029E+02  0.59743713624E+00 -0.64984605856E+01  0.98997652707E+02  0.95521794251E+02 0.  0.
         11    1    3    3    0    0 -0.20263010028E+02  0.99038385990E+01  0.31707327240E+02  0.38910540928E+02  0.51100000000E-03 0.  1.
         22    1    1    0    0    0 -0.25170124029E+02 -0.59743713624E+00  0.64984605856E+01  0.26002347293E+02  0.00000000000E+00 0. -1.
</event>
<event>
 5    1  0.8778268E-005  0.9118800E+02  0.7818608E-02  0.1130116E+00
         25   -1    0    0    0    0  0.00000000000E+00  0.00000000000E+00  0.99999998245E-14  0.12500000000E+03  0.12500000000E+03 0.  0.
        -11    1    3    3    0    0  0.17388721169E+02  0.32769572789E+02  0.94739592572E+01  0.38287967156E+02  0.51100000000E-03 0.  1.
         23    2    1    0    0    0 -0.65574816563E+01 -0.57627086807E+01 -0.27079142808E+02  0.96548473640E+02  0.92261142471E+02 0.  0.
         11    1    3    3    0    0 -0.23946202826E+02 -0.38532281469E+02 -0.36553102065E+02  0.58260506484E+02  0.51100000000E-03 0. -1.
         22    1    1    0    0    0  0.65574816563E+01  0.57627086807E+01  0.27079142808E+02  0.28451526360E+02  0.00000000000E+00 0. -1.
</event>
<event>
 5    1  0.8778268E-005  0.9118800E+02  0.7818608E-02  0.1130116E+00
         25   -1    0    0    0    0  0.00000000000E+00  0.00000000000E+00  0.99999998245E-14  0.12500000000E+03  0.12500000000E+03 0.  0.
        -11    1    3    3    0    0  0.32400167825E+02  0.34002983563E+02 -0.11659280691E+02  0.48393311447E+02  0.51100000000E-03 0. -1.
         23    2    1    0    0    0 -0.74115138378E+01  0.14294477835E+02 -0.25429441166E+02  0.94901509806E+02  0.90002096928E+02 0.  0.
         11    1    3    3    0    0 -0.39811681663E+02 -0.19708505728E+02 -0.13770160474E+02  0.46508198359E+02  0.51100000000E-03 0.  1.
         22    1    1    0    0    0  0.74115138378E+01 -0.14294477835E+02  0.25429441166E+02  0.30098490194E+02  0.00000000000E+00 0. -1.
</event>
<event>
 5    1  0.8778268E-005  0.9118800E+02  0.7818608E-02  0.1130116E+00
         25   -1    0    0    0    0  0.00000000000E+00  0.00000000000E+00  0.99999998245E-14  0.12500000000E+03  0.12500000000E+03 0.  0.
        -11    1    3    3    0    0  0.16350940353E+02  0.34751746426E+02  0.18666743118E+02  0.42702276626E+02  0.51100000000E-03 0.  1.
         23    2    1    0    0    0 -0.27180054713E+02  0.55765260755E+01  0.67963496097E+01  0.96433526902E+02  0.92105275232E+02 0.  0.
         11    1    3    3    0    0 -0.43530995066E+02 -0.29175220351E+02 -0.11870393509E+02  0.53731250276E+02  0.51100000000E-03 0. -1.
         22    1    1    0    0    0  0.27180054713E+02 -0.55765260755E+01 -0.67963496097E+01  0.28566473098E+02  0.00000000000E+00 0. -1.
</event>
<event>
 5    1  0.8778268E-005  0.9118800E+02  0.7818608E-02  0.1130116E+00
         25   -1    0    0    0    0  0.00000000000E+00  0.00000000000E+00  0.99999998245E-14  0.12500000000E+03  0.12500000000E+03 0.  0.
        -11    1    3    3    0    0  0.27321008368E+02 -0.10229460924E+02 -0.40429357007E+02  0.49855915169E+02  0.51100000000E-03 0.  1.
         23    2    1    0    0    0 -0.51691594465E+01  0.17126263259E+02 -0.23232167702E+02  0.95678289294E+02  0.91074542675E+02 0.  0.
         11    1    3    3    0    0 -0.32490167814E+02  0.27355724183E+02  0.17197189306E+02  0.45822374125E+02  0.51100000000E-03 0. -1.
         22    1    1    0    0    0  0.51691594465E+01 -0.17126263259E+02  0.23232167702E+02  0.29321710706E+02  0.00000000000E+00 0. -1.
</event>
<event>
 5    1  0.8778268E-005  0.9118800E+02  0.7818608E-02  0.1130116E+00
         25   -1    0    0    0    0  0.00000000000E+00  0.00000000000E+00  0.99999998245E-14  0.12500000000E+03  0.12500000000E+03 0.  0.
        -11    1    3    3    0    0  0.41496962483E+01  0.30507688383E+00 -0.29385882593E+02  0.29679001784E+02  0.51100000000E-03 0.  1.
         23    2    1    0    0    0  0.14445757310E+02  0.37427892796E+02  0.88060563025E+01  0.83925997382E+02  0.73188109318E+02 0.  0.
         11    1    3    3    0    0  0.10296061061E+02  0.37122815913E+02  0.38191938895E+02  0.54246995599E+02  0.51100000000E-03 0. -1.
         22    1    1    0    0    0 -0.14445757310E+02 -0.37427892796E+02 -0.88060563025E+01  0.41074002618E+02  0.00000000000E+00 0. -1.
</event>
<event>
 5    1  0.8778268E-005  0.9118800E+02  0.7818608E-02  0.1130116E+00
         25   -1    0    0    0    0  0.00000000000E+00  0.00000000000E+00  0.99999998245E-14  0.12500000000E+03  0.12500000000E+03 0.  0.
        -11    1    3    3    0    0 -0.16814840123E+02  0.77313499669E+01 -0.53060482565E+02  0.56195439592E+02  0.51100000000E-03 0.  1.
         23    2    1    0    0    0 -0.23135461918E+02 -0.69554511952E+01 -0.17549289338E+02  0.95140236844E+02  0.90333046062E+02 0.  0.
         11    1    3    3    0    0 -0.63206217952E+01 -0.14686801162E+02  0.35511193227E+02  0.38944797251E+02  0.51100000000E-03 0. -1.
         22    1    1    0    0    0  0.23135461918E+02  0.69554511952E+01  0.17549289338E+02  0.29859763156E+02  0.00000000000E+00 0.  1.
</event>
<event>
 5    1  0.8778268E-005  0.9118800E+02  0.7818608E-02  0.1130116E+00
         25   -1    0    0    0    0  0.00000000000E+00  0.00000000000E+00  0.99999998245E-14  0.12500000000E+03  0.12500000000E+03 0.  0.
        -11    1    3    3    0    0  0.38637213914E+02 -0.31938835552E+02  0.89201336851E+01  0.50916522865E+02  0.51100000000E-03 0. -1.
         23    2    1    0    0    0  0.26490017751E+02  0.99768432566E+01 -0.39598237935E+01  0.96417861411E+02  0.92084012471E+02 0.  0.
         11    1    3    3    0    0 -0.12147196163E+02  0.41915678809E+02 -0.12879957479E+02  0.45501338546E+02  0.51100000000E-03 0.  1.
         22    1    1    0    0    0 -0.26490017751E+02 -0.99768432566E+01  0.39598237935E+01  0.28582138589E+02  0.00000000000E+00 0. -1.
</event>
<event>
 5    1  0.8778268E-005  0.9118800E+02  0.7818608E-02  0.1130116E+00
         25   -1    0    0    0    0  0.00000000000E+00  0.00000000000E+00  0.99999998245E-14  0.12500000000E+03  0.12500000000E+03 0.  0.
        -11    1    3    3    0    0 -0.23193325858E+02 -0.46412111927E+02 -0.72928189292E+01  0.52394653411E+02  0.51100000000E-03 0. -1.
         23    2    1    0    0    0 -0.13530844398E+02 -0.83669365872E+01 -0.24928769222E+02  0.95427497352E+02  0.90729677272E+02 0.  0.
         11    1    3    3    0    0  0.96624814600E+01  0.38045175340E+02 -0.17635950293E+02  0.43032843940E+02  0.51100000000E-03 0.  1.
         22    1    1    0    0    0  0.13530844398E+02  0.83669365872E+01  0.24928769222E+02  0.29572502648E+02  0.00000000000E+00 0. -1.
</event>
<event>
 5    1  0.8778268E-005  0.9118800E+02  0.7818608E-02  0.1130116E+00
         25   -1    0    0    0    0  0.00000000000E+00  0.00000000000E+00  0.99999998245E-14  0.12500000000E+03  0.12500000000E+03 0.  0.
        -11    1    3    3    0    0  0.51259050703E+02 -0.33433372378E+02  0.52606487733E-01  0.61198720863E+02  0.51100000000E-03 0.  1.
         23    2    1    0    0    0  0.26997656128E+02 -0.10831559470E+02 -0.69583681244E+01  0.95089884589E+02  0.90263343319E+02 0.  0.
         11    1    3    3    0    0 -0.24261394575E+02  0.22601812908E+02 -0.70109746121E+01  0.33891163726E+02  0.51100000000E-03 0. -1.
         22    1    1    0    0    0 -0.26997656128E+02  0.10831559470E+02  0.69583681244E+01  0.29910115411E+02  0.00000000000E+00 0.  1.
</event>
<event>
 5    1  0.8778268E-005  0.9118800E+02  0.7818608E-02  0.1130116E+00
         25   -1    0    0    0    0  0.00000000000E+00  0.00000000000E+00  0.99999998245E-14  0.12500000000E+03  0.12500000000E+03 0.  0.
        -11    1    3    3    0    0 -0.19375788897E+02 -0.34259030548E+02  0.45502435391E+02  0.60162895511E+02  0.51100000000E-03 0. -1.
         23    2    1    0    0    0 -0.19400196152E+02 -0.10085157704E+02  0.19013517062E+02  0.96024288659E+02  0.91548195858E+02 0.  0.
         11    1    3    3    0    0 -0.24407254873E-01  0.24173872844E+02 -0.26488918330E+02  0.35861393148E+02  0.51100000000E-03 0.  1.
         22    1    1    0    0    0  0.19400196152E+02  0.10085157704E+02 -0.19013517062E+02  0.28975711341E+02  0.00000000000E+00 0. -1.
</event>
<event>
 5    1  0.8778268E-005  0.9118800E+02  0.7818608E-02  0.1130116E+00
         25   -1    0    0    0    0  0.00000000000E+00  0.00000000000E+00  0.99999998245E-14  0.12500000000E+03  0.12500000000E+03 0.  0.
        -11    1    3    3    0    0  0.13017042546E+02 -0.17692186114E+02 -0.39366974025E+02  0.45080100823E+02  0.51100000000E-03 0. -1.
         23    2    1    0    0    0  0.28879058571E+02  0.68767289693E+01  0.14335539936E+01  0.95278887936E+02  0.90524703723E+02 0.  0.
         11    1    3    3    0    0  0.15862016025E+02  0.24568915083E+02  0.40800528018E+02  0.50198787113E+02  0.51100000000E-03 0.  1.
         22    1    1    0    0    0 -0.28879058571E+02 -0.68767289693E+01 -0.14335539936E+01  0.29721112064E+02  0.00000000000E+00 0.  1.
</event>
<event>
 5    1  0.8778268E-005  0.9118800E+02  0.7818608E-02  0.1130116E+00
         25   -1    0    0    0    0  0.00000000000E+00  0.00000000000E+00  0.99999998245E-14  0.12500000000E+03  0.12500000000E+03 0.  0.
        -11    1    3    3    0    0 -0.58644824221E+01 -0.15688094841E+02  0.52252009183E+02  0.54870583537E+02  0.51100000000E-03 0. -1.
         23    2    1    0    0    0  0.12501981398E+02 -0.21494273128E+02  0.17534907849E+02  0.94573427577E+02  0.89545278458E+02 0.  0.
         11    1    3    3    0    0  0.18366463820E+02 -0.58061782865E+01 -0.34717101334E+02  0.39702844040E+02  0.51100000000E-03 0.  1.
         22    1    1    0    0    0 -0.12501981398E+02  0.21494273128E+02 -0.17534907849E+02  0.30426572423E+02  0.00000000000E+00 0. -1.
</event>
<event>
 5    1  0.8778268E-005  0.9118800E+02  0.7818608E-02  0.1130116E+00
         25   -1    0    0    0    0  0.00000000000E+00  0.00000000000E+00  0.99999998245E-14  0.12500000000E+03  0.12500000000E+03 0.  0.
        -11    1    3    3    0    0 -0.28309777144E+02  0.12472276651E+02 -0.32528115468E+02  0.44889636476E+02  0.51100000000E-03 0.  1.
         23    2    1    0    0    0 -0.20440102932E+02 -0.21037053788E+02  0.43633343802E+01  0.95345419800E+02  0.90616526914E+02 0.  0.
         11    1    3    3    0    0  0.78696742118E+01 -0.33509330439E+02  0.36891449848E+02  0.50455783324E+02  0.51100000000E-03 0. -1.
         22    1    1    0    0    0  0.20440102932E+02  0.21037053788E+02 -0.43633343802E+01  0.29654580200E+02  0.00000000000E+00 0. -1.
</event>
<event>
 5    1  0.8778268E-005  0.9118800E+02  0.7818608E-02  0.1130116E+00
         25   -1    0    0    0    0  0.00000000000E+00  0.00000000000E+00  0.99999998245E-14  0.12500000000E+03  0.12500000000E+03 0.  0.
        -11    1    3    3    0    0  0.23831486760E+02  0.46243764623E+02 -0.14716778124E+02  0.54064859995E+02  0.51100000000E-03 0. -1.
         23    2    1    0    0    0 -0.10392545138E+02  0.28090554787E+02 -0.11420013160E+02  0.92945344125E+02  0.87242971243E+02 0.  0.
         11    1    3    3    0    0 -0.34224031898E+02 -0.18153209836E+02  0.32967649641E+01  0.38880484130E+02  0.51100000000E-03 0.  1.
         22    1    1    0    0    0  0.10392545138E+02 -0.28090554787E+02  0.11420013160E+02  0.32054655875E+02  0.00000000000E+00 0. -1.
</event>
<event>
 5    1  0.8778268E-005  0.9118800E+02  0.7818608E-02  0.1130116E+00
         25   -1    0    0    0    0  0.00000000000E+00  0.00000000000E+00  0.99999998245E-14  0.12500000000E+03  0.12500000000E+03 0.  0.
        -11    1    3    3    0    0 -0.48686416318E+02  0.12478319510E+02  0.25868331033E+02  0.56526508316E+02  0.51100000000E-03 0. -1.
         23    2    1    0    0    0 -0.10340036425E+02  0.34160664468E+01  0.26938504707E+02  0.95943694332E+02  0.91438086063E+02 0.  0.
         11    1    3    3    0    0  0.38346379893E+02 -0.90622530635E+01  0.10701736734E+01  0.39417186016E+02  0.51100000000E-03 0.  1.
         22    1    1    0    0    0  0.10340036425E+02 -0.34160664468E+01 -0.26938504707E+02  0.29056305668E+02  0.00000000000E+00 0. -1.
</event>
<event>
 5    1  0.8778268E-005  0.9118800E+02  0.7818608E-02  0.1130116E+00
         25   -1    0    0    0    0  0.00000000000E+00  0.00000000000E+00  0.99999998245E-14  0.12500000000E+03  0.12500000000E+03 0.  0.
        -11    1    3    3    0    0  0.13468284213E+02 -0.31830447818E+02 -0.91562192397E+01  0.35754837980E+02  0.51100000000E-03 0.  1.
         23    2    1    0    0    0  0.11719604003E+01  0.16939094756E+02  0.23710187616E+02  0.95837019715E+02  0.91292140564E+02 0.  0.
         11    1    3    3    0    0 -0.12296323813E+02  0.48769542574E+02  0.32866406855E+02  0.60082181735E+02  0.51100000000E-03 0. -1.
         22    1    1    0    0    0 -0.11719604003E+01 -0.16939094756E+02 -0.23710187616E+02  0.29162980285E+02  0.00000000000E+00 0. -1.
</event>
<event>
 5    1  0.8778268E-005  0.9118800E+02  0.7818608E-02  0.1130116E+00
         25   -1    0    0    0    0  0.00000000000E+00  0.00000000000E+00  0.99999998245E-14  0.12500000000E+03  0.12500000000E+03 0.  0.
        -11    1    3    3    0    0 -0.39199979984E+02  0.27181104523E+02  0.29641499636E+02  0.56161101973E+02  0.51100000000E-03 0. -1.
         23    2    1    0    0    0 -0.34794059604E+02  0.36000690657E+01  0.66405252268E+01  0.89395454556E+02  0.81999168527E+02 0.  0.
         11    1    3    3    0    0  0.44059203808E+01 -0.23581035457E+02 -0.23000974409E+02  0.33234352584E+02  0.51100000000E-03 0.  1.
         22    1    1    0    0    0  0.34794059604E+02 -0.36000690657E+01 -0.66405252268E+01  0.35604545444E+02  0.00000000000E+00 0. -1.
</event>
<event>
 5    1  0.8778268E-005  0.9118800E+02  0.7818608E-02  0.1130116E+00
         25   -1    0    0    0    0  0.00000000000E+00  0.00000000000E+00  0.99999998245E-14  0.12500000000E+03  0.12500000000E+03 0.  0.
        -11    1    3    3    0    0 -0.45254742390E+02 -0.60129771641E+01  0.28105681135E+02  0.53610417975E+02  0.51100000000E-03 0. -1.
         23    2    1    0    0    0 -0.12176627572E+02 -0.24737370527E+02  0.10553454578E+02  0.95477412662E+02  0.90798420501E+02 0.  0.
         11    1    3    3    0    0  0.33078114818E+02 -0.18724393363E+02 -0.17552226557E+02  0.41866994687E+02  0.51100000000E-03 0.  1.
         22    1    1    0    0    0  0.12176627572E+02  0.24737370527E+02 -0.10553454578E+02  0.29522587338E+02  0.00000000000E+00 0. -1.
</event>
<event>
 5    1  0.8778268E-005  0.9118800E+02  0.7818608E-02  0.1130116E+00
         25   -1    0    0    0    0  0.00000000000E+00  0.00000000000E+00  0.99999998245E-14  0.12500000000E+03  0.12500000000E+03 0.  0.
        -11    1    3    3    0    0  0.46442786885E+02 -0.51031348929E+01  0.11314076697E+02  0.48072682172E+02  0.51100000000E-03 0.  1.
         23    2    1    0    0    0  0.47796606835E+01  0.64114279070E+01  0.29105417587E+02  0.94815949626E+02  0.89883187563E+02 0.  0.
         11    1    3    3    0    0 -0.41663126202E+02  0.11514562800E+02  0.17791340890E+02  0.46743267454E+02  0.51100000000E-03 0. -1.
         22    1    1    0    0    0 -0.47796606835E+01 -0.64114279070E+01 -0.29105417587E+02  0.30184050374E+02  0.00000000000E+00 0.  1.
</event>
<event>
 5    1  0.8778268E-005  0.9118800E+02  0.7818608E-02  0.1130116E+00
         25   -1    0    0    0    0  0.00000000000E+00  0.00000000000E+00  0.99999998245E-14  0.12500000000E+03  0.12500000000E+03 0.  0.
        -11    1    3    3    0    0  0.51417429668E+02 -0.85045990111E+00 -0.25500723492E+02  0.57400019640E+02  0.51100000000E-03 0.  1.
         23    2    1    0    0    0  0.25036279331E+02 -0.17148115956E+02 -0.58966320994E+01  0.94086516960E+02  0.88862980143E+02 0.  0.
         11    1    3    3    0    0 -0.26381150337E+02 -0.16297656054E+02  0.19604091393E+02  0.36686497320E+02  0.51100000000E-03 0. -1.
         22    1    1    0    0    0 -0.25036279331E+02  0.17148115956E+02  0.58966320994E+01  0.30913483040E+02  0.00000000000E+00 0.  1.
</event>
<event>
 5    1  0.8778268E-005  0.9118800E+02  0.7818608E-02  0.1130116E+00
         25   -1    0    0    0    0  0.00000000000E+00  0.00000000000E+00  0.99999998245E-14  0.12500000000E+03  0.12500000000E+03 0.  0.
        -11    1    3    3    0    0  0.20799577142E+02  0.33288698871E+02 -0.39991298300E+02  0.56036272376E+02  0.51100000000E-03 0. -1.
         23    2    1    0    0    0 -0.47343375460E+01  0.28165878775E+02 -0.12753120882E+02  0.93721049068E+02  0.88347395361E+02 0.  0.
         11    1    3    3    0    0 -0.25533914688E+02 -0.51228200963E+01  0.27238177418E+02  0.37684776692E+02  0.51100000000E-03 0.  1.
         22    1    1    0    0    0  0.47343375460E+01 -0.28165878775E+02  0.12753120882E+02  0.31278950932E+02  0.00000000000E+00 0. -1.
</event>
<event>
 5    1  0.8778268E-005  0.9118800E+02  0.7818608E-02  0.1130116E+00
         25   -1    0    0    0    0  0.00000000000E+00  0.00000000000E+00  0.99999998245E-14  0.12500000000E+03  0.12500000000E+03 0.  0.
        -11    1    3    3    0    0 -0.49556196811E+02 -0.27831783848E+02  0.25949130120E+02  0.62480254391E+02  0.51100000000E-03 0.  1.
         23    2    1    0    0    0 -0.23001708966E+02 -0.14002120369E+02  0.12926338276E+02  0.95129810657E+02  0.90318617484E+02 0.  0.
         11    1    3    3    0    0  0.26554487845E+02  0.13829663479E+02 -0.13022791844E+02  0.32649556266E+02  0.51100000000E-03 0. -1.
         22    1    1    0    0    0  0.23001708966E+02  0.14002120369E+02 -0.12926338276E+02  0.29870189343E+02  0.00000000000E+00 0.  1.
</event>
<event>
 5    1  0.8778268E-005  0.9118800E+02  0.7818608E-02  0.1130116E+00
         25   -1    0    0    0    0  0.00000000000E+00  0.00000000000E+00  0.99999998245E-14  0.12500000000E+03  0.12500000000E+03 0.  0.
        -11    1    3    3    0    0 -0.38701073169E+02 -0.32271123867E+02  0.28862524492E+02  0.58071023931E+02  0.51100000000E-03 0.  1.
         23    2    1    0    0    0 -0.36050525155E+02 -0.13372996320E+02  0.92158060907E+01  0.85460039499E+02  0.75762852868E+02 0.  0.
         11    1    3    3    0    0  0.26505480137E+01  0.18898127547E+02 -0.19646718401E+02  0.27389015568E+02  0.51100000000E-03 0. -1.
         22    1    1    0    0    0  0.36050525155E+02  0.13372996320E+02 -0.92158060907E+01  0.39539960501E+02  0.00000000000E+00 0.  1.
</event>
<event>
 5    1  0.8778268E-005  0.9118800E+02  0.7818608E-02  0.1130116E+00
         25   -1    0    0    0    0  0.00000000000E+00  0.00000000000E+00  0.99999998245E-14  0.12500000000E+03  0.12500000000E+03 0.  0.
        -11    1    3    3    0    0  0.48104647564E+01 -0.65488727922E+01 -0.35263542996E+02  0.36187646662E+02  0.51100000000E-03 0.  1.
         23    2    1    0    0    0 -0.21157594453E+02  0.16507870690E+02  0.12625524463E+02  0.95342665903E+02  0.90612728001E+02 0.  0.
         11    1    3    3    0    0 -0.25968059209E+02  0.23056743482E+02  0.47889067459E+02  0.59155019241E+02  0.51100000000E-03 0. -1.
         22    1    1    0    0    0  0.21157594453E+02 -0.16507870690E+02 -0.12625524463E+02  0.29657334097E+02  0.00000000000E+00 0. -1.
</event>
<event>
 5    1  0.8778268E-005  0.9118800E+02  0.7818608E-02  0.1130116E+00
         25   -1    0    0    0    0  0.00000000000E+00  0.00000000000E+00  0.99999998245E-14  0.12500000000E+03  0.12500000000E+03 0.  0.
        -11    1    3    3    0    0 -0.30748786490E+02  0.24552126937E+02  0.13245041451E+02  0.41517778493E+02  0.51100000000E-03 0. -1.
         23    2    1    0    0    0 -0.14951858188E+02 -0.24517899761E+02 -0.42802677263E+01  0.95965431573E+02  0.91467797028E+02 0.  0.
         11    1    3    3    0    0  0.15796928302E+02 -0.49070026697E+02 -0.17525309178E+02  0.54447653080E+02  0.51100000000E-03 0.  1.
         22    1    1    0    0    0  0.14951858188E+02  0.24517899761E+02  0.42802677263E+01  0.29034568427E+02  0.00000000000E+00 0.  1.
</event>
<event>
 5    1  0.8778268E-005  0.9118800E+02  0.7818608E-02  0.1130116E+00
         25   -1    0    0    0    0  0.00000000000E+00  0.00000000000E+00  0.99999998245E-14  0.12500000000E+03  0.12500000000E+03 0.  0.
        -11    1    3    3    0    0 -0.20831485383E+02 -0.57047476431E+02  0.52998919610E+01  0.60962728002E+02  0.51100000000E-03 0. -1.
         23    2    1    0    0    0 -0.12544436168E+02 -0.23935647000E+02  0.11459245780E+02  0.95647105936E+02  0.91031733390E+02 0.  0.
         11    1    3    3    0    0  0.82870492150E+01  0.33111829431E+02  0.61593538189E+01  0.34684377934E+02  0.51100000000E-03 0.  1.
         22    1    1    0    0    0  0.12544436168E+02  0.23935647000E+02 -0.11459245780E+02  0.29352894064E+02  0.00000000000E+00 0. -1.
</event>
<event>
 5    1  0.8778268E-005  0.9118800E+02  0.7818608E-02  0.1130116E+00
         25   -1    0    0    0    0  0.00000000000E+00  0.00000000000E+00  0.99999998245E-14  0.12500000000E+03  0.12500000000E+03 0.  0.
        -11    1    3    3    0    0 -0.16145742244E+02  0.19374860023E+02 -0.43583786617E+02  0.50354906908E+02  0.51100000000E-03 0. -1.
         23    2    1    0    0    0  0.56335814878E+01 -0.15353263850E+02 -0.24429594240E+02  0.95601615250E+02  0.90969246520E+02 0.  0.
         11    1    3    3    0    0  0.21779323731E+02 -0.34728123872E+02  0.19154192378E+02  0.45246708342E+02  0.51100000000E-03 0.  1.
         22    1    1    0    0    0 -0.56335814878E+01  0.15353263850E+02  0.24429594240E+02  0.29398384750E+02  0.00000000000E+00 0. -1.
</event>
<event>
 5    1  0.8778268E-005  0.9118800E+02  0.7818608E-02  0.1130116E+00
         25   -1    0    0    0    0  0.00000000000E+00  0.00000000000E+00  0.99999998245E-14  0.12500000000E+03  0.12500000000E+03 0.  0.
        -11    1    3    3    0    0 -0.21192337037E+02  0.51955623795E+02 -0.26801927257E+02  0.62183963351E+02  0.51100000000E-03 0. -1.
         23    2    1    0    0    0 -0.14103212096E+02  0.25237152592E+02 -0.10710677968E+02  0.94169283419E+02  0.88979328243E+02 0.  0.
         11    1    3    3    0    0  0.70891249411E+01 -0.26718471203E+02  0.16091249290E+02  0.31985320068E+02  0.51100000000E-03 0.  1.
         22    1    1    0    0    0  0.14103212096E+02 -0.25237152592E+02  0.10710677968E+02  0.30830716581E+02  0.00000000000E+00 0. -1.
</event>
<event>
 5    1  0.8778268E-005  0.9118800E+02  0.7818608E-02  0.1130116E+00
         25   -1    0    0    0    0  0.00000000000E+00  0.00000000000E+00  0.99999998245E-14  0.12500000000E+03  0.12500000000E+03 0.  0.
        -11    1    3    3    0    0 -0.28831909342E+02 -0.44754930742E+02 -0.29597347300E+02  0.60912115293E+02  0.51100000000E-03 0. -1.
         23    2    1    0    0    0 -0.71088479207E+01 -0.27306795581E+02 -0.96521125691E+01  0.95177859220E+02  0.90385091719E+02 0.  0.
         11    1    3    3    0    0  0.21723061422E+02  0.17448135161E+02  0.19945234731E+02  0.34265743927E+02  0.51100000000E-03 0.  1.
         22    1    1    0    0    0  0.71088479207E+01  0.27306795581E+02  0.96521125691E+01  0.29822140780E+02  0.00000000000E+00 0. -1.
</event>
<event>
 5    1  0.8778268E-005  0.9118800E+02  0.7818608E-02  0.1130116E+00
         25   -1    0    0    0    0  0.00000000000E+00  0.00000000000E+00  0.99999998245E-14  0.12500000000E+03  0.12500000000E+03 0.  0.
        -11    1    3    3    0    0 -0.28998695424E+02  0.16050610619E+02  0.17151433107E+02  0.37319138460E+02  0.51100000000E-03 0. -1.
         23    2    1    0    0    0  0.18895235351E+02 -0.16516764586E+02  0.15978233301E+02  0.95248741694E+02  0.90483067054E+02 0.  0.
         11    1    3    3    0    0  0.47893930775E+02 -0.32567375205E+02 -0.11731998062E+01  0.57929603234E+02  0.51100000000E-03 0.  1.
         22    1    1    0    0    0 -0.18895235351E+02  0.16516764586E+02 -0.15978233301E+02  0.29751258306E+02  0.00000000000E+00 0.  1.
</event>
<event>
 5    1  0.8778268E-005  0.9118800E+02  0.7818608E-02  0.1130116E+00
         25   -1    0    0    0    0  0.00000000000E+00  0.00000000000E+00  0.99999998245E-14  0.12500000000E+03  0.12500000000E+03 0.  0.
        -11    1    3    3    0    0  0.37778860364E+02 -0.38185690801E+02 -0.30060761986E+02  0.61555167807E+02  0.51100000000E-03 0.  1.
         23    2    1    0    0    0  0.24991478155E+02 -0.19554185505E+02 -0.24720293959E+02  0.84775218030E+02  0.74624422996E+02 0.  0.
         11    1    3    3    0    0 -0.12787382209E+02  0.18631505296E+02  0.53404680271E+01  0.23220050223E+02  0.51100000000E-03 0. -1.
         22    1    1    0    0    0 -0.24991478155E+02  0.19554185505E+02  0.24720293959E+02  0.40224781970E+02  0.00000000000E+00 0.  1.
</event>
<event>
 5    1  0.8778268E-005  0.9118800E+02  0.7818608E-02  0.1130116E+00
         25   -1    0    0    0    0  0.00000000000E+00  0.00000000000E+00  0.99999998245E-14  0.12500000000E+03  0.12500000000E+03 0.  0.
        -11    1    3    3    0    0 -0.44207405449E+02 -0.29934099815E+02  0.22895569494E+02  0.58090895422E+02  0.51100000000E-03 0. -1.
         23    2    1    0    0    0 -0.80212838847E+01 -0.25090546207E+02  0.10419207070E+02  0.96672691972E+02  0.92429286447E+02 0.  0.
         11    1    3    3    0    0  0.36186121564E+02  0.48435536073E+01 -0.12476362425E+02  0.38581796550E+02  0.51100000000E-03 0.  1.
         22    1    1    0    0    0  0.80212838847E+01  0.25090546207E+02 -0.10419207070E+02  0.28327308028E+02  0.00000000000E+00 0.  1.
</event>
<event>
 5    1  0.8778268E-005  0.9118800E+02  0.7818608E-02  0.1130116E+00
         25   -1    0    0    0    0  0.00000000000E+00  0.00000000000E+00  0.99999998245E-14  0.12500000000E+03  0.12500000000E+03 0.  0.
        -11    1    3    3    0    0  0.48007144724E+02 -0.25424396821E+02 -0.30858651794E+02  0.62476733983E+02  0.51100000000E-03 0. -1.
         23    2    1    0    0    0  0.21551897664E+02 -0.12649614280E+02 -0.13607293631E+02  0.96545554401E+02  0.92257187256E+02 0.  0.
         11    1    3    3    0    0 -0.26455247060E+02  0.12774782542E+02  0.17251358163E+02  0.34068820419E+02  0.51100000000E-03 0.  1.
         22    1    1    0    0    0 -0.21551897664E+02  0.12649614280E+02  0.13607293631E+02  0.28454445599E+02  0.00000000000E+00 0. -1.
</event>
<event>
 5    1  0.8778268E-005  0.9118800E+02  0.7818608E-02  0.1130116E+00
         25   -1    0    0    0    0  0.00000000000E+00  0.00000000000E+00  0.99999998245E-14  0.12500000000E+03  0.12500000000E+03 0.  0.
        -11    1    3    3    0    0  0.19469054116E+02 -0.12489683961E+02 -0.45630651688E+02  0.51158505132E+02  0.51100000000E-03 0.  1.
         23    2    1    0    0    0  0.23482866056E+02 -0.18516433133E+02 -0.23916627462E+01  0.94999610921E+02  0.90138242330E+02 0.  0.
         11    1    3    3    0    0  0.40138119394E+01 -0.60267491725E+01  0.43238988942E+02  0.43841105789E+02  0.51100000000E-03 0. -1.
         22    1    1    0    0    0 -0.23482866056E+02  0.18516433133E+02  0.23916627462E+01  0.30000389079E+02  0.00000000000E+00 0.  1.
</event>
<event>
 5    1  0.8778268E-005  0.9118800E+02  0.7818608E-02  0.1130116E+00
         25   -1    0    0    0    0  0.00000000000E+00  0.00000000000E+00  0.99999998245E-14  0.12500000000E+03  0.12500000000E+03 0.  0.
        -11    1    3    3    0    0 -0.61097285518E+01  0.55147529884E+02 -0.14203550577E+01  0.55503119228E+02  0.51100000000E-03 0. -1.
         23    2    1    0    0    0  0.43617888360E+01  0.23090037968E+02  0.18871658134E+02  0.94861742984E+02  0.89946849561E+02 0.  0.
         11    1    3    3    0    0  0.10471517388E+02 -0.32057491916E+02  0.20292013192E+02  0.39358623756E+02  0.51100000000E-03 0.  1.
         22    1    1    0    0    0 -0.43617888360E+01 -0.23090037968E+02 -0.18871658134E+02  0.30138257016E+02  0.00000000000E+00 0. -1.
</event>
<event>
 5    1  0.8778268E-005  0.9118800E+02  0.7818608E-02  0.1130116E+00
         25   -1    0    0    0    0  0.00000000000E+00  0.00000000000E+00  0.99999998245E-14  0.12500000000E+03  0.12500000000E+03 0.  0.
        -11    1    3    3    0    0 -0.39569174943E+02  0.19044721904E+01 -0.37611891387E+02  0.54626010233E+02  0.51100000000E-03 0.  1.
         23    2    1    0    0    0 -0.26777764018E+02 -0.14651027528E+02 -0.40027515241E+01  0.94214885526E+02  0.89043367981E+02 0.  0.
         11    1    3    3    0    0  0.12791410925E+02 -0.16555499718E+02  0.33609139863E+02  0.39588875293E+02  0.51100000000E-03 0. -1.
         22    1    1    0    0    0  0.26777764018E+02  0.14651027528E+02  0.40027515241E+01  0.30785114474E+02  0.00000000000E+00 0.  1.
</event>
<event>
 5    1  0.8778268E-005  0.9118800E+02  0.7818608E-02  0.1130116E+00
         25   -1    0    0    0    0  0.00000000000E+00  0.00000000000E+00  0.99999998245E-14  0.12500000000E+03  0.12500000000E+03 0.  0.
        -11    1    3    3    0    0 -0.11478895707E+02  0.19163311678E+02  0.46656043369E+02  0.51727980283E+02  0.51100000000E-03 0.  1.
         23    2    1    0    0    0  0.29252191165E+01 -0.15412589173E+02  0.26347947192E+02  0.94335376521E+02  0.89212354135E+02 0.  0.
         11    1    3    3    0    0  0.14404114823E+02 -0.34575900852E+02 -0.20308096177E+02  0.42607396237E+02  0.51100000000E-03 0. -1.
         22    1    1    0    0    0 -0.29252191165E+01  0.15412589173E+02 -0.26347947192E+02  0.30664623479E+02  0.00000000000E+00 0.  1.
</event>
<event>
 5    1  0.8778268E-005  0.9118800E+02  0.7818608E-02  0.1130116E+00
         25   -1    0    0    0    0  0.00000000000E+00  0.00000000000E+00  0.99999998245E-14  0.12500000000E+03  0.12500000000E+03 0.  0.
        -11    1    3    3    0    0 -0.46611281290E+02  0.18513557109E+02  0.16110888331E+02  0.52677548001E+02  0.51100000000E-03 0. -1.
         23    2    1    0    0    0 -0.15353056200E+02  0.10587913230E+02 -0.17619951910E+02  0.99342974714E+02  0.95972619420E+02 0.  0.
         11    1    3    3    0    0  0.31258225090E+02 -0.79256438795E+01 -0.33730840240E+02  0.46665426712E+02  0.51100000000E-03 0.  1.
         22    1    1    0    0    0  0.15353056200E+02 -0.10587913230E+02  0.17619951910E+02  0.25657025286E+02  0.00000000000E+00 0. -1.
</event>
<event>
 5    1  0.8778268E-005  0.9118800E+02  0.7818608E-02  0.1130116E+00
         25   -1    0    0    0    0  0.00000000000E+00  0.00000000000E+00  0.99999998245E-14  0.12500000000E+03  0.12500000000E+03 0.  0.
        -11    1    3    3    0    0  0.12436680673E+02  0.70914664585E+01 -0.58456422759E+02  0.60183995254E+02  0.51100000000E-03 0. -1.
         23    2    1    0    0    0  0.15073637707E+02 -0.41781751828E+01 -0.25824759197E+02  0.94807453086E+02  0.89871370700E+02 0.  0.
         11    1    3    3    0    0  0.26369570338E+01 -0.11269641641E+02  0.32631663562E+02  0.34623457831E+02  0.51100000000E-03 0.  1.
         22    1    1    0    0    0 -0.15073637707E+02  0.41781751828E+01  0.25824759197E+02  0.30192546914E+02  0.00000000000E+00 0. -1.
</event>
<event>
 5    1  0.8778268E-005  0.9118800E+02  0.7818608E-02  0.1130116E+00
         25   -1    0    0    0    0  0.00000000000E+00  0.00000000000E+00  0.99999998245E-14  0.12500000000E+03  0.12500000000E+03 0.  0.
        -11    1    3    3    0    0  0.56720467958E+01  0.19113965554E+02  0.59029551822E+02  0.62305728329E+02  0.51100000000E-03 0.  1.
         23    2    1    0    0    0  0.43792271607E+01  0.56555968895E+01  0.26925287381E+02  0.97140809286E+02  0.93060208046E+02 0.  0.
         11    1    3    3    0    0 -0.12928196351E+01 -0.13458368664E+02 -0.32104264441E+02  0.34835080957E+02  0.51100000000E-03 0. -1.
         22    1    1    0    0    0 -0.43792271607E+01 -0.56555968895E+01 -0.26925287381E+02  0.27859190714E+02  0.00000000000E+00 0.  1.
</event>
<event>
 5    1  0.8778268E-005  0.9118800E+02  0.7818608E-02  0.1130116E+00
         25   -1    0    0    0    0  0.00000000000E+00  0.00000000000E+00  0.99999998245E-14  0.12500000000E+03  0.12500000000E+03 0.  0.
        -11    1    3    3    0    0  0.26198742888E+02  0.13916667154E+02  0.27829628569E+02  0.40675987758E+02  0.51100000000E-03 0. -1.
         23    2    1    0    0    0 -0.99087047791E+01  0.24993389419E+02 -0.11993214648E+02  0.95560415379E+02  0.90912616533E+02 0.  0.
         11    1    3    3    0    0 -0.36107447667E+02  0.11076722265E+02 -0.39822843217E+02  0.54884427621E+02  0.51100000000E-03 0.  1.
         22    1    1    0    0    0  0.99087047791E+01 -0.24993389419E+02  0.11993214648E+02  0.29439584621E+02  0.00000000000E+00 0.  1.
</event>
<event>
 5    1  0.8778268E-005  0.9118800E+02  0.7818608E-02  0.1130116E+00
         25   -1    0    0    0    0  0.00000000000E+00  0.00000000000E+00  0.99999998245E-14  0.12500000000E+03  0.12500000000E+03 0.  0.
        -11    1    3    3    0    0  0.11139665435E+01 -0.10429710050E+02 -0.29451393223E+02  0.31263466479E+02  0.51100000000E-03 0. -1.
         23    2    1    0    0    0  0.92075486117E+01 -0.30179388119E+01  0.30906108707E+02  0.92610581025E+02  0.86762003528E+02 0.  0.
         11    1    3    3    0    0  0.80935820682E+01  0.74117712381E+01  0.60357501931E+02  0.61347114546E+02  0.51100000000E-03 0.  1.
         22    1    1    0    0    0 -0.92075486117E+01  0.30179388119E+01 -0.30906108707E+02  0.32389418975E+02  0.00000000000E+00 0.  1.
</event>
<event>
 5    1  0.8778268E-005  0.9118800E+02  0.7818608E-02  0.1130116E+00
         25   -1    0    0    0    0  0.00000000000E+00  0.00000000000E+00  0.99999998245E-14  0.12500000000E+03  0.12500000000E+03 0.  0.
        -11    1    3    3    0    0  0.23780467424E+01 -0.42543467356E+02  0.26761449530E+02  0.50316765617E+02  0.51100000000E-03 0.  1.
         23    2    1    0    0    0 -0.13833434692E+01 -0.26344493560E+02 -0.14566302593E+02  0.94864918263E+02  0.89951262168E+02 0.  0.
         11    1    3    3    0    0 -0.37613902116E+01  0.16198973796E+02 -0.41327752122E+02  0.44548152645E+02  0.51100000000E-03 0. -1.
         22    1    1    0    0    0  0.13833434692E+01  0.26344493560E+02  0.14566302593E+02  0.30135081737E+02  0.00000000000E+00 0.  1.
</event>
<event>
 5    1  0.8778268E-005  0.9118800E+02  0.7818608E-02  0.1130116E+00
         25   -1    0    0    0    0  0.00000000000E+00  0.00000000000E+00  0.99999998245E-14  0.12500000000E+03  0.12500000000E+03 0.  0.
        -11    1    3    3    0    0 -0.20332462418E+02 -0.30602870789E+02 -0.15766992592E+02  0.39981780652E+02  0.51100000000E-03 0.  1.
         23    2    1    0    0    0  0.27699009608E+02 -0.87525249252E+01  0.25520330224E+01  0.95839158133E+02  0.91295068505E+02 0.  0.
         11    1    3    3    0    0  0.48031472026E+02  0.21850345864E+02  0.18319025614E+02  0.55857377481E+02  0.51100000000E-03 0. -1.
         22    1    1    0    0    0 -0.27699009608E+02  0.87525249252E+01 -0.25520330224E+01  0.29160841867E+02  0.00000000000E+00 0.  1.
</event>
<event>
 5    1  0.8778268E-005  0.9118800E+02  0.7818608E-02  0.1130116E+00
         25   -1    0    0    0    0  0.00000000000E+00  0.00000000000E+00  0.99999998245E-14  0.12500000000E+03  0.12500000000E+03 0.  0.
        -11    1    3    3    0    0  0.17482034801E+02 -0.27159143014E+02 -0.99563535695E+01  0.33798958071E+02  0.51100000000E-03 0.  1.
         23    2    1    0    0    0 -0.19496146767E+02  0.21131943218E+02  0.33303235004E+01  0.96056091875E+02  0.91591609707E+02 0.  0.
         11    1    3    3    0    0 -0.36978181569E+02  0.48291086232E+02  0.13286677070E+02  0.62257133803E+02  0.51100000000E-03 0. -1.
         22    1    1    0    0    0  0.19496146767E+02 -0.21131943218E+02 -0.33303235004E+01  0.28943908125E+02  0.00000000000E+00 0. -1.
</event>
<event>
 5    1  0.8778268E-005  0.9118800E+02  0.7818608E-02  0.1130116E+00
         25   -1    0    0    0    0  0.00000000000E+00  0.00000000000E+00  0.99999998245E-14  0.12500000000E+03  0.12500000000E+03 0.  0.
        -11    1    3    3    0    0  0.29402136197E+01  0.10841413052E+02  0.26489557628E+02  0.28772864937E+02  0.51100000000E-03 0.  1.
         23    2    1    0    0    0  0.10662335815E+02 -0.35137895500E+02 -0.87934238534E+01  0.87241803430E+02  0.78647637329E+02 0.  0.
         11    1    3    3    0    0  0.77221221952E+01 -0.45979308552E+02 -0.35282981481E+02  0.58468938493E+02  0.51100000000E-03 0. -1.
         22    1    1    0    0    0 -0.10662335815E+02  0.35137895500E+02  0.87934238534E+01  0.37758196570E+02  0.00000000000E+00 0. -1.
</event>
<event>
 5    1  0.8778268E-005  0.9118800E+02  0.7818608E-02  0.1130116E+00
         25   -1    0    0    0    0  0.00000000000E+00  0.00000000000E+00  0.99999998245E-14  0.12500000000E+03  0.12500000000E+03 0.  0.
        -11    1    3    3    0    0 -0.40693107107E+02  0.39229898189E+02 -0.17505555616E+02  0.59172276918E+02  0.51100000000E-03 0.  1.
         23    2    1    0    0    0 -0.76237074487E+01  0.27219381599E+02 -0.83066746131E+01  0.95537880371E+02  0.90881626817E+02 0.  0.
         11    1    3    3    0    0  0.33069399659E+02 -0.12010516590E+02  0.91988810026E+01  0.36365603453E+02  0.51100000000E-03 0. -1.
         22    1    1    0    0    0  0.76237074487E+01 -0.27219381599E+02  0.83066746131E+01  0.29462119629E+02  0.00000000000E+00 0.  1.
</event>
<event>
 5    1  0.8778268E-005  0.9118800E+02  0.7818608E-02  0.1130116E+00
         25   -1    0    0    0    0  0.00000000000E+00  0.00000000000E+00  0.99999998245E-14  0.12500000000E+03  0.12500000000E+03 0.  0.
        -11    1    3    3    0    0  0.21624918120E+02 -0.39652239710E+02 -0.88889648639E+01  0.46032063763E+02  0.51100000000E-03 0.  1.
         23    2    1    0    0    0  0.22883223292E+02 -0.12761525379E+02  0.24641521364E+02  0.89031916741E+02  0.81443103976E+02 0.  0.
         11    1    3    3    0    0  0.12583051723E+01  0.26890714331E+02  0.33530486228E+02  0.42999852977E+02  0.51100000000E-03 0. -1.
         22    1    1    0    0    0 -0.22883223292E+02  0.12761525379E+02 -0.24641521364E+02  0.35968083259E+02  0.00000000000E+00 0.  1.
</event>
<event>
 5    1  0.8778268E-005  0.9118800E+02  0.7818608E-02  0.1130116E+00
         25   -1    0    0    0    0  0.00000000000E+00  0.00000000000E+00  0.99999998245E-14  0.12500000000E+03  0.12500000000E+03 0.  0.
        -11    1    3    3    0    0 -0.37141815814E+02  0.31986059994E+02  0.18317470236E+02  0.52327356440E+02  0.51100000000E-03 0.  1.
         23    2    1    0    0    0 -0.22424240903E+02 -0.31673252360E+01  0.25270718553E+02  0.91066421565E+02  0.84508019686E+02 0.  0.
         11    1    3    3    0    0  0.14717574911E+02 -0.35153385230E+02  0.69532483169E+01  0.38739065125E+02  0.51100000000E-03 0. -1.
         22    1    1    0    0    0  0.22424240903E+02  0.31673252360E+01 -0.25270718553E+02  0.33933578435E+02  0.00000000000E+00 0. -1.
</event>
<event>
 5    1  0.8778268E-005  0.9118800E+02  0.7818608E-02  0.1130116E+00
         25   -1    0    0    0    0  0.00000000000E+00  0.00000000000E+00  0.99999998245E-14  0.12500000000E+03  0.12500000000E+03 0.  0.
        -11    1    3    3    0    0  0.26244026792E+02  0.23394448731E+02 -0.89389958127E+01  0.36276091577E+02  0.51100000000E-03 0.  1.
         23    2    1    0    0    0 -0.12932617357E+02 -0.34588205688E+01  0.26348057040E+02  0.95446046944E+02  0.90755229800E+02 0.  0.
         11    1    3    3    0    0 -0.39176644149E+02 -0.26853269300E+02  0.35287052853E+02  0.59169955367E+02  0.51100000000E-03 0. -1.
         22    1    1    0    0    0  0.12932617357E+02  0.34588205688E+01 -0.26348057040E+02  0.29553953056E+02  0.00000000000E+00 0. -1.
</event>
<event>
 5    1  0.8778268E-005  0.9118800E+02  0.7818608E-02  0.1130116E+00
         25   -1    0    0    0    0  0.00000000000E+00  0.00000000000E+00  0.99999998245E-14  0.12500000000E+03  0.12500000000E+03 0.  0.
        -11    1    3    3    0    0 -0.37202767503E+02 -0.36869476693E+02  0.73033171744E+01  0.52884238328E+02  0.51100000000E-03 0. -1.
         23    2    1    0    0    0 -0.51140060108E+01 -0.12707781569E+02  0.24777075693E+02  0.96688443176E+02  0.92450585688E+02 0.  0.
         11    1    3    3    0    0  0.32088761492E+02  0.24161695124E+02  0.17473758519E+02  0.43804204848E+02  0.51100000000E-03 0.  1.
         22    1    1    0    0    0  0.51140060108E+01  0.12707781569E+02 -0.24777075693E+02  0.28311556824E+02  0.00000000000E+00 0. -1.
</event>
<event>
 5    1  0.8778268E-005  0.9118800E+02  0.7818608E-02  0.1130116E+00
         25   -1    0    0    0    0  0.00000000000E+00  0.00000000000E+00  0.99999998245E-14  0.12500000000E+03  0.12500000000E+03 0.  0.
        -11    1    3    3    0    0  0.14452109290E+02 -0.17219307950E+01  0.48155386002E+02  0.50306756106E+02  0.51100000000E-03 0. -1.
         23    2    1    0    0    0 -0.17842363305E+02 -0.13710238272E+02  0.16423217896E+02  0.97142457972E+02  0.93062422561E+02 0.  0.
         11    1    3    3    0    0 -0.32294472595E+02 -0.11988307477E+02 -0.31732168106E+02  0.46835701866E+02  0.51100000000E-03 0.  1.
         22    1    1    0    0    0  0.17842363305E+02  0.13710238272E+02 -0.16423217896E+02  0.27857542028E+02  0.00000000000E+00 0.  1.
</event>
<event>
 5    1  0.8778268E-005  0.9118800E+02  0.7818608E-02  0.1130116E+00
         25   -1    0    0    0    0  0.00000000000E+00  0.00000000000E+00  0.99999998245E-14  0.12500000000E+03  0.12500000000E+03 0.  0.
        -11    1    3    3    0    0  0.28541967004E+02  0.22408001589E+02 -0.12370250090E+02  0.38337781668E+02  0.51100000000E-03 0.  1.
         23    2    1    0    0    0 -0.17197792754E+02 -0.14807454754E+02 -0.15709032220E+02  0.97399302813E+02  0.93406775468E+02 0.  0.
         11    1    3    3    0    0 -0.45739759759E+02 -0.37215456343E+02 -0.33387821302E+01  0.59061521145E+02  0.51100000000E-03 0. -1.
         22    1    1    0    0    0  0.17197792754E+02  0.14807454754E+02  0.15709032220E+02  0.27600697187E+02  0.00000000000E+00 0. -1.
</event>
<event>
 5    1  0.8778268E-005  0.9118800E+02  0.7818608E-02  0.1130116E+00
         25   -1    0    0    0    0  0.00000000000E+00  0.00000000000E+00  0.99999998245E-14  0.12500000000E+03  0.12500000000E+03 0.  0.
        -11    1    3    3    0    0  0.45349925929E+02 -0.31270891562E+02 -0.27084736368E+02  0.61384585893E+02  0.51100000000E-03 0.  1.
         23    2    1    0    0    0  0.20810992031E+02 -0.76553627519E+01 -0.17464688392E+02  0.96773818735E+02  0.92565947754E+02 0.  0.
         11    1    3    3    0    0 -0.24538933898E+02  0.23615528810E+02  0.96200479754E+01  0.35389232842E+02  0.51100000000E-03 0. -1.
         22    1    1    0    0    0 -0.20810992031E+02  0.76553627519E+01  0.17464688392E+02  0.28226181265E+02  0.00000000000E+00 0.  1.
</event>
<event>
 5    1  0.8778268E-005  0.9118800E+02  0.7818608E-02  0.1130116E+00
         25   -1    0    0    0    0  0.00000000000E+00  0.00000000000E+00  0.99999998245E-14  0.12500000000E+03  0.12500000000E+03 0.  0.
        -11    1    3    3    0    0 -0.34578711300E+02  0.21938662023E+02  0.36544507167E+02  0.54886183789E+02  0.51100000000E-03 0. -1.
         23    2    1    0    0    0 -0.26160576854E+02 -0.83431990704E+01  0.10877279733E+02  0.95465275243E+02  0.90781709671E+02 0.  0.
         11    1    3    3    0    0  0.84181344458E+01 -0.30281861094E+02 -0.25667227434E+02  0.40579091454E+02  0.51100000000E-03 0.  1.
         22    1    1    0    0    0  0.26160576854E+02  0.83431990704E+01 -0.10877279733E+02  0.29534724757E+02  0.00000000000E+00 0. -1.
</event>
<event>
 5    1  0.8778268E-005  0.9118800E+02  0.7818608E-02  0.1130116E+00
         25   -1    0    0    0    0  0.00000000000E+00  0.00000000000E+00  0.99999998245E-14  0.12500000000E+03  0.12500000000E+03 0.  0.
        -11    1    3    3    0    0 -0.16901546046E+02  0.53724353387E+02  0.20617738782E+01  0.56357957001E+02  0.51100000000E-03 0. -1.
         23    2    1    0    0    0 -0.14963739636E+02  0.24588365630E+02  0.19372896729E+02  0.90304029688E+02  0.83372701899E+02 0.  0.
         11    1    3    3    0    0  0.19378064096E+01 -0.29135987757E+02  0.17311122851E+02  0.33946072687E+02  0.51100000000E-03 0.  1.
         22    1    1    0    0    0  0.14963739636E+02 -0.24588365630E+02 -0.19372896729E+02  0.34695970312E+02  0.00000000000E+00 0. -1.
</event>
<event>
 5    1  0.8778268E-005  0.9118800E+02  0.7818608E-02  0.1130116E+00
         25   -1    0    0    0    0  0.00000000000E+00  0.00000000000E+00  0.99999998245E-14  0.12500000000E+03  0.12500000000E+03 0.  0.
        -11    1    3    3    0    0 -0.14990418681E+02  0.11336437034E+02  0.46537331542E+02  0.50189149068E+02  0.51100000000E-03 0. -1.
         23    2    1    0    0    0  0.54723120492E+01  0.25335675201E+02  0.49418467414E+01  0.98613175896E+02  0.95017335124E+02 0.  0.
         11    1    3    3    0    0  0.20462730730E+02  0.13999238167E+02 -0.41595484801E+02  0.48424026828E+02  0.51100000000E-03 0.  1.
         22    1    1    0    0    0 -0.54723120492E+01 -0.25335675201E+02 -0.49418467414E+01  0.26386824104E+02  0.00000000000E+00 0.  1.
</event>
<event>
 5    1  0.8778268E-005  0.9118800E+02  0.7818608E-02  0.1130116E+00
         25   -1    0    0    0    0  0.00000000000E+00  0.00000000000E+00  0.99999998245E-14  0.12500000000E+03  0.12500000000E+03 0.  0.
        -11    1    3    3    0    0 -0.17463864494E+02  0.28294602618E+02 -0.27479817775E+02  0.43135965105E+02  0.51100000000E-03 0.  1.
         23    2    1    0    0    0 -0.12366677905E+02  0.14207004609E+02  0.22699265169E+02  0.95503723259E+02  0.90834634446E+02 0.  0.
         11    1    3    3    0    0  0.50971865890E+01 -0.14087598009E+02  0.50179082943E+02  0.52367758154E+02  0.51100000000E-03 0. -1.
         22    1    1    0    0    0  0.12366677905E+02 -0.14207004609E+02 -0.22699265169E+02  0.29496276741E+02  0.00000000000E+00 0.  1.
</event>
<event>
 5    1  0.8778268E-005  0.9118800E+02  0.7818608E-02  0.1130116E+00
         25   -1    0    0    0    0  0.00000000000E+00  0.00000000000E+00  0.99999998245E-14  0.12500000000E+03  0.12500000000E+03 0.  0.
        -11    1    3    3    0    0 -0.29449956765E+02  0.21016045300E+02  0.75727228151E+01  0.36963769350E+02  0.51100000000E-03 0.  1.
         23    2    1    0    0    0  0.25245503257E+02 -0.59006570457E+01  0.78072567267E+01  0.97924061496E+02  0.94106404533E+02 0.  0.
         11    1    3    3    0    0  0.54695460021E+02 -0.26916702346E+02  0.23453391164E+00  0.60960292146E+02  0.51100000000E-03 0. -1.
         22    1    1    0    0    0 -0.25245503257E+02  0.59006570457E+01 -0.78072567267E+01  0.27075938504E+02  0.00000000000E+00 0. -1.
</event>
<event>
 5    1  0.8778268E-005  0.9118800E+02  0.7818608E-02  0.1130116E+00
         25   -1    0    0    0    0  0.00000000000E+00  0.00000000000E+00  0.99999998245E-14  0.12500000000E+03  0.12500000000E+03 0.  0.
        -11    1    3    3    0    0 -0.29710713761E+02 -0.12904923802E+02 -0.18378529615E+02  0.37242904313E+02  0.51100000000E-03 0.  1.
         23    2    1    0    0    0  0.18694012329E+02 -0.19933583983E+02  0.12354566841E+02  0.95009181585E+02  0.90151513555E+02 0.  0.
         11    1    3    3    0    0  0.48404726091E+02 -0.70286601810E+01  0.30733096456E+02  0.57766277272E+02  0.51100000000E-03 0. -1.
         22    1    1    0    0    0 -0.18694012329E+02  0.19933583983E+02 -0.12354566841E+02  0.29990818415E+02  0.00000000000E+00 0. -1.
</event>
<event>
 5    1  0.8778268E-005  0.9118800E+02  0.7818608E-02  0.1130116E+00
         25   -1    0    0    0    0  0.00000000000E+00  0.00000000000E+00  0.99999998245E-14  0.12500000000E+03  0.12500000000E+03 0.  0.
        -11    1    3    3    0    0  0.18581832139E+02 -0.48968512868E+02  0.29370744346E+02  0.60048649959E+02  0.51100000000E-03 0.  1.
         23    2    1    0    0    0  0.55694443210E+01 -0.26795591146E+02  0.20633291602E+01  0.97554057820E+02  0.93613644598E+02 0.  0.
         11    1    3    3    0    0 -0.13012387818E+02  0.22172921722E+02 -0.27307415186E+02  0.37505407861E+02  0.51100000000E-03 0. -1.
         22    1    1    0    0    0 -0.55694443210E+01  0.26795591146E+02 -0.20633291602E+01  0.27445942180E+02  0.00000000000E+00 0.  1.
</event>
<event>
 5    1  0.8778268E-005  0.9118800E+02  0.7818608E-02  0.1130116E+00
         25   -1    0    0    0    0  0.00000000000E+00  0.00000000000E+00  0.99999998245E-14  0.12500000000E+03  0.12500000000E+03 0.  0.
        -11    1    3    3    0    0 -0.18221817209E+02  0.26722333818E+02 -0.25553193871E+02  0.41219940131E+02  0.51100000000E-03 0.  1.
         23    2    1    0    0    0  0.23619606218E+02  0.15353639899E+02  0.76237639958E+01  0.95815383616E+02  0.91262510945E+02 0.  0.
         11    1    3    3    0    0  0.41841423427E+02 -0.11368693919E+02  0.33176957867E+02  0.54595443485E+02  0.51100000000E-03 0. -1.
         22    1    1    0    0    0 -0.23619606218E+02 -0.15353639899E+02 -0.76237639958E+01  0.29184616384E+02  0.00000000000E+00 0. -1.
</event>
<event>
 5    1  0.8778268E-005  0.9118800E+02  0.7818608E-02  0.1130116E+00
         25   -1    0    0    0    0  0.00000000000E+00  0.00000000000E+00  0.99999998245E-14  0.12500000000E+03  0.12500000000E+03 0.  0.
        -11    1    3    3    0    0 -0.28379898092E+02  0.78676475519E+01 -0.29494865917E+02  0.41680518344E+02  0.51100000000E-03 0.  1.
         23    2    1    0    0    0  0.21486702848E+02  0.15364411189E+02 -0.16849119740E+02  0.93668923311E+02  0.88273613429E+02 0.  0.
         11    1    3    3    0    0  0.49866600940E+02  0.74967636375E+01  0.12645746178E+02  0.51988404967E+02  0.51100000000E-03 0. -1.
         22    1    1    0    0    0 -0.21486702848E+02 -0.15364411189E+02  0.16849119740E+02  0.31331076689E+02  0.00000000000E+00 0. -1.
</event>
<event>
 5    1  0.8778268E-005  0.9118800E+02  0.7818608E-02  0.1130116E+00
         25   -1    0    0    0    0  0.00000000000E+00  0.00000000000E+00  0.99999998245E-14  0.12500000000E+03  0.12500000000E+03 0.  0.
        -11    1    3    3    0    0  0.11055201001E+02  0.43048910811E+02 -0.28520081759E+02  0.52809291370E+02  0.51100000000E-03 0.  1.
         23    2    1    0    0    0 -0.12207650330E+02  0.73783274056E+01 -0.25846188496E+02  0.95478958324E+02  0.90800548351E+02 0.  0.
         11    1    3    3    0    0 -0.23262851331E+02 -0.35670583405E+02  0.26738932631E+01  0.42669666954E+02  0.51100000000E-03 0. -1.
         22    1    1    0    0    0  0.12207650330E+02 -0.73783274056E+01  0.25846188496E+02  0.29521041676E+02  0.00000000000E+00 0.  1.
</event>
<event>
 5    1  0.8778268E-005  0.9118800E+02  0.7818608E-02  0.1130116E+00
         25   -1    0    0    0    0  0.00000000000E+00  0.00000000000E+00  0.99999998245E-14  0.12500000000E+03  0.12500000000E+03 0.  0.
        -11    1    3    3    0    0  0.25024022372E+02 -0.23575008686E+02  0.21403253830E+02  0.40497925934E+02  0.51100000000E-03 0. -1.
         23    2    1    0    0    0  0.12645736666E+02  0.15097795283E+02 -0.18896135235E+02  0.97706740666E+02  0.93817296735E+02 0.  0.
         11    1    3    3    0    0 -0.12378285705E+02  0.38672803968E+02 -0.40299389065E+02  0.57208814732E+02  0.51100000000E-03 0.  1.
         22    1    1    0    0    0 -0.12645736666E+02 -0.15097795283E+02  0.18896135235E+02  0.27293259334E+02  0.00000000000E+00 0.  1.
</event>
<event>
 5    1  0.8778268E-005  0.9118800E+02  0.7818608E-02  0.1130116E+00
         25   -1    0    0    0    0  0.00000000000E+00  0.00000000000E+00  0.99999998245E-14  0.12500000000E+03  0.12500000000E+03 0.  0.
        -11    1    3    3    0    0  0.30348106452E+02 -0.32595996285E+02  0.56222994775E+01  0.44890052246E+02  0.51100000000E-03 0.  1.
         23    2    1    0    0    0  0.40598104644E+01  0.49277510178E+01  0.28284066187E+02  0.96004255637E+02  0.91520838661E+02 0.  0.
         11    1    3    3    0    0 -0.26288295987E+02  0.37523747303E+02  0.22661766710E+02  0.51114203390E+02  0.51100000000E-03 0. -1.
         22    1    1    0    0    0 -0.40598104644E+01 -0.49277510178E+01 -0.28284066187E+02  0.28995744363E+02  0.00000000000E+00 0. -1.
</event>
<event>
 5    1  0.8778268E-005  0.9118800E+02  0.7818608E-02  0.1130116E+00
         25   -1    0    0    0    0  0.00000000000E+00  0.00000000000E+00  0.99999998245E-14  0.12500000000E+03  0.12500000000E+03 0.  0.
        -11    1    3    3    0    0 -0.48037076838E+01  0.30925403403E+02 -0.77316191481E+01  0.32237154311E+02  0.51100000000E-03 0.  1.
         23    2    1    0    0    0  0.22953315913E+01 -0.29671531715E+02  0.56736086315E+01  0.94703825715E+02  0.89727122035E+02 0.  0.
         11    1    3    3    0    0  0.70990392750E+01 -0.60596935117E+02  0.13405227780E+02  0.62466671404E+02  0.51100000000E-03 0. -1.
         22    1    1    0    0    0 -0.22953315913E+01  0.29671531715E+02 -0.56736086315E+01  0.30296174285E+02  0.00000000000E+00 0. -1.
</event>
<event>
 5    1  0.8778268E-005  0.9118800E+02  0.7818608E-02  0.1130116E+00
         25   -1    0    0    0    0  0.00000000000E+00  0.00000000000E+00  0.99999998245E-14  0.12500000000E+03  0.12500000000E+03 0.  0.
        -11    1    3    3    0    0  0.22260959758E+02 -0.54654790857E+02 -0.80149067654E+01  0.59556151854E+02  0.51100000000E-03 0.  1.
         23    2    1    0    0    0 -0.12125412441E+01 -0.28747415779E+02  0.26463921956E+01  0.96105579053E+02  0.91659122640E+02 0.  0.
         11    1    3    3    0    0 -0.23473501002E+02  0.25907375078E+02  0.10661298961E+02  0.36549427198E+02  0.51100000000E-03 0. -1.
         22    1    1    0    0    0  0.12125412441E+01  0.28747415779E+02 -0.26463921956E+01  0.28894420947E+02  0.00000000000E+00 0.  1.
</event>
<event>
 5    1  0.8778268E-005  0.9118800E+02  0.7818608E-02  0.1130116E+00
         25   -1    0    0    0    0  0.00000000000E+00  0.00000000000E+00  0.99999998245E-14  0.12500000000E+03  0.12500000000E+03 0.  0.
        -11    1    3    3    0    0 -0.16229062034E+02  0.52949809961E+02 -0.19413281604E+02  0.58685094635E+02  0.51100000000E-03 0.  1.
         23    2    1    0    0    0  0.76484888052E+01  0.25628990456E+02 -0.11835220774E+02  0.95752487566E+02  0.91176323086E+02 0.  0.
         11    1    3    3    0    0  0.23877550839E+02 -0.27320819505E+02  0.75780608299E+01  0.37067392931E+02  0.51100000000E-03 0. -1.
         22    1    1    0    0    0 -0.76484888052E+01 -0.25628990456E+02  0.11835220774E+02  0.29247512434E+02  0.00000000000E+00 0.  1.
</event>
<event>
 5    1  0.8778268E-005  0.9118800E+02  0.7818608E-02  0.1130116E+00
         25   -1    0    0    0    0  0.00000000000E+00  0.00000000000E+00  0.99999998245E-14  0.12500000000E+03  0.12500000000E+03 0.  0.
        -11    1    3    3    0    0 -0.29734019578E+02 -0.10039074668E+02  0.13813150875E+02  0.34288454001E+02  0.51100000000E-03 0.  1.
         23    2    1    0    0    0  0.15941473288E+02  0.22149929551E+02 -0.11188988389E+02  0.95505196884E+02  0.90836662317E+02 0.  0.
         11    1    3    3    0    0  0.45675492866E+02  0.32189004219E+02 -0.25002139264E+02  0.61216742883E+02  0.51100000000E-03 0. -1.
         22    1    1    0    0    0 -0.15941473288E+02 -0.22149929551E+02  0.11188988389E+02  0.29494803116E+02  0.00000000000E+00 0. -1.
</event>
<event>
 5    1  0.8778268E-005  0.9118800E+02  0.7818608E-02  0.1130116E+00
         25   -1    0    0    0    0  0.00000000000E+00  0.00000000000E+00  0.99999998245E-14  0.12500000000E+03  0.12500000000E+03 0.  0.
        -11    1    3    3    0    0  0.51335670681E+02 -0.49290828264E+01 -0.20732820734E+02  0.55583242057E+02  0.51100000000E-03 0. -1.
         23    2    1    0    0    0  0.11766520068E+02 -0.25565947752E+01 -0.26738068860E+02  0.95675752393E+02  0.91071060707E+02 0.  0.
         11    1    3    3    0    0 -0.39569150612E+02  0.23724880512E+01 -0.60052481251E+01  0.40092510336E+02  0.51100000000E-03 0.  1.
         22    1    1    0    0    0 -0.11766520068E+02  0.25565947752E+01  0.26738068860E+02  0.29324247607E+02  0.00000000000E+00 0. -1.
</event>
<event>
 5    1  0.8778268E-005  0.9118800E+02  0.7818608E-02  0.1130116E+00
         25   -1    0    0    0    0  0.00000000000E+00  0.00000000000E+00  0.99999998245E-14  0.12500000000E+03  0.12500000000E+03 0.  0.
        -11    1    3    3    0    0  0.41236944541E+01  0.90542266218E+01 -0.57127986915E+02  0.57987850148E+02  0.51100000000E-03 0.  1.
         23    2    1    0    0    0 -0.12366782483E+02  0.12338831124E+02 -0.22214770062E+02  0.96739071647E+02  0.92519013785E+02 0.  0.
         11    1    3    3    0    0 -0.16490476937E+02  0.32846045019E+01  0.34913216853E+02  0.38751221499E+02  0.51100000000E-03 0. -1.
         22    1    1    0    0    0  0.12366782483E+02 -0.12338831124E+02  0.22214770062E+02  0.28260928353E+02  0.00000000000E+00 0.  1.
</event>
<event>
 5    1  0.8778268E-005  0.9118800E+02  0.7818608E-02  0.1130116E+00
         25   -1    0    0    0    0  0.00000000000E+00  0.00000000000E+00  0.99999998245E-14  0.12500000000E+03  0.12500000000E+03 0.  0.
        -11    1    3    3    0    0  0.36946203288E+01 -0.57630988062E+02 -0.12729664391E+02  0.59135652191E+02  0.51100000000E-03 0.  1.
         23    2    1    0    0    0 -0.10383165105E+02 -0.28348674451E+02  0.18616915052E+01  0.94752299988E+02  0.89794626771E+02 0.  0.
         11    1    3    3    0    0 -0.14077785434E+02  0.29282313610E+02  0.14591355897E+02  0.35616647796E+02  0.51100000000E-03 0. -1.
         22    1    1    0    0    0  0.10383165105E+02  0.28348674451E+02 -0.18616915052E+01  0.30247700012E+02  0.00000000000E+00 0.  1.
</event>
<event>
 5    1  0.8778268E-005  0.9118800E+02  0.7818608E-02  0.1130116E+00
         25   -1    0    0    0    0  0.00000000000E+00  0.00000000000E+00  0.99999998245E-14  0.12500000000E+03  0.12500000000E+03 0.  0.
        -11    1    3    3    0    0  0.34997142415E+01  0.11239927843E+02 -0.32305825066E+02  0.34383867019E+02  0.51100000000E-03 0. -1.
         23    2    1    0    0    0  0.30627967549E+02  0.29325598287E+02  0.30607117022E+01  0.82486107363E+02  0.70686114907E+02 0.  0.
         11    1    3    3    0    0  0.27128253308E+02  0.18085670443E+02  0.35366536768E+02  0.48102240344E+02  0.51100000000E-03 0.  1.
         22    1    1    0    0    0 -0.30627967549E+02 -0.29325598287E+02 -0.30607117022E+01  0.42513892637E+02  0.00000000000E+00 0.  1.
</event>
<event>
 5    1  0.8778268E-005  0.9118800E+02  0.7818608E-02  0.1130116E+00
         25   -1    0    0    0    0  0.00000000000E+00  0.00000000000E+00  0.99999998245E-14  0.12500000000E+03  0.12500000000E+03 0.  0.
        -11    1    3    3    0    0  0.13804922254E+02  0.33999464038E+02  0.10228594596E+02  0.38094141032E+02  0.51100000000E-03 0.  1.
         23    2    1    0    0    0  0.19362219437E+02 -0.21382495396E+02 -0.48227159919E+01  0.95753372153E+02  0.91177535820E+02 0.  0.
         11    1    3    3    0    0  0.55572971830E+01 -0.55381959434E+02 -0.15051310588E+02  0.57659231121E+02  0.51100000000E-03 0. -1.
         22    1    1    0    0    0 -0.19362219437E+02  0.21382495396E+02  0.48227159919E+01  0.29246627847E+02  0.00000000000E+00 0. -1.
</event>
<event>
 5    1  0.8778268E-005  0.9118800E+02  0.7818608E-02  0.1130116E+00
         25   -1    0    0    0    0  0.00000000000E+00  0.00000000000E+00  0.99999998245E-14  0.12500000000E+03  0.12500000000E+03 0.  0.
        -11    1    3    3    0    0  0.53313491270E+02 -0.19657594390E+02  0.88991560791E+01  0.57514731572E+02  0.51100000000E-03 0. -1.
         23    2    1    0    0    0  0.20147179178E+02  0.27783701061E+00  0.18783294553E+02  0.97453708480E+02  0.93479554556E+02 0.  0.
         11    1    3    3    0    0 -0.33166312091E+02  0.19935431400E+02  0.98841384738E+01  0.39938976908E+02  0.51100000000E-03 0.  1.
         22    1    1    0    0    0 -0.20147179178E+02 -0.27783701061E+00 -0.18783294553E+02  0.27546291520E+02  0.00000000000E+00 0. -1.
</event>
<event>
 5    1  0.8778268E-005  0.9118800E+02  0.7818608E-02  0.1130116E+00
         25   -1    0    0    0    0  0.00000000000E+00  0.00000000000E+00  0.99999998245E-14  0.12500000000E+03  0.12500000000E+03 0.  0.
        -11    1    3    3    0    0  0.19540773443E+01 -0.24282495950E+02 -0.41156874182E+02  0.47826209556E+02  0.51100000000E-03 0. -1.
         23    2    1    0    0    0  0.17539931669E+01  0.19603591594E+02 -0.21308955229E+02  0.95992261922E+02  0.91504456070E+02 0.  0.
         11    1    3    3    0    0 -0.20008417743E+00  0.43886087544E+02  0.19847918953E+02  0.48166052367E+02  0.51100000000E-03 0.  1.
         22    1    1    0    0    0 -0.17539931669E+01 -0.19603591594E+02  0.21308955229E+02  0.29007738078E+02  0.00000000000E+00 0. -1.
</event>
<event>
 5    1  0.8778268E-005  0.9118800E+02  0.7818608E-02  0.1130116E+00
         25   -1    0    0    0    0  0.00000000000E+00  0.00000000000E+00  0.99999998245E-14  0.12500000000E+03  0.12500000000E+03 0.  0.
        -11    1    3    3    0    0 -0.14456265021E+02  0.10536962359E+02  0.46800964603E+02  0.50103307896E+02  0.51100000000E-03 0. -1.
         23    2    1    0    0    0 -0.81812911578E+01 -0.21179183522E+02  0.72950286096E+01  0.10115238414E+03  0.98301047988E+02 0.  0.
         11    1    3    3    0    0  0.62749738635E+01 -0.31716145881E+02 -0.39505935994E+02  0.51049076246E+02  0.51100000000E-03 0.  1.
         22    1    1    0    0    0  0.81812911578E+01  0.21179183522E+02 -0.72950286096E+01  0.23847615858E+02  0.00000000000E+00 0. -1.
</event>
<event>
 5    1  0.8778268E-005  0.9118800E+02  0.7818608E-02  0.1130116E+00
         25   -1    0    0    0    0  0.00000000000E+00  0.00000000000E+00  0.99999998245E-14  0.12500000000E+03  0.12500000000E+03 0.  0.
        -11    1    3    3    0    0 -0.12648876761E+02 -0.26864436587E+01  0.54959384696E+02  0.56460118928E+02  0.51100000000E-03 0.  1.
         23    2    1    0    0    0 -0.23589031854E+02 -0.22692689238E+01  0.17352444640E+02  0.95628256092E+02  0.91005846092E+02 0.  0.
         11    1    3    3    0    0 -0.10940155093E+02  0.41717473490E+00 -0.37606940057E+02  0.39168137164E+02  0.51100000000E-03 0. -1.
         22    1    1    0    0    0  0.23589031854E+02  0.22692689238E+01 -0.17352444640E+02  0.29371743908E+02  0.00000000000E+00 0.  1.
</event>
<event>
 5    1  0.8778268E-005  0.9118800E+02  0.7818608E-02  0.1130116E+00
         25   -1    0    0    0    0  0.00000000000E+00  0.00000000000E+00  0.99999998245E-14  0.12500000000E+03  0.12500000000E+03 0.  0.
        -11    1    3    3    0    0  0.20385321155E+02 -0.46355164048E+01  0.43490431034E+02  0.48254190727E+02  0.51100000000E-03 0.  1.
         23    2    1    0    0    0 -0.45897022661E+01 -0.27435903335E+02  0.11197199681E+02  0.95013812523E+02  0.90157934375E+02 0.  0.
         11    1    3    3    0    0 -0.24975023421E+02 -0.22800386930E+02 -0.32293231353E+02  0.46759621796E+02  0.51100000000E-03 0. -1.
         22    1    1    0    0    0  0.45897022661E+01  0.27435903335E+02 -0.11197199681E+02  0.29986187477E+02  0.00000000000E+00 0.  1.
</event>
<event>
 5    1  0.8778268E-005  0.9118800E+02  0.7818608E-02  0.1130116E+00
         25   -1    0    0    0    0  0.00000000000E+00  0.00000000000E+00  0.99999998245E-14  0.12500000000E+03  0.12500000000E+03 0.  0.
        -11    1    3    3    0    0  0.39249869078E+01 -0.45352950402E+02 -0.28910899209E+02  0.53927133484E+02  0.51100000000E-03 0.  1.
         23    2    1    0    0    0 -0.21145088992E+02 -0.17460682197E+02 -0.11982874432E+02  0.95073765841E+02  0.90241018724E+02 0.  0.
         11    1    3    3    0    0 -0.25070075900E+02  0.27892268206E+02  0.16928024777E+02  0.41146632358E+02  0.51100000000E-03 0. -1.
         22    1    1    0    0    0  0.21145088992E+02  0.17460682197E+02  0.11982874432E+02  0.29926234159E+02  0.00000000000E+00 0.  1.
</event>
<event>
 5    1  0.8778268E-005  0.9118800E+02  0.7818608E-02  0.1130116E+00
         25   -1    0    0    0    0  0.00000000000E+00  0.00000000000E+00  0.99999998245E-14  0.12500000000E+03  0.12500000000E+03 0.  0.
        -11    1    3    3    0    0 -0.39236053886E+02  0.30694561376E+01  0.10703509262E+02  0.40785470407E+02  0.51100000000E-03 0.  1.
         23    2    1    0    0    0  0.26322729962E+01 -0.29594356572E+02  0.91539087187E+01  0.93910631289E+02  0.88615223423E+02 0.  0.
         11    1    3    3    0    0  0.41868326882E+02 -0.32663812709E+02 -0.15496005431E+01  0.53125160882E+02  0.51100000000E-03 0. -1.
         22    1    1    0    0    0 -0.26322729962E+01  0.29594356572E+02 -0.91539087187E+01  0.31089368711E+02  0.00000000000E+00 0. -1.
</event>
<event>
 5    1  0.8778268E-005  0.9118800E+02  0.7818608E-02  0.1130116E+00
         25   -1    0    0    0    0  0.00000000000E+00  0.00000000000E+00  0.99999998245E-14  0.12500000000E+03  0.12500000000E+03 0.  0.
        -11    1    3    3    0    0 -0.21365301147E+02 -0.18314730050E+02  0.14228264540E+02  0.31533298939E+02  0.51100000000E-03 0. -1.
         23    2    1    0    0    0  0.14504412103E+02  0.18522703202E+02 -0.20677489214E+02  0.93678648424E+02  0.88287383618E+02 0.  0.
         11    1    3    3    0    0  0.35869713250E+02  0.36837433252E+02 -0.34905753754E+02  0.62145349485E+02  0.51100000000E-03 0.  1.
         22    1    1    0    0    0 -0.14504412103E+02 -0.18522703202E+02  0.20677489214E+02  0.31321351576E+02  0.00000000000E+00 0.  1.
</event>
<event>
 5    1  0.8778268E-005  0.9118800E+02  0.7818608E-02  0.1130116E+00
         25   -1    0    0    0    0  0.00000000000E+00  0.00000000000E+00  0.99999998245E-14  0.12500000000E+03  0.12500000000E+03 0.  0.
        -11    1    3    3    0    0  0.46605616509E+02 -0.27291041706E+02 -0.98875189170E+00  0.54017238713E+02  0.51100000000E-03 0.  1.
         23    2    1    0    0    0  0.60423727391E+01 -0.28990502139E+02  0.47106782068E+01  0.95014170484E+02  0.90158430670E+02 0.  0.
         11    1    3    3    0    0 -0.40563243770E+02 -0.16994604329E+01  0.56994300985E+01  0.40996931771E+02  0.51100000000E-03 0. -1.
         22    1    1    0    0    0 -0.60423727391E+01  0.28990502139E+02 -0.47106782068E+01  0.29985829516E+02  0.00000000000E+00 0.  1.
</event>
<event>
 5    1  0.8778268E-005  0.9118800E+02  0.7818608E-02  0.1130116E+00
         25   -1    0    0    0    0  0.00000000000E+00  0.00000000000E+00  0.99999998245E-14  0.12500000000E+03  0.12500000000E+03 0.  0.
        -11    1    3    3    0    0 -0.26964735854E+02  0.54815830815E+02  0.30168472200E+01  0.61163499369E+02  0.51100000000E-03 0.  1.
         23    2    1    0    0    0 -0.34718810190E+01  0.25786509639E+02 -0.22768442434E+01  0.98881384859E+02  0.95369524560E+02 0.  0.
         11    1    3    3    0    0  0.23492854835E+02 -0.29029321177E+02 -0.52936914635E+01  0.37717885490E+02  0.51100000000E-03 0. -1.
         22    1    1    0    0    0  0.34718810190E+01 -0.25786509639E+02  0.22768442434E+01  0.26118615141E+02  0.00000000000E+00 0.  1.
</event>
<event>
 5    1  0.8778268E-005  0.9118800E+02  0.7818608E-02  0.1130116E+00
         25   -1    0    0    0    0  0.00000000000E+00  0.00000000000E+00  0.99999998245E-14  0.12500000000E+03  0.12500000000E+03 0.  0.
        -11    1    3    3    0    0 -0.45792404263E+01  0.22884155347E+02  0.35900419301E+02  0.42819319414E+02  0.51100000000E-03 0.  1.
         23    2    1    0    0    0  0.77956241138E+01 -0.22879722105E+02  0.22235362204E+02  0.92156967691E+02  0.86105992375E+02 0.  0.
         11    1    3    3    0    0  0.12374864540E+02 -0.45763877452E+02 -0.13665057097E+02  0.49337648277E+02  0.51100000000E-03 0. -1.
         22    1    1    0    0    0 -0.77956241138E+01  0.22879722105E+02 -0.22235362204E+02  0.32843032309E+02  0.00000000000E+00 0. -1.
</event>
<event>
 5    1  0.8778268E-005  0.9118800E+02  0.7818608E-02  0.1130116E+00
         25   -1    0    0    0    0  0.00000000000E+00  0.00000000000E+00  0.99999998245E-14  0.12500000000E+03  0.12500000000E+03 0.  0.
        -11    1    3    3    0    0 -0.28013170623E+02 -0.31026383097E+02  0.31043615072E+02  0.52068034469E+02  0.51100000000E-03 0.  1.
         23    2    1    0    0    0 -0.31186285168E+02 -0.37003204809E+01 -0.64220748767E-01  0.93594890884E+02  0.88168717361E+02 0.  0.
         11    1    3    3    0    0 -0.31731145453E+01  0.27326062616E+02 -0.31107835821E+02  0.41526856415E+02  0.51100000000E-03 0. -1.
         22    1    1    0    0    0  0.31186285168E+02  0.37003204809E+01  0.64220748767E-01  0.31405109116E+02  0.00000000000E+00 0.  1.
</event>
<event>
 5    1  0.8778268E-005  0.9118800E+02  0.7818608E-02  0.1130116E+00
         25   -1    0    0    0    0  0.00000000000E+00  0.00000000000E+00  0.99999998245E-14  0.12500000000E+03  0.12500000000E+03 0.  0.
        -11    1    3    3    0    0 -0.32259002134E+02 -0.13088540964E+01 -0.17628246052E+02  0.36784662250E+02  0.51100000000E-03 0.  1.
         23    2    1    0    0    0  0.15460004024E+02 -0.22759809646E+02  0.97193997572E+01  0.95819743127E+02  0.91268481864E+02 0.  0.
         11    1    3    3    0    0  0.47719006157E+02 -0.21450955550E+02  0.27347645809E+02  0.59035080877E+02  0.51100000000E-03 0. -1.
         22    1    1    0    0    0 -0.15460004024E+02  0.22759809646E+02 -0.97193997572E+01  0.29180256873E+02  0.00000000000E+00 0. -1.
</event>
<event>
 5    1  0.8778268E-005  0.9118800E+02  0.7818608E-02  0.1130116E+00
         25   -1    0    0    0    0  0.00000000000E+00  0.00000000000E+00  0.99999998245E-14  0.12500000000E+03  0.12500000000E+03 0.  0.
        -11    1    3    3    0    0 -0.32642332220E+02  0.33959836034E+02 -0.13726979125E+02  0.49063451493E+02  0.51100000000E-03 0.  1.
         23    2    1    0    0    0  0.86878528874E+01  0.24705737381E+02  0.92222040871E+01  0.97234890680E+02  0.93186494032E+02 0.  0.
         11    1    3    3    0    0  0.41330185108E+02 -0.92540986531E+01  0.22949183212E+02  0.48171439186E+02  0.51100000000E-03 0. -1.
         22    1    1    0    0    0 -0.86878528874E+01 -0.24705737381E+02 -0.92222040871E+01  0.27765109320E+02  0.00000000000E+00 0. -1.
</event>
<event>
 5    1  0.8778268E-005  0.9118800E+02  0.7818608E-02  0.1130116E+00
         25   -1    0    0    0    0  0.00000000000E+00  0.00000000000E+00  0.99999998245E-14  0.12500000000E+03  0.12500000000E+03 0.  0.
        -11    1    3    3    0    0 -0.33266870034E+02  0.27521358197E+02 -0.21778323586E+02  0.48357059230E+02  0.51100000000E-03 0.  1.
         23    2    1    0    0    0 -0.10683006634E+02  0.19530793220E+02  0.19053746123E+02  0.95697717566E+02  0.91101204117E+02 0.  0.
         11    1    3    3    0    0  0.22583863400E+02 -0.79905649779E+01  0.40832069709E+02  0.47340658336E+02  0.51100000000E-03 0. -1.
         22    1    1    0    0    0  0.10683006634E+02 -0.19530793220E+02 -0.19053746123E+02  0.29302282434E+02  0.00000000000E+00 0. -1.
</event>
<event>
 5    1  0.8778268E-005  0.9118800E+02  0.7818608E-02  0.1130116E+00
         25   -1    0    0    0    0  0.00000000000E+00  0.00000000000E+00  0.99999998245E-14  0.12500000000E+03  0.12500000000E+03 0.  0.
        -11    1    3    3    0    0  0.11233128821E+02  0.35124355026E+02  0.50397415054E+02  0.62448402249E+02  0.51100000000E-03 0.  1.
         23    2    1    0    0    0  0.69814792526E+01  0.16487314688E+02  0.23097924861E+02  0.95775237707E+02  0.91207507513E+02 0.  0.
         11    1    3    3    0    0 -0.42516495685E+01 -0.18637040338E+02 -0.27299490192E+02  0.33326835458E+02  0.51100000000E-03 0. -1.
         22    1    1    0    0    0 -0.69814792526E+01 -0.16487314688E+02 -0.23097924861E+02  0.29224762293E+02  0.00000000000E+00 0.  1.
</event>
<event>
 5    1  0.8778268E-005  0.9118800E+02  0.7818608E-02  0.1130116E+00
         25   -1    0    0    0    0  0.00000000000E+00  0.00000000000E+00  0.99999998245E-14  0.12500000000E+03  0.12500000000E+03 0.  0.
        -11    1    3    3    0    0  0.13792460632E+02 -0.19894240361E+01 -0.45419726411E+02  0.47509381450E+02  0.51100000000E-03 0. -1.
         23    2    1    0    0    0 -0.41955962823E+00  0.28515084121E+02 -0.15486926602E+02  0.92548020888E+02  0.86671824845E+02 0.  0.
         11    1    3    3    0    0 -0.14212020260E+02  0.30504508157E+02  0.29932799809E+02  0.45038639438E+02  0.51100000000E-03 0.  1.
         22    1    1    0    0    0  0.41955962823E+00 -0.28515084121E+02  0.15486926602E+02  0.32451979112E+02  0.00000000000E+00 0. -1.
</event>
<event>
 5    1  0.8778268E-005  0.9118800E+02  0.7818608E-02  0.1130116E+00
         25   -1    0    0    0    0  0.00000000000E+00  0.00000000000E+00  0.99999998245E-14  0.12500000000E+03  0.12500000000E+03 0.  0.
        -11    1    3    3    0    0  0.23450113953E+02 -0.34406685583E+02  0.24639786534E+02  0.48382299841E+02  0.51100000000E-03 0.  1.
         23    2    1    0    0    0  0.20618749256E+02 -0.10937571062E+02 -0.16904410562E+02  0.96181214840E+02  0.91762212866E+02 0.  0.
         11    1    3    3    0    0 -0.28313646973E+01  0.23469114521E+02 -0.41544197096E+02  0.47798914999E+02  0.51100000000E-03 0. -1.
         22    1    1    0    0    0 -0.20618749256E+02  0.10937571062E+02  0.16904410562E+02  0.28818785160E+02  0.00000000000E+00 0.  1.
</event>
<event>
 5    1  0.8778268E-005  0.9118800E+02  0.7818608E-02  0.1130116E+00
         25   -1    0    0    0    0  0.00000000000E+00  0.00000000000E+00  0.99999998245E-14  0.12500000000E+03  0.12500000000E+03 0.  0.
        -11    1    3    3    0    0 -0.34509159217E+02 -0.39350615347E+02 -0.32585871057E+02  0.61653807594E+02  0.51100000000E-03 0.  1.
         23    2    1    0    0    0 -0.12688665616E+02 -0.17110772427E+02 -0.21526475701E+02  0.94715186574E+02  0.89742947597E+02 0.  0.
         11    1    3    3    0    0  0.21820493601E+02  0.22239842920E+02  0.11059395356E+02  0.33061378979E+02  0.51100000000E-03 0. -1.
         22    1    1    0    0    0  0.12688665616E+02  0.17110772427E+02  0.21526475701E+02  0.30284813426E+02  0.00000000000E+00 0.  1.
</event>
<event>
 5    1  0.8778268E-005  0.9118800E+02  0.7818608E-02  0.1130116E+00
         25   -1    0    0    0    0  0.00000000000E+00  0.00000000000E+00  0.99999998245E-14  0.12500000000E+03  0.12500000000E+03 0.  0.
        -11    1    3    3    0    0 -0.18013924646E+02 -0.30783176598E+02 -0.10910014106E+02  0.37297906786E+02  0.51100000000E-03 0. -1.
         23    2    1    0    0    0  0.25947213964E+02  0.22553839323E+01  0.11304610698E+02  0.96607414837E+02  0.92340964416E+02 0.  0.
         11    1    3    3    0    0  0.43961138610E+02  0.33038560530E+02  0.22214624804E+02  0.59309508051E+02  0.51100000000E-03 0.  1.
         22    1    1    0    0    0 -0.25947213964E+02 -0.22553839323E+01 -0.11304610698E+02  0.28392585163E+02  0.00000000000E+00 0.  1.
</event>
<event>
 5    1  0.8778268E-005  0.9118800E+02  0.7818608E-02  0.1130116E+00
         25   -1    0    0    0    0  0.00000000000E+00  0.00000000000E+00  0.99999998245E-14  0.12500000000E+03  0.12500000000E+03 0.  0.
        -11    1    3    3    0    0 -0.18673590282E+02  0.18145341913E+02  0.22810066363E+02  0.34615827809E+02  0.51100000000E-03 0.  1.
         23    2    1    0    0    0  0.29724548159E+02 -0.21540819979E+01 -0.61660442712E+01  0.94566319078E+02  0.89535354858E+02 0.  0.
         11    1    3    3    0    0  0.48398138441E+02 -0.20299423911E+02 -0.28976110634E+02  0.59950491269E+02  0.51100000000E-03 0. -1.
         22    1    1    0    0    0 -0.29724548159E+02  0.21540819979E+01  0.61660442712E+01  0.30433680922E+02  0.00000000000E+00 0. -1.
</event>
<event>
 5    1  0.8778268E-005  0.9118800E+02  0.7818608E-02  0.1130116E+00
         25   -1    0    0    0    0  0.00000000000E+00  0.00000000000E+00  0.99999998245E-14  0.12500000000E+03  0.12500000000E+03 0.  0.
        -11    1    3    3    0    0  0.22831263086E+02 -0.15460564371E+02 -0.42771644635E+02  0.50889185588E+02  0.51100000000E-03 0.  1.
         23    2    1    0    0    0  0.24356313947E+02  0.11716738410E+02 -0.48948148984E+01  0.97532360841E+02  0.93584668671E+02 0.  0.
         11    1    3    3    0    0  0.15250508612E+01  0.27177302782E+02  0.37876829736E+02  0.46643175254E+02  0.51100000000E-03 0. -1.
         22    1    1    0    0    0 -0.24356313947E+02 -0.11716738410E+02  0.48948148984E+01  0.27467639159E+02  0.00000000000E+00 0. -1.
</event>
<event>
 5    1  0.8778268E-005  0.9118800E+02  0.7818608E-02  0.1130116E+00
         25   -1    0    0    0    0  0.00000000000E+00  0.00000000000E+00  0.99999998245E-14  0.12500000000E+03  0.12500000000E+03 0.  0.
        -11    1    3    3    0    0 -0.13740888689E+02  0.19562160448E+02 -0.28295934510E+02  0.37042543830E+02  0.51100000000E-03 0.  1.
         23    2    1    0    0    0 -0.12514430952E+02 -0.16307006052E+02  0.19401295677E+02  0.96734478559E+02  0.92512807977E+02 0.  0.
         11    1    3    3    0    0  0.12264577374E+01 -0.35869166500E+02  0.47697230186E+02  0.59691934729E+02  0.51100000000E-03 0. -1.
         22    1    1    0    0    0  0.12514430952E+02  0.16307006052E+02 -0.19401295677E+02  0.28265521441E+02  0.00000000000E+00 0. -1.
</event>
<event>
 5    1  0.8778268E-005  0.9118800E+02  0.7818608E-02  0.1130116E+00
         25   -1    0    0    0    0  0.00000000000E+00  0.00000000000E+00  0.99999998245E-14  0.12500000000E+03  0.12500000000E+03 0.  0.
        -11    1    3    3    0    0 -0.50762579277E+02  0.19489914631E+02  0.11470281141E+02  0.55572147492E+02  0.51100000000E-03 0. -1.
         23    2    1    0    0    0 -0.20457283910E+02 -0.71651419689E+01  0.18455307787E+02  0.96531805292E+02  0.92238556597E+02 0.  0.
         11    1    3    3    0    0  0.30305295366E+02 -0.26655056600E+02  0.69850266459E+01  0.40959657800E+02  0.51100000000E-03 0.  1.
         22    1    1    0    0    0  0.20457283910E+02  0.71651419689E+01 -0.18455307787E+02  0.28468194708E+02  0.00000000000E+00 0. -1.
</event>
<event>
 5    1  0.8778268E-005  0.9118800E+02  0.7818608E-02  0.1130116E+00
         25   -1    0    0    0    0  0.00000000000E+00  0.00000000000E+00  0.99999998245E-14  0.12500000000E+03  0.12500000000E+03 0.  0.
        -11    1    3    3    0    0  0.18627130720E+01  0.54514993256E+02  0.17460965523E+02  0.57273375201E+02  0.51100000000E-03 0. -1.
         23    2    1    0    0    0 -0.68091700367E+01  0.27532958781E+02 -0.81685552802E+01  0.95484683448E+02  0.90808429465E+02 0.  0.
         11    1    3    3    0    0 -0.86718831087E+01 -0.26982034475E+02 -0.25629520803E+02  0.38211308247E+02  0.51100000000E-03 0.  1.
         22    1    1    0    0    0  0.68091700367E+01 -0.27532958781E+02  0.81685552802E+01  0.29515316552E+02  0.00000000000E+00 0.  1.
</event>
<event>
 5    1  0.8778268E-005  0.9118800E+02  0.7818608E-02  0.1130116E+00
         25   -1    0    0    0    0  0.00000000000E+00  0.00000000000E+00  0.99999998245E-14  0.12500000000E+03  0.12500000000E+03 0.  0.
        -11    1    3    3    0    0 -0.36324802213E+02  0.25204246742E+02  0.62451111605E+01  0.44651391057E+02  0.51100000000E-03 0.  1.
         23    2    1    0    0    0 -0.90403288792E+01 -0.41538031488E+01 -0.26683128454E+02  0.96522447946E+02  0.92225874822E+02 0.  0.
         11    1    3    3    0    0  0.27284473333E+02 -0.29358049891E+02 -0.32928239615E+02  0.51871056890E+02  0.51100000000E-03 0. -1.
         22    1    1    0    0    0  0.90403288792E+01  0.41538031488E+01  0.26683128454E+02  0.28477552054E+02  0.00000000000E+00 0. -1.
</event>
<event>
 5    1  0.8778268E-005  0.9118800E+02  0.7818608E-02  0.1130116E+00
         25   -1    0    0    0    0  0.00000000000E+00  0.00000000000E+00  0.99999998245E-14  0.12500000000E+03  0.12500000000E+03 0.  0.
        -11    1    3    3    0    0  0.18982663765E+02 -0.28508081631E+02  0.11712116116E+02  0.36197042781E+02  0.51100000000E-03 0.  1.
         23    2    1    0    0    0 -0.14388503241E+01  0.11619852500E+02 -0.26996236677E+02  0.95574024109E+02  0.90931325886E+02 0.  0.
         11    1    3    3    0    0 -0.20421514089E+02  0.40127934132E+02 -0.38708352793E+02  0.59376981328E+02  0.51100000000E-03 0. -1.
         22    1    1    0    0    0  0.14388503241E+01 -0.11619852500E+02  0.26996236677E+02  0.29425975891E+02  0.00000000000E+00 0. -1.
</event>
<event>
 5    1  0.8778268E-005  0.9118800E+02  0.7818608E-02  0.1130116E+00
         25   -1    0    0    0    0  0.00000000000E+00  0.00000000000E+00  0.99999998245E-14  0.12500000000E+03  0.12500000000E+03 0.  0.
        -11    1    3    3    0    0  0.52275725660E+02 -0.19708765054E+02  0.10404715965E+02  0.56828206270E+02  0.51100000000E-03 0. -1.
         23    2    1    0    0    0  0.16883231624E+02 -0.91177685029E+01  0.22245410316E+02  0.95622534271E+02  0.90997986613E+02 0.  0.
         11    1    3    3    0    0 -0.35392494036E+02  0.10590996551E+02  0.11840694352E+02  0.38794328001E+02  0.51100000000E-03 0.  1.
         22    1    1    0    0    0 -0.16883231624E+02  0.91177685029E+01 -0.22245410316E+02  0.29377465729E+02  0.00000000000E+00 0. -1.
</event>
<event>
 5    1  0.8778268E-005  0.9118800E+02  0.7818608E-02  0.1130116E+00
         25   -1    0    0    0    0  0.00000000000E+00  0.00000000000E+00  0.99999998245E-14  0.12500000000E+03  0.12500000000E+03 0.  0.
        -11    1    3    3    0    0  0.23045080600E+02 -0.15454170174E+02 -0.24883120220E+02  0.37270320468E+02  0.51100000000E-03 0.  1.
         23    2    1    0    0    0  0.15262954263E+02  0.18897188167E+02  0.19442582020E+02  0.93886088496E+02  0.88580596770E+02 0.  0.
         11    1    3    3    0    0 -0.77821263370E+01  0.34351358340E+02  0.44325702240E+02  0.56615768029E+02  0.51100000000E-03 0. -1.
         22    1    1    0    0    0 -0.15262954263E+02 -0.18897188167E+02 -0.19442582020E+02  0.31113911504E+02  0.00000000000E+00 0. -1.
</event>
<event>
 5    1  0.8778268E-005  0.9118800E+02  0.7818608E-02  0.1130116E+00
         25   -1    0    0    0    0  0.00000000000E+00  0.00000000000E+00  0.99999998245E-14  0.12500000000E+03  0.12500000000E+03 0.  0.
        -11    1    3    3    0    0  0.24960793111E+02 -0.16963733869E+02  0.36422899602E+02  0.47301554680E+02  0.51100000000E-03 0.  1.
         23    2    1    0    0    0  0.25066262078E+02  0.95132344526E+01 -0.62026909995E+01  0.97481051984E+02  0.93516110890E+02 0.  0.
         11    1    3    3    0    0  0.10546896703E+00  0.26476968321E+02 -0.42625590602E+02  0.50179497303E+02  0.51100000000E-03 0. -1.
         22    1    1    0    0    0 -0.25066262078E+02 -0.95132344526E+01  0.62026909995E+01  0.27518948016E+02  0.00000000000E+00 0. -1.
</event>
<event>
 5    1  0.8778268E-005  0.9118800E+02  0.7818608E-02  0.1130116E+00
         25   -1    0    0    0    0  0.00000000000E+00  0.00000000000E+00  0.99999998245E-14  0.12500000000E+03  0.12500000000E+03 0.  0.
        -11    1    3    3    0    0  0.34415072894E+02  0.11730831446E+02  0.29531178465E+02  0.46841222768E+02  0.51100000000E-03 0.  1.
         23    2    1    0    0    0  0.33872292441E+01 -0.23965943695E+02  0.15816477486E+02  0.96086322628E+02  0.91632857955E+02 0.  0.
         11    1    3    3    0    0 -0.31027843650E+02 -0.35696775140E+02 -0.13714700979E+02  0.49245099859E+02  0.51100000000E-03 0. -1.
         22    1    1    0    0    0 -0.33872292441E+01  0.23965943695E+02 -0.15816477486E+02  0.28913677372E+02  0.00000000000E+00 0. -1.
</event>
<event>
 5    1  0.8778268E-005  0.9118800E+02  0.7818608E-02  0.1130116E+00
         25   -1    0    0    0    0  0.00000000000E+00  0.00000000000E+00  0.99999998245E-14  0.12500000000E+03  0.12500000000E+03 0.  0.
        -11    1    3    3    0    0  0.31570386059E+02  0.31342617401E+02 -0.43155076093E+02  0.61979105627E+02  0.51100000000E-03 0. -1.
         23    2    1    0    0    0  0.17627653503E+02  0.10047387099E+02 -0.21955063084E+02  0.95105034695E+02  0.90284321306E+02 0.  0.
         11    1    3    3    0    0 -0.13942732556E+02 -0.21295230302E+02  0.21200013009E+02  0.33125929067E+02  0.51100000000E-03 0.  1.
         22    1    1    0    0    0 -0.17627653503E+02 -0.10047387099E+02  0.21955063084E+02  0.29894965305E+02  0.00000000000E+00 0. -1.
</event>
<event>
 5    1  0.8778268E-005  0.9118800E+02  0.7818608E-02  0.1130116E+00
         25   -1    0    0    0    0  0.00000000000E+00  0.00000000000E+00  0.99999998245E-14  0.12500000000E+03  0.12500000000E+03 0.  0.
        -11    1    3    3    0    0  0.51082994344E+02  0.74070988153E+01 -0.18960497428E+02  0.54989434321E+02  0.51100000000E-03 0.  1.
         23    2    1    0    0    0  0.13587384013E+02  0.22435034121E+02 -0.12670142275E+02  0.95871315416E+02  0.91339087219E+02 0.  0.
         11    1    3    3    0    0 -0.37495610331E+02  0.15027935306E+02  0.62903551529E+01  0.40881881095E+02  0.51100000000E-03 0. -1.
         22    1    1    0    0    0 -0.13587384013E+02 -0.22435034121E+02  0.12670142275E+02  0.29128684584E+02  0.00000000000E+00 0.  1.
</event>
<event>
 5    1  0.8778268E-005  0.9118800E+02  0.7818608E-02  0.1130116E+00
         25   -1    0    0    0    0  0.00000000000E+00  0.00000000000E+00  0.99999998245E-14  0.12500000000E+03  0.12500000000E+03 0.  0.
        -11    1    3    3    0    0 -0.32493027468E+00  0.98662628541E+01  0.32879453191E+02  0.34329392141E+02  0.51100000000E-03 0. -1.
         23    2    1    0    0    0  0.12077658600E+02 -0.15081284401E+02 -0.21905169625E+02  0.95791243903E+02  0.91229441387E+02 0.  0.
         11    1    3    3    0    0  0.12402588874E+02 -0.24947547255E+02 -0.54784622815E+02  0.61461851763E+02  0.51100000000E-03 0.  1.
         22    1    1    0    0    0 -0.12077658600E+02  0.15081284401E+02  0.21905169625E+02  0.29208756097E+02  0.00000000000E+00 0.  1.
</event>
<event>
 5    1  0.8778268E-005  0.9118800E+02  0.7818608E-02  0.1130116E+00
         25   -1    0    0    0    0  0.00000000000E+00  0.00000000000E+00  0.99999998245E-14  0.12500000000E+03  0.12500000000E+03 0.  0.
        -11    1    3    3    0    0  0.14768131446E+02 -0.50282652237E+02 -0.25800008196E+02  0.58413040030E+02  0.51100000000E-03 0.  1.
         23    2    1    0    0    0 -0.25882901330E+00 -0.30080651286E+02  0.62396786954E+00  0.94911764589E+02  0.90016338224E+02 0.  0.
         11    1    3    3    0    0 -0.15026960460E+02  0.20202000951E+02  0.26423976066E+02  0.36498724559E+02  0.51100000000E-03 0. -1.
         22    1    1    0    0    0  0.25882901330E+00  0.30080651286E+02 -0.62396786954E+00  0.30088235411E+02  0.00000000000E+00 0.  1.
</event>
<event>
 5    1  0.8778268E-005  0.9118800E+02  0.7818608E-02  0.1130116E+00
         25   -1    0    0    0    0  0.00000000000E+00  0.00000000000E+00  0.99999998245E-14  0.12500000000E+03  0.12500000000E+03 0.  0.
        -11    1    3    3    0    0 -0.55312036675E+01  0.21871225803E+02 -0.28125482810E+02  0.36055339628E+02  0.51100000000E-03 0.  1.
         23    2    1    0    0    0 -0.39442387683E+02  0.23681449562E+01  0.20086785778E+01  0.85435560837E+02  0.75722455119E+02 0.  0.
         11    1    3    3    0    0 -0.33911184015E+02 -0.19503080847E+02  0.30134161388E+02  0.49380221209E+02  0.51100000000E-03 0. -1.
         22    1    1    0    0    0  0.39442387683E+02 -0.23681449562E+01 -0.20086785778E+01  0.39564439163E+02  0.00000000000E+00 0. -1.
</event>
<event>
 5    1  0.8778268E-005  0.9118800E+02  0.7818608E-02  0.1130116E+00
         25   -1    0    0    0    0  0.00000000000E+00  0.00000000000E+00  0.99999998245E-14  0.12500000000E+03  0.12500000000E+03 0.  0.
        -11    1    3    3    0    0  0.21100075752E+02 -0.42159539516E+01  0.57791609320E+02  0.61667313648E+02  0.51100000000E-03 0. -1.
         23    2    1    0    0    0  0.80660404926E+01 -0.89401053799E+01  0.27250454977E+02  0.95207823345E+02  0.90426521752E+02 0.  0.
         11    1    3    3    0    0 -0.13034035259E+02 -0.47241514283E+01 -0.30541154343E+02  0.33540509697E+02  0.51100000000E-03 0.  1.
         22    1    1    0    0    0 -0.80660404926E+01  0.89401053799E+01 -0.27250454977E+02  0.29792176655E+02  0.00000000000E+00 0. -1.
</event>
<event>
 5    1  0.8778268E-005  0.9118800E+02  0.7818608E-02  0.1130116E+00
         25   -1    0    0    0    0  0.00000000000E+00  0.00000000000E+00  0.99999998245E-14  0.12500000000E+03  0.12500000000E+03 0.  0.
        -11    1    3    3    0    0  0.28495430945E+02 -0.27512596641E+02  0.46195960660E+02  0.60852274733E+02  0.51100000000E-03 0.  1.
         23    2    1    0    0    0  0.21390267128E+02 -0.65508360106E+01  0.23580845764E+02  0.92495949988E+02  0.86596694492E+02 0.  0.
         11    1    3    3    0    0 -0.71051638174E+01  0.20961760630E+02 -0.22615114896E+02  0.31643675254E+02  0.51100000000E-03 0. -1.
         22    1    1    0    0    0 -0.21390267128E+02  0.65508360106E+01 -0.23580845764E+02  0.32504050012E+02  0.00000000000E+00 0.  1.
</event>
<event>
 5    1  0.8778268E-005  0.9118800E+02  0.7818608E-02  0.1130116E+00
         25   -1    0    0    0    0  0.00000000000E+00  0.00000000000E+00  0.99999998245E-14  0.12500000000E+03  0.12500000000E+03 0.  0.
        -11    1    3    3    0    0 -0.32542806116E+02 -0.47474916880E+02  0.25046837579E+01  0.57612285180E+02  0.51100000000E-03 0.  1.
         23    2    1    0    0    0 -0.16935458252E+02 -0.20837724974E+02 -0.16132763716E+02  0.93674505696E+02  0.88281518020E+02 0.  0.
         11    1    3    3    0    0  0.15607347864E+02  0.26637191906E+02 -0.18637447474E+02  0.36062220516E+02  0.51100000000E-03 0. -1.
         22    1    1    0    0    0  0.16935458252E+02  0.20837724974E+02  0.16132763716E+02  0.31325494304E+02  0.00000000000E+00 0.  1.
</event>
<event>
 5    1  0.8778268E-005  0.9118800E+02  0.7818608E-02  0.1130116E+00
         25   -1    0    0    0    0  0.00000000000E+00  0.00000000000E+00  0.99999998245E-14  0.12500000000E+03  0.12500000000E+03 0.  0.
        -11    1    3    3    0    0 -0.43416671461E+02 -0.10672463371E+02  0.93577102191E+01  0.45677955033E+02  0.51100000000E-03 0.  1.
         23    2    1    0    0    0  0.96519358889E+01  0.16383173364E+02  0.46091472026E+01  0.10543440587E+03  0.10360309583E+03 0.  0.
         11    1    3    3    0    0  0.53068607350E+02  0.27055636735E+02 -0.47485630165E+01  0.59756450833E+02  0.51100000000E-03 0. -1.
         22    1    1    0    0    0 -0.96519358889E+01 -0.16383173364E+02 -0.46091472026E+01  0.19565594134E+02  0.00000000000E+00 0. -1.
</event>
<event>
 5    1  0.8778268E-005  0.9118800E+02  0.7818608E-02  0.1130116E+00
         25   -1    0    0    0    0  0.00000000000E+00  0.00000000000E+00  0.99999998245E-14  0.12500000000E+03  0.12500000000E+03 0.  0.
        -11    1    3    3    0    0  0.10006741343E+02 -0.31091605372E+02 -0.24582291121E+02  0.40879234752E+02  0.51100000000E-03 0.  1.
         23    2    1    0    0    0  0.24370354708E+02  0.15572689188E+02  0.11226289034E+01  0.96057243863E+02  0.91593181874E+02 0.  0.
         11    1    3    3    0    0  0.14363613365E+02  0.46664294560E+02  0.25704920025E+02  0.55178009111E+02  0.51100000000E-03 0. -1.
         22    1    1    0    0    0 -0.24370354708E+02 -0.15572689188E+02 -0.11226289034E+01  0.28942756137E+02  0.00000000000E+00 0. -1.
</event>
<event>
 5    1  0.8778268E-005  0.9118800E+02  0.7818608E-02  0.1130116E+00
         25   -1    0    0    0    0  0.00000000000E+00  0.00000000000E+00  0.99999998245E-14  0.12500000000E+03  0.12500000000E+03 0.  0.
        -11    1    3    3    0    0  0.33553106244E+02  0.47218530565E+01 -0.47299867305E+02  0.58184055223E+02  0.51100000000E-03 0.  1.
         23    2    1    0    0    0  0.20502628511E+02  0.16785465189E+02 -0.16377085443E+02  0.93850063482E+02  0.88529745682E+02 0.  0.
         11    1    3    3    0    0 -0.13050477733E+02  0.12063612133E+02  0.30922781862E+02  0.35666008259E+02  0.51100000000E-03 0. -1.
         22    1    1    0    0    0 -0.20502628511E+02 -0.16785465189E+02  0.16377085443E+02  0.31149936518E+02  0.00000000000E+00 0.  1.
</event>
<event>
 5    1  0.8778268E-005  0.9118800E+02  0.7818608E-02  0.1130116E+00
         25   -1    0    0    0    0  0.00000000000E+00  0.00000000000E+00  0.99999998245E-14  0.12500000000E+03  0.12500000000E+03 0.  0.
        -11    1    3    3    0    0 -0.24512920515E+02 -0.27146611712E+02  0.16986650140E+02  0.40328254151E+02  0.51100000000E-03 0. -1.
         23    2    1    0    0    0  0.12996121761E+02  0.17189900859E+02  0.15559097237E+02  0.98420357805E+02  0.94763333897E+02 0.  0.
         11    1    3    3    0    0  0.37509042276E+02  0.44336512571E+02 -0.14275529033E+01  0.58092103654E+02  0.51100000000E-03 0.  1.
         22    1    1    0    0    0 -0.12996121761E+02 -0.17189900859E+02 -0.15559097237E+02  0.26579642195E+02  0.00000000000E+00 0.  1.
</event>
<event>
 5    1  0.8778268E-005  0.9118800E+02  0.7818608E-02  0.1130116E+00
         25   -1    0    0    0    0  0.00000000000E+00  0.00000000000E+00  0.99999998245E-14  0.12500000000E+03  0.12500000000E+03 0.  0.
        -11    1    3    3    0    0 -0.63684171273E+01  0.50366443913E+02  0.22855684375E+02  0.55675108601E+02  0.51100000000E-03 0.  1.
         23    2    1    0    0    0 -0.18097194776E+02  0.13106400684E+02  0.20283385444E+02  0.94822161729E+02  0.89891826281E+02 0.  0.
         11    1    3    3    0    0 -0.11728777649E+02 -0.37260043229E+02 -0.25722989316E+01  0.39147053128E+02  0.51100000000E-03 0. -1.
         22    1    1    0    0    0  0.18097194776E+02 -0.13106400684E+02 -0.20283385444E+02  0.30177838271E+02  0.00000000000E+00 0.  1.
</event>
<event>
 5    1  0.8778268E-005  0.9118800E+02  0.7818608E-02  0.1130116E+00
         25   -1    0    0    0    0  0.00000000000E+00  0.00000000000E+00  0.99999998245E-14  0.12500000000E+03  0.12500000000E+03 0.  0.
        -11    1    3    3    0    0  0.38027902169E+02 -0.30130764109E+01  0.47569416180E+01  0.38442534602E+02  0.51100000000E-03 0. -1.
         23    2    1    0    0    0 -0.10259292445E+01  0.12123902925E+02 -0.29844184915E+02  0.92770868361E+02  0.86992626643E+02 0.  0.
         11    1    3    3    0    0 -0.39053831413E+02  0.15136979336E+02 -0.34601126533E+02  0.54328333759E+02  0.51100000000E-03 0.  1.
         22    1    1    0    0    0  0.10259292445E+01 -0.12123902925E+02  0.29844184915E+02  0.32229131639E+02  0.00000000000E+00 0.  1.
</event>
<event>
 5    1  0.8778268E-005  0.9118800E+02  0.7818608E-02  0.1130116E+00
         25   -1    0    0    0    0  0.00000000000E+00  0.00000000000E+00  0.99999998245E-14  0.12500000000E+03  0.12500000000E+03 0.  0.
        -11    1    3    3    0    0 -0.25008844660E+02  0.67143305079E+01 -0.21610710800E+02  0.33727546115E+02  0.51100000000E-03 0. -1.
         23    2    1    0    0    0  0.26520864731E+02 -0.93180513091E+00  0.12159358253E+02  0.95809684482E+02  0.91254704649E+02 0.  0.
         11    1    3    3    0    0  0.51529709392E+02 -0.76461356389E+01  0.33770069052E+02  0.62082138367E+02  0.51100000000E-03 0.  1.
         22    1    1    0    0    0 -0.26520864731E+02  0.93180513091E+00 -0.12159358253E+02  0.29190315518E+02  0.00000000000E+00 0.  1.
</event>
<event>
 5    1  0.8778268E-005  0.9118800E+02  0.7818608E-02  0.1130116E+00
         25   -1    0    0    0    0  0.00000000000E+00  0.00000000000E+00  0.99999998245E-14  0.12500000000E+03  0.12500000000E+03 0.  0.
        -11    1    3    3    0    0  0.33960929340E+02  0.25153634932E+02 -0.24395075306E+02  0.48797231186E+02  0.51100000000E-03 0. -1.
         23    2    1    0    0    0  0.23681072283E+02 -0.15841136777E+02 -0.24903861096E+01  0.96400405216E+02  0.92060313403E+02 0.  0.
         11    1    3    3    0    0 -0.10279857058E+02 -0.40994771710E+02  0.21904689197E+02  0.47603174030E+02  0.51100000000E-03 0.  1.
         22    1    1    0    0    0 -0.23681072283E+02  0.15841136777E+02  0.24903861096E+01  0.28599594784E+02  0.00000000000E+00 0.  1.
</event>
<event>
 5    1  0.8778268E-005  0.9118800E+02  0.7818608E-02  0.1130116E+00
         25   -1    0    0    0    0  0.00000000000E+00  0.00000000000E+00  0.99999998245E-14  0.12500000000E+03  0.12500000000E+03 0.  0.
        -11    1    3    3    0    0 -0.21198642030E+02 -0.23799971909E+02 -0.44957287754E+02  0.55108790672E+02  0.51100000000E-03 0.  1.
         23    2    1    0    0    0 -0.19047318612E+01  0.78213106174E+01 -0.28032064972E+02  0.95834994088E+02  0.91289366971E+02 0.  0.
         11    1    3    3    0    0  0.19293910169E+02  0.31621282527E+02  0.16925222782E+02  0.40726203416E+02  0.51100000000E-03 0. -1.
         22    1    1    0    0    0  0.19047318612E+01 -0.78213106174E+01  0.28032064972E+02  0.29165005912E+02  0.00000000000E+00 0.  1.
</event>
<event>
 5    1  0.8778268E-005  0.9118800E+02  0.7818608E-02  0.1130116E+00
         25   -1    0    0    0    0  0.00000000000E+00  0.00000000000E+00  0.99999998245E-14  0.12500000000E+03  0.12500000000E+03 0.  0.
        -11    1    3    3    0    0 -0.42133348843E+02 -0.34444538294E+02 -0.24518707083E+02  0.59689298038E+02  0.51100000000E-03 0.  1.
         23    2    1    0    0    0 -0.10064672509E+02 -0.21351657152E+02 -0.18857800433E+02  0.94787295172E+02  0.89843329151E+02 0.  0.
         11    1    3    3    0    0  0.32068676334E+02  0.13092881142E+02  0.56609066498E+01  0.35097997134E+02  0.51100000000E-03 0. -1.
         22    1    1    0    0    0  0.10064672509E+02  0.21351657152E+02  0.18857800433E+02  0.30212704828E+02  0.00000000000E+00 0.  1.
</event>
<event>
 5    1  0.8778268E-005  0.9118800E+02  0.7818608E-02  0.1130116E+00
         25   -1    0    0    0    0  0.00000000000E+00  0.00000000000E+00  0.99999998245E-14  0.12500000000E+03  0.12500000000E+03 0.  0.
        -11    1    3    3    0    0  0.17785966832E+02  0.31131989266E+02  0.27162048989E+02  0.44981310312E+02  0.51100000000E-03 0.  1.
         23    2    1    0    0    0 -0.50149186470E+01  0.91516138898E+01 -0.20378427100E+02  0.10210498445E+03  0.99505005468E+02 0.  0.
         11    1    3    3    0    0 -0.22800885479E+02 -0.21980375376E+02 -0.47540476089E+02  0.57123674141E+02  0.51100000000E-03 0. -1.
         22    1    1    0    0    0  0.50149186470E+01 -0.91516138898E+01  0.20378427100E+02  0.22895015547E+02  0.00000000000E+00 0. -1.
</event>
<event>
 5    1  0.8778268E-005  0.9118800E+02  0.7818608E-02  0.1130116E+00
         25   -1    0    0    0    0  0.00000000000E+00  0.00000000000E+00  0.99999998245E-14  0.12500000000E+03  0.12500000000E+03 0.  0.
        -11    1    3    3    0    0  0.10118426951E+02  0.40195855638E+02 -0.21791057971E+01  0.41507082249E+02  0.51100000000E-03 0.  1.
         23    2    1    0    0    0  0.27432791485E+02 -0.10549194941E+02  0.33936461323E+01  0.95413509897E+02  0.90710404443E+02 0.  0.
         11    1    3    3    0    0  0.17314364533E+02 -0.50745050579E+02  0.55727519294E+01  0.53906427648E+02  0.51100000000E-03 0. -1.
         22    1    1    0    0    0 -0.27432791485E+02  0.10549194941E+02 -0.33936461323E+01  0.29586490103E+02  0.00000000000E+00 0. -1.
</event>
<event>
 5    1  0.8778268E-005  0.9118800E+02  0.7818608E-02  0.1130116E+00
         25   -1    0    0    0    0  0.00000000000E+00  0.00000000000E+00  0.99999998245E-14  0.12500000000E+03  0.12500000000E+03 0.  0.
        -11    1    3    3    0    0 -0.40093587103E+02 -0.83776230020E+01  0.24775219339E+02  0.47869528800E+02  0.51100000000E-03 0. -1.
         23    2    1    0    0    0  0.72517742161E+01 -0.37629102889E+01  0.28275487769E+02  0.95567858867E+02  0.90922850355E+02 0.  0.
         11    1    3    3    0    0  0.47345361319E+02  0.46147127131E+01  0.35002684299E+01  0.47698330067E+02  0.51100000000E-03 0.  1.
         22    1    1    0    0    0 -0.72517742161E+01  0.37629102889E+01 -0.28275487769E+02  0.29432141133E+02  0.00000000000E+00 0.  1.
</event>
<event>
 5    1  0.8778268E-005  0.9118800E+02  0.7818608E-02  0.1130116E+00
         25   -1    0    0    0    0  0.00000000000E+00  0.00000000000E+00  0.99999998245E-14  0.12500000000E+03  0.12500000000E+03 0.  0.
        -11    1    3    3    0    0  0.18826069572E+02  0.75453708579E+00 -0.58145499423E+02  0.61121921805E+02  0.51100000000E-03 0.  1.
         23    2    1    0    0    0  0.80935603460E+01 -0.88863341519E+01 -0.26792660435E+02  0.95634726173E+02  0.91014732562E+02 0.  0.
         11    1    3    3    0    0 -0.10732509226E+02 -0.96408712377E+01  0.31352838988E+02  0.34512804368E+02  0.51100000000E-03 0. -1.
         22    1    1    0    0    0 -0.80935603460E+01  0.88863341519E+01  0.26792660435E+02  0.29365273827E+02  0.00000000000E+00 0.  1.
</event>
<event>
 5    1  0.8778268E-005  0.9118800E+02  0.7818608E-02  0.1130116E+00
         25   -1    0    0    0    0  0.00000000000E+00  0.00000000000E+00  0.99999998245E-14  0.12500000000E+03  0.12500000000E+03 0.  0.
        -11    1    3    3    0    0  0.20998421169E+02  0.24567133967E+02 -0.20604833834E+02  0.38328017696E+02  0.51100000000E-03 0.  1.
         23    2    1    0    0    0  0.63678790568E+01 -0.28384553515E+02 -0.96976679722E+01  0.94336054950E+02  0.89213304711E+02 0.  0.
         11    1    3    3    0    0 -0.14630542112E+02 -0.52951687482E+02  0.10907165862E+02  0.56008037254E+02  0.51100000000E-03 0. -1.
         22    1    1    0    0    0 -0.63678790568E+01  0.28384553515E+02  0.96976679722E+01  0.30663945050E+02  0.00000000000E+00 0. -1.
</event>
<event>
 5    1  0.8778268E-005  0.9118800E+02  0.7818608E-02  0.1130116E+00
         25   -1    0    0    0    0  0.00000000000E+00  0.00000000000E+00  0.99999998245E-14  0.12500000000E+03  0.12500000000E+03 0.  0.
        -11    1    3    3    0    0 -0.73804057954E+01  0.37911555580E+02 -0.14496074926E+02  0.41254001318E+02  0.51100000000E-03 0. -1.
         23    2    1    0    0    0  0.28006158690E+02 -0.90845046841E+00  0.34598562061E+01  0.96766317778E+02  0.92555817994E+02 0.  0.
         11    1    3    3    0    0  0.35386564486E+02 -0.38820006048E+02  0.17955931132E+02  0.55512316460E+02  0.51100000000E-03 0.  1.
         22    1    1    0    0    0 -0.28006158690E+02  0.90845046841E+00 -0.34598562061E+01  0.28233682222E+02  0.00000000000E+00 0.  1.
</event>
<event>
 5    1  0.8778268E-005  0.9118800E+02  0.7818608E-02  0.1130116E+00
         25   -1    0    0    0    0  0.00000000000E+00  0.00000000000E+00  0.99999998245E-14  0.12500000000E+03  0.12500000000E+03 0.  0.
        -11    1    3    3    0    0  0.14317838879E+02 -0.21611685690E+02 -0.30059237670E+02  0.39694120951E+02  0.51100000000E-03 0. -1.
         23    2    1    0    0    0 -0.17552254780E+02  0.20405040954E+02 -0.74511545815E+01  0.97072109840E+02  0.92967884024E+02 0.  0.
         11    1    3    3    0    0 -0.31870093659E+02  0.42016726644E+02  0.22608083088E+02  0.57377988889E+02  0.51100000000E-03 0.  1.
         22    1    1    0    0    0  0.17552254780E+02 -0.20405040954E+02  0.74511545815E+01  0.27927890160E+02  0.00000000000E+00 0.  1.
</event>
<event>
 5    1  0.8778268E-005  0.9118800E+02  0.7818608E-02  0.1130116E+00
         25   -1    0    0    0    0  0.00000000000E+00  0.00000000000E+00  0.99999998245E-14  0.12500000000E+03  0.12500000000E+03 0.  0.
        -11    1    3    3    0    0 -0.74833067250E+01  0.33497535596E+02  0.24706328852E+02  0.42290512602E+02  0.51100000000E-03 0.  1.
         23    2    1    0    0    0  0.10720093319E+02  0.12822721779E+02 -0.22515198284E+02  0.96959373253E+02  0.92816180234E+02 0.  0.
         11    1    3    3    0    0  0.18203400044E+02 -0.20674813817E+02 -0.47221527136E+02  0.54668860651E+02  0.51100000000E-03 0. -1.
         22    1    1    0    0    0 -0.10720093319E+02 -0.12822721779E+02  0.22515198284E+02  0.28040626747E+02  0.00000000000E+00 0. -1.
</event>
<event>
 5    1  0.8778268E-005  0.9118800E+02  0.7818608E-02  0.1130116E+00
         25   -1    0    0    0    0  0.00000000000E+00  0.00000000000E+00  0.99999998245E-14  0.12500000000E+03  0.12500000000E+03 0.  0.
        -11    1    3    3    0    0  0.19998297747E+02  0.31356472313E+02 -0.11047272577E+01  0.37207266646E+02  0.51100000000E-03 0. -1.
         23    2    1    0    0    0 -0.98823180686E+01 -0.14637819795E+02  0.22055245817E+02  0.96744737714E+02  0.92526668742E+02 0.  0.
         11    1    3    3    0    0 -0.29880615815E+02 -0.45994292109E+02  0.23159973075E+02  0.59537471068E+02  0.51100000000E-03 0.  1.
         22    1    1    0    0    0  0.98823180686E+01  0.14637819795E+02 -0.22055245817E+02  0.28255262286E+02  0.00000000000E+00 0.  1.
</event>
<event>
 5    1  0.8778268E-005  0.9118800E+02  0.7818608E-02  0.1130116E+00
         25   -1    0    0    0    0  0.00000000000E+00  0.00000000000E+00  0.99999998245E-14  0.12500000000E+03  0.12500000000E+03 0.  0.
        -11    1    3    3    0    0  0.19546990098E+02  0.33905043773E+02  0.59938415819E+01  0.39592460801E+02  0.51100000000E-03 0. -1.
         23    2    1    0    0    0  0.96869690728E+01 -0.21358709368E+02  0.15993999214E+02  0.96612681589E+02  0.92348093631E+02 0.  0.
         11    1    3    3    0    0 -0.98600210250E+01 -0.55263753141E+02  0.10000157632E+02  0.57020220788E+02  0.51100000000E-03 0.  1.
         22    1    1    0    0    0 -0.96869690728E+01  0.21358709368E+02 -0.15993999214E+02  0.28387318411E+02  0.00000000000E+00 0.  1.
</event>
<event>
 5    1  0.8778268E-005  0.9118800E+02  0.7818608E-02  0.1130116E+00
         25   -1    0    0    0    0  0.00000000000E+00  0.00000000000E+00  0.99999998245E-14  0.12500000000E+03  0.12500000000E+03 0.  0.
        -11    1    3    3    0    0 -0.67813974167E+01  0.15181889845E+01  0.27575072227E+02  0.28437244193E+02  0.51100000000E-03 0. -1.
         23    2    1    0    0    0 -0.16701640020E+02  0.23002043015E+02 -0.25666723594E+02  0.86700920869E+02  0.77783225810E+02 0.  0.
         11    1    3    3    0    0 -0.99202426032E+01  0.21483854030E+02 -0.53241795821E+02  0.58263676676E+02  0.51100000000E-03 0.  1.
         22    1    1    0    0    0  0.16701640020E+02 -0.23002043015E+02  0.25666723594E+02  0.38299079131E+02  0.00000000000E+00 0.  1.
</event>
<event>
 5    1  0.8778268E-005  0.9118800E+02  0.7818608E-02  0.1130116E+00
         25   -1    0    0    0    0  0.00000000000E+00  0.00000000000E+00  0.99999998245E-14  0.12500000000E+03  0.12500000000E+03 0.  0.
        -11    1    3    3    0    0 -0.14314330239E+02 -0.32766480772E+02  0.41476091247E+01  0.35996457799E+02  0.51100000000E-03 0.  1.
         23    2    1    0    0    0 -0.11387403314E+02  0.21743330101E+02 -0.17641832914E+02  0.94772866053E+02  0.89823251517E+02 0.  0.
         11    1    3    3    0    0  0.29269269250E+01  0.54509810873E+02 -0.21789442038E+02  0.58776408254E+02  0.51100000000E-03 0. -1.
         22    1    1    0    0    0  0.11387403314E+02 -0.21743330101E+02  0.17641832914E+02  0.30227133947E+02  0.00000000000E+00 0. -1.
</event>
<event>
 5    1  0.8778268E-005  0.9118800E+02  0.7818608E-02  0.1130116E+00
         25   -1    0    0    0    0  0.00000000000E+00  0.00000000000E+00  0.99999998245E-14  0.12500000000E+03  0.12500000000E+03 0.  0.
        -11    1    3    3    0    0  0.15364090405E+01 -0.30706112333E+02 -0.28962389039E+02  0.42237967120E+02  0.51100000000E-03 0. -1.
         23    2    1    0    0    0  0.32230494562E+02 -0.11832501339E+01 -0.19104275861E+01  0.92691261335E+02  0.86878163734E+02 0.  0.
         11    1    3    3    0    0  0.30694085521E+02  0.29522862199E+02  0.27051961452E+02  0.50453294215E+02  0.51100000000E-03 0.  1.
         22    1    1    0    0    0 -0.32230494562E+02  0.11832501339E+01  0.19104275861E+01  0.32308738665E+02  0.00000000000E+00 0.  1.
</event>
<event>
 5    1  0.8778268E-005  0.9118800E+02  0.7818608E-02  0.1130116E+00
         25   -1    0    0    0    0  0.00000000000E+00  0.00000000000E+00  0.99999998245E-14  0.12500000000E+03  0.12500000000E+03 0.  0.
        -11    1    3    3    0    0 -0.28060170632E+02 -0.89391914717E+01  0.24100268046E+02  0.38053977982E+02  0.51100000000E-03 0. -1.
         23    2    1    0    0    0  0.22366254503E+02  0.15737263307E+02  0.93212756083E+01  0.96107146630E+02  0.91661260397E+02 0.  0.
         11    1    3    3    0    0  0.50426425136E+02  0.24676454778E+02 -0.14778992438E+02  0.58053168648E+02  0.51100000000E-03 0.  1.
         22    1    1    0    0    0 -0.22366254503E+02 -0.15737263307E+02 -0.93212756083E+01  0.28892853370E+02  0.00000000000E+00 0.  1.
</event>
<event>
 5    1  0.8778268E-005  0.9118800E+02  0.7818608E-02  0.1130116E+00
         25   -1    0    0    0    0  0.00000000000E+00  0.00000000000E+00  0.99999998245E-14  0.12500000000E+03  0.12500000000E+03 0.  0.
        -11    1    3    3    0    0  0.42024625614E+01 -0.37916693934E+02  0.70352715928E+01  0.38792156644E+02  0.51100000000E-03 0.  1.
         23    2    1    0    0    0  0.92514641184E+01  0.16151360125E+02  0.23017297017E+02  0.95398446254E+02  0.90689644191E+02 0.  0.
         11    1    3    3    0    0  0.50490015571E+01  0.54068054059E+02  0.15982025424E+02  0.56606289610E+02  0.51100000000E-03 0. -1.
         22    1    1    0    0    0 -0.92514641184E+01 -0.16151360125E+02 -0.23017297017E+02  0.29601553746E+02  0.00000000000E+00 0. -1.
</event>
<event>
 5    1  0.8778268E-005  0.9118800E+02  0.7818608E-02  0.1130116E+00
         25   -1    0    0    0    0  0.00000000000E+00  0.00000000000E+00  0.99999998245E-14  0.12500000000E+03  0.12500000000E+03 0.  0.
        -11    1    3    3    0    0 -0.19184302084E+02 -0.13514040915E+02  0.39616258962E+02  0.46044703525E+02  0.51100000000E-03 0. -1.
         23    2    1    0    0    0  0.12175520916E+02  0.18778257204E+02  0.19368538218E+02  0.95402592581E+02  0.90695359006E+02 0.  0.
         11    1    3    3    0    0  0.31359823000E+02  0.32292298119E+02 -0.20247720744E+02  0.49357889056E+02  0.51100000000E-03 0.  1.
         22    1    1    0    0    0 -0.12175520916E+02 -0.18778257204E+02 -0.19368538218E+02  0.29597407419E+02  0.00000000000E+00 0.  1.
</event>
<event>
 5    1  0.8778268E-005  0.9118800E+02  0.7818608E-02  0.1130116E+00
         25   -1    0    0    0    0  0.00000000000E+00  0.00000000000E+00  0.99999998245E-14  0.12500000000E+03  0.12500000000E+03 0.  0.
        -11    1    3    3    0    0 -0.34605969505E+02 -0.22071710598E+01 -0.48855862809E+02  0.59911101313E+02  0.51100000000E-03 0. -1.
         23    2    1    0    0    0 -0.28100797965E+02 -0.83061800928E+01 -0.21577525342E+02  0.88609931658E+02  0.80792839501E+02 0.  0.
         11    1    3    3    0    0  0.65051715400E+01 -0.60990090330E+01  0.27278337467E+02  0.28698830345E+02  0.51100000000E-03 0.  1.
         22    1    1    0    0    0  0.28100797965E+02  0.83061800928E+01  0.21577525342E+02  0.36390068342E+02  0.00000000000E+00 0. -1.
</event>
<event>
 5    1  0.8778268E-005  0.9118800E+02  0.7818608E-02  0.1130116E+00
         25   -1    0    0    0    0  0.00000000000E+00  0.00000000000E+00  0.99999998245E-14  0.12500000000E+03  0.12500000000E+03 0.  0.
        -11    1    3    3    0    0  0.28295522324E+02 -0.38850887212E+02 -0.38629855213E+02  0.61662741869E+02  0.51100000000E-03 0. -1.
         23    2    1    0    0    0  0.17469840218E+02 -0.18478363817E+02 -0.12044006833E+02  0.96862776484E+02  0.92685997438E+02 0.  0.
         11    1    3    3    0    0 -0.10825682106E+02  0.20372523396E+02  0.26585848380E+02  0.35200034615E+02  0.51100000000E-03 0.  1.
         22    1    1    0    0    0 -0.17469840218E+02  0.18478363817E+02  0.12044006833E+02  0.28137223516E+02  0.00000000000E+00 0. -1.
</event>
<event>
 5    1  0.8778268E-005  0.9118800E+02  0.7818608E-02  0.1130116E+00
         25   -1    0    0    0    0  0.00000000000E+00  0.00000000000E+00  0.99999998245E-14  0.12500000000E+03  0.12500000000E+03 0.  0.
        -11    1    3    3    0    0 -0.44798603467E+02 -0.18000615947E+02 -0.17767513357E+02  0.51445326106E+02  0.51100000000E-03 0.  1.
         23    2    1    0    0    0 -0.19067721701E+02  0.18327617738E+02 -0.10461285199E+02  0.96558514968E+02  0.92274745960E+02 0.  0.
         11    1    3    3    0    0  0.25730881766E+02  0.36328233685E+02  0.73062281586E+01  0.45113188862E+02  0.51100000000E-03 0. -1.
         22    1    1    0    0    0  0.19067721701E+02 -0.18327617738E+02  0.10461285199E+02  0.28441485032E+02  0.00000000000E+00 0.  1.
</event>
<event>
 5    1  0.8778268E-005  0.9118800E+02  0.7818608E-02  0.1130116E+00
         25   -1    0    0    0    0  0.00000000000E+00  0.00000000000E+00  0.99999998245E-14  0.12500000000E+03  0.12500000000E+03 0.  0.
        -11    1    3    3    0    0  0.88403605832E+01  0.32823736164E+02 -0.13336301090E+02  0.36515839824E+02  0.51100000000E-03 0. -1.
         23    2    1    0    0    0 -0.12402907248E+02 -0.20358100646E+02 -0.19617843833E+02  0.94126966997E+02  0.88919861388E+02 0.  0.
         11    1    3    3    0    0 -0.21243267831E+02 -0.53181836811E+02 -0.62815427431E+01  0.57611127173E+02  0.51100000000E-03 0.  1.
         22    1    1    0    0    0  0.12402907248E+02  0.20358100646E+02  0.19617843833E+02  0.30873033003E+02  0.00000000000E+00 0.  1.
</event>
<event>
 5    1  0.8778268E-005  0.9118800E+02  0.7818608E-02  0.1130116E+00
         25   -1    0    0    0    0  0.00000000000E+00  0.00000000000E+00  0.99999998245E-14  0.12500000000E+03  0.12500000000E+03 0.  0.
        -11    1    3    3    0    0 -0.37681312830E+02 -0.69472216685E+01  0.64136902920E+01  0.38849461373E+02  0.51100000000E-03 0. -1.
         23    2    1    0    0    0  0.61361938689E+01  0.13201104867E+02 -0.24761589119E+02  0.96276171205E+02  0.91891472952E+02 0.  0.
         11    1    3    3    0    0  0.43817506699E+02  0.20148326536E+02 -0.31175279411E+02  0.57426709832E+02  0.51100000000E-03 0.  1.
         22    1    1    0    0    0 -0.61361938689E+01 -0.13201104867E+02  0.24761589119E+02  0.28723828795E+02  0.00000000000E+00 0.  1.
</event>
<event>
 5    1  0.8778268E-005  0.9118800E+02  0.7818608E-02  0.1130116E+00
         25   -1    0    0    0    0  0.00000000000E+00  0.00000000000E+00  0.99999998245E-14  0.12500000000E+03  0.12500000000E+03 0.  0.
        -11    1    3    3    0    0  0.66044678857E+01 -0.13982665497E+02 -0.32648229277E+02  0.36125348519E+02  0.51100000000E-03 0. -1.
         23    2    1    0    0    0 -0.15545914217E+02  0.26209401285E+02  0.32007647785E+01  0.94359290809E+02  0.89245855378E+02 0.  0.
         11    1    3    3    0    0 -0.22150382102E+02  0.40192066782E+02  0.35848994056E+02  0.58233942289E+02  0.51100000000E-03 0.  1.
         22    1    1    0    0    0  0.15545914217E+02 -0.26209401285E+02 -0.32007647785E+01  0.30640709191E+02  0.00000000000E+00 0.  1.
</event>
<event>
 5    1  0.8778268E-005  0.9118800E+02  0.7818608E-02  0.1130116E+00
         25   -1    0    0    0    0  0.00000000000E+00  0.00000000000E+00  0.99999998245E-14  0.12500000000E+03  0.12500000000E+03 0.  0.
        -11    1    3    3    0    0 -0.47706603005E+02  0.18981100635E+02  0.48349211083E+01  0.51571102509E+02  0.51100000000E-03 0.  1.
         23    2    1    0    0    0 -0.17339052454E+02 -0.10898157675E+02  0.19593246845E+02  0.96657313066E+02  0.92408485901E+02 0.  0.
         11    1    3    3    0    0  0.30367550550E+02 -0.29879258310E+02  0.14758325737E+02  0.45086210557E+02  0.51100000000E-03 0. -1.
         22    1    1    0    0    0  0.17339052454E+02  0.10898157675E+02 -0.19593246845E+02  0.28342686934E+02  0.00000000000E+00 0.  1.
</event>
<event>
 5    1  0.8778268E-005  0.9118800E+02  0.7818608E-02  0.1130116E+00
         25   -1    0    0    0    0  0.00000000000E+00  0.00000000000E+00  0.99999998245E-14  0.12500000000E+03  0.12500000000E+03 0.  0.
        -11    1    3    3    0    0 -0.37576020036E+02 -0.74552806532E+01  0.36440476117E+02  0.52871984938E+02  0.51100000000E-03 0. -1.
         23    2    1    0    0    0 -0.21757551027E+01 -0.22451829198E+02  0.20596070087E+02  0.94454678793E+02  0.89379358346E+02 0.  0.
         11    1    3    3    0    0  0.35400264933E+02 -0.14996548545E+02 -0.15844406030E+02  0.41582693856E+02  0.51100000000E-03 0.  1.
         22    1    1    0    0    0  0.21757551027E+01  0.22451829198E+02 -0.20596070087E+02  0.30545321207E+02  0.00000000000E+00 0. -1.
</event>
<event>
 5    1  0.8778268E-005  0.9118800E+02  0.7818608E-02  0.1130116E+00
         25   -1    0    0    0    0  0.00000000000E+00  0.00000000000E+00  0.99999998245E-14  0.12500000000E+03  0.12500000000E+03 0.  0.
        -11    1    3    3    0    0 -0.15798285724E+02 -0.36796234616E+02 -0.23237052148E+00  0.40045008554E+02  0.51100000000E-03 0.  1.
         23    2    1    0    0    0 -0.24241404097E+02  0.13068516877E+02 -0.16161092680E+02  0.93068624794E+02  0.87419426894E+02 0.  0.
         11    1    3    3    0    0 -0.84431183728E+01  0.49864751493E+02 -0.15928722158E+02  0.53023616240E+02  0.51100000000E-03 0. -1.
         22    1    1    0    0    0  0.24241404097E+02 -0.13068516877E+02  0.16161092680E+02  0.31931375206E+02  0.00000000000E+00 0. -1.
</event>
<event>
 5    1  0.8778268E-005  0.9118800E+02  0.7818608E-02  0.1130116E+00
         25   -1    0    0    0    0  0.00000000000E+00  0.00000000000E+00  0.99999998245E-14  0.12500000000E+03  0.12500000000E+03 0.  0.
        -11    1    3    3    0    0 -0.11448879329E+02 -0.46569405820E+02 -0.51338909402E+01  0.48230107120E+02  0.51100000000E-03 0. -1.
         23    2    1    0    0    0 -0.20192729467E+02 -0.82225237088E+01  0.20415475067E+02  0.95131156004E+02  0.90320479411E+02 0.  0.
         11    1    3    3    0    0 -0.87438501370E+01  0.38346882111E+02  0.25549366007E+02  0.46901048885E+02  0.51100000000E-03 0.  1.
         22    1    1    0    0    0  0.20192729467E+02  0.82225237088E+01 -0.20415475067E+02  0.29868843996E+02  0.00000000000E+00 0.  1.
</event>
<event>
 5    1  0.8778268E-005  0.9118800E+02  0.7818608E-02  0.1130116E+00
         25   -1    0    0    0    0  0.00000000000E+00  0.00000000000E+00  0.99999998245E-14  0.12500000000E+03  0.12500000000E+03 0.  0.
        -11    1    3    3    0    0 -0.21616430841E+02  0.10118148765E+02  0.19017021839E+02  0.30517112194E+02  0.51100000000E-03 0. -1.
         23    2    1    0    0    0  0.35113463109E+02  0.12964667837E+01  0.73135814148E+01  0.89109547359E+02  0.81562165493E+02 0.  0.
         11    1    3    3    0    0  0.56729893950E+02 -0.88216819817E+01 -0.11703440424E+02  0.58592435166E+02  0.51100000000E-03 0.  1.
         22    1    1    0    0    0 -0.35113463109E+02 -0.12964667837E+01 -0.73135814148E+01  0.35890452641E+02  0.00000000000E+00 0.  1.
</event>
<event>
 5    1  0.8778268E-005  0.9118800E+02  0.7818608E-02  0.1130116E+00
         25   -1    0    0    0    0  0.00000000000E+00  0.00000000000E+00  0.99999998245E-14  0.12500000000E+03  0.12500000000E+03 0.  0.
        -11    1    3    3    0    0  0.33457157764E+02  0.36305965876E+02 -0.26902697339E+02  0.56225080598E+02  0.51100000000E-03 0. -1.
         23    2    1    0    0    0  0.28694930284E+02  0.47330917108E+01 -0.37266398067E+01  0.95679545955E+02  0.91076267429E+02 0.  0.
         11    1    3    3    0    0 -0.47622274802E+01 -0.31572874165E+02  0.23176057532E+02  0.39454465357E+02  0.51100000000E-03 0.  1.
         22    1    1    0    0    0 -0.28694930284E+02 -0.47330917108E+01  0.37266398067E+01  0.29320454045E+02  0.00000000000E+00 0. -1.
</event>
<event>
 5    1  0.8778268E-005  0.9118800E+02  0.7818608E-02  0.1130116E+00
         25   -1    0    0    0    0  0.00000000000E+00  0.00000000000E+00  0.99999998245E-14  0.12500000000E+03  0.12500000000E+03 0.  0.
        -11    1    3    3    0    0  0.24991170315E+02  0.31355343793E+02 -0.32982383555E+02  0.51918723052E+02  0.51100000000E-03 0.  1.
         23    2    1    0    0    0  0.87922758925E+01 -0.74300522451E+01 -0.28589661230E+02  0.94179900698E+02  0.88994242367E+02 0.  0.
         11    1    3    3    0    0 -0.16198894423E+02 -0.38785396038E+02  0.43927223248E+01  0.42261177646E+02  0.51100000000E-03 0. -1.
         22    1    1    0    0    0 -0.87922758925E+01  0.74300522451E+01  0.28589661230E+02  0.30820099302E+02  0.00000000000E+00 0.  1.
</event>
<event>
 5    1  0.8778268E-005  0.9118800E+02  0.7818608E-02  0.1130116E+00
         25   -1    0    0    0    0  0.00000000000E+00  0.00000000000E+00  0.99999998245E-14  0.12500000000E+03  0.12500000000E+03 0.  0.
        -11    1    3    3    0    0 -0.15926158016E+02 -0.29913809102E+02 -0.43248701740E+02  0.54944778520E+02  0.51100000000E-03 0.  1.
         23    2    1    0    0    0 -0.11209403493E+02 -0.20623771831E+02  0.20605824380E+01  0.10143653907E+03  0.98661718850E+02 0.  0.
         11    1    3    3    0    0  0.47167545222E+01  0.92900372710E+01  0.45309284178E+02  0.46491760546E+02  0.51100000000E-03 0. -1.
         22    1    1    0    0    0  0.11209403493E+02  0.20623771831E+02 -0.20605824380E+01  0.23563460934E+02  0.00000000000E+00 0.  1.
</event>
<event>
 5    1  0.8778268E-005  0.9118800E+02  0.7818608E-02  0.1130116E+00
         25   -1    0    0    0    0  0.00000000000E+00  0.00000000000E+00  0.99999998245E-14  0.12500000000E+03  0.12500000000E+03 0.  0.
        -11    1    3    3    0    0  0.29553209945E+02 -0.25317406553E+02  0.17231892736E+01  0.38952954627E+02  0.51100000000E-03 0. -1.
         23    2    1    0    0    0 -0.25832091205E+02 -0.13609593408E+02 -0.23443504036E+01  0.95708124889E+02  0.91115482889E+02 0.  0.
         11    1    3    3    0    0 -0.55385301150E+02  0.11707813146E+02 -0.40675396772E+01  0.56755170261E+02  0.51100000000E-03 0.  1.
         22    1    1    0    0    0  0.25832091205E+02  0.13609593408E+02  0.23443504036E+01  0.29291875111E+02  0.00000000000E+00 0.  1.
</event>
<event>
 5    1  0.8778268E-005  0.9118800E+02  0.7818608E-02  0.1130116E+00
         25   -1    0    0    0    0  0.00000000000E+00  0.00000000000E+00  0.99999998245E-14  0.12500000000E+03  0.12500000000E+03 0.  0.
        -11    1    3    3    0    0  0.51748280060E+01 -0.13987885874E+02 -0.33954612658E+02  0.37085785917E+02  0.51100000000E-03 0. -1.
         23    2    1    0    0    0  0.49320507121E+01  0.15822029731E+02  0.20180642980E+02  0.98886400092E+02  0.95376097755E+02 0.  0.
         11    1    3    3    0    0 -0.24277729395E+00  0.29809915605E+02  0.54135255638E+02  0.61800614175E+02  0.51100000000E-03 0.  1.
         22    1    1    0    0    0 -0.49320507121E+01 -0.15822029731E+02 -0.20180642980E+02  0.26113599908E+02  0.00000000000E+00 0.  1.
</event>
<event>
 5    1  0.8778268E-005  0.9118800E+02  0.7818608E-02  0.1130116E+00
         25   -1    0    0    0    0  0.00000000000E+00  0.00000000000E+00  0.99999998245E-14  0.12500000000E+03  0.12500000000E+03 0.  0.
        -11    1    3    3    0    0  0.69577427290E+01  0.34625410276E+02 -0.21712366431E+02  0.41457883170E+02  0.51100000000E-03 0. -1.
         23    2    1    0    0    0  0.11897208235E+02 -0.19067064310E+02 -0.19208923260E+02  0.95435168899E+02  0.90740245893E+02 0.  0.
         11    1    3    3    0    0  0.49394655065E+01 -0.53692474586E+02  0.25034431702E+01  0.53977285729E+02  0.51100000000E-03 0.  1.
         22    1    1    0    0    0 -0.11897208235E+02  0.19067064310E+02  0.19208923260E+02  0.29564831101E+02  0.00000000000E+00 0.  1.
</event>
<event>
 5    1  0.8778268E-005  0.9118800E+02  0.7818608E-02  0.1130116E+00
         25   -1    0    0    0    0  0.00000000000E+00  0.00000000000E+00  0.99999998245E-14  0.12500000000E+03  0.12500000000E+03 0.  0.
        -11    1    3    3    0    0 -0.23939142932E+02  0.56562257882E+01  0.39656806944E+02  0.46666238243E+02  0.51100000000E-03 0.  1.
         23    2    1    0    0    0 -0.11421340558E+02  0.27897933401E+02 -0.11901271491E+01  0.94831173195E+02  0.89904356394E+02 0.  0.
         11    1    3    3    0    0  0.12517802374E+02  0.22241707612E+02 -0.40846934094E+02  0.48164934952E+02  0.51100000000E-03 0. -1.
         22    1    1    0    0    0  0.11421340558E+02 -0.27897933401E+02  0.11901271491E+01  0.30168826805E+02  0.00000000000E+00 0.  1.
</event>
<event>
 5    1  0.8778268E-005  0.9118800E+02  0.7818608E-02  0.1130116E+00
         25   -1    0    0    0    0  0.00000000000E+00  0.00000000000E+00  0.99999998245E-14  0.12500000000E+03  0.12500000000E+03 0.  0.
        -11    1    3    3    0    0 -0.64003004911E+01 -0.58352691933E+01  0.58054201932E+02  0.58696716903E+02  0.51100000000E-03 0. -1.
         23    2    1    0    0    0 -0.34417914319E+01 -0.17821491254E+02  0.24074029111E+02  0.94850201387E+02  0.89930808663E+02 0.  0.
         11    1    3    3    0    0  0.29585090592E+01 -0.11986222061E+02 -0.33980172821E+02  0.36153484485E+02  0.51100000000E-03 0.  1.
         22    1    1    0    0    0  0.34417914319E+01  0.17821491254E+02 -0.24074029111E+02  0.30149798613E+02  0.00000000000E+00 0. -1.
</event>
<event>
 5    1  0.8778268E-005  0.9118800E+02  0.7818608E-02  0.1130116E+00
         25   -1    0    0    0    0  0.00000000000E+00  0.00000000000E+00  0.99999998245E-14  0.12500000000E+03  0.12500000000E+03 0.  0.
        -11    1    3    3    0    0 -0.32887195792E+02 -0.18093820692E+02  0.28526276695E+02  0.47145545459E+02  0.51100000000E-03 0.  1.
         23    2    1    0    0    0 -0.12789567554E+02 -0.20512307936E+02 -0.15968779366E+02  0.96028812080E+02  0.91554371932E+02 0.  0.
         11    1    3    3    0    0  0.20097628238E+02 -0.24184872445E+01 -0.44495056061E+02  0.48883266621E+02  0.51100000000E-03 0. -1.
         22    1    1    0    0    0  0.12789567554E+02  0.20512307936E+02  0.15968779366E+02  0.28971187920E+02  0.00000000000E+00 0.  1.
</event>
<event>
 5    1  0.8778268E-005  0.9118800E+02  0.7818608E-02  0.1130116E+00
         25   -1    0    0    0    0  0.00000000000E+00  0.00000000000E+00  0.99999998245E-14  0.12500000000E+03  0.12500000000E+03 0.  0.
        -11    1    3    3    0    0  0.18121407306E+02 -0.36258210874E+02 -0.40988700368E+02  0.57646481390E+02  0.51100000000E-03 0. -1.
         23    2    1    0    0    0  0.13790053596E+02 -0.16560772761E+01 -0.25833554795E+02  0.95669457497E+02  0.91062420209E+02 0.  0.
         11    1    3    3    0    0 -0.43313537095E+01  0.34602133598E+02  0.15155145573E+02  0.38022976107E+02  0.51100000000E-03 0.  1.
         22    1    1    0    0    0 -0.13790053596E+02  0.16560772761E+01  0.25833554795E+02  0.29330542503E+02  0.00000000000E+00 0. -1.
</event>
<event>
 5    1  0.8778268E-005  0.9118800E+02  0.7818608E-02  0.1130116E+00
         25   -1    0    0    0    0  0.00000000000E+00  0.00000000000E+00  0.99999998245E-14  0.12500000000E+03  0.12500000000E+03 0.  0.
        -11    1    3    3    0    0 -0.81734341844E+01  0.25883182299E+02  0.32478057566E+02  0.42326922588E+02  0.51100000000E-03 0. -1.
         23    2    1    0    0    0  0.17288575890E+02  0.17786585938E+02 -0.14424927723E+02  0.96306167293E+02  0.91932267584E+02 0.  0.
         11    1    3    3    0    0  0.25462010074E+02 -0.80965963608E+01 -0.46902985289E+02  0.53979244705E+02  0.51100000000E-03 0.  1.
         22    1    1    0    0    0 -0.17288575890E+02 -0.17786585938E+02  0.14424927723E+02  0.28693832707E+02  0.00000000000E+00 0.  1.
</event>
<event>
 5    1  0.8778268E-005  0.9118800E+02  0.7818608E-02  0.1130116E+00
         25   -1    0    0    0    0  0.00000000000E+00  0.00000000000E+00  0.99999998245E-14  0.12500000000E+03  0.12500000000E+03 0.  0.
        -11    1    3    3    0    0 -0.28574239740E+02  0.20966931566E+02 -0.47667902259E+02  0.59399733182E+02  0.51100000000E-03 0.  1.
         23    2    1    0    0    0 -0.26737965294E+01  0.18082168109E+02 -0.25572881589E+02  0.93566160524E+02  0.88127975871E+02 0.  0.
         11    1    3    3    0    0  0.25900443211E+02 -0.28847634568E+01  0.22095020670E+02  0.34166427343E+02  0.51100000000E-03 0. -1.
         22    1    1    0    0    0  0.26737965294E+01 -0.18082168109E+02  0.25572881589E+02  0.31433839476E+02  0.00000000000E+00 0.  1.
</event>
<event>
 5    1  0.8778268E-005  0.9118800E+02  0.7818608E-02  0.1130116E+00
         25   -1    0    0    0    0  0.00000000000E+00  0.00000000000E+00  0.99999998245E-14  0.12500000000E+03  0.12500000000E+03 0.  0.
        -11    1    3    3    0    0  0.12000239218E+01  0.38337470618E+02  0.50473532512E+01  0.38686916211E+02  0.51100000000E-03 0.  1.
         23    2    1    0    0    0  0.20188031352E+02 -0.28150657020E+01 -0.24757677191E+02  0.92930952857E+02  0.87222349282E+02 0.  0.
         11    1    3    3    0    0  0.18988007431E+02 -0.41152536320E+02 -0.29805030442E+02  0.54244036646E+02  0.51100000000E-03 0. -1.
         22    1    1    0    0    0 -0.20188031352E+02  0.28150657020E+01  0.24757677191E+02  0.32069047143E+02  0.00000000000E+00 0. -1.
</event>
<event>
 5    1  0.8778268E-005  0.9118800E+02  0.7818608E-02  0.1130116E+00
         25   -1    0    0    0    0  0.00000000000E+00  0.00000000000E+00  0.99999998245E-14  0.12500000000E+03  0.12500000000E+03 0.  0.
        -11    1    3    3    0    0  0.45019042527E+02 -0.67200433468E+01  0.10899683047E+02  0.46804660702E+02  0.51100000000E-03 0.  1.
         23    2    1    0    0    0  0.10277350884E+02 -0.12991488198E+01 -0.25537747661E+02  0.97441184996E+02  0.93462806768E+02 0.  0.
         11    1    3    3    0    0 -0.34741691643E+02  0.54208945269E+01 -0.36437430708E+02  0.50636524294E+02  0.51100000000E-03 0. -1.
         22    1    1    0    0    0 -0.10277350884E+02  0.12991488198E+01  0.25537747661E+02  0.27558815004E+02  0.00000000000E+00 0. -1.
</event>
<event>
 5    1  0.8778268E-005  0.9118800E+02  0.7818608E-02  0.1130116E+00
         25   -1    0    0    0    0  0.00000000000E+00  0.00000000000E+00  0.99999998245E-14  0.12500000000E+03  0.12500000000E+03 0.  0.
        -11    1    3    3    0    0 -0.35427780323E+02 -0.29478722677E+02 -0.37631729695E+02  0.59500166297E+02  0.51100000000E-03 0. -1.
         23    2    1    0    0    0 -0.11016179991E+02 -0.20406142271E+02 -0.49526867100E+01  0.10128721928E+03  0.98472355609E+02 0.  0.
         11    1    3    3    0    0  0.24411600333E+02  0.90725804055E+01  0.32679042985E+02  0.41787052980E+02  0.51100000000E-03 0.  1.
         22    1    1    0    0    0  0.11016179991E+02  0.20406142271E+02  0.49526867100E+01  0.23712780723E+02  0.00000000000E+00 0. -1.
</event>
<event>
 5    1  0.8778268E-005  0.9118800E+02  0.7818608E-02  0.1130116E+00
         25   -1    0    0    0    0  0.00000000000E+00  0.00000000000E+00  0.99999998245E-14  0.12500000000E+03  0.12500000000E+03 0.  0.
        -11    1    3    3    0    0 -0.25405372833E+02 -0.20393171933E+02 -0.35745363892E+01  0.32773338874E+02  0.51100000000E-03 0. -1.
         23    2    1    0    0    0  0.30522200286E+02  0.40347127171E+01 -0.49413464783E+01  0.93818266212E+02  0.88484837983E+02 0.  0.
         11    1    3    3    0    0  0.55927573120E+02  0.24427884650E+02 -0.13668100891E+01  0.61044927337E+02  0.51100000000E-03 0.  1.
         22    1    1    0    0    0 -0.30522200286E+02 -0.40347127171E+01  0.49413464783E+01  0.31181733788E+02  0.00000000000E+00 0.  1.
</event>
<event>
 5    1  0.8778268E-005  0.9118800E+02  0.7818608E-02  0.1130116E+00
         25   -1    0    0    0    0  0.00000000000E+00  0.00000000000E+00  0.99999998245E-14  0.12500000000E+03  0.12500000000E+03 0.  0.
        -11    1    3    3    0    0  0.11963781578E+02  0.34283546801E+02 -0.24743527022E+01  0.36395275413E+02  0.51100000000E-03 0. -1.
         23    2    1    0    0    0  0.13957080790E+02 -0.20705434486E+02 -0.18746385536E+02  0.93775937291E+02  0.88425020908E+02 0.  0.
         11    1    3    3    0    0  0.19932992125E+01 -0.54988981286E+02 -0.16272032834E+02  0.57380661877E+02  0.51100000000E-03 0.  1.
         22    1    1    0    0    0 -0.13957080790E+02  0.20705434486E+02  0.18746385536E+02  0.31224062709E+02  0.00000000000E+00 0.  1.
</event>
<event>
 5    1  0.8778268E-005  0.9118800E+02  0.7818608E-02  0.1130116E+00
         25   -1    0    0    0    0  0.00000000000E+00  0.00000000000E+00  0.99999998245E-14  0.12500000000E+03  0.12500000000E+03 0.  0.
        -11    1    3    3    0    0  0.33497975056E+02 -0.33513496265E+02  0.13781426323E+02  0.49347709942E+02  0.51100000000E-03 0.  1.
         23    2    1    0    0    0  0.25021325951E+02  0.58100823832E+01 -0.11496734579E+02  0.96857528260E+02  0.92678919205E+02 0.  0.
         11    1    3    3    0    0 -0.84766491055E+01  0.39323578648E+02 -0.25278160902E+02  0.47509818318E+02  0.51100000000E-03 0. -1.
         22    1    1    0    0    0 -0.25021325951E+02 -0.58100823832E+01  0.11496734579E+02  0.28142471740E+02  0.00000000000E+00 0. -1.
</event>
<event>
 5    1  0.8778268E-005  0.9118800E+02  0.7818608E-02  0.1130116E+00
         25   -1    0    0    0    0  0.00000000000E+00  0.00000000000E+00  0.99999998245E-14  0.12500000000E+03  0.12500000000E+03 0.  0.
        -11    1    3    3    0    0 -0.38940511806E+02  0.49237774974E+01 -0.16112417437E+02  0.42428964641E+02  0.51100000000E-03 0. -1.
         23    2    1    0    0    0 -0.69172353124E+01 -0.27888588460E+02  0.92357054195E+01  0.94818552631E+02  0.89886807474E+02 0.  0.
         11    1    3    3    0    0  0.32023276494E+02 -0.32812365958E+02  0.25348122857E+02  0.52389587990E+02  0.51100000000E-03 0.  1.
         22    1    1    0    0    0  0.69172353124E+01  0.27888588460E+02 -0.92357054195E+01  0.30181447369E+02  0.00000000000E+00 0.  1.
</event>
<event>
 5    1  0.8778268E-005  0.9118800E+02  0.7818608E-02  0.1130116E+00
         25   -1    0    0    0    0  0.00000000000E+00  0.00000000000E+00  0.99999998245E-14  0.12500000000E+03  0.12500000000E+03 0.  0.
        -11    1    3    3    0    0 -0.38202805101E+02  0.22267195657E+01 -0.10524697265E+02  0.39688560700E+02  0.51100000000E-03 0.  1.
         23    2    1    0    0    0  0.15441849117E+02  0.18868761021E+02 -0.15552775564E+02  0.96079943389E+02  0.91624155370E+02 0.  0.
         11    1    3    3    0    0  0.53644654219E+02  0.16642041455E+02 -0.50280782982E+01  0.56391382690E+02  0.51100000000E-03 0. -1.
         22    1    1    0    0    0 -0.15441849117E+02 -0.18868761021E+02  0.15552775564E+02  0.28920056611E+02  0.00000000000E+00 0.  1.
</event>
<event>
 5    1  0.8778268E-005  0.9118800E+02  0.7818608E-02  0.1130116E+00
         25   -1    0    0    0    0  0.00000000000E+00  0.00000000000E+00  0.99999998245E-14  0.12500000000E+03  0.12500000000E+03 0.  0.
        -11    1    3    3    0    0 -0.12159056766E+02 -0.21681249017E+02 -0.23250438486E+02  0.34036775852E+02  0.51100000000E-03 0. -1.
         23    2    1    0    0    0  0.20990828324E+02  0.19899721553E+02  0.70329316097E+01  0.95232972627E+02  0.90461279875E+02 0.  0.
         11    1    3    3    0    0  0.33149885090E+02  0.41580970570E+02  0.30283370096E+02  0.61196196774E+02  0.51100000000E-03 0.  1.
         22    1    1    0    0    0 -0.20990828324E+02 -0.19899721553E+02 -0.70329316097E+01  0.29767027373E+02  0.00000000000E+00 0.  1.
</event>
<event>
 5    1  0.8778268E-005  0.9118800E+02  0.7818608E-02  0.1130116E+00
         25   -1    0    0    0    0  0.00000000000E+00  0.00000000000E+00  0.99999998245E-14  0.12500000000E+03  0.12500000000E+03 0.  0.
        -11    1    3    3    0    0  0.40769932418E+02  0.34436205639E+01  0.46024986837E+02  0.61582021123E+02  0.51100000000E-03 0. -1.
         23    2    1    0    0    0  0.12963921277E+02  0.47768532651E+01  0.24884827272E+02  0.96537108187E+02  0.92245742703E+02 0.  0.
         11    1    3    3    0    0 -0.27806011141E+02  0.13332327012E+01 -0.21140159565E+02  0.34955087065E+02  0.51100000000E-03 0.  1.
         22    1    1    0    0    0 -0.12963921277E+02 -0.47768532651E+01 -0.24884827272E+02  0.28462891813E+02  0.00000000000E+00 0. -1.
</event>
<event>
 5    1  0.8778268E-005  0.9118800E+02  0.7818608E-02  0.1130116E+00
         25   -1    0    0    0    0  0.00000000000E+00  0.00000000000E+00  0.99999998245E-14  0.12500000000E+03  0.12500000000E+03 0.  0.
        -11    1    3    3    0    0 -0.11069463376E+02  0.54563024922E+02  0.20702926445E+02  0.59399224504E+02  0.51100000000E-03 0. -1.
         23    2    1    0    0    0  0.68485997035E+01  0.24431939153E+02  0.16562657792E+02  0.94699098993E+02  0.89720536938E+02 0.  0.
         11    1    3    3    0    0  0.17918063080E+02 -0.30131085769E+02 -0.41402686530E+01  0.35299874489E+02  0.51100000000E-03 0.  1.
         22    1    1    0    0    0 -0.68485997035E+01 -0.24431939153E+02 -0.16562657792E+02  0.30300901007E+02  0.00000000000E+00 0. -1.
</event>
<event>
 5    1  0.8778268E-005  0.9118800E+02  0.7818608E-02  0.1130116E+00
         25   -1    0    0    0    0  0.00000000000E+00  0.00000000000E+00  0.99999998245E-14  0.12500000000E+03  0.12500000000E+03 0.  0.
        -11    1    3    3    0    0 -0.70891074874E+01 -0.24230399782E+02  0.34322763448E+02  0.42607743540E+02  0.51100000000E-03 0.  1.
         23    2    1    0    0    0  0.28935225480E+02 -0.15646253595E+00  0.33426900093E+01  0.95871915089E+02  0.91339907884E+02 0.  0.
         11    1    3    3    0    0  0.36024332967E+02  0.24073937246E+02 -0.30980073439E+02  0.53264171549E+02  0.51100000000E-03 0. -1.
         22    1    1    0    0    0 -0.28935225480E+02  0.15646253595E+00 -0.33426900093E+01  0.29128084911E+02  0.00000000000E+00 0. -1.
</event>
<event>
 5    1  0.8778268E-005  0.9118800E+02  0.7818608E-02  0.1130116E+00
         25   -1    0    0    0    0  0.00000000000E+00  0.00000000000E+00  0.99999998245E-14  0.12500000000E+03  0.12500000000E+03 0.  0.
        -11    1    3    3    0    0 -0.20472287525E+02  0.11567035830E+02 -0.34990526515E+02  0.42157417146E+02  0.51100000000E-03 0.  1.
         23    2    1    0    0    0  0.26557693530E+02  0.78675483155E-01 -0.14647942867E+02  0.94670484578E+02  0.89680662044E+02 0.  0.
         11    1    3    3    0    0  0.47029981055E+02 -0.11488360346E+02  0.20342583647E+02  0.52513067433E+02  0.51100000000E-03 0. -1.
         22    1    1    0    0    0 -0.26557693530E+02 -0.78675483155E-01  0.14647942867E+02  0.30329515422E+02  0.00000000000E+00 0. -1.
</event>
<event>
 5    1  0.8778268E-005  0.9118800E+02  0.7818608E-02  0.1130116E+00
         25   -1    0    0    0    0  0.00000000000E+00  0.00000000000E+00  0.99999998245E-14  0.12500000000E+03  0.12500000000E+03 0.  0.
        -11    1    3    3    0    0  0.18906136516E+02 -0.48000228897E+02 -0.34683513636E+01  0.51705835585E+02  0.51100000000E-03 0.  1.
         23    2    1    0    0    0  0.83583775696E+01 -0.82442073561E+01 -0.24448348903E+02  0.97878952922E+02  0.94046468463E+02 0.  0.
         11    1    3    3    0    0 -0.10547758946E+02  0.39756021541E+02 -0.20979997540E+02  0.46173117337E+02  0.51100000000E-03 0. -1.
         22    1    1    0    0    0 -0.83583775696E+01  0.82442073561E+01  0.24448348903E+02  0.27121047078E+02  0.00000000000E+00 0.  1.
</event>
<event>
 5    1  0.8778268E-005  0.9118800E+02  0.7818608E-02  0.1130116E+00
         25   -1    0    0    0    0  0.00000000000E+00  0.00000000000E+00  0.99999998245E-14  0.12500000000E+03  0.12500000000E+03 0.  0.
        -11    1    3    3    0    0 -0.21715706338E+02 -0.35950885046E+02 -0.45887460065E+02  0.62206888918E+02  0.51100000000E-03 0.  1.
         23    2    1    0    0    0 -0.13616824814E+02 -0.18062044091E+02 -0.19264012552E+02  0.95288764173E+02  0.90538340184E+02 0.  0.
         11    1    3    3    0    0  0.80988815245E+01  0.17888840955E+02  0.26623447513E+02  0.33081875256E+02  0.51100000000E-03 0. -1.
         22    1    1    0    0    0  0.13616824814E+02  0.18062044091E+02  0.19264012552E+02  0.29711235827E+02  0.00000000000E+00 0.  1.
</event>
<event>
 5    1  0.8778268E-005  0.9118800E+02  0.7818608E-02  0.1130116E+00
         25   -1    0    0    0    0  0.00000000000E+00  0.00000000000E+00  0.99999998245E-14  0.12500000000E+03  0.12500000000E+03 0.  0.
        -11    1    3    3    0    0  0.52338102995E+01  0.43885599783E+02 -0.12048803112E+02  0.45809521884E+02  0.51100000000E-03 0. -1.
         23    2    1    0    0    0  0.21613770847E+02 -0.56872944479E+01 -0.14970041467E+02  0.98100138478E+02  0.94339994803E+02 0.  0.
         11    1    3    3    0    0  0.16379960548E+02 -0.49572894231E+02 -0.29212383547E+01  0.52290616594E+02  0.51100000000E-03 0.  1.
         22    1    1    0    0    0 -0.21613770847E+02  0.56872944479E+01  0.14970041467E+02  0.26899861522E+02  0.00000000000E+00 0.  1.
</event>
<event>
 5    1  0.8778268E-005  0.9118800E+02  0.7818608E-02  0.1130116E+00
         25   -1    0    0    0    0  0.00000000000E+00  0.00000000000E+00  0.99999998245E-14  0.12500000000E+03  0.12500000000E+03 0.  0.
        -11    1    3    3    0    0 -0.30086485922E+01 -0.15041417817E+02  0.28744117857E+02  0.32580984146E+02  0.51100000000E-03 0.  1.
         23    2    1    0    0    0  0.13425492951E+02  0.12004436288E+02 -0.24543420707E+02  0.94557762047E+02  0.89523407620E+02 0.  0.
         11    1    3    3    0    0  0.16434141543E+02  0.27045854105E+02 -0.53287538564E+02  0.61976777901E+02  0.51100000000E-03 0. -1.
         22    1    1    0    0    0 -0.13425492951E+02 -0.12004436288E+02  0.24543420707E+02  0.30442237953E+02  0.00000000000E+00 0. -1.
</event>
<event>
 5    1  0.8778268E-005  0.9118800E+02  0.7818608E-02  0.1130116E+00
         25   -1    0    0    0    0  0.00000000000E+00  0.00000000000E+00  0.99999998245E-14  0.12500000000E+03  0.12500000000E+03 0.  0.
        -11    1    3    3    0    0 -0.39655159603E+02 -0.93729546327E+01 -0.10705187552E+02  0.42130570878E+02  0.51100000000E-03 0.  1.
         23    2    1    0    0    0  0.80204861732E+01  0.28153505819E+01  0.22133393737E+02  0.10129047627E+03  0.98476489918E+02 0.  0.
         11    1    3    3    0    0  0.47675645776E+02  0.12188305215E+02  0.32838581289E+02  0.59159905388E+02  0.51100000000E-03 0. -1.
         22    1    1    0    0    0 -0.80204861732E+01 -0.28153505819E+01 -0.22133393737E+02  0.23709523734E+02  0.00000000000E+00 0. -1.
</event>
<event>
 5    1  0.8778268E-005  0.9118800E+02  0.7818608E-02  0.1130116E+00
         25   -1    0    0    0    0  0.00000000000E+00  0.00000000000E+00  0.99999998245E-14  0.12500000000E+03  0.12500000000E+03 0.  0.
        -11    1    3    3    0    0 -0.21718176851E+02  0.12536225814E+02 -0.34486426925E+02  0.42639767890E+02  0.51100000000E-03 0.  1.
         23    2    1    0    0    0 -0.10569457879E+02  0.23999107841E+02  0.15099381082E+02  0.94740093753E+02  0.89777633285E+02 0.  0.
         11    1    3    3    0    0  0.11148718973E+02  0.11462882027E+02  0.49585808007E+02  0.52100325863E+02  0.51100000000E-03 0. -1.
         22    1    1    0    0    0  0.10569457879E+02 -0.23999107841E+02 -0.15099381082E+02  0.30259906247E+02  0.00000000000E+00 0. -1.
</event>
<event>
 5    1  0.8778268E-005  0.9118800E+02  0.7818608E-02  0.1130116E+00
         25   -1    0    0    0    0  0.00000000000E+00  0.00000000000E+00  0.99999998245E-14  0.12500000000E+03  0.12500000000E+03 0.  0.
        -11    1    3    3    0    0  0.55195945781E+02  0.60669158343E+01  0.88859278105E+01  0.56234861178E+02  0.51100000000E-03 0.  1.
         23    2    1    0    0    0  0.23668783796E+02 -0.16970839500E+02  0.30379606551E+01  0.95717754105E+02  0.91128692113E+02 0.  0.
         11    1    3    3    0    0 -0.31527161986E+02 -0.23037755335E+02 -0.58479671554E+01  0.39482892926E+02  0.51100000000E-03 0. -1.
         22    1    1    0    0    0 -0.23668783796E+02  0.16970839500E+02 -0.30379606551E+01  0.29282245895E+02  0.00000000000E+00 0. -1.
</event>
<event>
 5    1  0.8778268E-005  0.9118800E+02  0.7818608E-02  0.1130116E+00
         25   -1    0    0    0    0  0.00000000000E+00  0.00000000000E+00  0.99999998245E-14  0.12500000000E+03  0.12500000000E+03 0.  0.
        -11    1    3    3    0    0 -0.10273809907E+02  0.39031318739E+02 -0.32794513812E+02  0.52004568539E+02  0.51100000000E-03 0. -1.
         23    2    1    0    0    0 -0.30034807536E+01 -0.51142255301E+01 -0.27279260242E+02  0.97083441495E+02  0.92983118757E+02 0.  0.
         11    1    3    3    0    0  0.72703291533E+01 -0.44145544269E+02  0.55152535697E+01  0.45078872956E+02  0.51100000000E-03 0.  1.
         22    1    1    0    0    0  0.30034807536E+01  0.51142255301E+01  0.27279260242E+02  0.27916558505E+02  0.00000000000E+00 0. -1.
</event>
<event>
 5    1  0.8778268E-005  0.9118800E+02  0.7818608E-02  0.1130116E+00
         25   -1    0    0    0    0  0.00000000000E+00  0.00000000000E+00  0.99999998245E-14  0.12500000000E+03  0.12500000000E+03 0.  0.
        -11    1    3    3    0    0 -0.29668544356E+02  0.30944394207E+02 -0.27340036854E+02  0.50845409551E+02  0.51100000000E-03 0. -1.
         23    2    1    0    0    0 -0.18681839581E+02  0.12221924716E+02  0.14777112457E+02  0.98227819916E+02  0.94509020622E+02 0.  0.
         11    1    3    3    0    0  0.10986704775E+02 -0.18722469490E+02  0.42117149311E+02  0.47382410364E+02  0.51100000000E-03 0.  1.
         22    1    1    0    0    0  0.18681839581E+02 -0.12221924716E+02 -0.14777112457E+02  0.26772180084E+02  0.00000000000E+00 0.  1.
</event>
<event>
 5    1  0.8778268E-005  0.9118800E+02  0.7818608E-02  0.1130116E+00
         25   -1    0    0    0    0  0.00000000000E+00  0.00000000000E+00  0.99999998245E-14  0.12500000000E+03  0.12500000000E+03 0.  0.
        -11    1    3    3    0    0  0.42520367529E+02  0.29651262702E+02  0.25442272274E+02  0.57745027953E+02  0.51100000000E-03 0.  1.
         23    2    1    0    0    0  0.27433557622E+02  0.49524589026E-01  0.40293837175E+01  0.97272063372E+02  0.93236344003E+02 0.  0.
         11    1    3    3    0    0 -0.15086809907E+02 -0.29601738113E+02 -0.21412888556E+02  0.39527035419E+02  0.51100000000E-03 0. -1.
         22    1    1    0    0    0 -0.27433557622E+02 -0.49524589026E-01 -0.40293837175E+01  0.27727936628E+02  0.00000000000E+00 0.  1.
</event>
<event>
 5    1  0.8778268E-005  0.9118800E+02  0.7818608E-02  0.1130116E+00
         25   -1    0    0    0    0  0.00000000000E+00  0.00000000000E+00  0.99999998245E-14  0.12500000000E+03  0.12500000000E+03 0.  0.
        -11    1    3    3    0    0  0.22077780240E+02 -0.35449963940E+02 -0.44446727813E+01  0.41998612359E+02  0.51100000000E-03 0.  1.
         23    2    1    0    0    0  0.14022590631E+02  0.20187274857E+02  0.71548888937E+01  0.99400165054E+02  0.96047078371E+02 0.  0.
         11    1    3    3    0    0 -0.80551896085E+01  0.55637238797E+02  0.11599561675E+02  0.57401552696E+02  0.51100000000E-03 0. -1.
         22    1    1    0    0    0 -0.14022590631E+02 -0.20187274857E+02 -0.71548888937E+01  0.25599834946E+02  0.00000000000E+00 0. -1.
</event>
<event>
 5    1  0.8778268E-005  0.9118800E+02  0.7818608E-02  0.1130116E+00
         25   -1    0    0    0    0  0.00000000000E+00  0.00000000000E+00  0.99999998245E-14  0.12500000000E+03  0.12500000000E+03 0.  0.
        -11    1    3    3    0    0  0.25710331111E+02 -0.28010975334E+02 -0.18270869404E+02  0.42183652451E+02  0.51100000000E-03 0.  1.
         23    2    1    0    0    0  0.19219176486E+02  0.18967260193E+02  0.85614561940E+01  0.96672765115E+02  0.92429385364E+02 0.  0.
         11    1    3    3    0    0 -0.64911546251E+01  0.46978235528E+02  0.26832325598E+02  0.54489112664E+02  0.51100000000E-03 0. -1.
         22    1    1    0    0    0 -0.19219176486E+02 -0.18967260193E+02 -0.85614561940E+01  0.28327234885E+02  0.00000000000E+00 0.  1.
</event>
<event>
 5    1  0.8778268E-005  0.9118800E+02  0.7818608E-02  0.1130116E+00
         25   -1    0    0    0    0  0.00000000000E+00  0.00000000000E+00  0.99999998245E-14  0.12500000000E+03  0.12500000000E+03 0.  0.
        -11    1    3    3    0    0 -0.12571449952E+02  0.30033729800E+02  0.53646559060E+01  0.32997663748E+02  0.51100000000E-03 0.  1.
         23    2    1    0    0    0  0.38825595132E+01 -0.29284864905E+02  0.72401960181E+01  0.94584575964E+02  0.89560839607E+02 0.  0.
         11    1    3    3    0    0  0.16454009465E+02 -0.59318594705E+02  0.18755401122E+01  0.61586912216E+02  0.51100000000E-03 0. -1.
         22    1    1    0    0    0 -0.38825595132E+01  0.29284864905E+02 -0.72401960181E+01  0.30415424036E+02  0.00000000000E+00 0. -1.
</event>
<event>
 5    1  0.8778268E-005  0.9118800E+02  0.7818608E-02  0.1130116E+00
         25   -1    0    0    0    0  0.00000000000E+00  0.00000000000E+00  0.99999998245E-14  0.12500000000E+03  0.12500000000E+03 0.  0.
        -11    1    3    3    0    0  0.13719566792E+02 -0.75438907066E+01 -0.29560300903E+02  0.33450682948E+02  0.51100000000E-03 0. -1.
         23    2    1    0    0    0 -0.14871784761E+00  0.22379272601E+02  0.21323554110E+02  0.94088061869E+02  0.88865153278E+02 0.  0.
         11    1    3    3    0    0 -0.13868284640E+02  0.29923163307E+02  0.50883855013E+02  0.60637378921E+02  0.51100000000E-03 0.  1.
         22    1    1    0    0    0  0.14871784761E+00 -0.22379272601E+02 -0.21323554110E+02  0.30911938131E+02  0.00000000000E+00 0.  1.
</event>
<event>
 5    1  0.8778268E-005  0.9118800E+02  0.7818608E-02  0.1130116E+00
         25   -1    0    0    0    0  0.00000000000E+00  0.00000000000E+00  0.99999998245E-14  0.12500000000E+03  0.12500000000E+03 0.  0.
        -11    1    3    3    0    0 -0.10496045876E+02  0.41340662905E+02  0.14298423248E+02  0.44985134168E+02  0.51100000000E-03 0.  1.
         23    2    1    0    0    0  0.25925379664E+02  0.58077098515E+01  0.11799280457E+02  0.95929777714E+02  0.91419059438E+02 0.  0.
         11    1    3    3    0    0  0.36421425540E+02 -0.35532953054E+02 -0.24991427909E+01  0.50944643546E+02  0.51100000000E-03 0. -1.
         22    1    1    0    0    0 -0.25925379664E+02 -0.58077098515E+01 -0.11799280457E+02  0.29070222286E+02  0.00000000000E+00 0.  1.
</event>
<event>
 5    1  0.8778268E-005  0.9118800E+02  0.7818608E-02  0.1130116E+00
         25   -1    0    0    0    0  0.00000000000E+00  0.00000000000E+00  0.99999998245E-14  0.12500000000E+03  0.12500000000E+03 0.  0.
        -11    1    3    3    0    0 -0.16857271997E+02  0.44907727371E+02 -0.14686067740E+02  0.50165248755E+02  0.51100000000E-03 0. -1.
         23    2    1    0    0    0 -0.16785497251E+02  0.20401258746E+02  0.19454488887E+02  0.92190833381E+02  0.86155141143E+02 0.  0.
         11    1    3    3    0    0  0.71774746270E-01 -0.24506468625E+02  0.34140556627E+02  0.42025584626E+02  0.51100000000E-03 0.  1.
         22    1    1    0    0    0  0.16785497251E+02 -0.20401258746E+02 -0.19454488887E+02  0.32809166619E+02  0.00000000000E+00 0.  1.
</event>
<event>
 5    1  0.8778268E-005  0.9118800E+02  0.7818608E-02  0.1130116E+00
         25   -1    0    0    0    0  0.00000000000E+00  0.00000000000E+00  0.99999998245E-14  0.12500000000E+03  0.12500000000E+03 0.  0.
        -11    1    3    3    0    0 -0.28942006833E+02 -0.64679419825E+01  0.20381279269E+02  0.35984310163E+02  0.51100000000E-03 0.  1.
         23    2    1    0    0    0  0.66055733299E+01  0.22440574917E+02 -0.17783237740E+02  0.95615368878E+02  0.90988143291E+02 0.  0.
         11    1    3    3    0    0  0.35547580163E+02  0.28908516900E+02 -0.38164517009E+02  0.59631058716E+02  0.51100000000E-03 0. -1.
         22    1    1    0    0    0 -0.66055733299E+01 -0.22440574917E+02  0.17783237740E+02  0.29384631122E+02  0.00000000000E+00 0. -1.
</event>
<event>
 5    1  0.8778268E-005  0.9118800E+02  0.7818608E-02  0.1130116E+00
         25   -1    0    0    0    0  0.00000000000E+00  0.00000000000E+00  0.99999998245E-14  0.12500000000E+03  0.12500000000E+03 0.  0.
        -11    1    3    3    0    0  0.29179625093E+02 -0.34118977345E+02 -0.25246780943E+01  0.44965866337E+02  0.51100000000E-03 0.  1.
         23    2    1    0    0    0 -0.12564776394E+02 -0.17503241179E+02  0.20331982455E+02  0.95375237247E+02  0.90657648943E+02 0.  0.
         11    1    3    3    0    0 -0.41744401487E+02  0.16615736166E+02  0.22856660550E+02  0.50409370911E+02  0.51100000000E-03 0. -1.
         22    1    1    0    0    0  0.12564776394E+02  0.17503241179E+02 -0.20331982455E+02  0.29624762753E+02  0.00000000000E+00 0. -1.
</event>
<event>
 5    1  0.8778268E-005  0.9118800E+02  0.7818608E-02  0.1130116E+00
         25   -1    0    0    0    0  0.00000000000E+00  0.00000000000E+00  0.99999998245E-14  0.12500000000E+03  0.12500000000E+03 0.  0.
        -11    1    3    3    0    0  0.53747855858E+01  0.46843063459E+02  0.14465474691E+02  0.49319477619E+02  0.51100000000E-03 0.  1.
         23    2    1    0    0    0 -0.25177160006E+02  0.12739460101E+02  0.87244018362E+01  0.95465301474E+02  0.90781745789E+02 0.  0.
         11    1    3    3    0    0 -0.30551945592E+02 -0.34103603358E+02 -0.57410728546E+01  0.46145823855E+02  0.51100000000E-03 0. -1.
         22    1    1    0    0    0  0.25177160006E+02 -0.12739460101E+02 -0.87244018362E+01  0.29534698526E+02  0.00000000000E+00 0. -1.
</event>
<event>
 5    1  0.8778268E-005  0.9118800E+02  0.7818608E-02  0.1130116E+00
         25   -1    0    0    0    0  0.00000000000E+00  0.00000000000E+00  0.99999998245E-14  0.12500000000E+03  0.12500000000E+03 0.  0.
        -11    1    3    3    0    0 -0.25269463773E+02  0.18413873840E+02  0.52825643264E+02  0.61385382101E+02  0.51100000000E-03 0.  1.
         23    2    1    0    0    0 -0.17989803825E+02  0.30679103358E+01  0.23899891804E+02  0.94929251028E+02  0.90040617262E+02 0.  0.
         11    1    3    3    0    0  0.72796599481E+01 -0.15345963505E+02 -0.28925751459E+02  0.33543868927E+02  0.51100000000E-03 0. -1.
         22    1    1    0    0    0  0.17989803825E+02 -0.30679103358E+01 -0.23899891804E+02  0.30070748972E+02  0.00000000000E+00 0.  1.
</event>
<event>
 5    1  0.8778268E-005  0.9118800E+02  0.7818608E-02  0.1130116E+00
         25   -1    0    0    0    0  0.00000000000E+00  0.00000000000E+00  0.99999998245E-14  0.12500000000E+03  0.12500000000E+03 0.  0.
        -11    1    3    3    0    0  0.29924186094E+01  0.67867769171E+01 -0.42983207117E+02  0.43618470908E+02  0.51100000000E-03 0. -1.
         23    2    1    0    0    0 -0.29079260208E+02  0.97825330091E+01 -0.42008943969E+01  0.94033100897E+02  0.88787810110E+02 0.  0.
         11    1    3    3    0    0 -0.32071678818E+02  0.29957560920E+01  0.38782312720E+02  0.50414629989E+02  0.51100000000E-03 0.  1.
         22    1    1    0    0    0  0.29079260208E+02 -0.97825330091E+01  0.42008943969E+01  0.30966899103E+02  0.00000000000E+00 0.  1.
</event>
<event>
 5    1  0.8778268E-005  0.9118800E+02  0.7818608E-02  0.1130116E+00
         25   -1    0    0    0    0  0.00000000000E+00  0.00000000000E+00  0.99999998245E-14  0.12500000000E+03  0.12500000000E+03 0.  0.
        -11    1    3    3    0    0 -0.12417629466E+02  0.35218180363E+02 -0.36129925569E+02  0.51960458730E+02  0.51100000000E-03 0.  1.
         23    2    1    0    0    0  0.20127397118E+02  0.15353574712E+02 -0.15594139111E+02  0.95267500175E+02  0.90508977697E+02 0.  0.
         11    1    3    3    0    0  0.32545026584E+02 -0.19864605651E+02  0.20535786457E+02  0.43307041445E+02  0.51100000000E-03 0. -1.
         22    1    1    0    0    0 -0.20127397118E+02 -0.15353574712E+02  0.15594139111E+02  0.29732499825E+02  0.00000000000E+00 0.  1.
</event>
<event>
 5    1  0.8778268E-005  0.9118800E+02  0.7818608E-02  0.1130116E+00
         25   -1    0    0    0    0  0.00000000000E+00  0.00000000000E+00  0.99999998245E-14  0.12500000000E+03  0.12500000000E+03 0.  0.
        -11    1    3    3    0    0  0.22719014318E+02  0.96166192166E+01 -0.43139476146E+02  0.49695546874E+02  0.51100000000E-03 0. -1.
         23    2    1    0    0    0 -0.11142408156E+02  0.22716550643E+02 -0.15480458009E+02  0.95337911186E+02  0.90606168644E+02 0.  0.
         11    1    3    3    0    0 -0.33861422474E+02  0.13099931427E+02  0.27659018137E+02  0.45642364311E+02  0.51100000000E-03 0.  1.
         22    1    1    0    0    0  0.11142408156E+02 -0.22716550643E+02  0.15480458009E+02  0.29662088814E+02  0.00000000000E+00 0.  1.
</event>
<event>
 5    1  0.8778268E-005  0.9118800E+02  0.7818608E-02  0.1130116E+00
         25   -1    0    0    0    0  0.00000000000E+00  0.00000000000E+00  0.99999998245E-14  0.12500000000E+03  0.12500000000E+03 0.  0.
        -11    1    3    3    0    0 -0.57141081100E+01  0.44587985275E+02 -0.29771577832E+02  0.53917402657E+02  0.51100000000E-03 0.  1.
         23    2    1    0    0    0  0.88282643535E+01  0.28814000316E+02  0.46794264910E+01  0.94502755895E+02  0.89446570498E+02 0.  0.
         11    1    3    3    0    0  0.14542372464E+02 -0.15773984959E+02  0.34451004323E+02  0.40585353239E+02  0.51100000000E-03 0. -1.
         22    1    1    0    0    0 -0.88282643535E+01 -0.28814000316E+02 -0.46794264910E+01  0.30497244105E+02  0.00000000000E+00 0.  1.
</event>
<event>
 5    1  0.8778268E-005  0.9118800E+02  0.7818608E-02  0.1130116E+00
         25   -1    0    0    0    0  0.00000000000E+00  0.00000000000E+00  0.99999998245E-14  0.12500000000E+03  0.12500000000E+03 0.  0.
        -11    1    3    3    0    0  0.75229490024E+01  0.79326398124E+01 -0.52792392441E+02  0.53912505377E+02  0.51100000000E-03 0.  1.
         23    2    1    0    0    0 -0.18314005122E+02  0.11205879145E+02 -0.21656507738E+02  0.94504445595E+02  0.89448931792E+02 0.  0.
         11    1    3    3    0    0 -0.25836954125E+02  0.32732393326E+01  0.31135884703E+02  0.40591940218E+02  0.51100000000E-03 0. -1.
         22    1    1    0    0    0  0.18314005122E+02 -0.11205879145E+02  0.21656507738E+02  0.30495554405E+02  0.00000000000E+00 0. -1.
</event>
<event>
 5    1  0.8778268E-005  0.9118800E+02  0.7818608E-02  0.1130116E+00
         25   -1    0    0    0    0  0.00000000000E+00  0.00000000000E+00  0.99999998245E-14  0.12500000000E+03  0.12500000000E+03 0.  0.
        -11    1    3    3    0    0  0.30472111593E+02  0.30421463111E+01 -0.53668667420E+01  0.31090311964E+02  0.51100000000E-03 0. -1.
         23    2    1    0    0    0 -0.30445268746E+02  0.50315537851E+01  0.71782953555E+01  0.93317846558E+02  0.87775062743E+02 0.  0.
         11    1    3    3    0    0 -0.60917380339E+02  0.19894074740E+01  0.12545162098E+02  0.62227534595E+02  0.51100000000E-03 0.  1.
         22    1    1    0    0    0  0.30445268746E+02 -0.50315537851E+01 -0.71782953555E+01  0.31682153442E+02  0.00000000000E+00 0.  1.
</event>
<event>
 5    1  0.8778268E-005  0.9118800E+02  0.7818608E-02  0.1130116E+00
         25   -1    0    0    0    0  0.00000000000E+00  0.00000000000E+00  0.99999998245E-14  0.12500000000E+03  0.12500000000E+03 0.  0.
        -11    1    3    3    0    0 -0.19773169341E+02 -0.92905180472E+01  0.35744948818E+02  0.41892640376E+02  0.51100000000E-03 0.  1.
         23    2    1    0    0    0  0.10413128100E+02 -0.28847255057E+02 -0.22957501612E+01  0.94245035686E+02  0.89085683034E+02 0.  0.
         11    1    3    3    0    0  0.30186297441E+02 -0.19556737009E+02 -0.38040698979E+02  0.52352395311E+02  0.51100000000E-03 0. -1.
         22    1    1    0    0    0 -0.10413128100E+02  0.28847255057E+02  0.22957501612E+01  0.30754964314E+02  0.00000000000E+00 0. -1.
</event>
<event>
 5    1  0.8778268E-005  0.9118800E+02  0.7818608E-02  0.1130116E+00
         25   -1    0    0    0    0  0.00000000000E+00  0.00000000000E+00  0.99999998245E-14  0.12500000000E+03  0.12500000000E+03 0.  0.
        -11    1    3    3    0    0  0.12302103216E+02 -0.30779137549E+02  0.23666921295E+02  0.40728616668E+02  0.51100000000E-03 0. -1.
         23    2    1    0    0    0 -0.12590141985E+02 -0.59163660076E+01 -0.22362469965E+02  0.98663805801E+02  0.95083917937E+02 0.  0.
         11    1    3    3    0    0 -0.24892245201E+02  0.24862771542E+02 -0.46029391260E+02  0.57935189133E+02  0.51100000000E-03 0.  1.
         22    1    1    0    0    0  0.12590141985E+02  0.59163660076E+01  0.22362469965E+02  0.26336194199E+02  0.00000000000E+00 0.  1.
</event>
<event>
 5    1  0.8778268E-005  0.9118800E+02  0.7818608E-02  0.1130116E+00
         25   -1    0    0    0    0  0.00000000000E+00  0.00000000000E+00  0.99999998245E-14  0.12500000000E+03  0.12500000000E+03 0.  0.
        -11    1    3    3    0    0 -0.11282336334E+02 -0.18434198463E+02 -0.19114212482E+02  0.28852450593E+02  0.51100000000E-03 0. -1.
         23    2    1    0    0    0  0.34999874155E+02 -0.22846418030E+02  0.76665659312E+01  0.82506162319E+02  0.70721570823E+02 0.  0.
         11    1    3    3    0    0  0.46282210490E+02 -0.44122195672E+01  0.26780778413E+02  0.53653711726E+02  0.51100000000E-03 0.  1.
         22    1    1    0    0    0 -0.34999874155E+02  0.22846418030E+02 -0.76665659312E+01  0.42493837681E+02  0.00000000000E+00 0.  1.
</event>
<event>
 5    1  0.8778268E-005  0.9118800E+02  0.7818608E-02  0.1130116E+00
         25   -1    0    0    0    0  0.00000000000E+00  0.00000000000E+00  0.99999998245E-14  0.12500000000E+03  0.12500000000E+03 0.  0.
        -11    1    3    3    0    0  0.29212389334E+02 -0.14970221069E+02 -0.33273636095E+02  0.46739769668E+02  0.51100000000E-03 0.  1.
         23    2    1    0    0    0 -0.22291679630E+01  0.19385243404E+02 -0.23727954606E+02  0.94279116527E+02  0.89133490516E+02 0.  0.
         11    1    3    3    0    0 -0.31441557297E+02  0.34355464472E+02  0.95456814890E+01  0.47539346858E+02  0.51100000000E-03 0. -1.
         22    1    1    0    0    0  0.22291679630E+01 -0.19385243404E+02  0.23727954606E+02  0.30720883473E+02  0.00000000000E+00 0. -1.
</event>
<event>
 5    1  0.8778268E-005  0.9118800E+02  0.7818608E-02  0.1130116E+00
         25   -1    0    0    0    0  0.00000000000E+00  0.00000000000E+00  0.99999998245E-14  0.12500000000E+03  0.12500000000E+03 0.  0.
        -11    1    3    3    0    0  0.10790889035E+02  0.30741362944E+01 -0.55377697725E+02  0.56502946876E+02  0.51100000000E-03 0.  1.
         23    2    1    0    0    0 -0.53261644805E+01 -0.15055778264E+02 -0.24184595819E+02  0.96018296080E+02  0.91540013218E+02 0.  0.
         11    1    3    3    0    0 -0.16117053515E+02 -0.18129914558E+02  0.31193101906E+02  0.39515349203E+02  0.51100000000E-03 0. -1.
         22    1    1    0    0    0  0.53261644805E+01  0.15055778264E+02  0.24184595819E+02  0.28981703920E+02  0.00000000000E+00 0.  1.
</event>
<event>
 5    1  0.8778268E-005  0.9118800E+02  0.7818608E-02  0.1130116E+00
         25   -1    0    0    0    0  0.00000000000E+00  0.00000000000E+00  0.99999998245E-14  0.12500000000E+03  0.12500000000E+03 0.  0.
        -11    1    3    3    0    0 -0.31068183725E+02  0.19695752172E+02  0.29774398917E+02  0.47325146854E+02  0.51100000000E-03 0.  1.
         23    2    1    0    0    0  0.61193062996E+01 -0.10804299202E+02  0.26741861498E+02  0.95516005236E+02  0.90851534434E+02 0.  0.
         11    1    3    3    0    0  0.37187490025E+02 -0.30500051375E+02 -0.30325374186E+01  0.48190858382E+02  0.51100000000E-03 0. -1.
         22    1    1    0    0    0 -0.61193062996E+01  0.10804299202E+02 -0.26741861498E+02  0.29483994764E+02  0.00000000000E+00 0. -1.
</event>
<event>
 5    1  0.8778268E-005  0.9118800E+02  0.7818608E-02  0.1130116E+00
         25   -1    0    0    0    0  0.00000000000E+00  0.00000000000E+00  0.99999998245E-14  0.12500000000E+03  0.12500000000E+03 0.  0.
        -11    1    3    3    0    0 -0.34698609848E+02  0.21710540293E+02  0.10288458079E+02  0.42204187649E+02  0.51100000000E-03 0.  1.
         23    2    1    0    0    0  0.13988543627E+02  0.29336528428E+02  0.24420310922E+00  0.92498140235E+02  0.86599855997E+02 0.  0.
         11    1    3    3    0    0  0.48687153475E+02  0.76259881351E+01 -0.10044254970E+02  0.50293952586E+02  0.51100000000E-03 0. -1.
         22    1    1    0    0    0 -0.13988543627E+02 -0.29336528428E+02 -0.24420310922E+00  0.32501859765E+02  0.00000000000E+00 0. -1.
</event>
<event>
 5    1  0.8778268E-005  0.9118800E+02  0.7818608E-02  0.1130116E+00
         25   -1    0    0    0    0  0.00000000000E+00  0.00000000000E+00  0.99999998245E-14  0.12500000000E+03  0.12500000000E+03 0.  0.
        -11    1    3    3    0    0 -0.46918466132E+02 -0.10352178519E+02 -0.85532510687E+00  0.48054569456E+02  0.51100000000E-03 0.  1.
         23    2    1    0    0    0 -0.78234431758E+01 -0.44834457309E+01  0.27077744993E+02  0.96460346487E+02  0.92141666046E+02 0.  0.
         11    1    3    3    0    0  0.39095022956E+02  0.58687327879E+01  0.27933070100E+02  0.48405777031E+02  0.51100000000E-03 0. -1.
         22    1    1    0    0    0  0.78234431758E+01  0.44834457309E+01 -0.27077744993E+02  0.28539653513E+02  0.00000000000E+00 0. -1.
</event>
<event>
 5    1  0.8778268E-005  0.9118800E+02  0.7818608E-02  0.1130116E+00
         25   -1    0    0    0    0  0.00000000000E+00  0.00000000000E+00  0.99999998245E-14  0.12500000000E+03  0.12500000000E+03 0.  0.
        -11    1    3    3    0    0 -0.43212182964E+02  0.41851455231E+02 -0.15377083130E+02  0.62090995702E+02  0.51100000000E-03 0. -1.
         23    2    1    0    0    0 -0.16675450066E+02  0.22555571186E+02 -0.92119618593E+01  0.95475693611E+02  0.90796053895E+02 0.  0.
         11    1    3    3    0    0  0.26536732898E+02 -0.19295884044E+02  0.61651212709E+01  0.33384697909E+02  0.51100000000E-03 0.  1.
         22    1    1    0    0    0  0.16675450066E+02 -0.22555571186E+02  0.92119618593E+01  0.29524306389E+02  0.00000000000E+00 0. -1.
</event>
<event>
 5    1  0.8778268E-005  0.9118800E+02  0.7818608E-02  0.1130116E+00
         25   -1    0    0    0    0  0.00000000000E+00  0.00000000000E+00  0.99999998245E-14  0.12500000000E+03  0.12500000000E+03 0.  0.
        -11    1    3    3    0    0 -0.38788172373E+02  0.31009129336E+02  0.15595899759E+02  0.52051133588E+02  0.51100000000E-03 0.  1.
         23    2    1    0    0    0  0.23780373267E+01  0.26941044984E+02 -0.37096134169E+01  0.97700985401E+02  0.93809628239E+02 0.  0.
         11    1    3    3    0    0  0.41166209700E+02 -0.40680843513E+01 -0.19305513176E+02  0.45649851813E+02  0.51100000000E-03 0. -1.
         22    1    1    0    0    0 -0.23780373267E+01 -0.26941044984E+02  0.37096134169E+01  0.27299014599E+02  0.00000000000E+00 0.  1.
</event>
<event>
 5    1  0.8778268E-005  0.9118800E+02  0.7818608E-02  0.1130116E+00
         25   -1    0    0    0    0  0.00000000000E+00  0.00000000000E+00  0.99999998245E-14  0.12500000000E+03  0.12500000000E+03 0.  0.
        -11    1    3    3    0    0 -0.11743702057E+02  0.39762912837E+02  0.11989383463E+02  0.43159577053E+02  0.51100000000E-03 0. -1.
         23    2    1    0    0    0  0.12368735793E+02  0.74379993726E+01 -0.23857746394E+02  0.97116285707E+02  0.93027261740E+02 0.  0.
         11    1    3    3    0    0  0.24112437850E+02 -0.32324913465E+02 -0.35847129857E+02  0.53956708654E+02  0.51100000000E-03 0.  1.
         22    1    1    0    0    0 -0.12368735793E+02 -0.74379993726E+01  0.23857746394E+02  0.27883714293E+02  0.00000000000E+00 0.  1.
</event>
<event>
 5    1  0.8778268E-005  0.9118800E+02  0.7818608E-02  0.1130116E+00
         25   -1    0    0    0    0  0.00000000000E+00  0.00000000000E+00  0.99999998245E-14  0.12500000000E+03  0.12500000000E+03 0.  0.
        -11    1    3    3    0    0 -0.12681345822E+02 -0.47895803921E+02 -0.12259111242E+02  0.51040281875E+02  0.51100000000E-03 0. -1.
         23    2    1    0    0    0 -0.44009866011E+01 -0.19142186765E+02  0.21316376211E+02  0.96014143242E+02  0.91534342247E+02 0.  0.
         11    1    3    3    0    0  0.82803592213E+01  0.28753617156E+02  0.33575487452E+02  0.44973861368E+02  0.51100000000E-03 0.  1.
         22    1    1    0    0    0  0.44009866011E+01  0.19142186765E+02 -0.21316376211E+02  0.28985856758E+02  0.00000000000E+00 0. -1.
</event>
<event>
 5    1  0.8778268E-005  0.9118800E+02  0.7818608E-02  0.1130116E+00
         25   -1    0    0    0    0  0.00000000000E+00  0.00000000000E+00  0.99999998245E-14  0.12500000000E+03  0.12500000000E+03 0.  0.
        -11    1    3    3    0    0 -0.36214907442E+02  0.31171318867E+02  0.83335814193E+01  0.48503806247E+02  0.51100000000E-03 0.  1.
         23    2    1    0    0    0 -0.24421591544E+02 -0.14462636995E+02  0.74942344491E+01  0.95644497068E+02  0.91028150959E+02 0.  0.
         11    1    3    3    0    0  0.11793315898E+02 -0.45633955862E+02 -0.83934697015E+00  0.47140690821E+02  0.51100000000E-03 0. -1.
         22    1    1    0    0    0  0.24421591544E+02  0.14462636995E+02 -0.74942344491E+01  0.29355502932E+02  0.00000000000E+00 0.  1.
</event>
<event>
 5    1  0.8778268E-005  0.9118800E+02  0.7818608E-02  0.1130116E+00
         25   -1    0    0    0    0  0.00000000000E+00  0.00000000000E+00  0.99999998245E-14  0.12500000000E+03  0.12500000000E+03 0.  0.
        -11    1    3    3    0    0  0.90554375577E+01 -0.20996132292E+02 -0.25288225400E+02  0.34093003163E+02  0.51100000000E-03 0.  1.
         23    2    1    0    0    0 -0.31378765754E+02 -0.18362024481E+01  0.10995617882E+02  0.91699816933E+02  0.85439769623E+02 0.  0.
         11    1    3    3    0    0 -0.40434203312E+02  0.19159929843E+02  0.36283843282E+02  0.57606813769E+02  0.51100000000E-03 0. -1.
         22    1    1    0    0    0  0.31378765754E+02  0.18362024481E+01 -0.10995617882E+02  0.33300183067E+02  0.00000000000E+00 0. -1.
</event>
<event>
 5    1  0.8778268E-005  0.9118800E+02  0.7818608E-02  0.1130116E+00
         25   -1    0    0    0    0  0.00000000000E+00  0.00000000000E+00  0.99999998245E-14  0.12500000000E+03  0.12500000000E+03 0.  0.
        -11    1    3    3    0    0 -0.41958989264E+01  0.19898888501E+01 -0.52529403803E+02  0.52734272438E+02  0.51100000000E-03 0.  1.
         23    2    1    0    0    0  0.15317360102E+02  0.17703721944E+02 -0.17638244740E+02  0.95688722841E+02  0.91088861615E+02 0.  0.
         11    1    3    3    0    0  0.19513259029E+02  0.15713833094E+02  0.34891159063E+02  0.42954450403E+02  0.51100000000E-03 0. -1.
         22    1    1    0    0    0 -0.15317360102E+02 -0.17703721944E+02  0.17638244740E+02  0.29311277159E+02  0.00000000000E+00 0.  1.
</event>
<event>
 5    1  0.8778268E-005  0.9118800E+02  0.7818608E-02  0.1130116E+00
         25   -1    0    0    0    0  0.00000000000E+00  0.00000000000E+00  0.99999998245E-14  0.12500000000E+03  0.12500000000E+03 0.  0.
        -11    1    3    3    0    0  0.48654918193E+02  0.13306268271E+02 -0.32133208408E+02  0.59807197916E+02  0.51100000000E-03 0.  1.
         23    2    1    0    0    0  0.28105097772E+02 -0.25101792823E+01 -0.69830209878E+01  0.95931802551E+02  0.91421828016E+02 0.  0.
         11    1    3    3    0    0 -0.20549820421E+02 -0.15816447553E+02  0.25150187420E+02  0.36124604635E+02  0.51100000000E-03 0. -1.
         22    1    1    0    0    0 -0.28105097772E+02  0.25101792823E+01  0.69830209878E+01  0.29068197449E+02  0.00000000000E+00 0.  1.
</event>
<event>
 5    1  0.8778268E-005  0.9118800E+02  0.7818608E-02  0.1130116E+00
         25   -1    0    0    0    0  0.00000000000E+00  0.00000000000E+00  0.99999998245E-14  0.12500000000E+03  0.12500000000E+03 0.  0.
        -11    1    3    3    0    0  0.19524258021E+02  0.19212171685E+02 -0.54862949466E+02  0.61320856293E+02  0.51100000000E-03 0.  1.
         23    2    1    0    0    0 -0.30761793184E+00  0.95186010312E+01 -0.23223156536E+02  0.99899932393E+02  0.96695310632E+02 0.  0.
         11    1    3    3    0    0 -0.19831875953E+02 -0.96935706540E+01  0.31639792929E+02  0.38579076100E+02  0.51100000000E-03 0. -1.
         22    1    1    0    0    0  0.30761793184E+00 -0.95186010312E+01  0.23223156536E+02  0.25100067607E+02  0.00000000000E+00 0.  1.
</event>
<event>
 5    1  0.8778268E-005  0.9118800E+02  0.7818608E-02  0.1130116E+00
         25   -1    0    0    0    0  0.00000000000E+00  0.00000000000E+00  0.99999998245E-14  0.12500000000E+03  0.12500000000E+03 0.  0.
        -11    1    3    3    0    0  0.40200127609E+02 -0.14984451388E+02 -0.23197283734E+02  0.48771897811E+02  0.51100000000E-03 0. -1.
         23    2    1    0    0    0 -0.66857279651E+01 -0.15954509110E+02 -0.23685112111E+02  0.95670324668E+02  0.91063610553E+02 0.  0.
         11    1    3    3    0    0 -0.46885855574E+02 -0.97005772185E+00 -0.48782837747E+00  0.46898426857E+02  0.51100000000E-03 0.  1.
         22    1    1    0    0    0  0.66857279651E+01  0.15954509110E+02  0.23685112111E+02  0.29329675332E+02  0.00000000000E+00 0. -1.
</event>
<event>
 5    1  0.8778268E-005  0.9118800E+02  0.7818608E-02  0.1130116E+00
         25   -1    0    0    0    0  0.00000000000E+00  0.00000000000E+00  0.99999998245E-14  0.12500000000E+03  0.12500000000E+03 0.  0.
        -11    1    3    3    0    0  0.48136126429E+01  0.30095416254E+02 -0.13658706483E+02  0.33398580947E+02  0.51100000000E-03 0.  1.
         23    2    1    0    0    0 -0.21549646930E+02 -0.22678117672E+02 -0.11932138506E+01  0.93693322386E+02  0.88308157021E+02 0.  0.
         11    1    3    3    0    0 -0.26363259573E+02 -0.52773533926E+02  0.12465492632E+02  0.60294741439E+02  0.51100000000E-03 0. -1.
         22    1    1    0    0    0  0.21549646930E+02  0.22678117672E+02  0.11932138506E+01  0.31306677614E+02  0.00000000000E+00 0. -1.
</event>
<event>
 5    1  0.8778268E-005  0.9118800E+02  0.7818608E-02  0.1130116E+00
         25   -1    0    0    0    0  0.00000000000E+00  0.00000000000E+00  0.99999998245E-14  0.12500000000E+03  0.12500000000E+03 0.  0.
        -11    1    3    3    0    0 -0.15304732827E+02  0.42253757318E+02  0.27221431229E+02  0.52541613725E+02  0.51100000000E-03 0. -1.
         23    2    1    0    0    0  0.17478278981E+02  0.19206293204E+02  0.17207379545E+02  0.93847699193E+02  0.88526407349E+02 0.  0.
         11    1    3    3    0    0  0.32783011808E+02 -0.23047464113E+02 -0.10014051684E+02  0.41306085468E+02  0.51100000000E-03 0.  1.
         22    1    1    0    0    0 -0.17478278981E+02 -0.19206293204E+02 -0.17207379545E+02  0.31152300807E+02  0.00000000000E+00 0. -1.
</event>
<event>
 5    1  0.8778268E-005  0.9118800E+02  0.7818608E-02  0.1130116E+00
         25   -1    0    0    0    0  0.00000000000E+00  0.00000000000E+00  0.99999998245E-14  0.12500000000E+03  0.12500000000E+03 0.  0.
        -11    1    3    3    0    0  0.31192442965E+02 -0.13483072486E+02  0.13642685739E+02  0.36618091378E+02  0.51100000000E-03 0. -1.
         23    2    1    0    0    0 -0.17128498982E+02 -0.19039524348E+02 -0.17143126638E+02  0.94181567923E+02  0.88996584095E+02 0.  0.
         11    1    3    3    0    0 -0.48320941947E+02 -0.55564518625E+01 -0.30785812377E+02  0.57563476544E+02  0.51100000000E-03 0.  1.
         22    1    1    0    0    0  0.17128498982E+02  0.19039524348E+02  0.17143126638E+02  0.30818432077E+02  0.00000000000E+00 0.  1.
</event>
<event>
 5    1  0.8778268E-005  0.9118800E+02  0.7818608E-02  0.1130116E+00
         25   -1    0    0    0    0  0.00000000000E+00  0.00000000000E+00  0.99999998245E-14  0.12500000000E+03  0.12500000000E+03 0.  0.
        -11    1    3    3    0    0  0.32141206758E+02 -0.15539869263E+02 -0.11899801104E+02  0.37631768164E+02  0.51100000000E-03 0. -1.
         23    2    1    0    0    0 -0.18442227334E+02  0.12169697797E+02 -0.19148865849E+02  0.95761389280E+02  0.91188526252E+02 0.  0.
         11    1    3    3    0    0 -0.50583434092E+02  0.27709567060E+02 -0.72490647451E+01  0.58129621116E+02  0.51100000000E-03 0.  1.
         22    1    1    0    0    0  0.18442227334E+02 -0.12169697797E+02  0.19148865849E+02  0.29238610720E+02  0.00000000000E+00 0.  1.
</event>
<event>
 5    1  0.8778268E-005  0.9118800E+02  0.7818608E-02  0.1130116E+00
         25   -1    0    0    0    0  0.00000000000E+00  0.00000000000E+00  0.99999998245E-14  0.12500000000E+03  0.12500000000E+03 0.  0.
        -11    1    3    3    0    0  0.41326220967E+02  0.25784717223E+02  0.33033296883E+02  0.58854964828E+02  0.51100000000E-03 0. -1.
         23    2    1    0    0    0  0.26076464345E+02  0.13828312517E+02  0.20325322913E+01  0.95413932209E+02  0.90710986393E+02 0.  0.
         11    1    3    3    0    0 -0.15249756622E+02 -0.11956404706E+02 -0.31000764591E+02  0.36558967382E+02  0.51100000000E-03 0.  1.
         22    1    1    0    0    0 -0.26076464345E+02 -0.13828312517E+02 -0.20325322913E+01  0.29586067791E+02  0.00000000000E+00 0. -1.
</event>
<event>
 5    1  0.8778268E-005  0.9118800E+02  0.7818608E-02  0.1130116E+00
         25   -1    0    0    0    0  0.00000000000E+00  0.00000000000E+00  0.99999998245E-14  0.12500000000E+03  0.12500000000E+03 0.  0.
        -11    1    3    3    0    0  0.70654105668E+00 -0.36896690613E+01 -0.35347914811E+02  0.35546982148E+02  0.51100000000E-03 0. -1.
         23    2    1    0    0    0 -0.21401334934E+02 -0.28247845575E+01  0.20260116143E+02  0.95394783384E+02  0.90684595418E+02 0.  0.
         11    1    3    3    0    0 -0.22107875991E+02  0.86488450384E+00  0.55608030954E+02  0.59847801237E+02  0.51100000000E-03 0.  1.
         22    1    1    0    0    0  0.21401334934E+02  0.28247845575E+01 -0.20260116143E+02  0.29605216616E+02  0.00000000000E+00 0.  1.
</event>
<event>
 5    1  0.8778268E-005  0.9118800E+02  0.7818608E-02  0.1130116E+00
         25   -1    0    0    0    0  0.00000000000E+00  0.00000000000E+00  0.99999998245E-14  0.12500000000E+03  0.12500000000E+03 0.  0.
        -11    1    3    3    0    0  0.99806148287E+01 -0.83894241183E+01  0.29873040581E+02  0.32594380853E+02  0.51100000000E-03 0.  1.
         23    2    1    0    0    0 -0.12939961576E+02  0.13186121028E+02 -0.23832684318E+02  0.94845178907E+02  0.89923827358E+02 0.  0.
         11    1    3    3    0    0 -0.22920576405E+02  0.21575545146E+02 -0.53705724899E+02  0.62250798053E+02  0.51100000000E-03 0. -1.
         22    1    1    0    0    0  0.12939961576E+02 -0.13186121028E+02  0.23832684318E+02  0.30154821093E+02  0.00000000000E+00 0. -1.
</event>
<event>
 5    1  0.8778268E-005  0.9118800E+02  0.7818608E-02  0.1130116E+00
         25   -1    0    0    0    0  0.00000000000E+00  0.00000000000E+00  0.99999998245E-14  0.12500000000E+03  0.12500000000E+03 0.  0.
        -11    1    3    3    0    0  0.12414859180E+02 -0.45870289915E+02  0.93792601899E+01  0.48437410618E+02  0.51100000000E-03 0.  1.
         23    2    1    0    0    0 -0.21239927708E+02 -0.17351493052E+02 -0.88679812069E+01  0.96175532427E+02  0.91754471863E+02 0.  0.
         11    1    3    3    0    0 -0.33654786888E+02  0.28518796864E+02 -0.18247241397E+02  0.47738121810E+02  0.51100000000E-03 0. -1.
         22    1    1    0    0    0  0.21239927708E+02  0.17351493052E+02  0.88679812069E+01  0.28824467573E+02  0.00000000000E+00 0. -1.
</event>
<event>
 5    1  0.8778268E-005  0.9118800E+02  0.7818608E-02  0.1130116E+00
         25   -1    0    0    0    0  0.00000000000E+00  0.00000000000E+00  0.99999998245E-14  0.12500000000E+03  0.12500000000E+03 0.  0.
        -11    1    3    3    0    0  0.36288048093E+02 -0.10178231614E+02  0.30596316628E+02  0.48544344930E+02  0.51100000000E-03 0. -1.
         23    2    1    0    0    0  0.55624488886E+01 -0.29354510908E+02  0.13572988717E+01  0.95092301852E+02  0.90266690772E+02 0.  0.
         11    1    3    3    0    0 -0.30725599204E+02 -0.19176279294E+02 -0.29239017756E+02  0.46547956922E+02  0.51100000000E-03 0.  1.
         22    1    1    0    0    0 -0.55624488886E+01  0.29354510908E+02 -0.13572988717E+01  0.29907698148E+02  0.00000000000E+00 0. -1.
</event>
<event>
 5    1  0.8778268E-005  0.9118800E+02  0.7818608E-02  0.1130116E+00
         25   -1    0    0    0    0  0.00000000000E+00  0.00000000000E+00  0.99999998245E-14  0.12500000000E+03  0.12500000000E+03 0.  0.
        -11    1    3    3    0    0  0.27834021057E+02  0.45436920352E+02  0.25363889290E+02  0.59013331879E+02  0.51100000000E-03 0.  1.
         23    2    1    0    0    0  0.44540725017E+01  0.28437778189E+02  0.20632220540E+01  0.96141675804E+02  0.91708336322E+02 0.  0.
         11    1    3    3    0    0 -0.23379948555E+02 -0.16999142162E+02 -0.23300667236E+02  0.37128343925E+02  0.51100000000E-03 0. -1.
         22    1    1    0    0    0 -0.44540725017E+01 -0.28437778189E+02 -0.20632220540E+01  0.28858324196E+02  0.00000000000E+00 0.  1.
</event>
<event>
 5    1  0.8778268E-005  0.9118800E+02  0.7818608E-02  0.1130116E+00
         25   -1    0    0    0    0  0.00000000000E+00  0.00000000000E+00  0.99999998245E-14  0.12500000000E+03  0.12500000000E+03 0.  0.
        -11    1    3    3    0    0  0.15035298878E+02  0.10019763587E+02  0.53586953303E+02  0.56551016253E+02  0.51100000000E-03 0.  1.
         23    2    1    0    0    0  0.23710976630E+02 -0.13588787824E+01  0.17125414745E+02  0.95719685888E+02  0.91131341875E+02 0.  0.
         11    1    3    3    0    0  0.86756777521E+01 -0.11378642370E+02 -0.36461538558E+02  0.39168669634E+02  0.51100000000E-03 0. -1.
         22    1    1    0    0    0 -0.23710976630E+02  0.13588787824E+01 -0.17125414745E+02  0.29280314112E+02  0.00000000000E+00 0.  1.
</event>
<event>
 5    1  0.8778268E-005  0.9118800E+02  0.7818608E-02  0.1130116E+00
         25   -1    0    0    0    0  0.00000000000E+00  0.00000000000E+00  0.99999998245E-14  0.12500000000E+03  0.12500000000E+03 0.  0.
        -11    1    3    3    0    0 -0.51637777630E+02  0.79960307174E+01  0.64939731313E+01  0.52655182776E+02  0.51100000000E-03 0. -1.
         23    2    1    0    0    0 -0.16362654428E+02  0.14964540212E+02 -0.18232088657E+02  0.96293154467E+02  0.91914572385E+02 0.  0.
         11    1    3    3    0    0  0.35275123202E+02  0.69685094948E+01 -0.24726061788E+02  0.43637971691E+02  0.51100000000E-03 0.  1.
         22    1    1    0    0    0  0.16362654428E+02 -0.14964540212E+02  0.18232088657E+02  0.28706845533E+02  0.00000000000E+00 0. -1.
</event>
<event>
 5    1  0.8778268E-005  0.9118800E+02  0.7818608E-02  0.1130116E+00
         25   -1    0    0    0    0  0.00000000000E+00  0.00000000000E+00  0.99999998245E-14  0.12500000000E+03  0.12500000000E+03 0.  0.
        -11    1    3    3    0    0  0.64874396566E+01  0.56417028767E+02 -0.88104591907E+01  0.57468184238E+02  0.51100000000E-03 0. -1.
         23    2    1    0    0    0 -0.11475173197E+02  0.22499507073E+02 -0.13877717948E+02  0.96181629576E+02  0.91762777824E+02 0.  0.
         11    1    3    3    0    0 -0.17962612854E+02 -0.33917521694E+02 -0.50672587569E+01  0.38713445338E+02  0.51100000000E-03 0.  1.
         22    1    1    0    0    0  0.11475173197E+02 -0.22499507073E+02  0.13877717948E+02  0.28818370424E+02  0.00000000000E+00 0. -1.
</event>
<event>
 5    1  0.8778268E-005  0.9118800E+02  0.7818608E-02  0.1130116E+00
         25   -1    0    0    0    0  0.00000000000E+00  0.00000000000E+00  0.99999998245E-14  0.12500000000E+03  0.12500000000E+03 0.  0.
        -11    1    3    3    0    0 -0.41178029995E+02  0.32352263730E+01 -0.35805374657E+02  0.54663714643E+02  0.51100000000E-03 0.  1.
         23    2    1    0    0    0 -0.29930182235E+02  0.16036850538E+01  0.27895694202E+01  0.94897353739E+02  0.89996324563E+02 0.  0.
         11    1    3    3    0    0  0.11247847760E+02 -0.16315413191E+01  0.38594944078E+02  0.40233639096E+02  0.51100000000E-03 0. -1.
         22    1    1    0    0    0  0.29930182235E+02 -0.16036850538E+01 -0.27895694202E+01  0.30102646261E+02  0.00000000000E+00 0. -1.
</event>
<event>
 5    1  0.8778268E-005  0.9118800E+02  0.7818608E-02  0.1130116E+00
         25   -1    0    0    0    0  0.00000000000E+00  0.00000000000E+00  0.99999998245E-14  0.12500000000E+03  0.12500000000E+03 0.  0.
        -11    1    3    3    0    0  0.13882640830E+00  0.40304400735E+02 -0.27743640941E+02  0.48930293319E+02  0.51100000000E-03 0.  1.
         23    2    1    0    0    0 -0.64352044268E+01  0.22120902409E+02  0.16130692176E+02  0.96876248304E+02  0.92704164286E+02 0.  0.
         11    1    3    3    0    0 -0.65740308351E+01 -0.18183498326E+02  0.43874333116E+02  0.47945954985E+02  0.51100000000E-03 0. -1.
         22    1    1    0    0    0  0.64352044268E+01 -0.22120902409E+02 -0.16130692176E+02  0.28123751696E+02  0.00000000000E+00 0.  1.
</event>
<event>
 5    1  0.8778268E-005  0.9118800E+02  0.7818608E-02  0.1130116E+00
         25   -1    0    0    0    0  0.00000000000E+00  0.00000000000E+00  0.99999998245E-14  0.12500000000E+03  0.12500000000E+03 0.  0.
        -11    1    3    3    0    0  0.81830570591E+00  0.91201540201E+01  0.12792525990E+02  0.15731991452E+02  0.51100000000E-03 0. -1.
         23    2    1    0    0    0 -0.43048135100E+02 -0.17305655066E+02 -0.17709373744E+02  0.75338651335E+02  0.56653886308E+02 0.  0.
         11    1    3    3    0    0 -0.43866440806E+02 -0.26425809086E+02 -0.30501899734E+02  0.59606659883E+02  0.51100000000E-03 0.  1.
         22    1    1    0    0    0  0.43048135100E+02  0.17305655066E+02  0.17709373744E+02  0.49661348665E+02  0.00000000000E+00 0.  1.
</event>
<event>
 5    1  0.8778268E-005  0.9118800E+02  0.7818608E-02  0.1130116E+00
         25   -1    0    0    0    0  0.00000000000E+00  0.00000000000E+00  0.99999998245E-14  0.12500000000E+03  0.12500000000E+03 0.  0.
        -11    1    3    3    0    0  0.52284458512E+02 -0.42349358469E+01  0.33017987136E+02  0.61982148707E+02  0.51100000000E-03 0.  1.
         23    2    1    0    0    0  0.27683999919E+02  0.76687604907E+00  0.11626537862E+02  0.94963882857E+02  0.90088682497E+02 0.  0.
         11    1    3    3    0    0 -0.24600458593E+02  0.50018118959E+01 -0.21391449273E+02  0.32981734150E+02  0.51100000000E-03 0. -1.
         22    1    1    0    0    0 -0.27683999919E+02 -0.76687604907E+00 -0.11626537862E+02  0.30036117143E+02  0.00000000000E+00 0.  1.
</event>
<event>
 5    1  0.8778268E-005  0.9118800E+02  0.7818608E-02  0.1130116E+00
         25   -1    0    0    0    0  0.00000000000E+00  0.00000000000E+00  0.99999998245E-14  0.12500000000E+03  0.12500000000E+03 0.  0.
        -11    1    3    3    0    0  0.28064459137E+02 -0.34740797947E+02 -0.31844604756E+02  0.54850850139E+02  0.51100000000E-03 0. -1.
         23    2    1    0    0    0  0.26834032397E+02 -0.87222427992E+00 -0.59542483655E+01  0.97499470123E+02  0.93540726589E+02 0.  0.
         11    1    3    3    0    0 -0.12304267397E+01  0.33868573668E+02  0.25890356391E+02  0.42648619984E+02  0.51100000000E-03 0.  1.
         22    1    1    0    0    0 -0.26834032397E+02  0.87222427992E+00  0.59542483655E+01  0.27500529877E+02  0.00000000000E+00 0. -1.
</event>
<event>
 5    1  0.8778268E-005  0.9118800E+02  0.7818608E-02  0.1130116E+00
         25   -1    0    0    0    0  0.00000000000E+00  0.00000000000E+00  0.99999998245E-14  0.12500000000E+03  0.12500000000E+03 0.  0.
        -11    1    3    3    0    0 -0.21496811210E+02 -0.57450606517E+02  0.29572343259E+01  0.61411972094E+02  0.51100000000E-03 0. -1.
         23    2    1    0    0    0 -0.25022687725E+01 -0.28274023216E+02  0.45005002626E+01  0.96260893535E+02  0.91870688382E+02 0.  0.
         11    1    3    3    0    0  0.18994542438E+02  0.29176583301E+02  0.15432659367E+01  0.34848921441E+02  0.51100000000E-03 0.  1.
         22    1    1    0    0    0  0.25022687725E+01  0.28274023216E+02 -0.45005002626E+01  0.28739106465E+02  0.00000000000E+00 0. -1.
</event>
<event>
 5    1  0.8778268E-005  0.9118800E+02  0.7818608E-02  0.1130116E+00
         25   -1    0    0    0    0  0.00000000000E+00  0.00000000000E+00  0.99999998245E-14  0.12500000000E+03  0.12500000000E+03 0.  0.
        -11    1    3    3    0    0 -0.20574315586E+02 -0.43867057729E+02 -0.17878591451E+02  0.51645573365E+02  0.51100000000E-03 0. -1.
         23    2    1    0    0    0  0.82012044104E+01 -0.40587117592E+02 -0.51770688128E+01  0.83270203575E+02  0.72059356740E+02 0.  0.
         11    1    3    3    0    0  0.28775519996E+02  0.32799401373E+01  0.12701522638E+02  0.31624630210E+02  0.51100000000E-03 0.  1.
         22    1    1    0    0    0 -0.82012044104E+01  0.40587117592E+02  0.51770688128E+01  0.41729796425E+02  0.00000000000E+00 0. -1.
</event>
<event>
 5    1  0.8778268E-005  0.9118800E+02  0.7818608E-02  0.1130116E+00
         25   -1    0    0    0    0  0.00000000000E+00  0.00000000000E+00  0.99999998245E-14  0.12500000000E+03  0.12500000000E+03 0.  0.
        -11    1    3    3    0    0  0.23757160226E+02  0.20749520790E+02 -0.79540627600E+01  0.32530176601E+02  0.51100000000E-03 0.  1.
         23    2    1    0    0    0 -0.22471061032E+02 -0.13864370976E+02  0.14950270397E+02  0.94657291627E+02  0.89662271368E+02 0.  0.
         11    1    3    3    0    0 -0.46228221258E+02 -0.34613891766E+02  0.22904333157E+02  0.62127115026E+02  0.51100000000E-03 0. -1.
         22    1    1    0    0    0  0.22471061032E+02  0.13864370976E+02 -0.14950270397E+02  0.30342708373E+02  0.00000000000E+00 0. -1.
</event>
<event>
 5    1  0.8778268E-005  0.9118800E+02  0.7818608E-02  0.1130116E+00
         25   -1    0    0    0    0  0.00000000000E+00  0.00000000000E+00  0.99999998245E-14  0.12500000000E+03  0.12500000000E+03 0.  0.
        -11    1    3    3    0    0  0.65387860378E+01  0.54099554739E+02 -0.20314430421E+01  0.54531131539E+02  0.51100000000E-03 0.  1.
         23    2    1    0    0    0 -0.92231784883E+01  0.21504948924E+02  0.17603622599E+02  0.95718309846E+02  0.91129454412E+02 0.  0.
         11    1    3    3    0    0 -0.15761964526E+02 -0.32594605815E+02  0.19635065641E+02  0.41187178307E+02  0.51100000000E-03 0. -1.
         22    1    1    0    0    0  0.92231784883E+01 -0.21504948924E+02 -0.17603622599E+02  0.29281690154E+02  0.00000000000E+00 0.  1.
</event>
<event>
 5    1  0.8778268E-005  0.9118800E+02  0.7818608E-02  0.1130116E+00
         25   -1    0    0    0    0  0.00000000000E+00  0.00000000000E+00  0.99999998245E-14  0.12500000000E+03  0.12500000000E+03 0.  0.
        -11    1    3    3    0    0 -0.71031119979E+01 -0.25429411368E+02 -0.35243884444E+02  0.44036809075E+02  0.51100000000E-03 0.  1.
         23    2    1    0    0    0 -0.29290124791E+02  0.95537399311E+01 -0.97204573976E+01  0.92694077185E+02  0.86882215074E+02 0.  0.
         11    1    3    3    0    0 -0.22187012793E+02  0.34983151299E+02  0.25523427046E+02  0.48657268110E+02  0.51100000000E-03 0. -1.
         22    1    1    0    0    0  0.29290124791E+02 -0.95537399311E+01  0.97204573976E+01  0.32305922815E+02  0.00000000000E+00 0. -1.
</event>
<event>
 5    1  0.8778268E-005  0.9118800E+02  0.7818608E-02  0.1130116E+00
         25   -1    0    0    0    0  0.00000000000E+00  0.00000000000E+00  0.99999998245E-14  0.12500000000E+03  0.12500000000E+03 0.  0.
        -11    1    3    3    0    0  0.44255277375E+01 -0.37695493963E+02 -0.11589979185E+02  0.39684545841E+02  0.51100000000E-03 0.  1.
         23    2    1    0    0    0 -0.27094309844E+02  0.46923051810E+01  0.85307596233E+01  0.96209494385E+02  0.91800727645E+02 0.  0.
         11    1    3    3    0    0 -0.31519837582E+02  0.42387799144E+02  0.20120738808E+02  0.56524948544E+02  0.51100000000E-03 0. -1.
         22    1    1    0    0    0  0.27094309844E+02 -0.46923051810E+01 -0.85307596233E+01  0.28790505615E+02  0.00000000000E+00 0. -1.
</event>
<event>
 5    1  0.8778268E-005  0.9118800E+02  0.7818608E-02  0.1130116E+00
         25   -1    0    0    0    0  0.00000000000E+00  0.00000000000E+00  0.99999998245E-14  0.12500000000E+03  0.12500000000E+03 0.  0.
        -11    1    3    3    0    0 -0.46081133348E+02 -0.37926423092E+02 -0.18139167072E+02  0.62377189753E+02  0.51100000000E-03 0. -1.
         23    2    1    0    0    0 -0.23102088684E+02 -0.15532405369E+02 -0.77571230920E+01  0.96101296279E+02  0.91653281827E+02 0.  0.
         11    1    3    3    0    0  0.22979044663E+02  0.22394017724E+02  0.10382043980E+02  0.33724106525E+02  0.51100000000E-03 0.  1.
         22    1    1    0    0    0  0.23102088684E+02  0.15532405369E+02  0.77571230920E+01  0.28898703721E+02  0.00000000000E+00 0. -1.
</event>
<event>
 5    1  0.8778268E-005  0.9118800E+02  0.7818608E-02  0.1130116E+00
         25   -1    0    0    0    0  0.00000000000E+00  0.00000000000E+00  0.99999998245E-14  0.12500000000E+03  0.12500000000E+03 0.  0.
        -11    1    3    3    0    0 -0.43366584867E+01 -0.11736747177E+02 -0.33355072103E+02  0.35624691948E+02  0.51100000000E-03 0. -1.
         23    2    1    0    0    0  0.50031951721E+01  0.31667385442E+02  0.27110982010E+01  0.92825393303E+02  0.87070938468E+02 0.  0.
         11    1    3    3    0    0  0.93398536588E+01  0.43404132619E+02  0.36066170304E+02  0.57200701355E+02  0.51100000000E-03 0.  1.
         22    1    1    0    0    0 -0.50031951721E+01 -0.31667385442E+02 -0.27110982010E+01  0.32174606697E+02  0.00000000000E+00 0.  1.
</event>
<event>
 5    1  0.8778268E-005  0.9118800E+02  0.7818608E-02  0.1130116E+00
         25   -1    0    0    0    0  0.00000000000E+00  0.00000000000E+00  0.99999998245E-14  0.12500000000E+03  0.12500000000E+03 0.  0.
        -11    1    3    3    0    0 -0.51155044057E+02 -0.32906111860E+01 -0.27944532695E+02  0.58382904709E+02  0.51100000000E-03 0.  1.
         23    2    1    0    0    0 -0.19059515373E+02 -0.16765397370E+02 -0.14963307155E+02  0.95534015607E+02  0.90876311005E+02 0.  0.
         11    1    3    3    0    0  0.32095528684E+02 -0.13474786184E+02  0.12981225540E+02  0.37151110898E+02  0.51100000000E-03 0. -1.
         22    1    1    0    0    0  0.19059515373E+02  0.16765397370E+02  0.14963307155E+02  0.29465984393E+02  0.00000000000E+00 0.  1.
</event>
<event>
 5    1  0.8778268E-005  0.9118800E+02  0.7818608E-02  0.1130116E+00
         25   -1    0    0    0    0  0.00000000000E+00  0.00000000000E+00  0.99999998245E-14  0.12500000000E+03  0.12500000000E+03 0.  0.
        -11    1    3    3    0    0  0.12088275823E+02 -0.51790505016E+02 -0.36248334272E+01  0.53305930625E+02  0.51100000000E-03 0.  1.
         23    2    1    0    0    0 -0.16396746977E+02 -0.20386056516E+02  0.86493777625E+01  0.97445393355E+02  0.93468434986E+02 0.  0.
         11    1    3    3    0    0 -0.28485022800E+02  0.31404448499E+02  0.12274211190E+02  0.44139462730E+02  0.51100000000E-03 0. -1.
         22    1    1    0    0    0  0.16396746977E+02  0.20386056516E+02 -0.86493777625E+01  0.27554606645E+02  0.00000000000E+00 0.  1.
</event>
<event>
 5    1  0.8778268E-005  0.9118800E+02  0.7818608E-02  0.1130116E+00
         25   -1    0    0    0    0  0.00000000000E+00  0.00000000000E+00  0.99999998245E-14  0.12500000000E+03  0.12500000000E+03 0.  0.
        -11    1    3    3    0    0 -0.44408909662E+02 -0.28544220425E+02 -0.91442448653E+01  0.53577429870E+02  0.51100000000E-03 0. -1.
         23    2    1    0    0    0 -0.79848708696E+01 -0.26998540787E+02  0.10452927972E+02  0.94967632950E+02  0.90093885684E+02 0.  0.
         11    1    3    3    0    0  0.36424038793E+02  0.15456796385E+01  0.19597172837E+02  0.41390203080E+02  0.51100000000E-03 0.  1.
         22    1    1    0    0    0  0.79848708696E+01  0.26998540787E+02 -0.10452927972E+02  0.30032367050E+02  0.00000000000E+00 0. -1.
</event>
<event>
 5    1  0.8778268E-005  0.9118800E+02  0.7818608E-02  0.1130116E+00
         25   -1    0    0    0    0  0.00000000000E+00  0.00000000000E+00  0.99999998245E-14  0.12500000000E+03  0.12500000000E+03 0.  0.
        -11    1    3    3    0    0 -0.12686810484E+02  0.98563084221E+01 -0.37963245199E+02  0.41222687471E+02  0.51100000000E-03 0. -1.
         23    2    1    0    0    0  0.22773293219E+01  0.33502260785E+02  0.34927743409E+01  0.91239265719E+02  0.84763296478E+02 0.  0.
         11    1    3    3    0    0  0.14964139806E+02  0.23645952363E+02  0.41456019540E+02  0.50016578249E+02  0.51100000000E-03 0.  1.
         22    1    1    0    0    0 -0.22773293219E+01 -0.33502260785E+02 -0.34927743409E+01  0.33760734281E+02  0.00000000000E+00 0. -1.
</event>
<event>
 5    1  0.8778268E-005  0.9118800E+02  0.7818608E-02  0.1130116E+00
         25   -1    0    0    0    0  0.00000000000E+00  0.00000000000E+00  0.99999998245E-14  0.12500000000E+03  0.12500000000E+03 0.  0.
        -11    1    3    3    0    0  0.19513149744E+02 -0.78098181578E+01  0.22913092436E+02  0.31092862168E+02  0.51100000000E-03 0. -1.
         23    2    1    0    0    0 -0.22180624600E+02  0.16373675412E+02 -0.16074325388E+02  0.93086659673E+02  0.87445210951E+02 0.  0.
         11    1    3    3    0    0 -0.41693774344E+02  0.24183493570E+02 -0.38987417823E+02  0.61993797505E+02  0.51100000000E-03 0.  1.
         22    1    1    0    0    0  0.22180624600E+02 -0.16373675412E+02  0.16074325388E+02  0.31913340327E+02  0.00000000000E+00 0.  1.
</event>
<event>
 5    1  0.8778268E-005  0.9118800E+02  0.7818608E-02  0.1130116E+00
         25   -1    0    0    0    0  0.00000000000E+00  0.00000000000E+00  0.99999998245E-14  0.12500000000E+03  0.12500000000E+03 0.  0.
        -11    1    3    3    0    0  0.23960489794E+02  0.67081662882E+01  0.39353418237E+02  0.46559597220E+02  0.51100000000E-03 0.  1.
         23    2    1    0    0    0 -0.43307287586E+01  0.22740778197E+02  0.39658703145E+02  0.79079297264E+02  0.64380310003E+02 0.  0.
         11    1    3    3    0    0 -0.28291218553E+02  0.16032611909E+02  0.30528490832E+00  0.32519700044E+02  0.51100000000E-03 0. -1.
         22    1    1    0    0    0  0.43307287586E+01 -0.22740778197E+02 -0.39658703145E+02  0.45920702736E+02  0.00000000000E+00 0.  1.
</event>
<event>
 5    1  0.8778268E-005  0.9118800E+02  0.7818608E-02  0.1130116E+00
         25   -1    0    0    0    0  0.00000000000E+00  0.00000000000E+00  0.99999998245E-14  0.12500000000E+03  0.12500000000E+03 0.  0.
        -11    1    3    3    0    0 -0.28057209239E+02 -0.29877575844E+02  0.40890172653E+02  0.57895446699E+02  0.51100000000E-03 0.  1.
         23    2    1    0    0    0 -0.51577889895E+00 -0.24950280523E+02  0.15900684170E+02  0.95409219626E+02  0.90704492207E+02 0.  0.
         11    1    3    3    0    0  0.27541430340E+02  0.49272953212E+01 -0.24989488483E+02  0.37513772928E+02  0.51100000000E-03 0. -1.
         22    1    1    0    0    0  0.51577889895E+00  0.24950280523E+02 -0.15900684170E+02  0.29590780374E+02  0.00000000000E+00 0.  1.
</event>
<event>
 5    1  0.8778268E-005  0.9118800E+02  0.7818608E-02  0.1130116E+00
         25   -1    0    0    0    0  0.00000000000E+00  0.00000000000E+00  0.99999998245E-14  0.12500000000E+03  0.12500000000E+03 0.  0.
        -11    1    3    3    0    0 -0.11484115668E+02 -0.40711095764E+02  0.12011360650E+01  0.42316911029E+02  0.51100000000E-03 0. -1.
         23    2    1    0    0    0 -0.19685610074E+02  0.77693111115E+01 -0.20017805344E+02  0.95869295067E+02  0.91336322275E+02 0.  0.
         11    1    3    3    0    0 -0.82014944058E+01  0.48480406875E+02 -0.21218941409E+02  0.53552384037E+02  0.51100000000E-03 0.  1.
         22    1    1    0    0    0  0.19685610074E+02 -0.77693111115E+01  0.20017805344E+02  0.29130704933E+02  0.00000000000E+00 0.  1.
</event>
<event>
 5    1  0.8778268E-005  0.9118800E+02  0.7818608E-02  0.1130116E+00
         25   -1    0    0    0    0  0.00000000000E+00  0.00000000000E+00  0.99999998245E-14  0.12500000000E+03  0.12500000000E+03 0.  0.
        -11    1    3    3    0    0  0.76950558809E+01 -0.10478542723E+02 -0.33993923755E+02  0.36395062785E+02  0.51100000000E-03 0.  1.
         23    2    1    0    0    0  0.84262099635E+01  0.80600530730E+01  0.24557053273E+02  0.97815181896E+02  0.93961670239E+02 0.  0.
         11    1    3    3    0    0  0.73115408266E+00  0.18538595796E+02  0.58550977028E+02  0.61420119111E+02  0.51100000000E-03 0. -1.
         22    1    1    0    0    0 -0.84262099635E+01 -0.80600530730E+01 -0.24557053273E+02  0.27184818104E+02  0.00000000000E+00 0. -1.
</event>
<event>
 5    1  0.8778268E-005  0.9118800E+02  0.7818608E-02  0.1130116E+00
         25   -1    0    0    0    0  0.00000000000E+00  0.00000000000E+00  0.99999998245E-14  0.12500000000E+03  0.12500000000E+03 0.  0.
        -11    1    3    3    0    0 -0.24258943428E+02 -0.99723783729E+01 -0.29611744278E+02  0.39557553844E+02  0.51100000000E-03 0.  1.
         23    2    1    0    0    0 -0.17728638366E+02  0.83225474597E+01  0.22498823943E+02  0.95171046057E+02  0.90375668817E+02 0.  0.
         11    1    3    3    0    0  0.65303050620E+01  0.18294925833E+02  0.52110568221E+02  0.55613492212E+02  0.51100000000E-03 0. -1.
         22    1    1    0    0    0  0.17728638366E+02 -0.83225474597E+01 -0.22498823943E+02  0.29828953943E+02  0.00000000000E+00 0. -1.
</event>
<event>
 5    1  0.8778268E-005  0.9118800E+02  0.7818608E-02  0.1130116E+00
         25   -1    0    0    0    0  0.00000000000E+00  0.00000000000E+00  0.99999998245E-14  0.12500000000E+03  0.12500000000E+03 0.  0.
        -11    1    3    3    0    0  0.18942228801E+02 -0.52006234587E+02  0.27554261528E+02  0.61827937023E+02  0.51100000000E-03 0. -1.
         23    2    1    0    0    0  0.27540756234E+01 -0.26439002288E+02  0.13197859854E+02  0.95321905735E+02  0.90584084880E+02 0.  0.
         11    1    3    3    0    0 -0.16188153178E+02  0.25567232299E+02 -0.14356401674E+02  0.33493968712E+02  0.51100000000E-03 0.  1.
         22    1    1    0    0    0 -0.27540756234E+01  0.26439002288E+02 -0.13197859854E+02  0.29678094265E+02  0.00000000000E+00 0. -1.
</event>
<event>
 5    1  0.8778268E-005  0.9118800E+02  0.7818608E-02  0.1130116E+00
         25   -1    0    0    0    0  0.00000000000E+00  0.00000000000E+00  0.99999998245E-14  0.12500000000E+03  0.12500000000E+03 0.  0.
        -11    1    3    3    0    0  0.37149102015E+02  0.31523485620E+00  0.35646201733E+02  0.51485986946E+02  0.51100000000E-03 0.  1.
         23    2    1    0    0    0 -0.54103982856E+01  0.10279535785E+02  0.26391082892E+02  0.96165463038E+02  0.91740752992E+02 0.  0.
         11    1    3    3    0    0 -0.42559500301E+02  0.99643009292E+01 -0.92551188408E+01  0.44679476092E+02  0.51100000000E-03 0. -1.
         22    1    1    0    0    0  0.54103982856E+01 -0.10279535785E+02 -0.26391082892E+02  0.28834536962E+02  0.00000000000E+00 0.  1.
</event>
<event>
 5    1  0.8778268E-005  0.9118800E+02  0.7818608E-02  0.1130116E+00
         25   -1    0    0    0    0  0.00000000000E+00  0.00000000000E+00  0.99999998245E-14  0.12500000000E+03  0.12500000000E+03 0.  0.
        -11    1    3    3    0    0  0.52702114064E+02 -0.16659834161E+02 -0.13175676616E+02  0.56821310752E+02  0.51100000000E-03 0. -1.
         23    2    1    0    0    0  0.17881093967E+02 -0.22070715602E+01 -0.23001827137E+02  0.95782047677E+02  0.91216840107E+02 0.  0.
         11    1    3    3    0    0 -0.34821020097E+02  0.14452762601E+02 -0.98261505209E+01  0.38960736924E+02  0.51100000000E-03 0.  1.
         22    1    1    0    0    0 -0.17881093967E+02  0.22070715602E+01  0.23001827137E+02  0.29217952323E+02  0.00000000000E+00 0. -1.
</event>
<event>
 5    1  0.8778268E-005  0.9118800E+02  0.7818608E-02  0.1130116E+00
         25   -1    0    0    0    0  0.00000000000E+00  0.00000000000E+00  0.99999998245E-14  0.12500000000E+03  0.12500000000E+03 0.  0.
        -11    1    3    3    0    0  0.12115288411E+02  0.27237968751E+02 -0.45241729062E+02  0.54180265814E+02  0.51100000000E-03 0.  1.
         23    2    1    0    0    0  0.26717805267E+02  0.40441447454E+01 -0.20868627840E+02  0.90857711663E+02  0.84198740583E+02 0.  0.
         11    1    3    3    0    0  0.14602516856E+02 -0.23193824006E+02  0.24373101222E+02  0.36677445849E+02  0.51100000000E-03 0. -1.
         22    1    1    0    0    0 -0.26717805267E+02 -0.40441447454E+01  0.20868627840E+02  0.34142288337E+02  0.00000000000E+00 0.  1.
</event>
<event>
 5    1  0.8778268E-005  0.9118800E+02  0.7818608E-02  0.1130116E+00
         25   -1    0    0    0    0  0.00000000000E+00  0.00000000000E+00  0.99999998245E-14  0.12500000000E+03  0.12500000000E+03 0.  0.
        -11    1    3    3    0    0  0.28278264190E+02  0.12215955677E+02  0.33675803682E+02  0.45639342158E+02  0.51100000000E-03 0.  1.
         23    2    1    0    0    0  0.26188794907E+02 -0.11361000316E+02 -0.95305438916E+01  0.94904210033E+02  0.90005847078E+02 0.  0.
         11    1    3    3    0    0 -0.20894692832E+01 -0.23576955994E+02 -0.43206347574E+02  0.49264867875E+02  0.51100000000E-03 0. -1.
         22    1    1    0    0    0 -0.26188794907E+02  0.11361000316E+02  0.95305438916E+01  0.30095789967E+02  0.00000000000E+00 0. -1.
</event>
<event>
 5    1  0.8778268E-005  0.9118800E+02  0.7818608E-02  0.1130116E+00
         25   -1    0    0    0    0  0.00000000000E+00  0.00000000000E+00  0.99999998245E-14  0.12500000000E+03  0.12500000000E+03 0.  0.
        -11    1    3    3    0    0 -0.21317285488E+02  0.76064010386E+01 -0.57253017682E+02  0.61564535499E+02  0.51100000000E-03 0. -1.
         23    2    1    0    0    0 -0.15975825230E+02 -0.86386222732E+00 -0.25156721715E+02  0.95186682553E+02  0.90397293313E+02 0.  0.
         11    1    3    3    0    0  0.53414602584E+01 -0.84702632660E+01  0.32096295966E+02  0.33622147054E+02  0.51100000000E-03 0.  1.
         22    1    1    0    0    0  0.15975825230E+02  0.86386222732E+00  0.25156721715E+02  0.29813317447E+02  0.00000000000E+00 0. -1.
</event>
<event>
 5    1  0.8778268E-005  0.9118800E+02  0.7818608E-02  0.1130116E+00
         25   -1    0    0    0    0  0.00000000000E+00  0.00000000000E+00  0.99999998245E-14  0.12500000000E+03  0.12500000000E+03 0.  0.
        -11    1    3    3    0    0 -0.13660627167E+02 -0.25178838741E+02 -0.28713213591E+02  0.40559034627E+02  0.51100000000E-03 0.  1.
         23    2    1    0    0    0 -0.13471485692E+02  0.22723995098E+02 -0.25037503063E+02  0.88603057277E+02  0.80782202986E+02 0.  0.
         11    1    3    3    0    0  0.18914147421E+00  0.47902833838E+02  0.36757105280E+01  0.48044022650E+02  0.51100000000E-03 0. -1.
         22    1    1    0    0    0  0.13471485692E+02 -0.22723995098E+02  0.25037503063E+02  0.36396942723E+02  0.00000000000E+00 0. -1.
</event>
<event>
 5    1  0.8778268E-005  0.9118800E+02  0.7818608E-02  0.1130116E+00
         25   -1    0    0    0    0  0.00000000000E+00  0.00000000000E+00  0.99999998245E-14  0.12500000000E+03  0.12500000000E+03 0.  0.
        -11    1    3    3    0    0 -0.33097579936E+02  0.47789606048E+02 -0.72740701860E+01  0.58585052200E+02  0.51100000000E-03 0. -1.
         23    2    1    0    0    0 -0.17708956935E+02  0.17184799828E+02 -0.17972192033E+02  0.94472566643E+02  0.89404371598E+02 0.  0.
         11    1    3    3    0    0  0.15388623001E+02 -0.30604806220E+02 -0.10698121847E+02  0.35887514444E+02  0.51100000000E-03 0.  1.
         22    1    1    0    0    0  0.17708956935E+02 -0.17184799828E+02  0.17972192033E+02  0.30527433357E+02  0.00000000000E+00 0. -1.
</event>
<event>
 5    1  0.8778268E-005  0.9118800E+02  0.7818608E-02  0.1130116E+00
         25   -1    0    0    0    0  0.00000000000E+00  0.00000000000E+00  0.99999998245E-14  0.12500000000E+03  0.12500000000E+03 0.  0.
        -11    1    3    3    0    0 -0.54442385109E+01 -0.18648581583E+02 -0.28113393145E+02  0.34172682107E+02  0.51100000000E-03 0.  1.
         23    2    1    0    0    0 -0.12073840505E+02  0.18365806451E+02  0.20031344510E+02  0.95262225469E+02  0.90501692621E+02 0.  0.
         11    1    3    3    0    0 -0.66296019945E+01  0.37014388034E+02  0.48144737655E+02  0.61089543363E+02  0.51100000000E-03 0. -1.
         22    1    1    0    0    0  0.12073840505E+02 -0.18365806451E+02 -0.20031344510E+02  0.29737774531E+02  0.00000000000E+00 0. -1.
</event>
<event>
 5    1  0.8778268E-005  0.9118800E+02  0.7818608E-02  0.1130116E+00
         25   -1    0    0    0    0  0.00000000000E+00  0.00000000000E+00  0.99999998245E-14  0.12500000000E+03  0.12500000000E+03 0.  0.
        -11    1    3    3    0    0 -0.21104242219E+02 -0.37335515217E+02  0.20502005343E+02  0.47535901796E+02  0.51100000000E-03 0.  1.
         23    2    1    0    0    0 -0.53340849751E+01  0.18022458424E+01 -0.18906894995E+02  0.10527257668E+03  0.10340766011E+03 0.  0.
         11    1    3    3    0    0  0.15770157244E+02  0.39137761059E+02 -0.39408900339E+02  0.57736674882E+02  0.51100000000E-03 0. -1.
         22    1    1    0    0    0  0.53340849751E+01 -0.18022458424E+01  0.18906894995E+02  0.19727423323E+02  0.00000000000E+00 0. -1.
</event>
<event>
 5    1  0.8778268E-005  0.9118800E+02  0.7818608E-02  0.1130116E+00
         25   -1    0    0    0    0  0.00000000000E+00  0.00000000000E+00  0.99999998245E-14  0.12500000000E+03  0.12500000000E+03 0.  0.
        -11    1    3    3    0    0  0.40738474129E+00 -0.37674340582E+02  0.10976643068E+02  0.39242943237E+02  0.51100000000E-03 0.  1.
         23    2    1    0    0    0 -0.23894506729E+02 -0.11476824404E+01 -0.20707753263E+02  0.93360220102E+02  0.87835385952E+02 0.  0.
         11    1    3    3    0    0 -0.24301891470E+02  0.36526658142E+02 -0.31684396331E+02  0.54117276864E+02  0.51100000000E-03 0. -1.
         22    1    1    0    0    0  0.23894506729E+02  0.11476824404E+01  0.20707753263E+02  0.31639779898E+02  0.00000000000E+00 0. -1.
</event>
<event>
 5    1  0.8778268E-005  0.9118800E+02  0.7818608E-02  0.1130116E+00
         25   -1    0    0    0    0  0.00000000000E+00  0.00000000000E+00  0.99999998245E-14  0.12500000000E+03  0.12500000000E+03 0.  0.
        -11    1    3    3    0    0  0.18049742449E+02  0.37198126444E+02 -0.17712201474E+02  0.44980172240E+02  0.51100000000E-03 0. -1.
         23    2    1    0    0    0 -0.94906048381E+01  0.20876823660E+02  0.20086695746E+02  0.94514123068E+02  0.89462454510E+02 0.  0.
         11    1    3    3    0    0 -0.27540347288E+02 -0.16321302784E+02  0.37798897220E+02  0.49533950828E+02  0.51100000000E-03 0.  1.
         22    1    1    0    0    0  0.94906048381E+01 -0.20876823660E+02 -0.20086695746E+02  0.30485876932E+02  0.00000000000E+00 0.  1.
</event>
<event>
 5    1  0.8778268E-005  0.9118800E+02  0.7818608E-02  0.1130116E+00
         25   -1    0    0    0    0  0.00000000000E+00  0.00000000000E+00  0.99999998245E-14  0.12500000000E+03  0.12500000000E+03 0.  0.
        -11    1    3    3    0    0  0.21057466281E+02 -0.11265614052E+02  0.25914902658E+02  0.35240787820E+02  0.51100000000E-03 0. -1.
         23    2    1    0    0    0 -0.17909160622E+02  0.32023804307E+01 -0.20529588705E+02  0.97569045095E+02  0.93633654600E+02 0.  0.
         11    1    3    3    0    0 -0.38966626903E+02  0.14467994482E+02 -0.46444491364E+02  0.62328257274E+02  0.51100000000E-03 0.  1.
         22    1    1    0    0    0  0.17909160622E+02 -0.32023804307E+01  0.20529588705E+02  0.27430954905E+02  0.00000000000E+00 0.  1.
</event>
<event>
 5    1  0.8778268E-005  0.9118800E+02  0.7818608E-02  0.1130116E+00
         25   -1    0    0    0    0  0.00000000000E+00  0.00000000000E+00  0.99999998245E-14  0.12500000000E+03  0.12500000000E+03 0.  0.
        -11    1    3    3    0    0 -0.27170261511E+01 -0.22480844561E+02  0.28722609204E+02  0.36575386301E+02  0.51100000000E-03 0. -1.
         23    2    1    0    0    0 -0.48142612391E+01 -0.46948066136E+01 -0.28075659463E+02  0.96130275812E+02  0.91692796625E+02 0.  0.
         11    1    3    3    0    0 -0.20972350880E+01  0.17786037948E+02 -0.56798268667E+02  0.59554889511E+02  0.51100000000E-03 0.  1.
         22    1    1    0    0    0  0.48142612391E+01  0.46948066136E+01  0.28075659463E+02  0.28869724188E+02  0.00000000000E+00 0.  1.
</event>
<event>
 5    1  0.8778268E-005  0.9118800E+02  0.7818608E-02  0.1130116E+00
         25   -1    0    0    0    0  0.00000000000E+00  0.00000000000E+00  0.99999998245E-14  0.12500000000E+03  0.12500000000E+03 0.  0.
        -11    1    3    3    0    0  0.16126898460E+02 -0.30408073752E+02 -0.15375630973E+02  0.37697981794E+02  0.51100000000E-03 0. -1.
         23    2    1    0    0    0 -0.28964560253E+02  0.32552970232E+01 -0.98217938768E+01  0.94242718840E+02  0.89082432107E+02 0.  0.
         11    1    3    3    0    0 -0.45091458713E+02  0.33663370775E+02  0.55538370966E+01  0.56544737046E+02  0.51100000000E-03 0.  1.
         22    1    1    0    0    0  0.28964560253E+02 -0.32552970232E+01  0.98217938768E+01  0.30757281160E+02  0.00000000000E+00 0.  1.
</event>
<event>
 5    1  0.8778268E-005  0.9118800E+02  0.7818608E-02  0.1130116E+00
         25   -1    0    0    0    0  0.00000000000E+00  0.00000000000E+00  0.99999998245E-14  0.12500000000E+03  0.12500000000E+03 0.  0.
        -11    1    3    3    0    0 -0.43132988646E+02  0.13653999360E+02 -0.20188515988E+02  0.49542533101E+02  0.51100000000E-03 0.  1.
         23    2    1    0    0    0 -0.21741698251E+02 -0.21516088785E+02 -0.26189251262E+01  0.94299799866E+02  0.89162491926E+02 0.  0.
         11    1    3    3    0    0  0.21391290394E+02 -0.35170088146E+02  0.17569590862E+02  0.44757266764E+02  0.51100000000E-03 0. -1.
         22    1    1    0    0    0  0.21741698251E+02  0.21516088785E+02  0.26189251262E+01  0.30700200134E+02  0.00000000000E+00 0.  1.
</event>
<event>
 5    1  0.8778268E-005  0.9118800E+02  0.7818608E-02  0.1130116E+00
         25   -1    0    0    0    0  0.00000000000E+00  0.00000000000E+00  0.99999998245E-14  0.12500000000E+03  0.12500000000E+03 0.  0.
        -11    1    3    3    0    0 -0.61178350670E+01  0.36260877520E+02 -0.43217559010E+02  0.56745365903E+02  0.51100000000E-03 0.  1.
         23    2    1    0    0    0  0.13521613798E+02  0.22713482455E+02 -0.12175208885E+02  0.95897216004E+02  0.91374525996E+02 0.  0.
         11    1    3    3    0    0  0.19639448865E+02 -0.13547395064E+02  0.31042350125E+02  0.39151850101E+02  0.51100000000E-03 0. -1.
         22    1    1    0    0    0 -0.13521613798E+02 -0.22713482455E+02  0.12175208885E+02  0.29102783996E+02  0.00000000000E+00 0.  1.
</event>
<event>
 5    1  0.8778268E-005  0.9118800E+02  0.7818608E-02  0.1130116E+00
         25   -1    0    0    0    0  0.00000000000E+00  0.00000000000E+00  0.99999998245E-14  0.12500000000E+03  0.12500000000E+03 0.  0.
        -11    1    3    3    0    0 -0.25659513947E+02 -0.29167672118E+02  0.10178378559E+02  0.40159222392E+02  0.51100000000E-03 0.  1.
         23    2    1    0    0    0  0.87570061477E+01 -0.35031983324E+01 -0.26654364774E+02  0.96726112458E+02  0.92501503310E+02 0.  0.
         11    1    3    3    0    0  0.34416520095E+02  0.25664473786E+02 -0.36832743332E+02  0.56566890066E+02  0.51100000000E-03 0. -1.
         22    1    1    0    0    0 -0.87570061477E+01  0.35031983324E+01  0.26654364774E+02  0.28273887542E+02  0.00000000000E+00 0. -1.
</event>
<event>
 5    1  0.8778268E-005  0.9118800E+02  0.7818608E-02  0.1130116E+00
         25   -1    0    0    0    0  0.00000000000E+00  0.00000000000E+00  0.99999998245E-14  0.12500000000E+03  0.12500000000E+03 0.  0.
        -11    1    3    3    0    0 -0.21509655497E+02 -0.18048457932E+02 -0.25850779892E+02  0.38166411079E+02  0.51100000000E-03 0. -1.
         23    2    1    0    0    0  0.53290847198E+01  0.24771269793E+02  0.73319321253E+01  0.98622506188E+02  0.95029608792E+02 0.  0.
         11    1    3    3    0    0  0.26838740217E+02  0.42819727725E+02  0.33182712018E+02  0.60456095110E+02  0.51100000000E-03 0.  1.
         22    1    1    0    0    0 -0.53290847198E+01 -0.24771269793E+02 -0.73319321253E+01  0.26377493812E+02  0.00000000000E+00 0.  1.
</event>
<event>
 5    1  0.8778268E-005  0.9118800E+02  0.7818608E-02  0.1130116E+00
         25   -1    0    0    0    0  0.00000000000E+00  0.00000000000E+00  0.99999998245E-14  0.12500000000E+03  0.12500000000E+03 0.  0.
        -11    1    3    3    0    0  0.12948038592E+02 -0.37964676251E+02  0.27433716417E+02  0.48596060981E+02  0.51100000000E-03 0.  1.
         23    2    1    0    0    0  0.22388538046E+02  0.70221255687E+01  0.17767356483E+02  0.95568115253E+02  0.90923202832E+02 0.  0.
         11    1    3    3    0    0  0.94404994542E+01  0.44986801819E+02 -0.96663599335E+01  0.46972054272E+02  0.51100000000E-03 0. -1.
         22    1    1    0    0    0 -0.22388538046E+02 -0.70221255687E+01 -0.17767356483E+02  0.29431884747E+02  0.00000000000E+00 0. -1.
</event>
<event>
 5    1  0.8778268E-005  0.9118800E+02  0.7818608E-02  0.1130116E+00
         25   -1    0    0    0    0  0.00000000000E+00  0.00000000000E+00  0.99999998245E-14  0.12500000000E+03  0.12500000000E+03 0.  0.
        -11    1    3    3    0    0  0.48220159450E+02  0.39033764054E+02  0.57591566785E+01  0.62305588831E+02  0.51100000000E-03 0.  1.
         23    2    1    0    0    0  0.22384945014E+02  0.14960131297E+02  0.55291020231E-01  0.98076137930E+02  0.94308188841E+02 0.  0.
         11    1    3    3    0    0 -0.25835214436E+02 -0.24073632758E+02 -0.57038656582E+01  0.35770549099E+02  0.51100000000E-03 0. -1.
         22    1    1    0    0    0 -0.22384945014E+02 -0.14960131297E+02 -0.55291020231E-01  0.26923862070E+02  0.00000000000E+00 0.  1.
</event>
<event>
 5    1  0.8778268E-005  0.9118800E+02  0.7818608E-02  0.1130116E+00
         25   -1    0    0    0    0  0.00000000000E+00  0.00000000000E+00  0.99999998245E-14  0.12500000000E+03  0.12500000000E+03 0.  0.
        -11    1    3    3    0    0  0.30386355558E+02  0.16095073300E+02  0.41239962488E+01  0.34632200824E+02  0.51100000000E-03 0.  1.
         23    2    1    0    0    0 -0.29146416816E+02  0.46784977459E+01  0.36850974202E+01  0.95251354697E+02  0.90486676778E+02 0.  0.
         11    1    3    3    0    0 -0.59532772373E+02 -0.11416575554E+02 -0.43889882854E+00  0.60619153873E+02  0.51100000000E-03 0. -1.
         22    1    1    0    0    0  0.29146416816E+02 -0.46784977459E+01 -0.36850974202E+01  0.29748645303E+02  0.00000000000E+00 0. -1.
</event>
<event>
 5    1  0.8778268E-005  0.9118800E+02  0.7818608E-02  0.1130116E+00
         25   -1    0    0    0    0  0.00000000000E+00  0.00000000000E+00  0.99999998245E-14  0.12500000000E+03  0.12500000000E+03 0.  0.
        -11    1    3    3    0    0  0.18932389307E+02  0.34185870270E+02  0.36505191652E+02  0.53476519228E+02  0.51100000000E-03 0.  1.
         23    2    1    0    0    0  0.20212139649E+02  0.23036071065E+02 -0.26796100745E+01  0.94236848837E+02  0.89074194969E+02 0.  0.
         11    1    3    3    0    0  0.12797503423E+01 -0.11149799205E+02 -0.39184801726E+02  0.40760329609E+02  0.51100000000E-03 0. -1.
         22    1    1    0    0    0 -0.20212139649E+02 -0.23036071065E+02  0.26796100745E+01  0.30763151163E+02  0.00000000000E+00 0.  1.
</event>
<event>
 5    1  0.8778268E-005  0.9118800E+02  0.7818608E-02  0.1130116E+00
         25   -1    0    0    0    0  0.00000000000E+00  0.00000000000E+00  0.99999998245E-14  0.12500000000E+03  0.12500000000E+03 0.  0.
        -11    1    3    3    0    0 -0.43531162230E+02 -0.67494081817E+01  0.98395099616E+01  0.45136820363E+02  0.51100000000E-03 0.  1.
         23    2    1    0    0    0  0.81549108531E+01 -0.57424019725E+01  0.24229366128E+02  0.98798092925E+02  0.95260291996E+02 0.  0.
         11    1    3    3    0    0  0.51686073083E+02  0.10070062092E+01  0.14389856166E+02  0.53661272562E+02  0.51100000000E-03 0. -1.
         22    1    1    0    0    0 -0.81549108531E+01  0.57424019725E+01 -0.24229366128E+02  0.26201907075E+02  0.00000000000E+00 0.  1.
</event>
<event>
 5    1  0.8778268E-005  0.9118800E+02  0.7818608E-02  0.1130116E+00
         25   -1    0    0    0    0  0.00000000000E+00  0.00000000000E+00  0.99999998245E-14  0.12500000000E+03  0.12500000000E+03 0.  0.
        -11    1    3    3    0    0  0.11099043682E+02  0.15333410909E+02  0.43080602181E+02  0.47055717456E+02  0.51100000000E-03 0.  1.
         23    2    1    0    0    0 -0.13082104331E+02 -0.18782774533E+02  0.18557883118E+02  0.95532575635E+02  0.90874330307E+02 0.  0.
         11    1    3    3    0    0 -0.24181148014E+02 -0.34116185442E+02 -0.24522719063E+02  0.48476858179E+02  0.51100000000E-03 0. -1.
         22    1    1    0    0    0  0.13082104331E+02  0.18782774533E+02 -0.18557883118E+02  0.29467424365E+02  0.00000000000E+00 0.  1.
</event>
<event>
 5    1  0.8778268E-005  0.9118800E+02  0.7818608E-02  0.1130116E+00
         25   -1    0    0    0    0  0.00000000000E+00  0.00000000000E+00  0.99999998245E-14  0.12500000000E+03  0.12500000000E+03 0.  0.
        -11    1    3    3    0    0 -0.19223472553E+02  0.37183817081E+02 -0.10157760722E+02  0.43073869723E+02  0.51100000000E-03 0. -1.
         23    2    1    0    0    0 -0.25131986870E+02 -0.60316546551E+01  0.16635531913E+02  0.94263400579E+02  0.89111447888E+02 0.  0.
         11    1    3    3    0    0 -0.59085143169E+01 -0.43215471736E+02  0.26793292635E+02  0.51189530857E+02  0.51100000000E-03 0.  1.
         22    1    1    0    0    0  0.25131986870E+02  0.60316546551E+01 -0.16635531913E+02  0.30736599421E+02  0.00000000000E+00 0.  1.
</event>
<event>
 5    1  0.8778268E-005  0.9118800E+02  0.7818608E-02  0.1130116E+00
         25   -1    0    0    0    0  0.00000000000E+00  0.00000000000E+00  0.99999998245E-14  0.12500000000E+03  0.12500000000E+03 0.  0.
        -11    1    3    3    0    0  0.34653728588E+00 -0.48638408666E+02 -0.80537612747E+01  0.49301906216E+02  0.51100000000E-03 0. -1.
         23    2    1    0    0    0  0.21245350102E+02 -0.13509500875E+02 -0.21038408440E+02  0.92190151715E+02  0.86154152127E+02 0.  0.
         11    1    3    3    0    0  0.20898812816E+02  0.35128907791E+02 -0.12984647165E+02  0.42888245499E+02  0.51100000000E-03 0.  1.
         22    1    1    0    0    0 -0.21245350102E+02  0.13509500875E+02  0.21038408440E+02  0.32809848285E+02  0.00000000000E+00 0.  1.
</event>
<event>
 5    1  0.8778268E-005  0.9118800E+02  0.7818608E-02  0.1130116E+00
         25   -1    0    0    0    0  0.00000000000E+00  0.00000000000E+00  0.99999998245E-14  0.12500000000E+03  0.12500000000E+03 0.  0.
        -11    1    3    3    0    0 -0.47710930068E+02 -0.34322363546E+02  0.59474000470E+01  0.59073928724E+02  0.51100000000E-03 0.  1.
         23    2    1    0    0    0 -0.13006024957E+02 -0.24294345180E+02 -0.53598680788E+01  0.96926879783E+02  0.92772409399E+02 0.  0.
         11    1    3    3    0    0  0.34704905111E+02  0.10028018366E+02 -0.11307268126E+02  0.37852951058E+02  0.51100000000E-03 0. -1.
         22    1    1    0    0    0  0.13006024957E+02  0.24294345180E+02  0.53598680788E+01  0.28073120217E+02  0.00000000000E+00 0.  1.
</event>
<event>
 5    1  0.8778268E-005  0.9118800E+02  0.7818608E-02  0.1130116E+00
         25   -1    0    0    0    0  0.00000000000E+00  0.00000000000E+00  0.99999998245E-14  0.12500000000E+03  0.12500000000E+03 0.  0.
        -11    1    3    3    0    0  0.40801772310E+00 -0.11897450473E+02  0.55089111925E+02  0.56360678307E+02  0.51100000000E-03 0.  1.
         23    2    1    0    0    0 -0.59075196190E+01 -0.22825510231E+02  0.18606503676E+02  0.94964942410E+02  0.90090152640E+02 0.  0.
         11    1    3    3    0    0 -0.63155373421E+01 -0.10928059758E+02 -0.36482608250E+02  0.38604264103E+02  0.51100000000E-03 0. -1.
         22    1    1    0    0    0  0.59075196190E+01  0.22825510231E+02 -0.18606503676E+02  0.30035057590E+02  0.00000000000E+00 0.  1.
</event>
<event>
 5    1  0.8778268E-005  0.9118800E+02  0.7818608E-02  0.1130116E+00
         25   -1    0    0    0    0  0.00000000000E+00  0.00000000000E+00  0.99999998245E-14  0.12500000000E+03  0.12500000000E+03 0.  0.
        -11    1    3    3    0    0 -0.40893859159E+02 -0.57243769977E+01 -0.13733285098E+02  0.43516425965E+02  0.51100000000E-03 0.  1.
         23    2    1    0    0    0  0.11286906014E+01 -0.28897173823E+02  0.61046989735E+01  0.95443478774E+02  0.90751692510E+02 0.  0.
         11    1    3    3    0    0  0.42022549761E+02 -0.23172796825E+02  0.19837984071E+02  0.51927052809E+02  0.51100000000E-03 0. -1.
         22    1    1    0    0    0 -0.11286906014E+01  0.28897173823E+02 -0.61046989735E+01  0.29556521226E+02  0.00000000000E+00 0.  1.
</event>
<event>
 5    1  0.8778268E-005  0.9118800E+02  0.7818608E-02  0.1130116E+00
         25   -1    0    0    0    0  0.00000000000E+00  0.00000000000E+00  0.99999998245E-14  0.12500000000E+03  0.12500000000E+03 0.  0.
        -11    1    3    3    0    0 -0.29149011256E+02  0.34962821448E+02 -0.27049624790E+02  0.52950410219E+02  0.51100000000E-03 0.  1.
         23    2    1    0    0    0  0.90790428741E+01  0.24433094128E+02 -0.17082488273E+02  0.93835653163E+02  0.88509396624E+02 0.  0.
         11    1    3    3    0    0  0.38228054130E+02 -0.10529727320E+02  0.99671365171E+01  0.40885242944E+02  0.51100000000E-03 0. -1.
         22    1    1    0    0    0 -0.90790428741E+01 -0.24433094128E+02  0.17082488273E+02  0.31164346837E+02  0.00000000000E+00 0.  1.
</event>
<event>
 5    1  0.8778268E-005  0.9118800E+02  0.7818608E-02  0.1130116E+00
         25   -1    0    0    0    0  0.00000000000E+00  0.00000000000E+00  0.99999998245E-14  0.12500000000E+03  0.12500000000E+03 0.  0.
        -11    1    3    3    0    0  0.61862526606E+00  0.19100489885E+02  0.36219452442E+02  0.40951924820E+02  0.51100000000E-03 0.  1.
         23    2    1    0    0    0  0.18871532123E+02  0.84944649338E+01 -0.17007839765E+02  0.98212740479E+02  0.94489074076E+02 0.  0.
         11    1    3    3    0    0  0.18252906857E+02 -0.10606024951E+02 -0.53227292206E+02  0.57260815659E+02  0.51100000000E-03 0. -1.
         22    1    1    0    0    0 -0.18871532123E+02 -0.84944649338E+01  0.17007839765E+02  0.26787259521E+02  0.00000000000E+00 0. -1.
</event>
<event>
 5    1  0.8778268E-005  0.9118800E+02  0.7818608E-02  0.1130116E+00
         25   -1    0    0    0    0  0.00000000000E+00  0.00000000000E+00  0.99999998245E-14  0.12500000000E+03  0.12500000000E+03 0.  0.
        -11    1    3    3    0    0  0.62909443098E+01 -0.38839154575E+02 -0.33810430044E+02  0.51876787568E+02  0.51100000000E-03 0. -1.
         23    2    1    0    0    0  0.10036786207E+01 -0.27232986556E+02  0.88062892583E+01  0.96360976657E+02  0.92006761514E+02 0.  0.
         11    1    3    3    0    0 -0.52872656891E+01  0.11606168018E+02  0.42616719302E+02  0.44484189089E+02  0.51100000000E-03 0.  1.
         22    1    1    0    0    0 -0.10036786207E+01  0.27232986556E+02 -0.88062892583E+01  0.28639023343E+02  0.00000000000E+00 0.  1.
</event>
<event>
 5    1  0.8778268E-005  0.9118800E+02  0.7818608E-02  0.1130116E+00
         25   -1    0    0    0    0  0.00000000000E+00  0.00000000000E+00  0.99999998245E-14  0.12500000000E+03  0.12500000000E+03 0.  0.
        -11    1    3    3    0    0 -0.22007596591E+02 -0.76435853339E+01 -0.54258702533E+02  0.59048839999E+02  0.51100000000E-03 0.  1.
         23    2    1    0    0    0 -0.67829721785E+01  0.10690173365E+02 -0.26480223938E+02  0.95648836855E+02  0.91034110166E+02 0.  0.
         11    1    3    3    0    0  0.15224624412E+02  0.18333758699E+02  0.27778478595E+02  0.36599996855E+02  0.51100000000E-03 0. -1.
         22    1    1    0    0    0  0.67829721785E+01 -0.10690173365E+02  0.26480223938E+02  0.29351163145E+02  0.00000000000E+00 0.  1.
</event>
<event>
 5    1  0.8778268E-005  0.9118800E+02  0.7818608E-02  0.1130116E+00
         25   -1    0    0    0    0  0.00000000000E+00  0.00000000000E+00  0.99999998245E-14  0.12500000000E+03  0.12500000000E+03 0.  0.
        -11    1    3    3    0    0  0.52697161061E+02 -0.33075154944E+00  0.10695404061E+02  0.53772593845E+02  0.51100000000E-03 0. -1.
         23    2    1    0    0    0  0.21661011359E+02 -0.94123708176E+00 -0.18583493939E+02  0.96444237231E+02  0.92119809529E+02 0.  0.
         11    1    3    3    0    0 -0.31036149702E+02 -0.61048553232E+00 -0.29278898000E+02  0.42671643386E+02  0.51100000000E-03 0.  1.
         22    1    1    0    0    0 -0.21661011359E+02  0.94123708176E+00  0.18583493939E+02  0.28555762769E+02  0.00000000000E+00 0. -1.
</event>
<event>
 5    1  0.8778268E-005  0.9118800E+02  0.7818608E-02  0.1130116E+00
         25   -1    0    0    0    0  0.00000000000E+00  0.00000000000E+00  0.99999998245E-14  0.12500000000E+03  0.12500000000E+03 0.  0.
        -11    1    3    3    0    0 -0.23702602633E+02  0.15678067916E+02 -0.20196481298E+02  0.34864208614E+02  0.51100000000E-03 0. -1.
         23    2    1    0    0    0 -0.11347994576E+02 -0.29486062593E+02  0.11467441070E+02  0.91388884684E+02  0.84983652375E+02 0.  0.
         11    1    3    3    0    0  0.12354608057E+02 -0.45164130509E+02  0.31663922368E+02  0.56524676070E+02  0.51100000000E-03 0.  1.
         22    1    1    0    0    0  0.11347994576E+02  0.29486062593E+02 -0.11467441070E+02  0.33611115316E+02  0.00000000000E+00 0.  1.
</event>
<event>
 5    1  0.8778268E-005  0.9118800E+02  0.7818608E-02  0.1130116E+00
         25   -1    0    0    0    0  0.00000000000E+00  0.00000000000E+00  0.99999998245E-14  0.12500000000E+03  0.12500000000E+03 0.  0.
        -11    1    3    3    0    0 -0.26622156545E+02  0.21893550244E+02 -0.21096114540E+02  0.40411790487E+02  0.51100000000E-03 0. -1.
         23    2    1    0    0    0  0.19120497081E+02 -0.97315742606E+01 -0.19441696516E+02  0.96046994808E+02  0.91579193609E+02 0.  0.
         11    1    3    3    0    0  0.45742653626E+02 -0.31625124504E+02  0.16544180238E+01  0.55635204321E+02  0.51100000000E-03 0.  1.
         22    1    1    0    0    0 -0.19120497081E+02  0.97315742606E+01  0.19441696516E+02  0.28953005192E+02  0.00000000000E+00 0.  1.
</event>
<event>
 5    1  0.8778268E-005  0.9118800E+02  0.7818608E-02  0.1130116E+00
         25   -1    0    0    0    0  0.00000000000E+00  0.00000000000E+00  0.99999998245E-14  0.12500000000E+03  0.12500000000E+03 0.  0.
        -11    1    3    3    0    0  0.15716693529E+01  0.46681576493E+02  0.18683734387E+02  0.50306278528E+02  0.51100000000E-03 0. -1.
         23    2    1    0    0    0 -0.25805181699E+02  0.14193700276E+02  0.38897551351E+01  0.95293119904E+02  0.90544353639E+02 0.  0.
         11    1    3    3    0    0 -0.27376851052E+02 -0.32487876217E+02 -0.14793979252E+02  0.44986841376E+02  0.51100000000E-03 0.  1.
         22    1    1    0    0    0  0.25805181699E+02 -0.14193700276E+02 -0.38897551351E+01  0.29706880096E+02  0.00000000000E+00 0. -1.
</event>
<event>
 5    1  0.8778268E-005  0.9118800E+02  0.7818608E-02  0.1130116E+00
         25   -1    0    0    0    0  0.00000000000E+00  0.00000000000E+00  0.99999998245E-14  0.12500000000E+03  0.12500000000E+03 0.  0.
        -11    1    3    3    0    0 -0.25860575248E+02  0.23087789642E+02  0.12834397206E+02  0.36966703054E+02  0.51100000000E-03 0. -1.
         23    2    1    0    0    0  0.24221455897E+02 -0.71362457470E+01 -0.71076397635E+01  0.98767892343E+02  0.95220654722E+02 0.  0.
         11    1    3    3    0    0  0.50082031145E+02 -0.30224035389E+02 -0.19942036970E+02  0.61801189289E+02  0.51100000000E-03 0.  1.
         22    1    1    0    0    0 -0.24221455897E+02  0.71362457470E+01  0.71076397635E+01  0.26232107657E+02  0.00000000000E+00 0.  1.
</event>
<event>
 5    1  0.8778268E-005  0.9118800E+02  0.7818608E-02  0.1130116E+00
         25   -1    0    0    0    0  0.00000000000E+00  0.00000000000E+00  0.99999998245E-14  0.12500000000E+03  0.12500000000E+03 0.  0.
        -11    1    3    3    0    0  0.10083280628E+02 -0.25394371162E+02  0.27308080215E+02  0.38630012687E+02  0.51100000000E-03 0. -1.
         23    2    1    0    0    0 -0.16249267799E+02  0.22101298950E+02  0.63344490075E+01  0.96846290413E+02  0.92663761003E+02 0.  0.
         11    1    3    3    0    0 -0.26332548427E+02  0.47495670112E+02 -0.20973631207E+02  0.58216277726E+02  0.51100000000E-03 0.  1.
         22    1    1    0    0    0  0.16249267799E+02 -0.22101298950E+02 -0.63344490075E+01  0.28153709587E+02  0.00000000000E+00 0. -1.
</event>
<event>
 5    1  0.8778268E-005  0.9118800E+02  0.7818608E-02  0.1130116E+00
         25   -1    0    0    0    0  0.00000000000E+00  0.00000000000E+00  0.99999998245E-14  0.12500000000E+03  0.12500000000E+03 0.  0.
        -11    1    3    3    0    0  0.27268961516E+01  0.22566699892E+02 -0.32439485116E+02  0.39610757396E+02  0.51100000000E-03 0. -1.
         23    2    1    0    0    0 -0.21121460780E+02 -0.20219247546E+02 -0.64664914899E+01  0.95054222518E+02  0.90213943653E+02 0.  0.
         11    1    3    3    0    0 -0.23848356932E+02 -0.42785947438E+02  0.25972993626E+02  0.55443465122E+02  0.51100000000E-03 0.  1.
         22    1    1    0    0    0  0.21121460780E+02  0.20219247546E+02  0.64664914899E+01  0.29945777482E+02  0.00000000000E+00 0.  1.
</event>
<event>
 5    1  0.8778268E-005  0.9118800E+02  0.7818608E-02  0.1130116E+00
         25   -1    0    0    0    0  0.00000000000E+00  0.00000000000E+00  0.99999998245E-14  0.12500000000E+03  0.12500000000E+03 0.  0.
        -11    1    3    3    0    0 -0.40717087825E+02 -0.34364607124E+02 -0.28436859133E+02  0.60394225067E+02  0.51100000000E-03 0.  1.
         23    2    1    0    0    0 -0.21740210622E+02 -0.14680588918E+02 -0.15805981430E+01  0.98719689131E+02  0.95157355379E+02 0.  0.
         11    1    3    3    0    0  0.18976877203E+02  0.19684018206E+02  0.26856260990E+02  0.38325464065E+02  0.51100000000E-03 0. -1.
         22    1    1    0    0    0  0.21740210622E+02  0.14680588918E+02  0.15805981430E+01  0.26280310869E+02  0.00000000000E+00 0.  1.
</event>
<event>
 5    1  0.8778268E-005  0.9118800E+02  0.7818608E-02  0.1130116E+00
         25   -1    0    0    0    0  0.00000000000E+00  0.00000000000E+00  0.99999998245E-14  0.12500000000E+03  0.12500000000E+03 0.  0.
        -11    1    3    3    0    0  0.13978318500E+02  0.32525937795E+02 -0.66334419588E+01  0.36018503161E+02  0.51100000000E-03 0. -1.
         23    2    1    0    0    0 -0.43873548089E+01 -0.23280515370E+02 -0.17216013124E+02  0.95714809442E+02  0.91124652870E+02 0.  0.
         11    1    3    3    0    0 -0.18365673309E+02 -0.55806453164E+02 -0.10582571165E+02  0.59696306281E+02  0.51100000000E-03 0.  1.
         22    1    1    0    0    0  0.43873548089E+01  0.23280515370E+02  0.17216013124E+02  0.29285190558E+02  0.00000000000E+00 0.  1.
</event>
<event>
 5    1  0.8778268E-005  0.9118800E+02  0.7818608E-02  0.1130116E+00
         25   -1    0    0    0    0  0.00000000000E+00  0.00000000000E+00  0.99999998245E-14  0.12500000000E+03  0.12500000000E+03 0.  0.
        -11    1    3    3    0    0  0.95842183654E+01  0.34376354640E+02  0.85768762289E+01  0.36703593913E+02  0.51100000000E-03 0. -1.
         23    2    1    0    0    0 -0.21001452245E+02 -0.52068299452E+01 -0.21025771684E+02  0.94829564979E+02  0.89902120357E+02 0.  0.
         11    1    3    3    0    0 -0.30585670610E+02 -0.39583184585E+02 -0.29602647913E+02  0.58125971066E+02  0.51100000000E-03 0.  1.
         22    1    1    0    0    0  0.21001452245E+02  0.52068299452E+01  0.21025771684E+02  0.30170435021E+02  0.00000000000E+00 0.  1.
</event>
<event>
 5    1  0.8778268E-005  0.9118800E+02  0.7818608E-02  0.1130116E+00
         25   -1    0    0    0    0  0.00000000000E+00  0.00000000000E+00  0.99999998245E-14  0.12500000000E+03  0.12500000000E+03 0.  0.
        -11    1    3    3    0    0  0.47622434489E+02  0.14977292934E+02  0.23631237607E+02  0.55232698299E+02  0.51100000000E-03 0.  1.
         23    2    1    0    0    0  0.50793980753E+01  0.20527843245E+02  0.15200555690E+02  0.98956775807E+02  0.95468287676E+02 0.  0.
         11    1    3    3    0    0 -0.42543036414E+02  0.55505503104E+01 -0.84306819174E+01  0.43724077508E+02  0.51100000000E-03 0. -1.
         22    1    1    0    0    0 -0.50793980753E+01 -0.20527843245E+02 -0.15200555690E+02  0.26043224193E+02  0.00000000000E+00 0.  1.
</event>
<event>
 5    1  0.8778268E-005  0.9118800E+02  0.7818608E-02  0.1130116E+00
         25   -1    0    0    0    0  0.00000000000E+00  0.00000000000E+00  0.99999998245E-14  0.12500000000E+03  0.12500000000E+03 0.  0.
        -11    1    3    3    0    0 -0.35201204044E+02 -0.18944894336E+02 -0.23996237658E+02  0.46624598761E+02  0.51100000000E-03 0.  1.
         23    2    1    0    0    0  0.11264864800E+02 -0.19000464418E+01 -0.26459637440E+02  0.96179525179E+02  0.91759911153E+02 0.  0.
         11    1    3    3    0    0  0.46466068844E+02  0.17044847894E+02 -0.24633997818E+01  0.49554926418E+02  0.51100000000E-03 0. -1.
         22    1    1    0    0    0 -0.11264864800E+02  0.19000464418E+01  0.26459637440E+02  0.28820474821E+02  0.00000000000E+00 0. -1.
</event>
<event>
 5    1  0.8778268E-005  0.9118800E+02  0.7818608E-02  0.1130116E+00
         25   -1    0    0    0    0  0.00000000000E+00  0.00000000000E+00  0.99999998245E-14  0.12500000000E+03  0.12500000000E+03 0.  0.
        -11    1    3    3    0    0 -0.92368774862E+01  0.54204029709E+01 -0.53800532189E+02  0.54856156794E+02  0.51100000000E-03 0. -1.
         23    2    1    0    0    0 -0.20621077296E+02 -0.10004161513E+02 -0.16618316737E+02  0.96689568573E+02  0.92452107295E+02 0.  0.
         11    1    3    3    0    0 -0.11384199810E+02 -0.15424564484E+02  0.37182215453E+02  0.41833411779E+02  0.51100000000E-03 0.  1.
         22    1    1    0    0    0  0.20621077296E+02  0.10004161513E+02  0.16618316737E+02  0.28310431427E+02  0.00000000000E+00 0. -1.
</event>
<event>
 5    1  0.8778268E-005  0.9118800E+02  0.7818608E-02  0.1130116E+00
         25   -1    0    0    0    0  0.00000000000E+00  0.00000000000E+00  0.99999998245E-14  0.12500000000E+03  0.12500000000E+03 0.  0.
        -11    1    3    3    0    0  0.22005357662E+02  0.25505423572E+02 -0.47553484354E+02  0.58276035142E+02  0.51100000000E-03 0.  1.
         23    2    1    0    0    0  0.23801763871E+02  0.90988700848E+01 -0.13396640471E+02  0.96211401977E+02  0.91803325072E+02 0.  0.
         11    1    3    3    0    0  0.17964062093E+01 -0.16406553487E+02  0.34156843883E+02  0.37935366835E+02  0.51100000000E-03 0. -1.
         22    1    1    0    0    0 -0.23801763871E+02 -0.90988700848E+01  0.13396640471E+02  0.28788598023E+02  0.00000000000E+00 0.  1.
</event>
<event>
 5    1  0.8778268E-005  0.9118800E+02  0.7818608E-02  0.1130116E+00
         25   -1    0    0    0    0  0.00000000000E+00  0.00000000000E+00  0.99999998245E-14  0.12500000000E+03  0.12500000000E+03 0.  0.
        -11    1    3    3    0    0  0.16811211396E+02  0.40397490722E+02  0.24540002954E+02  0.50167577482E+02  0.51100000000E-03 0. -1.
         23    2    1    0    0    0  0.18242098229E+02  0.17912479903E+02 -0.14768172584E+02  0.95474925816E+02  0.90794996856E+02 0.  0.
         11    1    3    3    0    0  0.14308868334E+01 -0.22485010819E+02 -0.39308175538E+02  0.45307348334E+02  0.51100000000E-03 0.  1.
         22    1    1    0    0    0 -0.18242098229E+02 -0.17912479903E+02  0.14768172584E+02  0.29525074184E+02  0.00000000000E+00 0. -1.
</event>
<event>
 5    1  0.8778268E-005  0.9118800E+02  0.7818608E-02  0.1130116E+00
         25   -1    0    0    0    0  0.00000000000E+00  0.00000000000E+00  0.99999998245E-14  0.12500000000E+03  0.12500000000E+03 0.  0.
        -11    1    3    3    0    0  0.60182283436E+01 -0.15983802235E+02 -0.31793961314E+02  0.36090954304E+02  0.51100000000E-03 0.  1.
         23    2    1    0    0    0 -0.14385560034E+02 -0.21355407804E+02  0.20245633240E+02  0.92245100439E+02  0.86233839702E+02 0.  0.
         11    1    3    3    0    0 -0.20403788378E+02 -0.53716055685E+01  0.52039594554E+02  0.56154146135E+02  0.51100000000E-03 0. -1.
         22    1    1    0    0    0  0.14385560034E+02  0.21355407804E+02 -0.20245633240E+02  0.32754899561E+02  0.00000000000E+00 0. -1.
</event>
<event>
 5    1  0.8778268E-005  0.9118800E+02  0.7818608E-02  0.1130116E+00
         25   -1    0    0    0    0  0.00000000000E+00  0.00000000000E+00  0.99999998245E-14  0.12500000000E+03  0.12500000000E+03 0.  0.
        -11    1    3    3    0    0  0.17869322414E+02 -0.21337291966E+02  0.22618208189E+02  0.35863296752E+02  0.51100000000E-03 0. -1.
         23    2    1    0    0    0 -0.25442628948E+02  0.80693044188E+01 -0.87714148767E+01  0.96904114883E+02  0.92741731280E+02 0.  0.
         11    1    3    3    0    0 -0.43311951362E+02  0.29406596384E+02 -0.31389623065E+02  0.61040818131E+02  0.51100000000E-03 0.  1.
         22    1    1    0    0    0  0.25442628948E+02 -0.80693044188E+01  0.87714148767E+01  0.28095885117E+02  0.00000000000E+00 0.  1.
</event>
<event>
 5    1  0.8778268E-005  0.9118800E+02  0.7818608E-02  0.1130116E+00
         25   -1    0    0    0    0  0.00000000000E+00  0.00000000000E+00  0.99999998245E-14  0.12500000000E+03  0.12500000000E+03 0.  0.
        -11    1    3    3    0    0  0.45685735694E+02 -0.14605772605E+02  0.11347465877E+02  0.49287726884E+02  0.51100000000E-03 0.  1.
         23    2    1    0    0    0  0.19035929900E+01 -0.23881439255E+02  0.18657511950E+02  0.94634731035E+02  0.89630813668E+02 0.  0.
         11    1    3    3    0    0 -0.43782142704E+02 -0.92756666498E+01  0.73100460726E+01  0.45347004150E+02  0.51100000000E-03 0. -1.
         22    1    1    0    0    0 -0.19035929900E+01  0.23881439255E+02 -0.18657511950E+02  0.30365268965E+02  0.00000000000E+00 0.  1.
</event>
<event>
 5    1  0.8778268E-005  0.9118800E+02  0.7818608E-02  0.1130116E+00
         25   -1    0    0    0    0  0.00000000000E+00  0.00000000000E+00  0.99999998245E-14  0.12500000000E+03  0.12500000000E+03 0.  0.
        -11    1    3    3    0    0  0.12719276894E+02 -0.38110395908E+02 -0.24687509503E+01  0.40252664663E+02  0.51100000000E-03 0.  1.
         23    2    1    0    0    0  0.24629686409E+02  0.14632933250E+02 -0.95852723600E+01  0.94790371827E+02  0.89847609633E+02 0.  0.
         11    1    3    3    0    0  0.11910409515E+02  0.52743329158E+02 -0.71165214097E+01  0.54537707164E+02  0.51100000000E-03 0. -1.
         22    1    1    0    0    0 -0.24629686409E+02 -0.14632933250E+02  0.95852723600E+01  0.30209628173E+02  0.00000000000E+00 0. -1.
</event>
<event>
 5    1  0.8778268E-005  0.9118800E+02  0.7818608E-02  0.1130116E+00
         25   -1    0    0    0    0  0.00000000000E+00  0.00000000000E+00  0.99999998245E-14  0.12500000000E+03  0.12500000000E+03 0.  0.
        -11    1    3    3    0    0  0.65787665525E+01 -0.19074435913E+02 -0.44658991566E+02  0.49005507882E+02  0.51100000000E-03 0.  1.
         23    2    1    0    0    0  0.27559807724E+02 -0.35823680931E+00 -0.60252132879E+01  0.96786979415E+02  0.92583718081E+02 0.  0.
         11    1    3    3    0    0  0.20981041171E+02  0.18716199104E+02  0.38633778279E+02  0.47781471533E+02  0.51100000000E-03 0. -1.
         22    1    1    0    0    0 -0.27559807724E+02  0.35823680931E+00  0.60252132879E+01  0.28213020585E+02  0.00000000000E+00 0. -1.
</event>
<event>
 5    1  0.8778268E-005  0.9118800E+02  0.7818608E-02  0.1130116E+00
         25   -1    0    0    0    0  0.00000000000E+00  0.00000000000E+00  0.99999998245E-14  0.12500000000E+03  0.12500000000E+03 0.  0.
        -11    1    3    3    0    0 -0.31839746000E+02 -0.31592691513E+01  0.36171531640E+02  0.48292132986E+02  0.51100000000E-03 0.  1.
         23    2    1    0    0    0 -0.20943894457E+02  0.19145398821E+02 -0.48233538651E+01  0.96217057942E+02  0.91811025947E+02 0.  0.
         11    1    3    3    0    0  0.10895851543E+02  0.22304667972E+02 -0.40994885505E+02  0.47924924956E+02  0.51100000000E-03 0. -1.
         22    1    1    0    0    0  0.20943894457E+02 -0.19145398821E+02  0.48233538651E+01  0.28782942058E+02  0.00000000000E+00 0. -1.
</event>
<event>
 5    1  0.8778268E-005  0.9118800E+02  0.7818608E-02  0.1130116E+00
         25   -1    0    0    0    0  0.00000000000E+00  0.00000000000E+00  0.99999998245E-14  0.12500000000E+03  0.12500000000E+03 0.  0.
        -11    1    3    3    0    0 -0.14147869633E+02 -0.30433110050E+02 -0.16610177041E+02  0.37446420177E+02  0.51100000000E-03 0.  1.
         23    2    1    0    0    0  0.45392002286E+01  0.24186633828E+00  0.29081132067E+02  0.95565749877E+02  0.90919950886E+02 0.  0.
         11    1    3    3    0    0  0.18687069861E+02  0.30674976389E+02  0.45691309108E+02  0.58119329699E+02  0.51100000000E-03 0. -1.
         22    1    1    0    0    0 -0.45392002286E+01 -0.24186633828E+00 -0.29081132067E+02  0.29434250123E+02  0.00000000000E+00 0. -1.
</event>
<event>
 5    1  0.8778268E-005  0.9118800E+02  0.7818608E-02  0.1130116E+00
         25   -1    0    0    0    0  0.00000000000E+00  0.00000000000E+00  0.99999998245E-14  0.12500000000E+03  0.12500000000E+03 0.  0.
        -11    1    3    3    0    0 -0.16836421596E+01 -0.25999259182E+02 -0.21643841975E+02  0.33871108996E+02  0.51100000000E-03 0. -1.
         23    2    1    0    0    0  0.11513296959E+02  0.12491658946E+02  0.24368385016E+02  0.95294516695E+02  0.90546281943E+02 0.  0.
         11    1    3    3    0    0  0.13196939119E+02  0.38490918128E+02  0.46012226991E+02  0.61423407699E+02  0.51100000000E-03 0.  1.
         22    1    1    0    0    0 -0.11513296959E+02 -0.12491658946E+02 -0.24368385016E+02  0.29705483305E+02  0.00000000000E+00 0.  1.
</event>
<event>
 5    1  0.8778268E-005  0.9118800E+02  0.7818608E-02  0.1130116E+00
         25   -1    0    0    0    0  0.00000000000E+00  0.00000000000E+00  0.99999998245E-14  0.12500000000E+03  0.12500000000E+03 0.  0.
        -11    1    3    3    0    0  0.26073553781E+02 -0.53868613910E+02 -0.16104596698E+02  0.61975929250E+02  0.51100000000E-03 0. -1.
         23    2    1    0    0    0  0.13008602608E+02 -0.21652238218E+02 -0.12166802123E+02  0.96962984546E+02  0.92821043608E+02 0.  0.
         11    1    3    3    0    0 -0.13064951173E+02  0.32216375692E+02  0.39377945750E+01  0.34987055296E+02  0.51100000000E-03 0.  1.
         22    1    1    0    0    0 -0.13008602608E+02  0.21652238218E+02  0.12166802123E+02  0.28037015454E+02  0.00000000000E+00 0. -1.
</event>
<event>
 5    1  0.8778268E-005  0.9118800E+02  0.7818608E-02  0.1130116E+00
         25   -1    0    0    0    0  0.00000000000E+00  0.00000000000E+00  0.99999998245E-14  0.12500000000E+03  0.12500000000E+03 0.  0.
        -11    1    3    3    0    0 -0.81032463153E+01  0.11040041788E+02  0.44189588030E+02  0.46262996163E+02  0.51100000000E-03 0. -1.
         23    2    1    0    0    0  0.41646897841E+01 -0.25684577554E+02  0.13399583962E+02  0.95732423820E+02  0.91148812142E+02 0.  0.
         11    1    3    3    0    0  0.12267936099E+02 -0.36724619341E+02 -0.30790004068E+02  0.49469427657E+02  0.51100000000E-03 0.  1.
         22    1    1    0    0    0 -0.41646897841E+01  0.25684577554E+02 -0.13399583962E+02  0.29267576180E+02  0.00000000000E+00 0.  1.
</event>
<event>
 5    1  0.8778268E-005  0.9118800E+02  0.7818608E-02  0.1130116E+00
         25   -1    0    0    0    0  0.00000000000E+00  0.00000000000E+00  0.99999998245E-14  0.12500000000E+03  0.12500000000E+03 0.  0.
        -11    1    3    3    0    0 -0.31890635774E+02  0.17047688074E+02 -0.12243218346E+02  0.38177646790E+02  0.51100000000E-03 0.  1.
         23    2    1    0    0    0  0.48523948592E+01  0.66746428267E+00  0.28881086116E+02  0.95706513016E+02  0.91113271558E+02 0.  0.
         11    1    3    3    0    0  0.36743030633E+02 -0.16380223791E+02  0.41124304462E+02  0.57528866226E+02  0.51100000000E-03 0. -1.
         22    1    1    0    0    0 -0.48523948592E+01 -0.66746428267E+00 -0.28881086116E+02  0.29293486984E+02  0.00000000000E+00 0. -1.
</event>
<event>
 5    1  0.8778268E-005  0.9118800E+02  0.7818608E-02  0.1130116E+00
         25   -1    0    0    0    0  0.00000000000E+00  0.00000000000E+00  0.99999998245E-14  0.12500000000E+03  0.12500000000E+03 0.  0.
        -11    1    3    3    0    0 -0.10655263266E+01 -0.38595067556E+02 -0.15179406273E+02  0.41486491308E+02  0.51100000000E-03 0.  1.
         23    2    1    0    0    0  0.20456771525E+02  0.13300335747E+02 -0.12130880382E+02  0.97750473563E+02  0.93875547352E+02 0.  0.
         11    1    3    3    0    0  0.21522297851E+02  0.51895403303E+02  0.30485258913E+01  0.56263982255E+02  0.51100000000E-03 0. -1.
         22    1    1    0    0    0 -0.20456771525E+02 -0.13300335747E+02  0.12130880382E+02  0.27249526437E+02  0.00000000000E+00 0.  1.
</event>
<event>
 5    1  0.8778268E-005  0.9118800E+02  0.7818608E-02  0.1130116E+00
         25   -1    0    0    0    0  0.00000000000E+00  0.00000000000E+00  0.99999998245E-14  0.12500000000E+03  0.12500000000E+03 0.  0.
        -11    1    3    3    0    0  0.55596424092E+01  0.12109128294E+02  0.47316695499E+02  0.49156996297E+02  0.51100000000E-03 0. -1.
         23    2    1    0    0    0  0.72505897185E+01 -0.22996442119E+02  0.18435144571E+02  0.94647702612E+02  0.89648902129E+02 0.  0.
         11    1    3    3    0    0  0.16909473093E+01 -0.35105570412E+02 -0.28881550928E+02  0.45490706315E+02  0.51100000000E-03 0.  1.
         22    1    1    0    0    0 -0.72505897185E+01  0.22996442119E+02 -0.18435144571E+02  0.30352297388E+02  0.00000000000E+00 0.  1.
</event>
<event>
 5    1  0.8778268E-005  0.9118800E+02  0.7818608E-02  0.1130116E+00
         25   -1    0    0    0    0  0.00000000000E+00  0.00000000000E+00  0.99999998245E-14  0.12500000000E+03  0.12500000000E+03 0.  0.
        -11    1    3    3    0    0 -0.14058849658E+02  0.19574154254E+02 -0.44828306877E+02  0.50895735245E+02  0.51100000000E-03 0.  1.
         23    2    1    0    0    0 -0.12405611261E+02  0.27665261638E+02 -0.18891661999E+01  0.94621803194E+02  0.89612782562E+02 0.  0.
         11    1    3    3    0    0  0.16532383969E+01  0.80911073843E+01  0.42939140677E+02  0.43726067949E+02  0.51100000000E-03 0. -1.
         22    1    1    0    0    0  0.12405611261E+02 -0.27665261638E+02  0.18891661999E+01  0.30378196806E+02  0.00000000000E+00 0.  1.
</event>
<event>
 5    1  0.8778268E-005  0.9118800E+02  0.7818608E-02  0.1130116E+00
         25   -1    0    0    0    0  0.00000000000E+00  0.00000000000E+00  0.99999998245E-14  0.12500000000E+03  0.12500000000E+03 0.  0.
        -11    1    3    3    0    0 -0.57274746570E+02  0.19270421284E+02  0.83059365811E+01  0.60997822206E+02  0.51100000000E-03 0.  1.
         23    2    1    0    0    0 -0.30874960166E+02  0.47295671529E+01 -0.39146260162E+01  0.93520542134E+02  0.88063247348E+02 0.  0.
         11    1    3    3    0    0  0.26399786404E+02 -0.14540854132E+02 -0.12220562597E+02  0.32522719928E+02  0.51100000000E-03 0. -1.
         22    1    1    0    0    0  0.30874960166E+02 -0.47295671529E+01  0.39146260162E+01  0.31479457866E+02  0.00000000000E+00 0.  1.
</event>
<event>
 5    1  0.8778268E-005  0.9118800E+02  0.7818608E-02  0.1130116E+00
         25   -1    0    0    0    0  0.00000000000E+00  0.00000000000E+00  0.99999998245E-14  0.12500000000E+03  0.12500000000E+03 0.  0.
        -11    1    3    3    0    0  0.13634539021E+02  0.29101250699E+02 -0.37251796257E+02  0.49198371632E+02  0.51100000000E-03 0.  1.
         23    2    1    0    0    0  0.15378701815E+02 -0.13612303104E+02 -0.22775413629E+02  0.94332122159E+02  0.89207794165E+02 0.  0.
         11    1    3    3    0    0  0.17441627933E+01 -0.42713553803E+02  0.14476382629E+02  0.45133750527E+02  0.51100000000E-03 0. -1.
         22    1    1    0    0    0 -0.15378701815E+02  0.13612303104E+02  0.22775413629E+02  0.30667877841E+02  0.00000000000E+00 0. -1.
</event>
<event>
 5    1  0.8778268E-005  0.9118800E+02  0.7818608E-02  0.1130116E+00
         25   -1    0    0    0    0  0.00000000000E+00  0.00000000000E+00  0.99999998245E-14  0.12500000000E+03  0.12500000000E+03 0.  0.
        -11    1    3    3    0    0 -0.13389844462E+02  0.36597811870E+02  0.36179710442E+02  0.53175738982E+02  0.51100000000E-03 0. -1.
         23    2    1    0    0    0  0.14527286954E+02  0.23614276330E+02  0.53171519290E+01  0.96769728703E+02  0.92560424458E+02 0.  0.
         11    1    3    3    0    0  0.27917131416E+02 -0.12983535540E+02 -0.30862558513E+02  0.43593989721E+02  0.51100000000E-03 0.  1.
         22    1    1    0    0    0 -0.14527286954E+02 -0.23614276330E+02 -0.53171519290E+01  0.28230271297E+02  0.00000000000E+00 0. -1.
</event>
<event>
 5    1  0.8778268E-005  0.9118800E+02  0.7818608E-02  0.1130116E+00
         25   -1    0    0    0    0  0.00000000000E+00  0.00000000000E+00  0.99999998245E-14  0.12500000000E+03  0.12500000000E+03 0.  0.
        -11    1    3    3    0    0  0.56826159033E+02  0.19676446883E+01 -0.15468266271E+02  0.58926659822E+02  0.51100000000E-03 0.  1.
         23    2    1    0    0    0  0.22807537148E+02  0.15066315113E+01 -0.21663378004E+02  0.93507848028E+02  0.88045227054E+02 0.  0.
         11    1    3    3    0    0 -0.34018621885E+02 -0.46101317702E+00 -0.61951117339E+01  0.34581188206E+02  0.51100000000E-03 0. -1.
         22    1    1    0    0    0 -0.22807537148E+02 -0.15066315113E+01  0.21663378004E+02  0.31492151972E+02  0.00000000000E+00 0. -1.
</event>
<event>
 5    1  0.8778268E-005  0.9118800E+02  0.7818608E-02  0.1130116E+00
         25   -1    0    0    0    0  0.00000000000E+00  0.00000000000E+00  0.99999998245E-14  0.12500000000E+03  0.12500000000E+03 0.  0.
        -11    1    3    3    0    0 -0.27198667062E+02  0.32319213399E+01  0.22955590404E+02  0.35737542397E+02  0.51100000000E-03 0.  1.
         23    2    1    0    0    0  0.13683749796E+02 -0.13914036109E+02 -0.19708259688E+02  0.97264446837E+02  0.93226132116E+02 0.  0.
         11    1    3    3    0    0  0.40882416858E+02 -0.17145957449E+02 -0.42663850092E+02  0.61526904440E+02  0.51100000000E-03 0. -1.
         22    1    1    0    0    0 -0.13683749796E+02  0.13914036109E+02  0.19708259688E+02  0.27735553163E+02  0.00000000000E+00 0. -1.
</event>
<event>
 5    1  0.8778268E-005  0.9118800E+02  0.7818608E-02  0.1130116E+00
         25   -1    0    0    0    0  0.00000000000E+00  0.00000000000E+00  0.99999998245E-14  0.12500000000E+03  0.12500000000E+03 0.  0.
        -11    1    3    3    0    0 -0.30248855229E+02 -0.22867123810E+02 -0.45754379556E+02  0.59425262665E+02  0.51100000000E-03 0.  1.
         23    2    1    0    0    0 -0.13217666023E+02  0.22185551202E+01 -0.26388836914E+02  0.95402713036E+02  0.90695525022E+02 0.  0.
         11    1    3    3    0    0  0.17031189206E+02  0.25085678930E+02  0.19365542641E+02  0.35977450371E+02  0.51100000000E-03 0. -1.
         22    1    1    0    0    0  0.13217666023E+02 -0.22185551202E+01  0.26388836914E+02  0.29597286964E+02  0.00000000000E+00 0.  1.
</event>
<event>
 5    1  0.8778268E-005  0.9118800E+02  0.7818608E-02  0.1130116E+00
         25   -1    0    0    0    0  0.00000000000E+00  0.00000000000E+00  0.99999998245E-14  0.12500000000E+03  0.12500000000E+03 0.  0.
        -11    1    3    3    0    0 -0.38079819330E+02 -0.18142373943E+02 -0.43868671958E+02  0.60857856946E+02  0.51100000000E-03 0.  1.
         23    2    1    0    0    0 -0.13221207850E+02 -0.10283983509E+01 -0.25687908143E+02  0.96091064271E+02  0.91639325989E+02 0.  0.
         11    1    3    3    0    0  0.24858611480E+02  0.17113975592E+02  0.18180763814E+02  0.35233207325E+02  0.51100000000E-03 0. -1.
         22    1    1    0    0    0  0.13221207850E+02  0.10283983509E+01  0.25687908143E+02  0.28908935729E+02  0.00000000000E+00 0.  1.
</event>
<event>
 5    1  0.8778268E-005  0.9118800E+02  0.7818608E-02  0.1130116E+00
         25   -1    0    0    0    0  0.00000000000E+00  0.00000000000E+00  0.99999998245E-14  0.12500000000E+03  0.12500000000E+03 0.  0.
        -11    1    3    3    0    0 -0.11266959864E+02 -0.25561133504E+02  0.18898705295E+02  0.33726502823E+02  0.51100000000E-03 0. -1.
         23    2    1    0    0    0  0.28032598242E+01  0.26635265063E+02 -0.11619754666E+02  0.95805577431E+02  0.91249078668E+02 0.  0.
         11    1    3    3    0    0  0.14070219689E+02  0.52196398568E+02 -0.30518459961E+02  0.62079074608E+02  0.51100000000E-03 0.  1.
         22    1    1    0    0    0 -0.28032598242E+01 -0.26635265063E+02  0.11619754666E+02  0.29194422569E+02  0.00000000000E+00 0.  1.
</event>
<event>
 5    1  0.8778268E-005  0.9118800E+02  0.7818608E-02  0.1130116E+00
         25   -1    0    0    0    0  0.00000000000E+00  0.00000000000E+00  0.99999998245E-14  0.12500000000E+03  0.12500000000E+03 0.  0.
        -11    1    3    3    0    0  0.10646642204E+02  0.49942045434E+02  0.74962432222E+01  0.51611554472E+02  0.51100000000E-03 0. -1.
         23    2    1    0    0    0 -0.18366007044E+02  0.32985486947E+02  0.11692552333E+02  0.85476989690E+02  0.75790813576E+02 0.  0.
         11    1    3    3    0    0 -0.29012649248E+02 -0.16956558487E+02  0.41963091106E+01  0.33865435218E+02  0.51100000000E-03 0.  1.
         22    1    1    0    0    0  0.18366007044E+02 -0.32985486947E+02 -0.11692552333E+02  0.39523010310E+02  0.00000000000E+00 0. -1.
</event>
<event>
 5    1  0.8778268E-005  0.9118800E+02  0.7818608E-02  0.1130116E+00
         25   -1    0    0    0    0  0.00000000000E+00  0.00000000000E+00  0.99999998245E-14  0.12500000000E+03  0.12500000000E+03 0.  0.
        -11    1    3    3    0    0 -0.65209610009E+01  0.53078438935E+01 -0.41945601082E+02  0.42780013903E+02  0.51100000000E-03 0.  1.
         23    2    1    0    0    0 -0.20320761613E+02  0.20444162431E+02  0.65641023217E+01  0.95436769978E+02  0.90742451447E+02 0.  0.
         11    1    3    3    0    0 -0.13799800612E+02  0.15136318537E+02  0.48509703404E+02  0.52656756075E+02  0.51100000000E-03 0. -1.
         22    1    1    0    0    0  0.20320761613E+02 -0.20444162431E+02 -0.65641023217E+01  0.29563230022E+02  0.00000000000E+00 0.  1.
</event>
<event>
 5    1  0.8778268E-005  0.9118800E+02  0.7818608E-02  0.1130116E+00
         25   -1    0    0    0    0  0.00000000000E+00  0.00000000000E+00  0.99999998245E-14  0.12500000000E+03  0.12500000000E+03 0.  0.
        -11    1    3    3    0    0  0.34208218161E+02  0.26798865633E+02  0.36637478210E+02  0.56839125599E+02  0.51100000000E-03 0.  1.
         23    2    1    0    0    0  0.20726460268E+02  0.19344764487E+02 -0.70286868093E-01  0.96648439045E+02  0.92396481325E+02 0.  0.
         11    1    3    3    0    0 -0.13481757892E+02 -0.74541011454E+01 -0.36707765079E+02  0.39809313446E+02  0.51100000000E-03 0. -1.
         22    1    1    0    0    0 -0.20726460268E+02 -0.19344764487E+02  0.70286868093E-01  0.28351560955E+02  0.00000000000E+00 0.  1.
</event>
<event>
 5    1  0.8778268E-005  0.9118800E+02  0.7818608E-02  0.1130116E+00
         25   -1    0    0    0    0  0.00000000000E+00  0.00000000000E+00  0.99999998245E-14  0.12500000000E+03  0.12500000000E+03 0.  0.
        -11    1    3    3    0    0 -0.30007158110E+02 -0.14903987909E+02 -0.45868689547E+02  0.56802245329E+02  0.51100000000E-03 0.  1.
         23    2    1    0    0    0  0.37605027568E+01 -0.13204184580E+02 -0.24839022196E+02  0.96619216095E+02  0.92356938146E+02 0.  0.
         11    1    3    3    0    0  0.33767660867E+02  0.16998033293E+01  0.21029667351E+02  0.39816970766E+02  0.51100000000E-03 0. -1.
         22    1    1    0    0    0 -0.37605027568E+01  0.13204184580E+02  0.24839022196E+02  0.28380783905E+02  0.00000000000E+00 0.  1.
</event>
<event>
 5    1  0.8778268E-005  0.9118800E+02  0.7818608E-02  0.1130116E+00
         25   -1    0    0    0    0  0.00000000000E+00  0.00000000000E+00  0.99999998245E-14  0.12500000000E+03  0.12500000000E+03 0.  0.
        -11    1    3    3    0    0  0.98349843568E+01 -0.14999268018E+02  0.27101131031E+02  0.32498865547E+02  0.51100000000E-03 0. -1.
         23    2    1    0    0    0 -0.93445529232E+01  0.20133099385E+02 -0.20564654372E+02  0.94741656198E+02  0.89779808696E+02 0.  0.
         11    1    3    3    0    0 -0.19179537280E+02  0.35132367404E+02 -0.47665785403E+02  0.62242790651E+02  0.51100000000E-03 0.  1.
         22    1    1    0    0    0  0.93445529232E+01 -0.20133099385E+02  0.20564654372E+02  0.30258343802E+02  0.00000000000E+00 0.  1.
</event>
<event>
 5    1  0.8778268E-005  0.9118800E+02  0.7818608E-02  0.1130116E+00
         25   -1    0    0    0    0  0.00000000000E+00  0.00000000000E+00  0.99999998245E-14  0.12500000000E+03  0.12500000000E+03 0.  0.
        -11    1    3    3    0    0  0.19377973653E+02 -0.33786828199E+02 -0.40661758795E+02  0.56306609303E+02  0.51100000000E-03 0. -1.
         23    2    1    0    0    0 -0.72997392710E+01 -0.81318035535E+01 -0.27193824572E+02  0.95692722451E+02  0.91094350060E+02 0.  0.
         11    1    3    3    0    0 -0.26677712924E+02  0.25655024646E+02  0.13467934223E+02  0.39386113148E+02  0.51100000000E-03 0.  1.
         22    1    1    0    0    0  0.72997392710E+01  0.81318035535E+01  0.27193824572E+02  0.29307277549E+02  0.00000000000E+00 0. -1.
</event>
<event>
 5    1  0.8778268E-005  0.9118800E+02  0.7818608E-02  0.1130116E+00
         25   -1    0    0    0    0  0.00000000000E+00  0.00000000000E+00  0.99999998245E-14  0.12500000000E+03  0.12500000000E+03 0.  0.
        -11    1    3    3    0    0 -0.51175845762E+02  0.14065561642E+01  0.52061040014E+01  0.51459198486E+02  0.51100000000E-03 0.  1.
         23    2    1    0    0    0 -0.18625198611E+02  0.16905638670E+02 -0.17763096837E+02  0.94206717431E+02  0.89031900787E+02 0.  0.
         11    1    3    3    0    0  0.32550647151E+02  0.15499082506E+02 -0.22969200839E+02  0.42747518945E+02  0.51100000000E-03 0. -1.
         22    1    1    0    0    0  0.18625198611E+02 -0.16905638670E+02  0.17763096837E+02  0.30793282569E+02  0.00000000000E+00 0.  1.
</event>
<event>
 5    1  0.8778268E-005  0.9118800E+02  0.7818608E-02  0.1130116E+00
         25   -1    0    0    0    0  0.00000000000E+00  0.00000000000E+00  0.99999998245E-14  0.12500000000E+03  0.12500000000E+03 0.  0.
        -11    1    3    3    0    0 -0.16720918904E+02 -0.37440954202E+02 -0.59020772423E+01  0.41427632042E+02  0.51100000000E-03 0. -1.
         23    2    1    0    0    0  0.25237165181E+02 -0.36321194496E+01 -0.13992147711E+02  0.95915863505E+02  0.91400032146E+02 0.  0.
         11    1    3    3    0    0  0.41958084086E+02  0.33808834753E+02 -0.80900704687E+01  0.54488231463E+02  0.51100000000E-03 0.  1.
         22    1    1    0    0    0 -0.25237165181E+02  0.36321194496E+01  0.13992147711E+02  0.29084136495E+02  0.00000000000E+00 0.  1.
</event>
<event>
 5    1  0.8778268E-005  0.9118800E+02  0.7818608E-02  0.1130116E+00
         25   -1    0    0    0    0  0.00000000000E+00  0.00000000000E+00  0.99999998245E-14  0.12500000000E+03  0.12500000000E+03 0.  0.
        -11    1    3    3    0    0 -0.18760589032E-01  0.61225665588E+02  0.99260112539E+01  0.62025060889E+02  0.51100000000E-03 0.  1.
         23    2    1    0    0    0 -0.47269234518E+01  0.28202059250E+02  0.18589899593E+01  0.96344183925E+02  0.91983944150E+02 0.  0.
         11    1    3    3    0    0 -0.47081628628E+01 -0.33023606338E+02 -0.80670212946E+01  0.34319123036E+02  0.51100000000E-03 0. -1.
         22    1    1    0    0    0  0.47269234518E+01 -0.28202059250E+02 -0.18589899593E+01  0.28655816075E+02  0.00000000000E+00 0.  1.
</event>
<event>
 5    1  0.8778268E-005  0.9118800E+02  0.7818608E-02  0.1130116E+00
         25   -1    0    0    0    0  0.00000000000E+00  0.00000000000E+00  0.99999998245E-14  0.12500000000E+03  0.12500000000E+03 0.  0.
        -11    1    3    3    0    0  0.78792955353E+00 -0.33134891669E+02  0.17854418899E+02  0.37647339261E+02  0.51100000000E-03 0.  1.
         23    2    1    0    0    0 -0.27984857952E+02 -0.12948877067E+02 -0.19164840019E+02  0.88694121897E+02  0.80922991011E+02 0.  0.
         11    1    3    3    0    0 -0.28772787505E+02  0.20186014602E+02 -0.37019258919E+02  0.51046782636E+02  0.51100000000E-03 0. -1.
         22    1    1    0    0    0  0.27984857952E+02  0.12948877067E+02  0.19164840019E+02  0.36305878103E+02  0.00000000000E+00 0. -1.
</event>
<event>
 5    1  0.8778268E-005  0.9118800E+02  0.7818608E-02  0.1130116E+00
         25   -1    0    0    0    0  0.00000000000E+00  0.00000000000E+00  0.99999998245E-14  0.12500000000E+03  0.12500000000E+03 0.  0.
        -11    1    3    3    0    0 -0.26923480840E+02 -0.46924537958E+02 -0.20224338212E+02  0.57756470975E+02  0.51100000000E-03 0. -1.
         23    2    1    0    0    0 -0.10379807722E+01 -0.27788057909E+02  0.23795583643E+01  0.97090935801E+02  0.92993193032E+02 0.  0.
         11    1    3    3    0    0  0.25885500068E+02  0.19136480050E+02  0.22603896576E+02  0.39334464826E+02  0.51100000000E-03 0.  1.
         22    1    1    0    0    0  0.10379807722E+01  0.27788057909E+02 -0.23795583643E+01  0.27909064199E+02  0.00000000000E+00 0. -1.
</event>
<event>
 4    1  0.8778268E-005  0.9118800E+02  0.7818608E-02  0.1130116E+00
         25   -1    0    0    0    0  0.00000000000E+00  0.00000000000E+00  0.99999998245E-14  0.12500000000E+03  0.12500000000E+03 0.  0.
        -11    1    1    0    0    0 -0.51109971925E+02  0.20275491212E+02 -0.18586465254E+02  0.58041204889E+02  0.51100000000E-03 0.  1.
         11    1    1    0    0    0  0.19964918465E+01 -0.14770892293E+02  0.44844399226E+01  0.15565199662E+02  0.51100000000E-03 0. -1.
         22    1    1    0    0    0  0.49113480079E+02 -0.55045989192E+01  0.14102025331E+02  0.51393595449E+02  0.00000000000E+00 0.  1.
</event>
<event>
 5    1  0.8778268E-005  0.9118800E+02  0.7818608E-02  0.1130116E+00
         25   -1    0    0    0    0  0.00000000000E+00  0.00000000000E+00  0.99999998245E-14  0.12500000000E+03  0.12500000000E+03 0.  0.
        -11    1    3    3    0    0 -0.96946246515E+01  0.35977531133E+02 -0.58362336292E+01  0.37715117882E+02  0.51100000000E-03 0.  1.
         23    2    1    0    0    0  0.26644931125E+02 -0.82364939356E+01  0.67313300360E+01  0.96310228459E+02  0.91937789373E+02 0.  0.
         11    1    3    3    0    0  0.36339555777E+02 -0.44214025069E+02  0.12567563665E+02  0.58595110577E+02  0.51100000000E-03 0. -1.
         22    1    1    0    0    0 -0.26644931125E+02  0.82364939356E+01 -0.67313300360E+01  0.28689771541E+02  0.00000000000E+00 0. -1.
</event>
<event>
 5    1  0.8778268E-005  0.9118800E+02  0.7818608E-02  0.1130116E+00
         25   -1    0    0    0    0  0.00000000000E+00  0.00000000000E+00  0.99999998245E-14  0.12500000000E+03  0.12500000000E+03 0.  0.
        -11    1    3    3    0    0  0.25840509294E+02  0.52520820439E+02 -0.20321980616E+02  0.61960886021E+02  0.51100000000E-03 0.  1.
         23    2    1    0    0    0  0.13044488945E+02  0.21174996015E+02 -0.14181967289E+02  0.96370166883E+02  0.92019246470E+02 0.  0.
         11    1    3    3    0    0 -0.12796020349E+02 -0.31345824423E+02  0.61400133268E+01  0.34409280862E+02  0.51100000000E-03 0. -1.
         22    1    1    0    0    0 -0.13044488945E+02 -0.21174996015E+02  0.14181967289E+02  0.28629833117E+02  0.00000000000E+00 0.  1.
</event>
<event>
 5    1  0.8778268E-005  0.9118800E+02  0.7818608E-02  0.1130116E+00
         25   -1    0    0    0    0  0.00000000000E+00  0.00000000000E+00  0.99999998245E-14  0.12500000000E+03  0.12500000000E+03 0.  0.
        -11    1    3    3    0    0 -0.22211585752E+02  0.30131737677E+02  0.63846470345E+01  0.37974200124E+02  0.51100000000E-03 0.  1.
         23    2    1    0    0    0  0.28122207739E+02  0.53653959614E+01 -0.67440947940E+01  0.95586927115E+02  0.90949061451E+02 0.  0.
         11    1    3    3    0    0  0.50333793491E+02 -0.24766341716E+02 -0.13128741828E+02  0.57612726991E+02  0.51100000000E-03 0. -1.
         22    1    1    0    0    0 -0.28122207739E+02 -0.53653959614E+01  0.67440947940E+01  0.29413072885E+02  0.00000000000E+00 0. -1.
</event>
<event>
 5    1  0.8778268E-005  0.9118800E+02  0.7818608E-02  0.1130116E+00
         25   -1    0    0    0    0  0.00000000000E+00  0.00000000000E+00  0.99999998245E-14  0.12500000000E+03  0.12500000000E+03 0.  0.
        -11    1    3    3    0    0  0.23315376597E+02 -0.13609549099E+02  0.41721817237E+02  0.49694432750E+02  0.51100000000E-03 0.  1.
         23    2    1    0    0    0  0.27694878488E+02 -0.10771383760E+02 -0.33758508205E+01  0.95093054798E+02  0.90267733435E+02 0.  0.
         11    1    3    3    0    0  0.43795018908E+01  0.28381653395E+01 -0.45097668057E+02  0.45398622047E+02  0.51100000000E-03 0. -1.
         22    1    1    0    0    0 -0.27694878488E+02  0.10771383760E+02  0.33758508205E+01  0.29906945202E+02  0.00000000000E+00 0.  1.
</event>
<event>
 5    1  0.8778268E-005  0.9118800E+02  0.7818608E-02  0.1130116E+00
         25   -1    0    0    0    0  0.00000000000E+00  0.00000000000E+00  0.99999998245E-14  0.12500000000E+03  0.12500000000E+03 0.  0.
        -11    1    3    3    0    0  0.30974777888E+02  0.45889547012E+01 -0.49950752431E+02  0.58953990867E+02  0.51100000000E-03 0.  1.
         23    2    1    0    0    0  0.11848321087E+01  0.69816033205E+01 -0.28219678719E+02  0.95905380582E+02  0.91385694425E+02 0.  0.
         11    1    3    3    0    0 -0.29789945779E+02  0.23926486193E+01  0.21731073712E+02  0.36951389715E+02  0.51100000000E-03 0. -1.
         22    1    1    0    0    0 -0.11848321087E+01 -0.69816033205E+01  0.28219678719E+02  0.29094619418E+02  0.00000000000E+00 0.  1.
</event>
<event>
 5    1  0.8778268E-005  0.9118800E+02  0.7818608E-02  0.1130116E+00
         25   -1    0    0    0    0  0.00000000000E+00  0.00000000000E+00  0.99999998245E-14  0.12500000000E+03  0.12500000000E+03 0.  0.
        -11    1    3    3    0    0 -0.11794386363E+02  0.41657881495E+02  0.11618859891E+02  0.44827274574E+02  0.51100000000E-03 0.  1.
         23    2    1    0    0    0  0.13153621744E+02  0.28946587457E+02 -0.20292686013E+02  0.87281094978E+02  0.78710061266E+02 0.  0.
         11    1    3    3    0    0  0.24948008107E+02 -0.12711294038E+02 -0.31911545904E+02  0.42453820404E+02  0.51100000000E-03 0. -1.
         22    1    1    0    0    0 -0.13153621744E+02 -0.28946587457E+02  0.20292686013E+02  0.37718905022E+02  0.00000000000E+00 0.  1.
</event>
<event>
 5    1  0.8778268E-005  0.9118800E+02  0.7818608E-02  0.1130116E+00
         25   -1    0    0    0    0  0.00000000000E+00  0.00000000000E+00  0.99999998245E-14  0.12500000000E+03  0.12500000000E+03 0.  0.
        -11    1    3    3    0    0  0.60818225322E+02  0.74201842630E+01 -0.66045630130E+01  0.61624150450E+02  0.51100000000E-03 0.  1.
         23    2    1    0    0    0  0.29017377793E+02  0.18007119025E+01  0.40857081563E+01  0.95641120790E+02  0.91023514531E+02 0.  0.
         11    1    3    3    0    0 -0.31800847529E+02 -0.56194723605E+01  0.10690271169E+02  0.34016970340E+02  0.51100000000E-03 0. -1.
         22    1    1    0    0    0 -0.29017377793E+02 -0.18007119025E+01 -0.40857081563E+01  0.29358879210E+02  0.00000000000E+00 0.  1.
</event>
<event>
 5    1  0.8778268E-005  0.9118800E+02  0.7818608E-02  0.1130116E+00
         25   -1    0    0    0    0  0.00000000000E+00  0.00000000000E+00  0.99999998245E-14  0.12500000000E+03  0.12500000000E+03 0.  0.
        -11    1    3    3    0    0  0.28766633296E+02  0.39435483883E+01  0.29642073724E+02  0.41493653731E+02  0.51100000000E-03 0. -1.
         23    2    1    0    0    0 -0.12916798925E+02 -0.23951805023E+02  0.51748427666E+01  0.97299609100E+02  0.93273266669E+02 0.  0.
         11    1    3    3    0    0 -0.41683432221E+02 -0.27895353412E+02 -0.24467230957E+02  0.55805955369E+02  0.51100000000E-03 0.  1.
         22    1    1    0    0    0  0.12916798925E+02  0.23951805023E+02 -0.51748427666E+01  0.27700390900E+02  0.00000000000E+00 0.  1.
</event>
<event>
 5    1  0.8778268E-005  0.9118800E+02  0.7818608E-02  0.1130116E+00
         25   -1    0    0    0    0  0.00000000000E+00  0.00000000000E+00  0.99999998245E-14  0.12500000000E+03  0.12500000000E+03 0.  0.
        -11    1    3    3    0    0  0.67278161997E+01  0.27314712517E+02 -0.30240802013E+02  0.41302096041E+02  0.51100000000E-03 0. -1.
         23    2    1    0    0    0  0.12212640888E+02 -0.23738102490E+02 -0.10611029012E+02  0.96273008442E+02  0.91887170544E+02 0.  0.
         11    1    3    3    0    0  0.54848246879E+01 -0.51052815007E+02  0.19629773001E+02  0.54970912402E+02  0.51100000000E-03 0.  1.
         22    1    1    0    0    0 -0.12212640888E+02  0.23738102490E+02  0.10611029012E+02  0.28726991558E+02  0.00000000000E+00 0.  1.
</event>
<event>
 5    1  0.8778268E-005  0.9118800E+02  0.7818608E-02  0.1130116E+00
         25   -1    0    0    0    0  0.00000000000E+00  0.00000000000E+00  0.99999998245E-14  0.12500000000E+03  0.12500000000E+03 0.  0.
        -11    1    3    3    0    0  0.11989351604E+02 -0.18858608362E+02  0.99649138053E+01  0.24468166434E+02  0.51100000000E-03 0. -1.
         23    2    1    0    0    0 -0.20938659939E+02  0.25000167582E+02 -0.19780760740E+02  0.86859282195E+02  0.78037302291E+02 0.  0.
         11    1    3    3    0    0 -0.32928011543E+02  0.43858775944E+02 -0.29745674546E+02  0.62391115761E+02  0.51100000000E-03 0.  1.
         22    1    1    0    0    0  0.20938659939E+02 -0.25000167582E+02  0.19780760740E+02  0.38140717805E+02  0.00000000000E+00 0.  1.
</event>
<event>
 5    1  0.8778268E-005  0.9118800E+02  0.7818608E-02  0.1130116E+00
         25   -1    0    0    0    0  0.00000000000E+00  0.00000000000E+00  0.99999998245E-14  0.12500000000E+03  0.12500000000E+03 0.  0.
        -11    1    3    3    0    0 -0.25551221371E+02 -0.13993863872E+02  0.30208585901E+02  0.41967270605E+02  0.51100000000E-03 0.  1.
         23    2    1    0    0    0  0.13053443304E+01 -0.18730201753E+02 -0.19038328966E+02  0.98260846099E+02  0.94552691790E+02 0.  0.
         11    1    3    3    0    0  0.26856565702E+02 -0.47363378806E+01 -0.49246914867E+02  0.56293575494E+02  0.51100000000E-03 0. -1.
         22    1    1    0    0    0 -0.13053443304E+01  0.18730201753E+02  0.19038328966E+02  0.26739153901E+02  0.00000000000E+00 0.  1.
</event>
<event>
 5    1  0.8778268E-005  0.9118800E+02  0.7818608E-02  0.1130116E+00
         25   -1    0    0    0    0  0.00000000000E+00  0.00000000000E+00  0.99999998245E-14  0.12500000000E+03  0.12500000000E+03 0.  0.
        -11    1    3    3    0    0  0.38844345146E+02  0.19179979230E+02 -0.26601943875E+02  0.50837173124E+02  0.51100000000E-03 0.  1.
         23    2    1    0    0    0  0.27301917667E+02 -0.11689309007E+02  0.30175032315E+01  0.95148032240E+02  0.90343832441E+02 0.  0.
         11    1    3    3    0    0 -0.11542427479E+02 -0.30869288238E+02  0.29619447107E+02  0.44310859116E+02  0.51100000000E-03 0. -1.
         22    1    1    0    0    0 -0.27301917667E+02  0.11689309007E+02 -0.30175032315E+01  0.29851967760E+02  0.00000000000E+00 0. -1.
</event>
<event>
 5    1  0.8778268E-005  0.9118800E+02  0.7818608E-02  0.1130116E+00
         25   -1    0    0    0    0  0.00000000000E+00  0.00000000000E+00  0.99999998245E-14  0.12500000000E+03  0.12500000000E+03 0.  0.
        -11    1    3    3    0    0 -0.19705293375E+02  0.39038073149E+02  0.41361491179E+02  0.60191716166E+02  0.51100000000E-03 0. -1.
         23    2    1    0    0    0 -0.74599452372E+01  0.56079106422E+01  0.22846919315E+02  0.10032043017E+03  0.97237377294E+02 0.  0.
         11    1    3    3    0    0  0.12245348137E+02 -0.33430162507E+02 -0.18514571864E+02  0.40128714006E+02  0.51100000000E-03 0.  1.
         22    1    1    0    0    0  0.74599452372E+01 -0.56079106422E+01 -0.22846919315E+02  0.24679569828E+02  0.00000000000E+00 0. -1.
</event>
<event>
 5    1  0.8778268E-005  0.9118800E+02  0.7818608E-02  0.1130116E+00
         25   -1    0    0    0    0  0.00000000000E+00  0.00000000000E+00  0.99999998245E-14  0.12500000000E+03  0.12500000000E+03 0.  0.
        -11    1    3    3    0    0  0.23450009540E+02  0.10768667025E+02  0.51670558192E+02  0.57755638002E+02  0.51100000000E-03 0.  1.
         23    2    1    0    0    0 -0.40205533215E+01 -0.17521883406E+01  0.29409996148E+02  0.95264787097E+02  0.90505230646E+02 0.  0.
         11    1    3    3    0    0 -0.27470562861E+02 -0.12520855365E+02 -0.22260562044E+02  0.37509149095E+02  0.51100000000E-03 0. -1.
         22    1    1    0    0    0  0.40205533215E+01  0.17521883406E+01 -0.29409996148E+02  0.29735212903E+02  0.00000000000E+00 0.  1.
</event>
<event>
 5    1  0.8778268E-005  0.9118800E+02  0.7818608E-02  0.1130116E+00
         25   -1    0    0    0    0  0.00000000000E+00  0.00000000000E+00  0.99999998245E-14  0.12500000000E+03  0.12500000000E+03 0.  0.
        -11    1    3    3    0    0  0.21753629773E+01 -0.15762653431E+02 -0.35001680814E+02  0.38448811520E+02  0.51100000000E-03 0.  1.
         23    2    1    0    0    0  0.23246894903E+02 -0.85906521523E+01  0.16954468102E+02  0.94972155994E+02  0.90100160923E+02 0.  0.
         11    1    3    3    0    0  0.21071531926E+02  0.71720012782E+01  0.51956148916E+02  0.56523344473E+02  0.51100000000E-03 0. -1.
         22    1    1    0    0    0 -0.23246894903E+02  0.85906521523E+01 -0.16954468102E+02  0.30027844006E+02  0.00000000000E+00 0. -1.
</event>
<event>
 5    1  0.8778268E-005  0.9118800E+02  0.7818608E-02  0.1130116E+00
         25   -1    0    0    0    0  0.00000000000E+00  0.00000000000E+00  0.99999998245E-14  0.12500000000E+03  0.12500000000E+03 0.  0.
        -11    1    3    3    0    0 -0.97347408211E+01  0.29822157046E+02 -0.14787547492E+02  0.34681375273E+02  0.51100000000E-03 0.  1.
         23    2    1    0    0    0 -0.13823978044E+02 -0.26224054930E+02  0.62828842260E+01  0.94696896857E+02  0.89717468835E+02 0.  0.
         11    1    3    3    0    0 -0.40892372233E+01 -0.56046211976E+02  0.21070431718E+02  0.60015521584E+02  0.51100000000E-03 0. -1.
         22    1    1    0    0    0  0.13823978044E+02  0.26224054930E+02 -0.62828842260E+01  0.30303103143E+02  0.00000000000E+00 0. -1.
</event>
<event>
 5    1  0.8778268E-005  0.9118800E+02  0.7818608E-02  0.1130116E+00
         25   -1    0    0    0    0  0.00000000000E+00  0.00000000000E+00  0.99999998245E-14  0.12500000000E+03  0.12500000000E+03 0.  0.
        -11    1    3    3    0    0 -0.10318167314E+02  0.17077454504E+02  0.37120283878E+02  0.42142846421E+02  0.51100000000E-03 0. -1.
         23    2    1    0    0    0 -0.27557944390E+02  0.95773885483E+01 -0.11011664374E+02  0.93816295559E+02  0.88482054054E+02 0.  0.
         11    1    3    3    0    0 -0.17239777076E+02 -0.75000659558E+01 -0.48131948252E+02  0.51673449137E+02  0.51100000000E-03 0.  1.
         22    1    1    0    0    0  0.27557944390E+02 -0.95773885483E+01  0.11011664374E+02  0.31183704441E+02  0.00000000000E+00 0.  1.
</event>
<event>
 5    1  0.8778268E-005  0.9118800E+02  0.7818608E-02  0.1130116E+00
         25   -1    0    0    0    0  0.00000000000E+00  0.00000000000E+00  0.99999998245E-14  0.12500000000E+03  0.12500000000E+03 0.  0.
        -11    1    3    3    0    0  0.22746710332E+02  0.43725637521E+01  0.33432061215E+02  0.40672286166E+02  0.51100000000E-03 0.  1.
         23    2    1    0    0    0  0.15925066287E+02  0.36816324954E+01 -0.22592480642E+02  0.97114836640E+02  0.93025314619E+02 0.  0.
         11    1    3    3    0    0 -0.68216440441E+01 -0.69093125668E+00 -0.56024541856E+02  0.56442550473E+02  0.51100000000E-03 0. -1.
         22    1    1    0    0    0 -0.15925066287E+02 -0.36816324954E+01  0.22592480642E+02  0.27885163360E+02  0.00000000000E+00 0.  1.
</event>
<event>
 5    1  0.8778268E-005  0.9118800E+02  0.7818608E-02  0.1130116E+00
         25   -1    0    0    0    0  0.00000000000E+00  0.00000000000E+00  0.99999998245E-14  0.12500000000E+03  0.12500000000E+03 0.  0.
        -11    1    3    3    0    0  0.45355501214E+02 -0.27110806092E+02  0.28359571204E+02  0.59969847227E+02  0.51100000000E-03 0.  1.
         23    2    1    0    0    0  0.11384228774E+02 -0.19354163810E+02  0.17697290530E+02  0.96410169401E+02  0.92073570313E+02 0.  0.
         11    1    3    3    0    0 -0.33971272440E+02  0.77566422817E+01 -0.10662280674E+02  0.36440322174E+02  0.51100000000E-03 0. -1.
         22    1    1    0    0    0 -0.11384228774E+02  0.19354163810E+02 -0.17697290530E+02  0.28589830599E+02  0.00000000000E+00 0.  1.
</event>
<event>
 5    1  0.8778268E-005  0.9118800E+02  0.7818608E-02  0.1130116E+00
         25   -1    0    0    0    0  0.00000000000E+00  0.00000000000E+00  0.99999998245E-14  0.12500000000E+03  0.12500000000E+03 0.  0.
        -11    1    3    3    0    0 -0.25580276065E+02 -0.68923795570E+01 -0.34526321067E+02  0.43519217205E+02  0.51100000000E-03 0.  1.
         23    2    1    0    0    0 -0.25388975915E+01  0.29828816298E+02 -0.18876224213E+02  0.89609095473E+02  0.82324199773E+02 0.  0.
         11    1    3    3    0    0  0.23041378473E+02  0.36721195855E+02  0.15650096854E+02  0.46089878268E+02  0.51100000000E-03 0. -1.
         22    1    1    0    0    0  0.25388975915E+01 -0.29828816298E+02  0.18876224213E+02  0.35390904527E+02  0.00000000000E+00 0. -1.
</event>
<event>
 5    1  0.8778268E-005  0.9118800E+02  0.7818608E-02  0.1130116E+00
         25   -1    0    0    0    0  0.00000000000E+00  0.00000000000E+00  0.99999998245E-14  0.12500000000E+03  0.12500000000E+03 0.  0.
        -11    1    3    3    0    0  0.30200353434E+02 -0.16484567179E+02  0.38512513278E+02  0.51643160068E+02  0.51100000000E-03 0. -1.
         23    2    1    0    0    0  0.23146836688E+02 -0.19476555147E+02 -0.36804201157E+01  0.94526113781E+02  0.89479206776E+02 0.  0.
         11    1    3    3    0    0 -0.70535167456E+01 -0.29919879681E+01 -0.42192933394E+02  0.42882953712E+02  0.51100000000E-03 0.  1.
         22    1    1    0    0    0 -0.23146836688E+02  0.19476555147E+02  0.36804201157E+01  0.30473886219E+02  0.00000000000E+00 0. -1.
</event>
<event>
 5    1  0.8778268E-005  0.9118800E+02  0.7818608E-02  0.1130116E+00
         25   -1    0    0    0    0  0.00000000000E+00  0.00000000000E+00  0.99999998245E-14  0.12500000000E+03  0.12500000000E+03 0.  0.
        -11    1    3    3    0    0 -0.39424668166E+02 -0.27548492373E+02 -0.86447107210E+01  0.48866705595E+02  0.51100000000E-03 0.  1.
         23    2    1    0    0    0  0.43236813074E+01 -0.22519366187E+02 -0.20251251362E+02  0.94407039122E+02  0.89312707834E+02 0.  0.
         11    1    3    3    0    0  0.43748349473E+02  0.50291261856E+01 -0.11606540641E+02  0.45540333527E+02  0.51100000000E-03 0. -1.
         22    1    1    0    0    0 -0.43236813074E+01  0.22519366187E+02  0.20251251362E+02  0.30592960878E+02  0.00000000000E+00 0.  1.
</event>
<event>
 5    1  0.8778268E-005  0.9118800E+02  0.7818608E-02  0.1130116E+00
         25   -1    0    0    0    0  0.00000000000E+00  0.00000000000E+00  0.99999998245E-14  0.12500000000E+03  0.12500000000E+03 0.  0.
        -11    1    3    3    0    0 -0.34660892142E+02  0.10594567205E+02  0.11681118705E+02  0.38079795598E+02  0.51100000000E-03 0.  1.
         23    2    1    0    0    0  0.14043445824E+02 -0.15247179514E+02  0.22650670355E+02  0.94295802873E+02  0.89156888226E+02 0.  0.
         11    1    3    3    0    0  0.48704337966E+02 -0.25841746719E+02  0.10969551650E+02  0.56216007274E+02  0.51100000000E-03 0. -1.
         22    1    1    0    0    0 -0.14043445824E+02  0.15247179514E+02 -0.22650670355E+02  0.30704197127E+02  0.00000000000E+00 0. -1.
</event>
<event>
 5    1  0.8778268E-005  0.9118800E+02  0.7818608E-02  0.1130116E+00
         25   -1    0    0    0    0  0.00000000000E+00  0.00000000000E+00  0.99999998245E-14  0.12500000000E+03  0.12500000000E+03 0.  0.
        -11    1    3    3    0    0 -0.10337506658E+02 -0.19865095298E+02  0.21970438473E+02  0.31371742413E+02  0.51100000000E-03 0. -1.
         23    2    1    0    0    0 -0.33407112517E+02  0.23869140472E+02  0.50504241219E+01  0.83632406193E+02  0.72684947191E+02 0.  0.
         11    1    3    3    0    0 -0.23069605859E+02  0.43734235770E+02 -0.16920014351E+02  0.52260663780E+02  0.51100000000E-03 0.  1.
         22    1    1    0    0    0  0.33407112517E+02 -0.23869140472E+02 -0.50504241219E+01  0.41367593807E+02  0.00000000000E+00 0.  1.
</event>
<event>
 5    1  0.8778268E-005  0.9118800E+02  0.7818608E-02  0.1130116E+00
         25   -1    0    0    0    0  0.00000000000E+00  0.00000000000E+00  0.99999998245E-14  0.12500000000E+03  0.12500000000E+03 0.  0.
        -11    1    3    3    0    0  0.21552679813E+02  0.19775696453E+02  0.18087220121E+02  0.34391041119E+02  0.51100000000E-03 0. -1.
         23    2    1    0    0    0  0.43809448974E+01 -0.24017934153E+02 -0.18813876241E+02  0.94177674027E+02  0.88991114764E+02 0.  0.
         11    1    3    3    0    0 -0.17171734915E+02 -0.43793630605E+02 -0.36901096362E+02  0.59786632908E+02  0.51100000000E-03 0.  1.
         22    1    1    0    0    0 -0.43809448974E+01  0.24017934153E+02  0.18813876241E+02  0.30822325973E+02  0.00000000000E+00 0.  1.
</event>
<event>
 5    1  0.8778268E-005  0.9118800E+02  0.7818608E-02  0.1130116E+00
         25   -1    0    0    0    0  0.00000000000E+00  0.00000000000E+00  0.99999998245E-14  0.12500000000E+03  0.12500000000E+03 0.  0.
        -11    1    3    3    0    0  0.15953182796E+02 -0.28045836411E+02  0.92509907903E+01  0.33565664185E+02  0.51100000000E-03 0. -1.
         23    2    1    0    0    0 -0.23226778185E+02  0.18802051478E+02  0.36762215630E+01  0.94891612969E+02  0.89988350592E+02 0.  0.
         11    1    3    3    0    0 -0.39179960981E+02  0.46847887889E+02 -0.55747692273E+01  0.61325948784E+02  0.51100000000E-03 0.  1.
         22    1    1    0    0    0  0.23226778185E+02 -0.18802051478E+02 -0.36762215630E+01  0.30108387031E+02  0.00000000000E+00 0.  1.
</event>
<event>
 5    1  0.8778268E-005  0.9118800E+02  0.7818608E-02  0.1130116E+00
         25   -1    0    0    0    0  0.00000000000E+00  0.00000000000E+00  0.99999998245E-14  0.12500000000E+03  0.12500000000E+03 0.  0.
        -11    1    3    3    0    0 -0.46583937329E+02 -0.33063557719E+02  0.81491213752E+01  0.57703294928E+02  0.51100000000E-03 0.  1.
         23    2    1    0    0    0 -0.24310640172E+02 -0.39706803070E+00  0.12816171546E+02  0.97515110666E+02  0.93561624968E+02 0.  0.
         11    1    3    3    0    0  0.22273297157E+02  0.32666489688E+02  0.46670501709E+01  0.39811815738E+02  0.51100000000E-03 0. -1.
         22    1    1    0    0    0  0.24310640172E+02  0.39706803070E+00 -0.12816171546E+02  0.27484889334E+02  0.00000000000E+00 0.  1.
</event>
<event>
 5    1  0.8778268E-005  0.9118800E+02  0.7818608E-02  0.1130116E+00
         25   -1    0    0    0    0  0.00000000000E+00  0.00000000000E+00  0.99999998245E-14  0.12500000000E+03  0.12500000000E+03 0.  0.
        -11    1    3    3    0    0 -0.15036961759E+02 -0.19788077239E+01  0.50693876515E+02  0.52914034200E+02  0.51100000000E-03 0. -1.
         23    2    1    0    0    0 -0.22616260388E+01 -0.22116954841E+02  0.88618875292E+01  0.10106659877E+03  0.98191902380E+02 0.  0.
         11    1    3    3    0    0  0.12775335720E+02 -0.20138147117E+02 -0.41831988986E+02  0.48152564572E+02  0.51100000000E-03 0.  1.
         22    1    1    0    0    0  0.22616260388E+01  0.22116954841E+02 -0.88618875292E+01  0.23933401228E+02  0.00000000000E+00 0.  1.
</event>
<event>
 5    1  0.8778268E-005  0.9118800E+02  0.7818608E-02  0.1130116E+00
         25   -1    0    0    0    0  0.00000000000E+00  0.00000000000E+00  0.99999998245E-14  0.12500000000E+03  0.12500000000E+03 0.  0.
        -11    1    3    3    0    0 -0.93090579883E+01 -0.26428502739E+01  0.31901645676E+02  0.33337039690E+02  0.51100000000E-03 0. -1.
         23    2    1    0    0    0 -0.73520440636E+01  0.28444806277E+02 -0.16806060344E+02  0.91153239145E+02  0.84636338450E+02 0.  0.
         11    1    3    3    0    0  0.19570139247E+01  0.31087656551E+02 -0.48707706021E+02  0.57816199455E+02  0.51100000000E-03 0.  1.
         22    1    1    0    0    0  0.73520440636E+01 -0.28444806277E+02  0.16806060344E+02  0.33846760855E+02  0.00000000000E+00 0.  1.
</event>
<event>
 5    1  0.8778268E-005  0.9118800E+02  0.7818608E-02  0.1130116E+00
         25   -1    0    0    0    0  0.00000000000E+00  0.00000000000E+00  0.99999998245E-14  0.12500000000E+03  0.12500000000E+03 0.  0.
        -11    1    3    3    0    0  0.54786248434E+02  0.12551840127E+02  0.76139008130E+01  0.56719072576E+02  0.51100000000E-03 0.  1.
         23    2    1    0    0    0  0.27660366450E+02 -0.12774671281E+02  0.37432202729E+00  0.94529879957E+02  0.89484467866E+02 0.  0.
         11    1    3    3    0    0 -0.27125881984E+02 -0.25326511408E+02 -0.72395787857E+01  0.37810807381E+02  0.51100000000E-03 0. -1.
         22    1    1    0    0    0 -0.27660366450E+02  0.12774671281E+02 -0.37432202729E+00  0.30470120043E+02  0.00000000000E+00 0. -1.
</event>
<event>
 5    1  0.8778268E-005  0.9118800E+02  0.7818608E-02  0.1130116E+00
         25   -1    0    0    0    0  0.00000000000E+00  0.00000000000E+00  0.99999998245E-14  0.12500000000E+03  0.12500000000E+03 0.  0.
        -11    1    3    3    0    0  0.23876684433E+01 -0.36774019661E+02 -0.65202787525E+00  0.36857219418E+02  0.51100000000E-03 0.  1.
         23    2    1    0    0    0 -0.19518317093E+02  0.19460457621E+02 -0.31432368094E+01  0.97259162763E+02  0.93219046824E+02 0.  0.
         11    1    3    3    0    0 -0.21905985536E+02  0.56234477283E+02 -0.24912089342E+01  0.60401943344E+02  0.51100000000E-03 0. -1.
         22    1    1    0    0    0  0.19518317093E+02 -0.19460457621E+02  0.31432368094E+01  0.27740837237E+02  0.00000000000E+00 0. -1.
</event>
<event>
 5    1  0.8778268E-005  0.9118800E+02  0.7818608E-02  0.1130116E+00
         25   -1    0    0    0    0  0.00000000000E+00  0.00000000000E+00  0.99999998245E-14  0.12500000000E+03  0.12500000000E+03 0.  0.
        -11    1    3    3    0    0  0.13763704302E+02  0.94503312051E+01 -0.31156549203E+02  0.35347968464E+02  0.51100000000E-03 0. -1.
         23    2    1    0    0    0  0.19265518031E+02 -0.35809328029E+01  0.24986849050E+02  0.93245852394E+02  0.87672476288E+02 0.  0.
         11    1    3    3    0    0  0.55018137296E+01 -0.13031264008E+02  0.56143398253E+02  0.57897883930E+02  0.51100000000E-03 0.  1.
         22    1    1    0    0    0 -0.19265518031E+02  0.35809328029E+01 -0.24986849050E+02  0.31754147606E+02  0.00000000000E+00 0.  1.
</event>
<event>
 5    1  0.8778268E-005  0.9118800E+02  0.7818608E-02  0.1130116E+00
         25   -1    0    0    0    0  0.00000000000E+00  0.00000000000E+00  0.99999998245E-14  0.12500000000E+03  0.12500000000E+03 0.  0.
        -11    1    3    3    0    0  0.85489811937E+01 -0.17542186384E+02  0.56535254282E+02  0.59808430506E+02  0.51100000000E-03 0.  1.
         23    2    1    0    0    0  0.11641831098E+02  0.23497442185E+01  0.26429862820E+02  0.96024300217E+02  0.91548211639E+02 0.  0.
         11    1    3    3    0    0  0.30928499048E+01  0.19891930602E+02 -0.30105391462E+02  0.36215869712E+02  0.51100000000E-03 0. -1.
         22    1    1    0    0    0 -0.11641831098E+02 -0.23497442185E+01 -0.26429862820E+02  0.28975699783E+02  0.00000000000E+00 0.  1.
</event>
<event>
 5    1  0.8778268E-005  0.9118800E+02  0.7818608E-02  0.1130116E+00
         25   -1    0    0    0    0  0.00000000000E+00  0.00000000000E+00  0.99999998245E-14  0.12500000000E+03  0.12500000000E+03 0.  0.
        -11    1    3    3    0    0  0.91578185793E+01 -0.23417803559E+02  0.43719157435E+02  0.50434352298E+02  0.51100000000E-03 0.  1.
         23    2    1    0    0    0 -0.15185354670E+02  0.98423850543E+01  0.20161236581E+02  0.97908617597E+02  0.94085888418E+02 0.  0.
         11    1    3    3    0    0 -0.24343173250E+02  0.33260188614E+02 -0.23557920854E+02  0.47474265299E+02  0.51100000000E-03 0. -1.
         22    1    1    0    0    0  0.15185354670E+02 -0.98423850543E+01 -0.20161236581E+02  0.27091382403E+02  0.00000000000E+00 0. -1.
</event>
<event>
 5    1  0.8778268E-005  0.9118800E+02  0.7818608E-02  0.1130116E+00
         25   -1    0    0    0    0  0.00000000000E+00  0.00000000000E+00  0.99999998245E-14  0.12500000000E+03  0.12500000000E+03 0.  0.
        -11    1    3    3    0    0 -0.25594674092E+02 -0.36314909728E+02 -0.39966514575E+02  0.59759369960E+02  0.51100000000E-03 0.  1.
         23    2    1    0    0    0 -0.22455265392E+02 -0.11950604653E+02 -0.12342319968E+02  0.96726536158E+02  0.92502075866E+02 0.  0.
         11    1    3    3    0    0  0.31394087000E+01  0.24364305075E+02  0.27624194607E+02  0.36967166198E+02  0.51100000000E-03 0. -1.
         22    1    1    0    0    0  0.22455265392E+02  0.11950604653E+02  0.12342319968E+02  0.28273463842E+02  0.00000000000E+00 0.  1.
</event>
<event>
 5    1  0.8778268E-005  0.9118800E+02  0.7818608E-02  0.1130116E+00
         25   -1    0    0    0    0  0.00000000000E+00  0.00000000000E+00  0.99999998245E-14  0.12500000000E+03  0.12500000000E+03 0.  0.
        -11    1    3    3    0    0 -0.28988746492E+02  0.15816518952E+02  0.79664645585E+01  0.33970196537E+02  0.51100000000E-03 0.  1.
         23    2    1    0    0    0  0.26905215003E+02  0.59726424642E+01 -0.13070145481E+02  0.94497676232E+02  0.89439471476E+02 0.  0.
         11    1    3    3    0    0  0.55893961495E+02 -0.98438764877E+01 -0.21036610040E+02  0.60527479695E+02  0.51100000000E-03 0. -1.
         22    1    1    0    0    0 -0.26905215003E+02 -0.59726424642E+01  0.13070145481E+02  0.30502323768E+02  0.00000000000E+00 0. -1.
</event>
<event>
 5    1  0.8778268E-005  0.9118800E+02  0.7818608E-02  0.1130116E+00
         25   -1    0    0    0    0  0.00000000000E+00  0.00000000000E+00  0.99999998245E-14  0.12500000000E+03  0.12500000000E+03 0.  0.
        -11    1    3    3    0    0  0.33623377767E+01  0.41059862244E+02  0.15856659410E+02  0.44143530112E+02  0.51100000000E-03 0. -1.
         23    2    1    0    0    0 -0.17718841946E+01 -0.94511251938E+01  0.27186053501E+02  0.96163480689E+02  0.91738051931E+02 0.  0.
         11    1    3    3    0    0 -0.51342219713E+01 -0.50510987438E+02  0.11329394092E+02  0.52019950577E+02  0.51100000000E-03 0.  1.
         22    1    1    0    0    0  0.17718841946E+01  0.94511251938E+01 -0.27186053501E+02  0.28836519311E+02  0.00000000000E+00 0.  1.
</event>
<event>
 5    1  0.8778268E-005  0.9118800E+02  0.7818608E-02  0.1130116E+00
         25   -1    0    0    0    0  0.00000000000E+00  0.00000000000E+00  0.99999998245E-14  0.12500000000E+03  0.12500000000E+03 0.  0.
        -11    1    3    3    0    0 -0.39444680182E+02 -0.20936852094E+02 -0.52055563183E+01  0.44959230277E+02  0.51100000000E-03 0.  1.
         23    2    1    0    0    0 -0.24866417222E+02  0.20078911798E+02 -0.15180636953E+02  0.89617050113E+02  0.82336277109E+02 0.  0.
         11    1    3    3    0    0  0.14578262960E+02  0.41015763892E+02 -0.99750806343E+01  0.44657819836E+02  0.51100000000E-03 0. -1.
         22    1    1    0    0    0  0.24866417222E+02 -0.20078911798E+02  0.15180636953E+02  0.35382949887E+02  0.00000000000E+00 0.  1.
</event>
<event>
 5    1  0.8778268E-005  0.9118800E+02  0.7818608E-02  0.1130116E+00
         25   -1    0    0    0    0  0.00000000000E+00  0.00000000000E+00  0.99999998245E-14  0.12500000000E+03  0.12500000000E+03 0.  0.
        -11    1    3    3    0    0 -0.85480232470E+01  0.47146415530E+02 -0.18124752343E+02  0.51228506191E+02  0.51100000000E-03 0. -1.
         23    2    1    0    0    0  0.21875853552E+02  0.14734899596E+02 -0.11707391625E+02  0.96142882102E+02  0.91709980512E+02 0.  0.
         11    1    3    3    0    0  0.30423876799E+02 -0.32411515934E+02  0.64173607181E+01  0.44914375911E+02  0.51100000000E-03 0.  1.
         22    1    1    0    0    0 -0.21875853552E+02 -0.14734899596E+02  0.11707391625E+02  0.28857117898E+02  0.00000000000E+00 0. -1.
</event>
<event>
 5    1  0.8778268E-005  0.9118800E+02  0.7818608E-02  0.1130116E+00
         25   -1    0    0    0    0  0.00000000000E+00  0.00000000000E+00  0.99999998245E-14  0.12500000000E+03  0.12500000000E+03 0.  0.
        -11    1    3    3    0    0 -0.16924568591E+02 -0.35207146386E+02 -0.47356079590E+02  0.61388781166E+02  0.51100000000E-03 0. -1.
         23    2    1    0    0    0 -0.34001479725E+01 -0.10953736126E+02 -0.26520644367E+02  0.96105538264E+02  0.91659067015E+02 0.  0.
         11    1    3    3    0    0  0.13524420618E+02  0.24253410259E+02  0.20835435223E+02  0.34716757099E+02  0.51100000000E-03 0.  1.
         22    1    1    0    0    0  0.34001479725E+01  0.10953736126E+02  0.26520644367E+02  0.28894461736E+02  0.00000000000E+00 0. -1.
</event>
<event>
 5    1  0.8778268E-005  0.9118800E+02  0.7818608E-02  0.1130116E+00
         25   -1    0    0    0    0  0.00000000000E+00  0.00000000000E+00  0.99999998245E-14  0.12500000000E+03  0.12500000000E+03 0.  0.
        -11    1    3    3    0    0 -0.16765029667E+02  0.39247695410E+02  0.31760391946E+01  0.42796437235E+02  0.51100000000E-03 0.  1.
         23    2    1    0    0    0 -0.16914829265E+02  0.11337339818E+01  0.30782346940E+02  0.89858149096E+02  0.82701494993E+02 0.  0.
         11    1    3    3    0    0 -0.14979959837E+00 -0.38113961429E+02  0.27606307745E+02  0.47061711861E+02  0.51100000000E-03 0. -1.
         22    1    1    0    0    0  0.16914829265E+02 -0.11337339818E+01 -0.30782346940E+02  0.35141850904E+02  0.00000000000E+00 0. -1.
</event>
<event>
 5    1  0.8778268E-005  0.9118800E+02  0.7818608E-02  0.1130116E+00
         25   -1    0    0    0    0  0.00000000000E+00  0.00000000000E+00  0.99999998245E-14  0.12500000000E+03  0.12500000000E+03 0.  0.
        -11    1    3    3    0    0  0.16838806465E+01 -0.41758683480E+02  0.31999409879E+02  0.52636349920E+02  0.51100000000E-03 0.  1.
         23    2    1    0    0    0 -0.94316762009E+01 -0.24188537676E+01  0.29882508356E+02  0.93571164909E+02  0.88135073763E+02 0.  0.
         11    1    3    3    0    0 -0.11115556847E+02  0.39339829713E+02 -0.21169015232E+01  0.40934814989E+02  0.51100000000E-03 0. -1.
         22    1    1    0    0    0  0.94316762009E+01  0.24188537676E+01 -0.29882508356E+02  0.31428835091E+02  0.00000000000E+00 0.  1.
</event>
<event>
 5    1  0.8778268E-005  0.9118800E+02  0.7818608E-02  0.1130116E+00
         25   -1    0    0    0    0  0.00000000000E+00  0.00000000000E+00  0.99999998245E-14  0.12500000000E+03  0.12500000000E+03 0.  0.
        -11    1    3    3    0    0 -0.53341597981E+02  0.17157190651E+02 -0.21855800758E+02  0.60144586566E+02  0.51100000000E-03 0.  1.
         23    2    1    0    0    0 -0.21087983263E+02  0.16971062295E+02 -0.23704280824E+01  0.97827607341E+02  0.93978198723E+02 0.  0.
         11    1    3    3    0    0  0.32253614718E+02 -0.18612835584E+00  0.19485372675E+02  0.37683020774E+02  0.51100000000E-03 0. -1.
         22    1    1    0    0    0  0.21087983263E+02 -0.16971062295E+02  0.23704280824E+01  0.27172392659E+02  0.00000000000E+00 0.  1.
</event>
<event>
 5    1  0.8778268E-005  0.9118800E+02  0.7818608E-02  0.1130116E+00
         25   -1    0    0    0    0  0.00000000000E+00  0.00000000000E+00  0.99999998245E-14  0.12500000000E+03  0.12500000000E+03 0.  0.
        -11    1    3    3    0    0 -0.10906047508E+02 -0.85631362906E+01 -0.35799293075E+02  0.38390865585E+02  0.51100000000E-03 0.  1.
         23    2    1    0    0    0 -0.21227532806E+02  0.31773930040E+01  0.19587764037E+02  0.95941705568E+02  0.91435367293E+02 0.  0.
         11    1    3    3    0    0 -0.10321485298E+02  0.11740529295E+02  0.55387057113E+02  0.57550839983E+02  0.51100000000E-03 0. -1.
         22    1    1    0    0    0  0.21227532806E+02 -0.31773930040E+01 -0.19587764037E+02  0.29058294432E+02  0.00000000000E+00 0. -1.
</event>
<event>
 5    1  0.8778268E-005  0.9118800E+02  0.7818608E-02  0.1130116E+00
         25   -1    0    0    0    0  0.00000000000E+00  0.00000000000E+00  0.99999998245E-14  0.12500000000E+03  0.12500000000E+03 0.  0.
        -11    1    3    3    0    0 -0.53376824445E+02 -0.20725855967E+02  0.13504784424E+02  0.58830482711E+02  0.51100000000E-03 0.  1.
         23    2    1    0    0    0 -0.22775335834E+02 -0.95331935095E+00  0.18548770720E+02  0.95611539078E+02  0.90982881739E+02 0.  0.
         11    1    3    3    0    0  0.30601488611E+02  0.19772536616E+02  0.50439862961E+01  0.36781056367E+02  0.51100000000E-03 0. -1.
         22    1    1    0    0    0  0.22775335834E+02  0.95331935095E+00 -0.18548770720E+02  0.29388460922E+02  0.00000000000E+00 0.  1.
</event>
<event>
 5    1  0.8778268E-005  0.9118800E+02  0.7818608E-02  0.1130116E+00
         25   -1    0    0    0    0  0.00000000000E+00  0.00000000000E+00  0.99999998245E-14  0.12500000000E+03  0.12500000000E+03 0.  0.
        -11    1    3    3    0    0  0.28142542549E+02  0.47888714373E+02  0.25516922437E+02  0.61126467232E+02  0.51100000000E-03 0.  1.
         23    2    1    0    0    0  0.37283235453E+01  0.21544178027E+02  0.14757922511E+02  0.98621063703E+02  0.95027711358E+02 0.  0.
         11    1    3    3    0    0 -0.24414219004E+02 -0.26344536346E+02 -0.10758999926E+02  0.37494596471E+02  0.51100000000E-03 0. -1.
         22    1    1    0    0    0 -0.37283235453E+01 -0.21544178027E+02 -0.14757922511E+02  0.26378936297E+02  0.00000000000E+00 0.  1.
</event>
<event>
 5    1  0.8778268E-005  0.9118800E+02  0.7818608E-02  0.1130116E+00
         25   -1    0    0    0    0  0.00000000000E+00  0.00000000000E+00  0.99999998245E-14  0.12500000000E+03  0.12500000000E+03 0.  0.
        -11    1    3    3    0    0  0.20328312269E+02  0.34198643639E+02  0.18683495010E+02  0.43952934971E+02  0.51100000000E-03 0. -1.
         23    2    1    0    0    0 -0.15254623840E+02 -0.30717444231E+01  0.24674160519E+02  0.95828895125E+02  0.91281015449E+02 0.  0.
         11    1    3    3    0    0 -0.35582936109E+02 -0.37270388062E+02  0.59906655086E+01  0.51875960155E+02  0.51100000000E-03 0.  1.
         22    1    1    0    0    0  0.15254623840E+02  0.30717444231E+01 -0.24674160519E+02  0.29171104875E+02  0.00000000000E+00 0.  1.
</event>
<event>
 5    1  0.8778268E-005  0.9118800E+02  0.7818608E-02  0.1130116E+00
         25   -1    0    0    0    0  0.00000000000E+00  0.00000000000E+00  0.99999998245E-14  0.12500000000E+03  0.12500000000E+03 0.  0.
        -11    1    3    3    0    0  0.10841334636E+02  0.95436398505E+01  0.18630303320E+02  0.23573370576E+02  0.51100000000E-03 0. -1.
         23    2    1    0    0    0 -0.34149149430E+02  0.44903840295E+01 -0.21771640851E+02  0.84252824627E+02  0.73744194054E+02 0.  0.
         11    1    3    3    0    0 -0.44990484066E+02 -0.50532558211E+01 -0.40401944170E+02  0.60679454051E+02  0.51100000000E-03 0.  1.
         22    1    1    0    0    0  0.34149149430E+02 -0.44903840295E+01  0.21771640851E+02  0.40747175373E+02  0.00000000000E+00 0.  1.
</event>
<event>
 5    1  0.8778268E-005  0.9118800E+02  0.7818608E-02  0.1130116E+00
         25   -1    0    0    0    0  0.00000000000E+00  0.00000000000E+00  0.99999998245E-14  0.12500000000E+03  0.12500000000E+03 0.  0.
        -11    1    3    3    0    0  0.29731660171E+02 -0.42503877053E+02  0.25555386246E+02  0.57824120811E+02  0.51100000000E-03 0.  1.
         23    2    1    0    0    0  0.27175975374E+02 -0.93729874053E+01  0.95408180264E+01  0.94711161477E+02  0.89737340998E+02 0.  0.
         11    1    3    3    0    0 -0.25556847973E+01  0.33130889648E+02 -0.16014568219E+02  0.36887040667E+02  0.51100000000E-03 0. -1.
         22    1    1    0    0    0 -0.27175975374E+02  0.93729874053E+01 -0.95408180264E+01  0.30288838523E+02  0.00000000000E+00 0.  1.
</event>
<event>
 5    1  0.8778268E-005  0.9118800E+02  0.7818608E-02  0.1130116E+00
         25   -1    0    0    0    0  0.00000000000E+00  0.00000000000E+00  0.99999998245E-14  0.12500000000E+03  0.12500000000E+03 0.  0.
        -11    1    3    3    0    0  0.27537899922E+02  0.37426115416E+01 -0.20056531156E+02  0.34272547550E+02  0.51100000000E-03 0.  1.
         23    2    1    0    0    0 -0.10809374074E+02 -0.16304083409E+01  0.27386931846E+02  0.95511954368E+02  0.90845960791E+02 0.  0.
         11    1    3    3    0    0 -0.38347273996E+02 -0.53730198825E+01  0.47443463002E+02  0.61239406819E+02  0.51100000000E-03 0. -1.
         22    1    1    0    0    0  0.10809374074E+02  0.16304083409E+01 -0.27386931846E+02  0.29488045632E+02  0.00000000000E+00 0. -1.
</event>
<event>
 5    1  0.8778268E-005  0.9118800E+02  0.7818608E-02  0.1130116E+00
         25   -1    0    0    0    0  0.00000000000E+00  0.00000000000E+00  0.99999998245E-14  0.12500000000E+03  0.12500000000E+03 0.  0.
        -11    1    3    3    0    0 -0.13729680624E+02  0.40578088336E+02 -0.44856890239E+02  0.62026010554E+02  0.51100000000E-03 0.  1.
         23    2    1    0    0    0 -0.49664886987E+01  0.91337054916E+01 -0.17628846175E+02  0.10453376431E+03  0.10251068762E+03 0.  0.
         11    1    3    3    0    0  0.87631919257E+01 -0.31444382845E+02  0.27228044065E+02  0.42507753752E+02  0.51100000000E-03 0. -1.
         22    1    1    0    0    0  0.49664886987E+01 -0.91337054916E+01  0.17628846175E+02  0.20466235693E+02  0.00000000000E+00 0.  1.
</event>
<event>
 5    1  0.8778268E-005  0.9118800E+02  0.7818608E-02  0.1130116E+00
         25   -1    0    0    0    0  0.00000000000E+00  0.00000000000E+00  0.99999998245E-14  0.12500000000E+03  0.12500000000E+03 0.  0.
        -11    1    3    3    0    0 -0.20748795642E+02 -0.43527111563E+01  0.51973843869E+02  0.56131444501E+02  0.51100000000E-03 0.  1.
         23    2    1    0    0    0 -0.18981693935E+02  0.14970773395E+02  0.19588095107E+02  0.93885337369E+02  0.88579536815E+02 0.  0.
         11    1    3    3    0    0  0.17671017064E+01  0.19323484551E+02 -0.32385748761E+02  0.37753892869E+02  0.51100000000E-03 0. -1.
         22    1    1    0    0    0  0.18981693935E+02 -0.14970773395E+02 -0.19588095107E+02  0.31114662631E+02  0.00000000000E+00 0.  1.
</event>
<event>
 5    1  0.8778268E-005  0.9118800E+02  0.7818608E-02  0.1130116E+00
         25   -1    0    0    0    0  0.00000000000E+00  0.00000000000E+00  0.99999998245E-14  0.12500000000E+03  0.12500000000E+03 0.  0.
        -11    1    3    3    0    0  0.27666251365E+02  0.44614532730E+01  0.24821952412E+02  0.37436016772E+02  0.51100000000E-03 0.  1.
         23    2    1    0    0    0  0.18412818990E+02 -0.25158928121E+02 -0.16981151661E+02  0.89498407372E+02  0.82155960484E+02 0.  0.
         11    1    3    3    0    0 -0.92534323750E+01 -0.29620381394E+02 -0.41803104073E+02  0.52062390600E+02  0.51100000000E-03 0. -1.
         22    1    1    0    0    0 -0.18412818990E+02  0.25158928121E+02  0.16981151661E+02  0.35501592628E+02  0.00000000000E+00 0. -1.
</event>
<event>
 5    1  0.8778268E-005  0.9118800E+02  0.7818608E-02  0.1130116E+00
         25   -1    0    0    0    0  0.00000000000E+00  0.00000000000E+00  0.99999998245E-14  0.12500000000E+03  0.12500000000E+03 0.  0.
        -11    1    3    3    0    0  0.23761454461E+02 -0.13904572741E+02  0.25882626816E+02  0.37786958496E+02  0.51100000000E-03 0. -1.
         23    2    1    0    0    0  0.77156477123E+01 -0.28161790255E-01 -0.28137852907E+02  0.95823454987E+02  0.91273565432E+02 0.  0.
         11    1    3    3    0    0 -0.16045806749E+02  0.13876410951E+02 -0.54020479723E+02  0.58036496490E+02  0.51100000000E-03 0.  1.
         22    1    1    0    0    0 -0.77156477123E+01  0.28161790255E-01  0.28137852907E+02  0.29176545013E+02  0.00000000000E+00 0.  1.
</event>
<event>
 5    1  0.8778268E-005  0.9118800E+02  0.7818608E-02  0.1130116E+00
         25   -1    0    0    0    0  0.00000000000E+00  0.00000000000E+00  0.99999998245E-14  0.12500000000E+03  0.12500000000E+03 0.  0.
        -11    1    3    3    0    0  0.32542523180E+02  0.32109936718E+02 -0.37065597580E+02  0.58855096425E+02  0.51100000000E-03 0.  1.
         23    2    1    0    0    0  0.24933069861E+02  0.11871724582E+02 -0.59404859380E+01  0.96753138397E+02  0.92538017049E+02 0.  0.
         11    1    3    3    0    0 -0.76094533195E+01 -0.20238212137E+02  0.31125111642E+02  0.37898041972E+02  0.51100000000E-03 0. -1.
         22    1    1    0    0    0 -0.24933069861E+02 -0.11871724582E+02  0.59404859380E+01  0.28246861603E+02  0.00000000000E+00 0.  1.
</event>
<event>
 5    1  0.8778268E-005  0.9118800E+02  0.7818608E-02  0.1130116E+00
         25   -1    0    0    0    0  0.00000000000E+00  0.00000000000E+00  0.99999998245E-14  0.12500000000E+03  0.12500000000E+03 0.  0.
        -11    1    3    3    0    0  0.44193856710E+01 -0.34601418537E+02  0.32987634462E+02  0.48010136036E+02  0.51100000000E-03 0. -1.
         23    2    1    0    0    0 -0.25324000910E+02 -0.12244071382E+02  0.13706189028E+01  0.96837952804E+02  0.92652513193E+02 0.  0.
         11    1    3    3    0    0 -0.29743386581E+02  0.22357347155E+02 -0.31617015560E+02  0.48827816768E+02  0.51100000000E-03 0.  1.
         22    1    1    0    0    0  0.25324000910E+02  0.12244071382E+02 -0.13706189028E+01  0.28162047196E+02  0.00000000000E+00 0. -1.
</event>
<event>
 5    1  0.8778268E-005  0.9118800E+02  0.7818608E-02  0.1130116E+00
         25   -1    0    0    0    0  0.00000000000E+00  0.00000000000E+00  0.99999998245E-14  0.12500000000E+03  0.12500000000E+03 0.  0.
        -11    1    3    3    0    0  0.24395473170E+02  0.33689596324E+02  0.21998634742E+02  0.47053883394E+02  0.51100000000E-03 0. -1.
         23    2    1    0    0    0 -0.13235554511E+02  0.24646311979E+02 -0.78667230722E+01  0.95939615810E+02  0.91432510369E+02 0.  0.
         11    1    3    3    0    0 -0.37631027682E+02 -0.90432843455E+01 -0.29865357815E+02  0.48885732415E+02  0.51100000000E-03 0.  1.
         22    1    1    0    0    0  0.13235554511E+02 -0.24646311979E+02  0.78667230722E+01  0.29060384190E+02  0.00000000000E+00 0.  1.
</event>
<event>
 5    1  0.8778268E-005  0.9118800E+02  0.7818608E-02  0.1130116E+00
         25   -1    0    0    0    0  0.00000000000E+00  0.00000000000E+00  0.99999998245E-14  0.12500000000E+03  0.12500000000E+03 0.  0.
        -11    1    3    3    0    0 -0.54803411130E+02  0.12101418431E+02 -0.25598435042E+02  0.61685801254E+02  0.51100000000E-03 0. -1.
         23    2    1    0    0    0 -0.22055947482E+02  0.93855013505E+01 -0.16881170078E+02  0.95682320042E+02  0.91080074717E+02 0.  0.
         11    1    3    3    0    0  0.32747463648E+02 -0.27159170803E+01  0.87172649639E+01  0.33996518788E+02  0.51100000000E-03 0.  1.
         22    1    1    0    0    0  0.22055947482E+02 -0.93855013505E+01  0.16881170078E+02  0.29317679958E+02  0.00000000000E+00 0. -1.
</event>
<event>
 5    1  0.8778268E-005  0.9118800E+02  0.7818608E-02  0.1130116E+00
         25   -1    0    0    0    0  0.00000000000E+00  0.00000000000E+00  0.99999998245E-14  0.12500000000E+03  0.12500000000E+03 0.  0.
        -11    1    3    3    0    0 -0.31552850202E+02  0.48443458499E+02 -0.40018456358E+01  0.57951408921E+02  0.51100000000E-03 0.  1.
         23    2    1    0    0    0 -0.17077466775E+02  0.19003319033E+02  0.14507571558E+02  0.95619128021E+02  0.90993307475E+02 0.  0.
         11    1    3    3    0    0  0.14475383427E+02 -0.29440139465E+02  0.18509417194E+02  0.37667719100E+02  0.51100000000E-03 0. -1.
         22    1    1    0    0    0  0.17077466775E+02 -0.19003319033E+02 -0.14507571558E+02  0.29380871979E+02  0.00000000000E+00 0.  1.
</event>
<event>
 5    1  0.8778268E-005  0.9118800E+02  0.7818608E-02  0.1130116E+00
         25   -1    0    0    0    0  0.00000000000E+00  0.00000000000E+00  0.99999998245E-14  0.12500000000E+03  0.12500000000E+03 0.  0.
        -11    1    3    3    0    0 -0.20436772586E+02  0.35765302727E+02  0.13238972507E+02  0.43267643178E+02  0.51100000000E-03 0.  1.
         23    2    1    0    0    0 -0.29242842892E+02 -0.11050839900E+02 -0.29965573378E+01  0.93595473594E+02  0.88169543485E+02 0.  0.
         11    1    3    3    0    0 -0.88060703066E+01 -0.46816142627E+02 -0.16235529845E+02  0.50327830416E+02  0.51100000000E-03 0. -1.
         22    1    1    0    0    0  0.29242842892E+02  0.11050839900E+02  0.29965573378E+01  0.31404526406E+02  0.00000000000E+00 0.  1.
</event>
<event>
 5    1  0.8778268E-005  0.9118800E+02  0.7818608E-02  0.1130116E+00
         25   -1    0    0    0    0  0.00000000000E+00  0.00000000000E+00  0.99999998245E-14  0.12500000000E+03  0.12500000000E+03 0.  0.
        -11    1    3    3    0    0 -0.19797892637E+02  0.16533549833E+02 -0.45040729964E+02  0.51903585415E+02  0.51100000000E-03 0.  1.
         23    2    1    0    0    0 -0.29515408549E+02 -0.32986896495E+00 -0.69546935271E+01  0.94674500542E+02  0.89686259458E+02 0.  0.
         11    1    3    3    0    0 -0.97175159119E+01 -0.16863418798E+02  0.38086036437E+02  0.42770915127E+02  0.51100000000E-03 0. -1.
         22    1    1    0    0    0  0.29515408549E+02  0.32986896495E+00  0.69546935271E+01  0.30325499458E+02  0.00000000000E+00 0.  1.
</event>
<event>
 5    1  0.8778268E-005  0.9118800E+02  0.7818608E-02  0.1130116E+00
         25   -1    0    0    0    0  0.00000000000E+00  0.00000000000E+00  0.99999998245E-14  0.12500000000E+03  0.12500000000E+03 0.  0.
        -11    1    3    3    0    0  0.27206444912E+02 -0.22111772482E+02 -0.75683949228E+01  0.35866442938E+02  0.51100000000E-03 0.  1.
         23    2    1    0    0    0 -0.13177656942E+02  0.12283933259E+02  0.21974463748E+02  0.96584815401E+02  0.92310366971E+02 0.  0.
         11    1    3    3    0    0 -0.40384101854E+02  0.34395705740E+02  0.29542858671E+02  0.60718372463E+02  0.51100000000E-03 0. -1.
         22    1    1    0    0    0  0.13177656942E+02 -0.12283933259E+02 -0.21974463748E+02  0.28415184599E+02  0.00000000000E+00 0. -1.
</event>
<event>
 5    1  0.8778268E-005  0.9118800E+02  0.7818608E-02  0.1130116E+00
         25   -1    0    0    0    0  0.00000000000E+00  0.00000000000E+00  0.99999998245E-14  0.12500000000E+03  0.12500000000E+03 0.  0.
        -11    1    3    3    0    0 -0.18960216574E+02  0.41565289175E+02  0.25359439708E+02  0.52251930675E+02  0.51100000000E-03 0.  1.
         23    2    1    0    0    0  0.12501641248E+02  0.12273398749E+02  0.24033095719E+02  0.95259168798E+02  0.90497470680E+02 0.  0.
         11    1    3    3    0    0  0.31461857821E+02 -0.29291890426E+02 -0.13263439887E+01  0.43007238123E+02  0.51100000000E-03 0. -1.
         22    1    1    0    0    0 -0.12501641248E+02 -0.12273398749E+02 -0.24033095719E+02  0.29740831202E+02  0.00000000000E+00 0.  1.
</event>
<event>
 5    1  0.8778268E-005  0.9118800E+02  0.7818608E-02  0.1130116E+00
         25   -1    0    0    0    0  0.00000000000E+00  0.00000000000E+00  0.99999998245E-14  0.12500000000E+03  0.12500000000E+03 0.  0.
        -11    1    3    3    0    0 -0.15960744325E+02 -0.26787751607E+02  0.28933885012E+02  0.42538202804E+02  0.51100000000E-03 0.  1.
         23    2    1    0    0    0  0.65901208824E+01  0.20835801045E+02  0.18748461103E+02  0.96206509552E+02  0.91796663273E+02 0.  0.
         11    1    3    3    0    0  0.22550865207E+02  0.47623552652E+02 -0.10185423909E+02  0.53668306749E+02  0.51100000000E-03 0. -1.
         22    1    1    0    0    0 -0.65901208824E+01 -0.20835801045E+02 -0.18748461103E+02  0.28793490448E+02  0.00000000000E+00 0.  1.
</event>
<event>
 5    1  0.8778268E-005  0.9118800E+02  0.7818608E-02  0.1130116E+00
         25   -1    0    0    0    0  0.00000000000E+00  0.00000000000E+00  0.99999998245E-14  0.12500000000E+03  0.12500000000E+03 0.  0.
        -11    1    3    3    0    0 -0.42488657743E+02  0.25504646829E+02  0.45865870177E+01  0.49767557982E+02  0.51100000000E-03 0. -1.
         23    2    1    0    0    0 -0.36678385636E+01  0.15272857913E+02 -0.22035838644E+02  0.97939116547E+02  0.94126399786E+02 0.  0.
         11    1    3    3    0    0  0.38820819180E+02 -0.10231788917E+02 -0.26622425661E+02  0.48171558565E+02  0.51100000000E-03 0.  1.
         22    1    1    0    0    0  0.36678385636E+01 -0.15272857913E+02  0.22035838644E+02  0.27060883453E+02  0.00000000000E+00 0. -1.
</event>
<event>
 5    1  0.8778268E-005  0.9118800E+02  0.7818608E-02  0.1130116E+00
         25   -1    0    0    0    0  0.00000000000E+00  0.00000000000E+00  0.99999998245E-14  0.12500000000E+03  0.12500000000E+03 0.  0.
        -11    1    3    3    0    0  0.11498594655E+01  0.42551988424E+02 -0.30852390412E+02  0.52572463229E+02  0.51100000000E-03 0.  1.
         23    2    1    0    0    0  0.24070293729E+02  0.16715434847E+02 -0.60932804318E+01  0.95068196366E+02  0.90233303672E+02 0.  0.
         11    1    3    3    0    0  0.22920434264E+02 -0.25836553577E+02  0.24759109980E+02  0.42495733137E+02  0.51100000000E-03 0. -1.
         22    1    1    0    0    0 -0.24070293729E+02 -0.16715434847E+02  0.60932804318E+01  0.29931803634E+02  0.00000000000E+00 0.  1.
</event>
<event>
 5    1  0.8778268E-005  0.9118800E+02  0.7818608E-02  0.1130116E+00
         25   -1    0    0    0    0  0.00000000000E+00  0.00000000000E+00  0.99999998245E-14  0.12500000000E+03  0.12500000000E+03 0.  0.
        -11    1    3    3    0    0 -0.43667849024E+02  0.39481124689E+02 -0.46522911576E+01  0.59053230719E+02  0.51100000000E-03 0. -1.
         23    2    1    0    0    0 -0.27446573074E+02  0.76234585849E+01 -0.91410085041E+01  0.95083624371E+02  0.90254673523E+02 0.  0.
         11    1    3    3    0    0  0.16221275950E+02 -0.31857666104E+02 -0.44887173465E+01  0.36030393652E+02  0.51100000000E-03 0.  1.
         22    1    1    0    0    0  0.27446573074E+02 -0.76234585849E+01  0.91410085041E+01  0.29916375629E+02  0.00000000000E+00 0. -1.
</event>
<event>
 5    1  0.8778268E-005  0.9118800E+02  0.7818608E-02  0.1130116E+00
         25   -1    0    0    0    0  0.00000000000E+00  0.00000000000E+00  0.99999998245E-14  0.12500000000E+03  0.12500000000E+03 0.  0.
        -11    1    3    3    0    0 -0.49013813490E+02 -0.35455279913E+02  0.13749982514E+02  0.62036221726E+02  0.51100000000E-03 0.  1.
         23    2    1    0    0    0 -0.25175451233E+02 -0.12554383709E+02  0.91860653923E+01  0.95406086901E+02  0.90700174891E+02 0.  0.
         11    1    3    3    0    0  0.23838362257E+02  0.22900896204E+02 -0.45639171220E+01  0.33369865176E+02  0.51100000000E-03 0. -1.
         22    1    1    0    0    0  0.25175451233E+02  0.12554383709E+02 -0.91860653923E+01  0.29593913099E+02  0.00000000000E+00 0.  1.
</event>
<event>
 5    1  0.8778268E-005  0.9118800E+02  0.7818608E-02  0.1130116E+00
         25   -1    0    0    0    0  0.00000000000E+00  0.00000000000E+00  0.99999998245E-14  0.12500000000E+03  0.12500000000E+03 0.  0.
        -11    1    3    3    0    0  0.80794769499E+00  0.44826387923E+02 -0.34409650344E+02  0.56516208920E+02  0.51100000000E-03 0. -1.
         23    2    1    0    0    0  0.17079836688E+02  0.11593850230E+02 -0.20095726875E+02  0.96190688604E+02  0.91775117277E+02 0.  0.
         11    1    3    3    0    0  0.16271888993E+02 -0.33232537693E+02  0.14313923469E+02  0.39674479684E+02  0.51100000000E-03 0.  1.
         22    1    1    0    0    0 -0.17079836688E+02 -0.11593850230E+02  0.20095726875E+02  0.28809311396E+02  0.00000000000E+00 0. -1.
</event>
<event>
 5    1  0.8778268E-005  0.9118800E+02  0.7818608E-02  0.1130116E+00
         25   -1    0    0    0    0  0.00000000000E+00  0.00000000000E+00  0.99999998245E-14  0.12500000000E+03  0.12500000000E+03 0.  0.
        -11    1    3    3    0    0  0.21930575688E+02  0.52692287227E+02  0.12707181737E+02  0.58471358383E+02  0.51100000000E-03 0.  1.
         23    2    1    0    0    0  0.14257864950E+02  0.18145136710E+02 -0.92720760667E+01  0.10013025747E+03  0.96992599544E+02 0.  0.
         11    1    3    3    0    0 -0.76727107375E+01 -0.34547150517E+02 -0.21979257804E+02  0.41658899083E+02  0.51100000000E-03 0. -1.
         22    1    1    0    0    0 -0.14257864950E+02 -0.18145136710E+02  0.92720760667E+01  0.24869742535E+02  0.00000000000E+00 0.  1.
</event>
<event>
 5    1  0.8778268E-005  0.9118800E+02  0.7818608E-02  0.1130116E+00
         25   -1    0    0    0    0  0.00000000000E+00  0.00000000000E+00  0.99999998245E-14  0.12500000000E+03  0.12500000000E+03 0.  0.
        -11    1    3    3    0    0  0.50996016416E+02  0.13812306117E+02 -0.22289191171E+02  0.57342667656E+02  0.51100000000E-03 0.  1.
         23    2    1    0    0    0  0.27163880910E+02 -0.99543445876E+01 -0.35843610900E+01  0.95848446925E+02  0.91307785710E+02 0.  0.
         11    1    3    3    0    0 -0.23832135506E+02 -0.23766650705E+02  0.18704830081E+02  0.38505779269E+02  0.51100000000E-03 0. -1.
         22    1    1    0    0    0 -0.27163880910E+02  0.99543445876E+01  0.35843610900E+01  0.29151553075E+02  0.00000000000E+00 0.  1.
</event>
<event>
 5    1  0.8778268E-005  0.9118800E+02  0.7818608E-02  0.1130116E+00
         25   -1    0    0    0    0  0.00000000000E+00  0.00000000000E+00  0.99999998245E-14  0.12500000000E+03  0.12500000000E+03 0.  0.
        -11    1    3    3    0    0  0.22833776811E+02  0.26599370427E+02 -0.48999956745E+02  0.60248681577E+02  0.51100000000E-03 0.  1.
         23    2    1    0    0    0  0.18793531995E+01  0.73066336503E+01 -0.28955046007E+02  0.95078209395E+02  0.90247173633E+02 0.  0.
         11    1    3    3    0    0 -0.20954423612E+02 -0.19292736777E+02  0.20044910738E+02  0.34829527817E+02  0.51100000000E-03 0. -1.
         22    1    1    0    0    0 -0.18793531995E+01 -0.73066336503E+01  0.28955046007E+02  0.29921790605E+02  0.00000000000E+00 0.  1.
</event>
<event>
 5    1  0.8778268E-005  0.9118800E+02  0.7818608E-02  0.1130116E+00
         25   -1    0    0    0    0  0.00000000000E+00  0.00000000000E+00  0.99999998245E-14  0.12500000000E+03  0.12500000000E+03 0.  0.
        -11    1    3    3    0    0  0.12799727288E+02 -0.14631012189E+01 -0.36455801896E+02  0.38665219202E+02  0.51100000000E-03 0. -1.
         23    2    1    0    0    0  0.35751693761E+01  0.17912031508E+02  0.19311590650E+02  0.98418799082E+02  0.94761277801E+02 0.  0.
         11    1    3    3    0    0 -0.92245579121E+01  0.19375132727E+02  0.55767392546E+02  0.59753579880E+02  0.51100000000E-03 0.  1.
         22    1    1    0    0    0 -0.35751693761E+01 -0.17912031508E+02 -0.19311590650E+02  0.26581200918E+02  0.00000000000E+00 0.  1.
</event>
<event>
 5    1  0.8778268E-005  0.9118800E+02  0.7818608E-02  0.1130116E+00
         25   -1    0    0    0    0  0.00000000000E+00  0.00000000000E+00  0.99999998245E-14  0.12500000000E+03  0.12500000000E+03 0.  0.
        -11    1    3    3    0    0 -0.23318191286E+02  0.50502586381E+02  0.21381366355E+02  0.59593725370E+02  0.51100000000E-03 0.  1.
         23    2    1    0    0    0 -0.14265946490E+02  0.25250776780E+02 -0.29995801854E+01  0.95843243690E+02  0.91300662223E+02 0.  0.
         11    1    3    3    0    0  0.90522447962E+01 -0.25251809601E+02 -0.24380946540E+02  0.36249518320E+02  0.51100000000E-03 0. -1.
         22    1    1    0    0    0  0.14265946490E+02 -0.25250776780E+02  0.29995801854E+01  0.29156756310E+02  0.00000000000E+00 0.  1.
</event>
<event>
 5    1  0.8778268E-005  0.9118800E+02  0.7818608E-02  0.1130116E+00
         25   -1    0    0    0    0  0.00000000000E+00  0.00000000000E+00  0.99999998245E-14  0.12500000000E+03  0.12500000000E+03 0.  0.
        -11    1    3    3    0    0 -0.29887675203E+02  0.50127443394E+01 -0.14327204674E+02  0.33521180302E+02  0.51100000000E-03 0.  1.
         23    2    1    0    0    0 -0.10136423677E+02 -0.34040074496E+02  0.15255418026E+02  0.86345096873E+02  0.77209288419E+02 0.  0.
         11    1    3    3    0    0  0.19751251526E+02 -0.39052818835E+02  0.29582622700E+02  0.52823916571E+02  0.51100000000E-03 0. -1.
         22    1    1    0    0    0  0.10136423677E+02  0.34040074496E+02 -0.15255418026E+02  0.38654903127E+02  0.00000000000E+00 0. -1.
</event>
<event>
 5    1  0.8778268E-005  0.9118800E+02  0.7818608E-02  0.1130116E+00
         25   -1    0    0    0    0  0.00000000000E+00  0.00000000000E+00  0.99999998245E-14  0.12500000000E+03  0.12500000000E+03 0.  0.
        -11    1    3    3    0    0  0.10274674292E+02 -0.80502077907E+01  0.36250008992E+02  0.38528404191E+02  0.51100000000E-03 0.  1.
         23    2    1    0    0    0 -0.23951439512E+02 -0.13040415768E+02 -0.97120709688E+01  0.96050937483E+02  0.91584574961E+02 0.  0.
         11    1    3    3    0    0 -0.34226113804E+02 -0.49902079772E+01 -0.45962079961E+02  0.57522533292E+02  0.51100000000E-03 0. -1.
         22    1    1    0    0    0  0.23951439512E+02  0.13040415768E+02  0.97120709688E+01  0.28949062517E+02  0.00000000000E+00 0.  1.
</event>
<event>
 5    1  0.8778268E-005  0.9118800E+02  0.7818608E-02  0.1130116E+00
         25   -1    0    0    0    0  0.00000000000E+00  0.00000000000E+00  0.99999998245E-14  0.12500000000E+03  0.12500000000E+03 0.  0.
        -11    1    3    3    0    0 -0.19357119394E+02  0.11570444531E+02 -0.26026439102E+02  0.34437607211E+02  0.51100000000E-03 0.  1.
         23    2    1    0    0    0  0.43219266646E+01 -0.37295119964E+01  0.28560417320E+02  0.95874654554E+02  0.91343656805E+02 0.  0.
         11    1    3    3    0    0  0.23679046058E+02 -0.15299956527E+02  0.54586856422E+02  0.61437047343E+02  0.51100000000E-03 0. -1.
         22    1    1    0    0    0 -0.43219266646E+01  0.37295119964E+01 -0.28560417320E+02  0.29125345446E+02  0.00000000000E+00 0. -1.
</event>
<event>
 5    1  0.8778268E-005  0.9118800E+02  0.7818608E-02  0.1130116E+00
         25   -1    0    0    0    0  0.00000000000E+00  0.00000000000E+00  0.99999998245E-14  0.12500000000E+03  0.12500000000E+03 0.  0.
        -11    1    3    3    0    0 -0.13853855200E+02 -0.43501111795E+02 -0.36425152570E+02  0.58404347196E+02  0.51100000000E-03 0.  1.
         23    2    1    0    0    0 -0.18869419927E+02 -0.22894233281E+02 -0.72758272165E+01  0.94452682809E+02  0.89376566851E+02 0.  0.
         11    1    3    3    0    0 -0.50155647272E+01  0.20606878515E+02  0.29149325353E+02  0.36048335613E+02  0.51100000000E-03 0. -1.
         22    1    1    0    0    0  0.18869419927E+02  0.22894233281E+02  0.72758272165E+01  0.30547317191E+02  0.00000000000E+00 0.  1.
</event>
<event>
 5    1  0.8778268E-005  0.9118800E+02  0.7818608E-02  0.1130116E+00
         25   -1    0    0    0    0  0.00000000000E+00  0.00000000000E+00  0.99999998245E-14  0.12500000000E+03  0.12500000000E+03 0.  0.
        -11    1    3    3    0    0 -0.85507706077E+01  0.58988871253E+02  0.12868145922E+02  0.60978617477E+02  0.51100000000E-03 0. -1.
         23    2    1    0    0    0  0.53640188713E+01  0.26906056555E+02  0.88150267819E+01  0.96183107819E+02  0.91764791477E+02 0.  0.
         11    1    3    3    0    0  0.13914789479E+02 -0.32082814698E+02 -0.40531191404E+01  0.35204490342E+02  0.51100000000E-03 0.  1.
         22    1    1    0    0    0 -0.53640188713E+01 -0.26906056555E+02 -0.88150267819E+01  0.28816892181E+02  0.00000000000E+00 0. -1.
</event>
<event>
 5    1  0.8778268E-005  0.9118800E+02  0.7818608E-02  0.1130116E+00
         25   -1    0    0    0    0  0.00000000000E+00  0.00000000000E+00  0.99999998245E-14  0.12500000000E+03  0.12500000000E+03 0.  0.
        -11    1    3    3    0    0 -0.49433706375E+02 -0.14578145255E+02 -0.33642814544E+01  0.51648156163E+02  0.51100000000E-03 0.  1.
         23    2    1    0    0    0 -0.30052294741E+02 -0.13883373044E+02  0.23226789362E+02  0.84560264462E+02  0.74263491135E+02 0.  0.
         11    1    3    3    0    0  0.19381411634E+02  0.69477221151E+00  0.26591070816E+02  0.32912108300E+02  0.51100000000E-03 0. -1.
         22    1    1    0    0    0  0.30052294741E+02  0.13883373044E+02 -0.23226789362E+02  0.40439735538E+02  0.00000000000E+00 0.  1.
</event>
<event>
 5    1  0.8778268E-005  0.9118800E+02  0.7818608E-02  0.1130116E+00
         25   -1    0    0    0    0  0.00000000000E+00  0.00000000000E+00  0.99999998245E-14  0.12500000000E+03  0.12500000000E+03 0.  0.
        -11    1    3    3    0    0 -0.38316130949E+02  0.36967473685E+02  0.12257369679E+02  0.54634815944E+02  0.51100000000E-03 0. -1.
         23    2    1    0    0    0 -0.23556174159E+02  0.10386315876E+02 -0.14773856244E+02  0.95317754014E+02  0.90578355601E+02 0.  0.
         11    1    3    3    0    0  0.14759956790E+02 -0.26581157808E+02 -0.27031225923E+02  0.40682938070E+02  0.51100000000E-03 0.  1.
         22    1    1    0    0    0  0.23556174159E+02 -0.10386315876E+02  0.14773856244E+02  0.29682245986E+02  0.00000000000E+00 0.  1.
</event>
<event>
 5    1  0.8778268E-005  0.9118800E+02  0.7818608E-02  0.1130116E+00
         25   -1    0    0    0    0  0.00000000000E+00  0.00000000000E+00  0.99999998245E-14  0.12500000000E+03  0.12500000000E+03 0.  0.
        -11    1    3    3    0    0  0.46194658748E+02 -0.27850007721E+02 -0.60146766450E+01  0.54274724894E+02  0.51100000000E-03 0.  1.
         23    2    1    0    0    0  0.69979374357E+01 -0.30393850868E+02 -0.24926605317E+01  0.93711493237E+02  0.88333874076E+02 0.  0.
         11    1    3    3    0    0 -0.39196721312E+02 -0.25438431471E+01  0.35220161132E+01  0.39436768343E+02  0.51100000000E-03 0. -1.
         22    1    1    0    0    0 -0.69979374357E+01  0.30393850868E+02  0.24926605317E+01  0.31288506763E+02  0.00000000000E+00 0.  1.
</event>
<event>
 5    1  0.8778268E-005  0.9118800E+02  0.7818608E-02  0.1130116E+00
         25   -1    0    0    0    0  0.00000000000E+00  0.00000000000E+00  0.99999998245E-14  0.12500000000E+03  0.12500000000E+03 0.  0.
        -11    1    3    3    0    0  0.55641221983E+02 -0.20235514999E+02  0.30495961452E+01  0.59285088242E+02  0.51100000000E-03 0.  1.
         23    2    1    0    0    0  0.20600043410E+02 -0.21316499337E+02 -0.41280312960E+01  0.95070155783E+02  0.90236018007E+02 0.  0.
         11    1    3    3    0    0 -0.35041178573E+02 -0.10809843382E+01 -0.71776274412E+01  0.35785067541E+02  0.51100000000E-03 0. -1.
         22    1    1    0    0    0 -0.20600043410E+02  0.21316499337E+02  0.41280312960E+01  0.29929844217E+02  0.00000000000E+00 0.  1.
</event>
<event>
 5    1  0.8778268E-005  0.9118800E+02  0.7818608E-02  0.1130116E+00
         25   -1    0    0    0    0  0.00000000000E+00  0.00000000000E+00  0.99999998245E-14  0.12500000000E+03  0.12500000000E+03 0.  0.
        -11    1    3    3    0    0 -0.41012991762E+02  0.26493725403E+02 -0.44527721858E+01  0.49028666710E+02  0.51100000000E-03 0.  1.
         23    2    1    0    0    0 -0.46921484933E+02  0.11075290263E+02  0.14967139022E+02  0.74519280381E+02  0.54816239339E+02 0.  0.
         11    1    3    3    0    0 -0.59084931708E+01 -0.15418435140E+02  0.19419911208E+02  0.25490613671E+02  0.51100000000E-03 0. -1.
         22    1    1    0    0    0  0.46921484933E+02 -0.11075290263E+02 -0.14967139022E+02  0.50480719619E+02  0.00000000000E+00 0.  1.
</event>
<event>
 5    1  0.8778268E-005  0.9118800E+02  0.7818608E-02  0.1130116E+00
         25   -1    0    0    0    0  0.00000000000E+00  0.00000000000E+00  0.99999998245E-14  0.12500000000E+03  0.12500000000E+03 0.  0.
        -11    1    3    3    0    0  0.32651690424E+02  0.60893525132E+01  0.77074540453E+01  0.34097183897E+02  0.51100000000E-03 0.  1.
         23    2    1    0    0    0 -0.23295289470E+02  0.39100430528E+01 -0.17602407084E+02  0.95541492174E+02  0.90886594410E+02 0.  0.
         11    1    3    3    0    0 -0.55946979894E+02 -0.21793094604E+01 -0.25309861129E+02  0.61444308277E+02  0.51100000000E-03 0. -1.
         22    1    1    0    0    0  0.23295289470E+02 -0.39100430528E+01  0.17602407084E+02  0.29458507826E+02  0.00000000000E+00 0. -1.
</event>
<event>
 5    1  0.8778268E-005  0.9118800E+02  0.7818608E-02  0.1130116E+00
         25   -1    0    0    0    0  0.00000000000E+00  0.00000000000E+00  0.99999998245E-14  0.12500000000E+03  0.12500000000E+03 0.  0.
        -11    1    3    3    0    0 -0.16490805785E+02 -0.50297925643E+02 -0.75583580543E+01  0.53469213349E+02  0.51100000000E-03 0.  1.
         23    2    1    0    0    0 -0.25861695180E+02 -0.12825917908E+02  0.78959879323E+01  0.95072118798E+02  0.90238737245E+02 0.  0.
         11    1    3    3    0    0 -0.93708893958E+01  0.37472007735E+02  0.15454345987E+02  0.41602905450E+02  0.51100000000E-03 0. -1.
         22    1    1    0    0    0  0.25861695180E+02  0.12825917908E+02 -0.78959879323E+01  0.29927881202E+02  0.00000000000E+00 0. -1.
</event>
<event>
 5    1  0.8778268E-005  0.9118800E+02  0.7818608E-02  0.1130116E+00
         25   -1    0    0    0    0  0.00000000000E+00  0.00000000000E+00  0.99999998245E-14  0.12500000000E+03  0.12500000000E+03 0.  0.
        -11    1    3    3    0    0  0.37820286931E+02 -0.96843834957E+01  0.28941899711E+02  0.48598301888E+02  0.51100000000E-03 0. -1.
         23    2    1    0    0    0 -0.59096388735E+01 -0.21636980974E+02  0.20299049774E+02  0.94748814916E+02  0.89789775191E+02 0.  0.
         11    1    3    3    0    0 -0.43729925805E+02 -0.11952597478E+02 -0.86428499368E+01  0.46150513027E+02  0.51100000000E-03 0.  1.
         22    1    1    0    0    0  0.59096388735E+01  0.21636980974E+02 -0.20299049774E+02  0.30251185084E+02  0.00000000000E+00 0.  1.
</event>
<event>
 5    1  0.8778268E-005  0.9118800E+02  0.7818608E-02  0.1130116E+00
         25   -1    0    0    0    0  0.00000000000E+00  0.00000000000E+00  0.99999998245E-14  0.12500000000E+03  0.12500000000E+03 0.  0.
        -11    1    3    3    0    0  0.17353719140E+02 -0.21193287645E+02  0.19180610323E+02  0.33439539796E+02  0.51100000000E-03 0.  1.
         23    2    1    0    0    0 -0.10565482717E+02  0.21948131993E+02 -0.16125917467E+02  0.95787072430E+02  0.91223725574E+02 0.  0.
         11    1    3    3    0    0 -0.27919201857E+02  0.43141419638E+02 -0.35306527790E+02  0.62347532634E+02  0.51100000000E-03 0. -1.
         22    1    1    0    0    0  0.10565482717E+02 -0.21948131993E+02  0.16125917467E+02  0.29212927570E+02  0.00000000000E+00 0. -1.
</event>
<event>
 5    1  0.8778268E-005  0.9118800E+02  0.7818608E-02  0.1130116E+00
         25   -1    0    0    0    0  0.00000000000E+00  0.00000000000E+00  0.99999998245E-14  0.12500000000E+03  0.12500000000E+03 0.  0.
        -11    1    3    3    0    0  0.41175151492E+02  0.17259550949E+02  0.25184584222E+02  0.51259618435E+02  0.51100000000E-03 0.  1.
         23    2    1    0    0    0  0.20595544267E+02  0.22234289131E+02 -0.10645194606E+02  0.92877418768E+02  0.87145594794E+02 0.  0.
         11    1    3    3    0    0 -0.20579607225E+02  0.49747381814E+01 -0.35829778828E+02  0.41617800333E+02  0.51100000000E-03 0. -1.
         22    1    1    0    0    0 -0.20595544267E+02 -0.22234289131E+02  0.10645194606E+02  0.32122581232E+02  0.00000000000E+00 0.  1.
</event>
<event>
 5    1  0.8778268E-005  0.9118800E+02  0.7818608E-02  0.1130116E+00
         25   -1    0    0    0    0  0.00000000000E+00  0.00000000000E+00  0.99999998245E-14  0.12500000000E+03  0.12500000000E+03 0.  0.
        -11    1    3    3    0    0  0.53187192022E+01  0.40290065395E+02  0.34549804710E+02  0.53341045633E+02  0.51100000000E-03 0. -1.
         23    2    1    0    0    0 -0.10078599995E+02  0.40675633105E+02  0.10669694728E+02  0.81757339445E+02  0.69385408129E+02 0.  0.
         11    1    3    3    0    0 -0.15397319197E+02  0.38556771001E+00 -0.23880109983E+02  0.28416293811E+02  0.51100000000E-03 0.  1.
         22    1    1    0    0    0  0.10078599995E+02 -0.40675633105E+02 -0.10669694728E+02  0.43242660555E+02  0.00000000000E+00 0. -1.
</event>
<event>
 5    1  0.8778268E-005  0.9118800E+02  0.7818608E-02  0.1130116E+00
         25   -1    0    0    0    0  0.00000000000E+00  0.00000000000E+00  0.99999998245E-14  0.12500000000E+03  0.12500000000E+03 0.  0.
        -11    1    3    3    0    0 -0.22039613624E+01  0.32813063107E+02 -0.17908894405E+02  0.37447070048E+02  0.51100000000E-03 0. -1.
         23    2    1    0    0    0  0.95923708095E+01 -0.65809797261E+00  0.27954731943E+02  0.95437968462E+02  0.90744102373E+02 0.  0.
         11    1    3    3    0    0  0.11796332172E+02 -0.33471161079E+02  0.45863626348E+02  0.57990898413E+02  0.51100000000E-03 0.  1.
         22    1    1    0    0    0 -0.95923708095E+01  0.65809797261E+00 -0.27954731943E+02  0.29562031538E+02  0.00000000000E+00 0.  1.
</event>
<event>
 5    1  0.8778268E-005  0.9118800E+02  0.7818608E-02  0.1130116E+00
         25   -1    0    0    0    0  0.00000000000E+00  0.00000000000E+00  0.99999998245E-14  0.12500000000E+03  0.12500000000E+03 0.  0.
        -11    1    3    3    0    0 -0.71461530406E+01 -0.12618860754E+02  0.44704472964E+02  0.46997798387E+02  0.51100000000E-03 0. -1.
         23    2    1    0    0    0 -0.71405991747E+00 -0.37393849419E+02  0.19927720464E+02  0.82621657668E+02  0.70925414464E+02 0.  0.
         11    1    3    3    0    0  0.64320931231E+01 -0.24774988665E+02 -0.24776752500E+02  0.35623859280E+02  0.51100000000E-03 0.  1.
         22    1    1    0    0    0  0.71405991747E+00  0.37393849419E+02 -0.19927720464E+02  0.42378342332E+02  0.00000000000E+00 0. -1.
</event>
<event>
 5    1  0.8778268E-005  0.9118800E+02  0.7818608E-02  0.1130116E+00
         25   -1    0    0    0    0  0.00000000000E+00  0.00000000000E+00  0.99999998245E-14  0.12500000000E+03  0.12500000000E+03 0.  0.
        -11    1    3    3    0    0  0.32626848076E+02 -0.29156623731E+01  0.17244403666E+02  0.37018667730E+02  0.51100000000E-03 0. -1.
         23    2    1    0    0    0 -0.19211367381E+02 -0.22928051526E+02  0.39315023781E+00  0.95084673652E+02  0.90256126733E+02 0.  0.
         11    1    3    3    0    0 -0.51838215457E+02 -0.20012389153E+02 -0.16851253428E+02  0.58066005922E+02  0.51100000000E-03 0.  1.
         22    1    1    0    0    0  0.19211367381E+02  0.22928051526E+02 -0.39315023781E+00  0.29915326348E+02  0.00000000000E+00 0.  1.
</event>
<event>
 5    1  0.8778268E-005  0.9118800E+02  0.7818608E-02  0.1130116E+00
         25   -1    0    0    0    0  0.00000000000E+00  0.00000000000E+00  0.99999998245E-14  0.12500000000E+03  0.12500000000E+03 0.  0.
        -11    1    3    3    0    0  0.41493697693E+02 -0.27935619118E+02  0.26062301385E+02  0.56403628585E+02  0.51100000000E-03 0. -1.
         23    2    1    0    0    0  0.11462265338E+02 -0.31174599110E+02  0.14734291053E+02  0.88663537745E+02  0.80875734534E+02 0.  0.
         11    1    3    3    0    0 -0.30031432355E+02 -0.32389799920E+01 -0.11328010332E+02  0.32259909161E+02  0.51100000000E-03 0.  1.
         22    1    1    0    0    0 -0.11462265338E+02  0.31174599110E+02 -0.14734291053E+02  0.36336462255E+02  0.00000000000E+00 0. -1.
</event>
<event>
 5    1  0.8778268E-005  0.9118800E+02  0.7818608E-02  0.1130116E+00
         25   -1    0    0    0    0  0.00000000000E+00  0.00000000000E+00  0.99999998245E-14  0.12500000000E+03  0.12500000000E+03 0.  0.
        -11    1    3    3    0    0 -0.44630883878E+02  0.38871188318E+02  0.12605510153E+02  0.60512676056E+02  0.51100000000E-03 0.  1.
         23    2    1    0    0    0 -0.24763570432E+02  0.29808009659E+02 -0.98804334726E+00  0.86234963046E+02  0.77030778014E+02 0.  0.
         11    1    3    3    0    0  0.19867313446E+02 -0.90631786586E+01 -0.13593553500E+02  0.25722286990E+02  0.51100000000E-03 0. -1.
         22    1    1    0    0    0  0.24763570432E+02 -0.29808009659E+02  0.98804334726E+00  0.38765036954E+02  0.00000000000E+00 0.  1.
</event>
<event>
 5    1  0.8778268E-005  0.9118800E+02  0.7818608E-02  0.1130116E+00
         25   -1    0    0    0    0  0.00000000000E+00  0.00000000000E+00  0.99999998245E-14  0.12500000000E+03  0.12500000000E+03 0.  0.
        -11    1    3    3    0    0  0.35318146674E+02  0.17001360959E+02 -0.63791460549E+01  0.39712860179E+02  0.51100000000E-03 0.  1.
         23    2    1    0    0    0 -0.18830456329E+02  0.19748283964E+02 -0.13774941668E+02  0.94433190826E+02  0.89349301657E+02 0.  0.
         11    1    3    3    0    0 -0.54148603003E+02  0.27469230052E+01 -0.73957956134E+01  0.54720330647E+02  0.51100000000E-03 0. -1.
         22    1    1    0    0    0  0.18830456329E+02 -0.19748283964E+02  0.13774941668E+02  0.30566809174E+02  0.00000000000E+00 0. -1.
</event>
<event>
 5    1  0.8778268E-005  0.9118800E+02  0.7818608E-02  0.1130116E+00
         25   -1    0    0    0    0  0.00000000000E+00  0.00000000000E+00  0.99999998245E-14  0.12500000000E+03  0.12500000000E+03 0.  0.
        -11    1    3    3    0    0  0.34430902800E+01 -0.32157892725E+02  0.22266496495E+02  0.39265529433E+02  0.51100000000E-03 0.  1.
         23    2    1    0    0    0 -0.21067025747E+02  0.17170553533E+02  0.11974375399E+02  0.95300957109E+02  0.90555172559E+02 0.  0.
         11    1    3    3    0    0 -0.24510116027E+02  0.49328446258E+02 -0.10292121096E+02  0.56035427676E+02  0.51100000000E-03 0. -1.
         22    1    1    0    0    0  0.21067025747E+02 -0.17170553533E+02 -0.11974375399E+02  0.29699042891E+02  0.00000000000E+00 0. -1.
</event>
<event>
 5    1  0.8778268E-005  0.9118800E+02  0.7818608E-02  0.1130116E+00
         25   -1    0    0    0    0  0.00000000000E+00  0.00000000000E+00  0.99999998245E-14  0.12500000000E+03  0.12500000000E+03 0.  0.
        -11    1    3    3    0    0  0.32339725280E+02 -0.95391083325E+01  0.30200713068E+02  0.45265168607E+02  0.51100000000E-03 0.  1.
         23    2    1    0    0    0 -0.16810309879E+02  0.21096824894E+01  0.23219054129E+02  0.96256970356E+02  0.91865350318E+02 0.  0.
         11    1    3    3    0    0 -0.49150035159E+02  0.11648790822E+02 -0.69816589387E+01  0.50991801749E+02  0.51100000000E-03 0. -1.
         22    1    1    0    0    0  0.16810309879E+02 -0.21096824894E+01 -0.23219054129E+02  0.28743029644E+02  0.00000000000E+00 0. -1.
</event>
<event>
 5    1  0.8778268E-005  0.9118800E+02  0.7818608E-02  0.1130116E+00
         25   -1    0    0    0    0  0.00000000000E+00  0.00000000000E+00  0.99999998245E-14  0.12500000000E+03  0.12500000000E+03 0.  0.
        -11    1    3    3    0    0 -0.23059878291E+02  0.53188842652E+02  0.15385057078E+02  0.59979254338E+02  0.51100000000E-03 0. -1.
         23    2    1    0    0    0 -0.18721697323E+02  0.17625827446E+02  0.13745401993E+02  0.95843391491E+02  0.91300864579E+02 0.  0.
         11    1    3    3    0    0  0.43381809688E+01 -0.35563015206E+02 -0.16396550849E+01  0.35864137153E+02  0.51100000000E-03 0.  1.
         22    1    1    0    0    0  0.18721697323E+02 -0.17625827446E+02 -0.13745401993E+02  0.29156608509E+02  0.00000000000E+00 0. -1.
</event>
<event>
 5    1  0.8778268E-005  0.9118800E+02  0.7818608E-02  0.1130116E+00
         25   -1    0    0    0    0  0.00000000000E+00  0.00000000000E+00  0.99999998245E-14  0.12500000000E+03  0.12500000000E+03 0.  0.
        -11    1    3    3    0    0 -0.40482928791E+02  0.19410418973E+02  0.49621558274E+01  0.45169180632E+02  0.51100000000E-03 0.  1.
         23    2    1    0    0    0  0.13250539617E+02 -0.66484512159E+01 -0.10470975312E+02  0.10685006811E+03  0.10529727929E+03 0.  0.
         11    1    3    3    0    0  0.53733468408E+02 -0.26058870189E+02 -0.15433131140E+02  0.61680887475E+02  0.51100000000E-03 0. -1.
         22    1    1    0    0    0 -0.13250539617E+02  0.66484512159E+01  0.10470975312E+02  0.18149931893E+02  0.00000000000E+00 0. -1.
</event>
<event>
 5    1  0.8778268E-005  0.9118800E+02  0.7818608E-02  0.1130116E+00
         25   -1    0    0    0    0  0.00000000000E+00  0.00000000000E+00  0.99999998245E-14  0.12500000000E+03  0.12500000000E+03 0.  0.
        -11    1    3    3    0    0 -0.52691494702E+02  0.28165047424E+02  0.19910541639E+01  0.59779827762E+02  0.51100000000E-03 0.  1.
         23    2    1    0    0    0 -0.17169510714E+02  0.23844948093E+02  0.17566708872E+01  0.95564315189E+02  0.90917978405E+02 0.  0.
         11    1    3    3    0    0  0.35521983988E+02 -0.43200993309E+01 -0.23438327670E+00  0.35784487427E+02  0.51100000000E-03 0. -1.
         22    1    1    0    0    0  0.17169510714E+02 -0.23844948093E+02 -0.17566708872E+01  0.29435684811E+02  0.00000000000E+00 0.  1.
</event>
<event>
 5    1  0.8778268E-005  0.9118800E+02  0.7818608E-02  0.1130116E+00
         25   -1    0    0    0    0  0.00000000000E+00  0.00000000000E+00  0.99999998245E-14  0.12500000000E+03  0.12500000000E+03 0.  0.
        -11    1    3    3    0    0  0.36655919674E+02  0.20857059771E+02  0.13568912153E+02  0.44303371956E+02  0.51100000000E-03 0.  1.
         23    2    1    0    0    0  0.18705247749E+02 -0.12875329436E+02 -0.19676664816E+02  0.94952844731E+02  0.90073365558E+02 0.  0.
         11    1    3    3    0    0 -0.17950671924E+02 -0.33732389207E+02 -0.33245576969E+02  0.50649472775E+02  0.51100000000E-03 0. -1.
         22    1    1    0    0    0 -0.18705247749E+02  0.12875329436E+02  0.19676664816E+02  0.30047155269E+02  0.00000000000E+00 0. -1.
</event>
<event>
 5    1  0.8778268E-005  0.9118800E+02  0.7818608E-02  0.1130116E+00
         25   -1    0    0    0    0  0.00000000000E+00  0.00000000000E+00  0.99999998245E-14  0.12500000000E+03  0.12500000000E+03 0.  0.
        -11    1    3    3    0    0 -0.92969535707E+01 -0.16926350638E+02  0.27308869020E+02  0.33447107783E+02  0.51100000000E-03 0. -1.
         23    2    1    0    0    0  0.44846090508E+01  0.60703248611E+01 -0.28583493746E+02  0.95436903461E+02  0.90742635322E+02 0.  0.
         11    1    3    3    0    0  0.13781562621E+02  0.22996675499E+02 -0.55892362766E+02  0.61989795678E+02  0.51100000000E-03 0.  1.
         22    1    1    0    0    0 -0.44846090508E+01 -0.60703248611E+01  0.28583493746E+02  0.29563096539E+02  0.00000000000E+00 0.  1.
</event>
<event>
 5    1  0.8778268E-005  0.9118800E+02  0.7818608E-02  0.1130116E+00
         25   -1    0    0    0    0  0.00000000000E+00  0.00000000000E+00  0.99999998245E-14  0.12500000000E+03  0.12500000000E+03 0.  0.
        -11    1    3    3    0    0  0.11300159570E+02  0.22614984800E+02 -0.18477062284E+02  0.31313463154E+02  0.51100000000E-03 0.  1.
         23    2    1    0    0    0  0.74223933400E+01 -0.27939007764E+02 -0.30031465240E+02  0.83315842552E+02  0.72138482365E+02 0.  0.
         11    1    3    3    0    0 -0.38777662300E+01 -0.50553992564E+02 -0.11554402956E+02  0.52002379398E+02  0.51100000000E-03 0. -1.
         22    1    1    0    0    0 -0.74223933400E+01  0.27939007764E+02  0.30031465240E+02  0.41684157448E+02  0.00000000000E+00 0. -1.
</event>
<event>
 5    1  0.8778268E-005  0.9118800E+02  0.7818608E-02  0.1130116E+00
         25   -1    0    0    0    0  0.00000000000E+00  0.00000000000E+00  0.99999998245E-14  0.12500000000E+03  0.12500000000E+03 0.  0.
        -11    1    3    3    0    0  0.17368658144E+02 -0.19960156445E+02 -0.55283626379E+02  0.61289130170E+02  0.51100000000E-03 0. -1.
         23    2    1    0    0    0  0.11515741046E+00 -0.72647730584E+01 -0.28517321979E+02  0.95571649016E+02  0.90928060872E+02 0.  0.
         11    1    3    3    0    0 -0.17253500733E+02  0.12695383387E+02  0.26766304401E+02  0.34282518846E+02  0.51100000000E-03 0.  1.
         22    1    1    0    0    0 -0.11515741046E+00  0.72647730584E+01  0.28517321979E+02  0.29428350984E+02  0.00000000000E+00 0. -1.
</event>
<event>
 5    1  0.8778268E-005  0.9118800E+02  0.7818608E-02  0.1130116E+00
         25   -1    0    0    0    0  0.00000000000E+00  0.00000000000E+00  0.99999998245E-14  0.12500000000E+03  0.12500000000E+03 0.  0.
        -11    1    3    3    0    0  0.14134550439E+02 -0.33967505375E+02 -0.24079621757E+02  0.43970502859E+02  0.51100000000E-03 0.  1.
         23    2    1    0    0    0 -0.27366320764E+02 -0.11150209808E+02 -0.13570552117E+02  0.92482272901E+02  0.86576949734E+02 0.  0.
         11    1    3    3    0    0 -0.41500871203E+02  0.22817295566E+02  0.10509069640E+02  0.48511770041E+02  0.51100000000E-03 0. -1.
         22    1    1    0    0    0  0.27366320764E+02  0.11150209808E+02  0.13570552117E+02  0.32517727099E+02  0.00000000000E+00 0. -1.
</event>
<event>
 5    1  0.8778268E-005  0.9118800E+02  0.7818608E-02  0.1130116E+00
         25   -1    0    0    0    0  0.00000000000E+00  0.00000000000E+00  0.99999998245E-14  0.12500000000E+03  0.12500000000E+03 0.  0.
        -11    1    3    3    0    0 -0.54694655943E+01 -0.13723866934E+02  0.60346632120E+02  0.62128701789E+02  0.51100000000E-03 0.  1.
         23    2    1    0    0    0 -0.68046310257E+01 -0.90119610514E+01  0.28591381273E+02  0.94259383082E+02  0.89105812215E+02 0.  0.
         11    1    3    3    0    0 -0.13351654314E+01  0.47119058824E+01 -0.31755250847E+02  0.32130681293E+02  0.51100000000E-03 0. -1.
         22    1    1    0    0    0  0.68046310257E+01  0.90119610514E+01 -0.28591381273E+02  0.30740616918E+02  0.00000000000E+00 0.  1.
</event>
<event>
 5    1  0.8778268E-005  0.9118800E+02  0.7818608E-02  0.1130116E+00
         25   -1    0    0    0    0  0.00000000000E+00  0.00000000000E+00  0.99999998245E-14  0.12500000000E+03  0.12500000000E+03 0.  0.
        -11    1    3    3    0    0  0.10456772596E+02 -0.35959414371E+02 -0.48268555226E+02  0.61092364490E+02  0.51100000000E-03 0.  1.
         23    2    1    0    0    0  0.89271469415E+01 -0.96920307388E+01 -0.27113917789E+02  0.94853790450E+02  0.89935797169E+02 0.  0.
         11    1    3    3    0    0 -0.15296256547E+01  0.26267383632E+02  0.21154637437E+02  0.33761425960E+02  0.51100000000E-03 0. -1.
         22    1    1    0    0    0 -0.89271469415E+01  0.96920307388E+01  0.27113917789E+02  0.30146209550E+02  0.00000000000E+00 0.  1.
</event>
<event>
 5    1  0.8778268E-005  0.9118800E+02  0.7818608E-02  0.1130116E+00
         25   -1    0    0    0    0  0.00000000000E+00  0.00000000000E+00  0.99999998245E-14  0.12500000000E+03  0.12500000000E+03 0.  0.
        -11    1    3    3    0    0  0.55548950973E+02 -0.73711998501E+01 -0.16349717150E+02  0.58372371826E+02  0.51100000000E-03 0.  1.
         23    2    1    0    0    0  0.20213958614E+02  0.55257596707E+01 -0.19831447488E+02  0.96148233118E+02  0.91717273616E+02 0.  0.
         11    1    3    3    0    0 -0.35334992360E+02  0.12896959521E+02 -0.34817303378E+01  0.37775861292E+02  0.51100000000E-03 0. -1.
         22    1    1    0    0    0 -0.20213958614E+02 -0.55257596707E+01  0.19831447488E+02  0.28851766882E+02  0.00000000000E+00 0.  1.
</event>
<event>
 5    1  0.8778268E-005  0.9118800E+02  0.7818608E-02  0.1130116E+00
         25   -1    0    0    0    0  0.00000000000E+00  0.00000000000E+00  0.99999998245E-14  0.12500000000E+03  0.12500000000E+03 0.  0.
        -11    1    3    3    0    0  0.79139769224E+01 -0.27223873639E+02  0.10946531717E+02  0.30390736804E+02  0.51100000000E-03 0. -1.
         23    2    1    0    0    0 -0.62669817015E+01  0.28197315249E+02 -0.14119964878E+02  0.92848218478E+02  0.87103700377E+02 0.  0.
         11    1    3    3    0    0 -0.14180958624E+02  0.55421188888E+02 -0.25066496595E+02  0.62457481674E+02  0.51100000000E-03 0.  1.
         22    1    1    0    0    0  0.62669817015E+01 -0.28197315249E+02  0.14119964878E+02  0.32151781522E+02  0.00000000000E+00 0.  1.
</event>
<event>
 5    1  0.8778268E-005  0.9118800E+02  0.7818608E-02  0.1130116E+00
         25   -1    0    0    0    0  0.00000000000E+00  0.00000000000E+00  0.99999998245E-14  0.12500000000E+03  0.12500000000E+03 0.  0.
        -11    1    3    3    0    0 -0.19991218681E+02  0.54812411497E+01 -0.36477302950E+02  0.41955767894E+02  0.51100000000E-03 0. -1.
         23    2    1    0    0    0  0.21574466604E+02  0.20618489633E+02 -0.99188871509E+01  0.93552201248E+02  0.88108173923E+02 0.  0.
         11    1    3    3    0    0  0.41565685285E+02  0.15137248484E+02  0.26558415799E+02  0.51596433354E+02  0.51100000000E-03 0.  1.
         22    1    1    0    0    0 -0.21574466604E+02 -0.20618489633E+02  0.99188871509E+01  0.31447798752E+02  0.00000000000E+00 0. -1.
</event>
<event>
 5    1  0.8778268E-005  0.9118800E+02  0.7818608E-02  0.1130116E+00
         25   -1    0    0    0    0  0.00000000000E+00  0.00000000000E+00  0.99999998245E-14  0.12500000000E+03  0.12500000000E+03 0.  0.
        -11    1    3    3    0    0  0.15806659310E+02 -0.27778875385E+02  0.20833378186E+02  0.38151619141E+02  0.51100000000E-03 0.  1.
         23    2    1    0    0    0  0.18088017710E+02  0.19538798351E+02 -0.12004812319E+02  0.95792868259E+02  0.91231667007E+02 0.  0.
         11    1    3    3    0    0  0.22813584003E+01  0.47317673736E+02 -0.32838190505E+02  0.57641249118E+02  0.51100000000E-03 0. -1.
         22    1    1    0    0    0 -0.18088017710E+02 -0.19538798351E+02  0.12004812319E+02  0.29207131741E+02  0.00000000000E+00 0. -1.
</event>
<event>
 5    1  0.8778268E-005  0.9118800E+02  0.7818608E-02  0.1130116E+00
         25   -1    0    0    0    0  0.00000000000E+00  0.00000000000E+00  0.99999998245E-14  0.12500000000E+03  0.12500000000E+03 0.  0.
        -11    1    3    3    0    0 -0.18711518502E+02 -0.13900366169E+02  0.25434998856E+02  0.34500438713E+02  0.51100000000E-03 0.  1.
         23    2    1    0    0    0  0.26645566888E+02  0.76384983337E+01 -0.95323804743E+01  0.95687900636E+02  0.91087733307E+02 0.  0.
         11    1    3    3    0    0  0.45357085390E+02  0.21538864503E+02 -0.34967379331E+02  0.61187461924E+02  0.51100000000E-03 0. -1.
         22    1    1    0    0    0 -0.26645566888E+02 -0.76384983337E+01  0.95323804743E+01  0.29312099364E+02  0.00000000000E+00 0. -1.
</event>
<event>
 5    1  0.8778268E-005  0.9118800E+02  0.7818608E-02  0.1130116E+00
         25   -1    0    0    0    0  0.00000000000E+00  0.00000000000E+00  0.99999998245E-14  0.12500000000E+03  0.12500000000E+03 0.  0.
        -11    1    3    3    0    0 -0.50995308570E+01 -0.25545950129E+02 -0.39175441161E+02  0.47045892205E+02  0.51100000000E-03 0.  1.
         23    2    1    0    0    0  0.25456564843E+02  0.28338559207E+01 -0.16750725004E+02  0.94395192842E+02  0.89296126515E+02 0.  0.
         11    1    3    3    0    0  0.30556095700E+02  0.28379806050E+02  0.22424716157E+02  0.47349300637E+02  0.51100000000E-03 0. -1.
         22    1    1    0    0    0 -0.25456564843E+02 -0.28338559207E+01  0.16750725004E+02  0.30604807158E+02  0.00000000000E+00 0. -1.
</event>
<event>
 5    1  0.8778268E-005  0.9118800E+02  0.7818608E-02  0.1130116E+00
         25   -1    0    0    0    0  0.00000000000E+00  0.00000000000E+00  0.99999998245E-14  0.12500000000E+03  0.12500000000E+03 0.  0.
        -11    1    3    3    0    0 -0.15328093904E+02 -0.19808127262E+02  0.45700416229E+02  0.52113725755E+02  0.51100000000E-03 0.  1.
         23    2    1    0    0    0 -0.18072448925E+02 -0.22911466428E+02  0.22817057485E+01  0.95729624445E+02  0.91144973044E+02 0.  0.
         11    1    3    3    0    0 -0.27443550210E+01 -0.31033391653E+01 -0.43418710480E+02  0.43615898689E+02  0.51100000000E-03 0. -1.
         22    1    1    0    0    0  0.18072448925E+02  0.22911466428E+02 -0.22817057485E+01  0.29270375555E+02  0.00000000000E+00 0.  1.
</event>
<event>
 5    1  0.8778268E-005  0.9118800E+02  0.7818608E-02  0.1130116E+00
         25   -1    0    0    0    0  0.00000000000E+00  0.00000000000E+00  0.99999998245E-14  0.12500000000E+03  0.12500000000E+03 0.  0.
        -11    1    3    3    0    0  0.36448222331E+01 -0.35583905206E+02 -0.32444305686E+02  0.48292152681E+02  0.51100000000E-03 0.  1.
         23    2    1    0    0    0  0.10490901219E+02 -0.24682800467E+02  0.12764299791E+02  0.95297693752E+02  0.90550667795E+02 0.  0.
         11    1    3    3    0    0  0.68460789858E+01  0.10901104739E+02  0.45208605477E+02  0.47005541072E+02  0.51100000000E-03 0. -1.
         22    1    1    0    0    0 -0.10490901219E+02  0.24682800467E+02 -0.12764299791E+02  0.29702306248E+02  0.00000000000E+00 0.  1.
</event>
<event>
 5    1  0.8778268E-005  0.9118800E+02  0.7818608E-02  0.1130116E+00
         25   -1    0    0    0    0  0.00000000000E+00  0.00000000000E+00  0.99999998245E-14  0.12500000000E+03  0.12500000000E+03 0.  0.
        -11    1    3    3    0    0 -0.38931352612E+02 -0.16549495295E+01  0.30311517976E+02  0.49367774878E+02  0.51100000000E-03 0. -1.
         23    2    1    0    0    0  0.70075090552E+01 -0.12835673881E+01  0.28798892173E+02  0.95333033205E+02  0.90599438747E+02 0.  0.
         11    1    3    3    0    0  0.45938861667E+02  0.37138214141E+00 -0.15126258027E+01  0.45965258327E+02  0.51100000000E-03 0.  1.
         22    1    1    0    0    0 -0.70075090552E+01  0.12835673881E+01 -0.28798892173E+02  0.29666966795E+02  0.00000000000E+00 0.  1.
</event>
<event>
 5    1  0.8778268E-005  0.9118800E+02  0.7818608E-02  0.1130116E+00
         25   -1    0    0    0    0  0.00000000000E+00  0.00000000000E+00  0.99999998245E-14  0.12500000000E+03  0.12500000000E+03 0.  0.
        -11    1    3    3    0    0  0.19415264154E+02  0.15049689544E+02 -0.40137322099E+02  0.47057945802E+02  0.51100000000E-03 0. -1.
         23    2    1    0    0    0 -0.16751298894E+02 -0.11713100160E+02 -0.20176976100E+02  0.96278699637E+02  0.91894912314E+02 0.  0.
         11    1    3    3    0    0 -0.36166563048E+02 -0.26762789704E+02  0.19960345999E+02  0.49220753835E+02  0.51100000000E-03 0.  1.
         22    1    1    0    0    0  0.16751298894E+02  0.11713100160E+02  0.20176976100E+02  0.28721300363E+02  0.00000000000E+00 0.  1.
</event>
<event>
 5    1  0.8778268E-005  0.9118800E+02  0.7818608E-02  0.1130116E+00
         25   -1    0    0    0    0  0.00000000000E+00  0.00000000000E+00  0.99999998245E-14  0.12500000000E+03  0.12500000000E+03 0.  0.
        -11    1    3    3    0    0  0.38945845541E+02  0.16600166168E+01  0.58321091029E+01  0.39415073727E+02  0.51100000000E-03 0.  1.
         23    2    1    0    0    0 -0.11992349339E+02 -0.24159368337E+02  0.88780151722E+01  0.96604389872E+02  0.92336869494E+02 0.  0.
         11    1    3    3    0    0 -0.50938194880E+02 -0.25819384954E+02  0.30459060693E+01  0.57189316145E+02  0.51100000000E-03 0. -1.
         22    1    1    0    0    0  0.11992349339E+02  0.24159368337E+02 -0.88780151722E+01  0.28395610128E+02  0.00000000000E+00 0. -1.
</event>
<event>
 5    1  0.8778268E-005  0.9118800E+02  0.7818608E-02  0.1130116E+00
         25   -1    0    0    0    0  0.00000000000E+00  0.00000000000E+00  0.99999998245E-14  0.12500000000E+03  0.12500000000E+03 0.  0.
        -11    1    3    3    0    0  0.16113497870E+01 -0.94076721612E+01 -0.60158136899E+02  0.60910608099E+02  0.51100000000E-03 0.  1.
         23    2    1    0    0    0  0.10446157043E+02 -0.24017235026E+01 -0.26181352196E+02  0.96709477284E+02  0.92479020978E+02 0.  0.
         11    1    3    3    0    0  0.88348072560E+01  0.70059486586E+01  0.33976784703E+02  0.35798869184E+02  0.51100000000E-03 0. -1.
         22    1    1    0    0    0 -0.10446157043E+02  0.24017235026E+01  0.26181352196E+02  0.28290522716E+02  0.00000000000E+00 0.  1.
</event>
<event>
 5    1  0.8778268E-005  0.9118800E+02  0.7818608E-02  0.1130116E+00
         25   -1    0    0    0    0  0.00000000000E+00  0.00000000000E+00  0.99999998245E-14  0.12500000000E+03  0.12500000000E+03 0.  0.
        -11    1    3    3    0    0  0.56447812486E+02 -0.17262062089E+02  0.12460113796E+02  0.60329004286E+02  0.51100000000E-03 0. -1.
         23    2    1    0    0    0  0.27591832691E+02  0.36293460593E+01  0.50576478674E+01  0.96714647147E+02  0.92486008600E+02 0.  0.
         11    1    3    3    0    0 -0.28855979796E+02  0.20891408148E+02 -0.74024659282E+01  0.36385642862E+02  0.51100000000E-03 0.  1.
         22    1    1    0    0    0 -0.27591832691E+02 -0.36293460593E+01 -0.50576478674E+01  0.28285352853E+02  0.00000000000E+00 0. -1.
</event>
<event>
 5    1  0.8778268E-005  0.9118800E+02  0.7818608E-02  0.1130116E+00
         25   -1    0    0    0    0  0.00000000000E+00  0.00000000000E+00  0.99999998245E-14  0.12500000000E+03  0.12500000000E+03 0.  0.
        -11    1    3    3    0    0  0.23546870443E+02  0.12643347747E+02 -0.55390526306E+02  0.61501380104E+02  0.51100000000E-03 0. -1.
         23    2    1    0    0    0  0.10541219295E+02 -0.18010646706E+01 -0.27476310798E+02  0.95515956973E+02  0.90851468030E+02 0.  0.
         11    1    3    3    0    0 -0.13005651148E+02 -0.14444412418E+02  0.27914215508E+02  0.34014576869E+02  0.51100000000E-03 0.  1.
         22    1    1    0    0    0 -0.10541219295E+02  0.18010646706E+01  0.27476310798E+02  0.29484043027E+02  0.00000000000E+00 0. -1.
</event>
<event>
 5    1  0.8778268E-005  0.9118800E+02  0.7818608E-02  0.1130116E+00
         25   -1    0    0    0    0  0.00000000000E+00  0.00000000000E+00  0.99999998245E-14  0.12500000000E+03  0.12500000000E+03 0.  0.
        -11    1    3    3    0    0  0.35057201594E+02  0.18667062474E+02  0.22304685755E+02  0.45551790436E+02  0.51100000000E-03 0. -1.
         23    2    1    0    0    0  0.48274777207E+01  0.28755154930E+02 -0.12967885158E+02  0.93088724224E+02  0.87448162107E+02 0.  0.
         11    1    3    3    0    0 -0.30229723874E+02  0.10088092457E+02 -0.35272570913E+02  0.47536933788E+02  0.51100000000E-03 0.  1.
         22    1    1    0    0    0 -0.48274777207E+01 -0.28755154930E+02  0.12967885158E+02  0.31911275776E+02  0.00000000000E+00 0. -1.
</event>
<event>
 5    1  0.8778268E-005  0.9118800E+02  0.7818608E-02  0.1130116E+00
         25   -1    0    0    0    0  0.00000000000E+00  0.00000000000E+00  0.99999998245E-14  0.12500000000E+03  0.12500000000E+03 0.  0.
        -11    1    3    3    0    0 -0.41826866894E+02 -0.14722240094E+02 -0.37860095652E+02  0.58306243153E+02  0.51100000000E-03 0.  1.
         23    2    1    0    0    0 -0.14864642594E+02  0.73508293642E+01 -0.24047428370E+02  0.95789195440E+02  0.91226634598E+02 0.  0.
         11    1    3    3    0    0  0.26962224300E+02  0.22073069458E+02  0.13812667282E+02  0.37482952288E+02  0.51100000000E-03 0. -1.
         22    1    1    0    0    0  0.14864642594E+02 -0.73508293642E+01  0.24047428370E+02  0.29210804560E+02  0.00000000000E+00 0.  1.
</event>
<event>
 5    1  0.8778268E-005  0.9118800E+02  0.7818608E-02  0.1130116E+00
         25   -1    0    0    0    0  0.00000000000E+00  0.00000000000E+00  0.99999998245E-14  0.12500000000E+03  0.12500000000E+03 0.  0.
        -11    1    3    3    0    0  0.32452462805E+02 -0.10707250392E+02 -0.21035056368E+02  0.40128308582E+02  0.51100000000E-03 0.  1.
         23    2    1    0    0    0  0.45725966895E-01 -0.12762520320E+02  0.25273328377E+02  0.96687014587E+02  0.92448654110E+02 0.  0.
         11    1    3    3    0    0 -0.32406736838E+02 -0.20552699283E+01  0.46308384745E+02  0.56558706004E+02  0.51100000000E-03 0. -1.
         22    1    1    0    0    0 -0.45725966895E-01  0.12762520320E+02 -0.25273328377E+02  0.28312985413E+02  0.00000000000E+00 0. -1.
</event>
<event>
 5    1  0.8778268E-005  0.9118800E+02  0.7818608E-02  0.1130116E+00
         25   -1    0    0    0    0  0.00000000000E+00  0.00000000000E+00  0.99999998245E-14  0.12500000000E+03  0.12500000000E+03 0.  0.
        -11    1    3    3    0    0  0.24773381562E+02  0.12038034623E+02 -0.41178280477E+02  0.49540745805E+02  0.51100000000E-03 0. -1.
         23    2    1    0    0    0  0.18483922151E+02 -0.21286080845E+02 -0.11689399591E+02  0.94481240546E+02  0.89416498122E+02 0.  0.
         11    1    3    3    0    0 -0.62894594106E+01 -0.33324115468E+02  0.29488880886E+02  0.44940494741E+02  0.51100000000E-03 0.  1.
         22    1    1    0    0    0 -0.18483922151E+02  0.21286080845E+02  0.11689399591E+02  0.30518759454E+02  0.00000000000E+00 0.  1.
</event>
<event>
 5    1  0.8778268E-005  0.9118800E+02  0.7818608E-02  0.1130116E+00
         25   -1    0    0    0    0  0.00000000000E+00  0.00000000000E+00  0.99999998245E-14  0.12500000000E+03  0.12500000000E+03 0.  0.
        -11    1    3    3    0    0 -0.12821898229E+02 -0.14804072924E+02 -0.57080054124E+02  0.60346451664E+02  0.51100000000E-03 0.  1.
         23    2    1    0    0    0  0.63006585279E+01 -0.77307178039E+01 -0.19071375508E+02  0.10347839087E+03  0.10121560017E+03 0.  0.
         11    1    3    3    0    0  0.19122556757E+02  0.70733551199E+01  0.38008678616E+02  0.43131939210E+02  0.51100000000E-03 0. -1.
         22    1    1    0    0    0 -0.63006585279E+01  0.77307178039E+01  0.19071375508E+02  0.21521609127E+02  0.00000000000E+00 0.  1.
</event>
<event>
 5    1  0.8778268E-005  0.9118800E+02  0.7818608E-02  0.1130116E+00
         25   -1    0    0    0    0  0.00000000000E+00  0.00000000000E+00  0.99999998245E-14  0.12500000000E+03  0.12500000000E+03 0.  0.
        -11    1    3    3    0    0  0.29733798378E+02 -0.31178134845E+01  0.46152536909E+02  0.54989782599E+02  0.51100000000E-03 0.  1.
         23    2    1    0    0    0  0.74741084776E+01  0.17960294847E+02  0.28887273583E+02  0.90173155991E+02  0.83176252607E+02 0.  0.
         11    1    3    3    0    0 -0.22259689900E+02  0.21078108332E+02 -0.17265263325E+02  0.35183373392E+02  0.51100000000E-03 0. -1.
         22    1    1    0    0    0 -0.74741084776E+01 -0.17960294847E+02 -0.28887273583E+02  0.34826844009E+02  0.00000000000E+00 0.  1.
</event>
<event>
 5    1  0.8778268E-005  0.9118800E+02  0.7818608E-02  0.1130116E+00
         25   -1    0    0    0    0  0.00000000000E+00  0.00000000000E+00  0.99999998245E-14  0.12500000000E+03  0.12500000000E+03 0.  0.
        -11    1    3    3    0    0 -0.49797405459E+02 -0.12347123439E+02  0.22674072134E+02  0.56092304241E+02  0.51100000000E-03 0. -1.
         23    2    1    0    0    0 -0.29134109097E+02 -0.24514638390E+01 -0.82896518936E+01  0.94610457122E+02  0.89596954639E+02 0.  0.
         11    1    3    3    0    0  0.20663296362E+02  0.98956595998E+01 -0.30963724028E+02  0.38518152881E+02  0.51100000000E-03 0.  1.
         22    1    1    0    0    0  0.29134109097E+02  0.24514638390E+01  0.82896518936E+01  0.30389542878E+02  0.00000000000E+00 0. -1.
</event>
<event>
 5    1  0.8778268E-005  0.9118800E+02  0.7818608E-02  0.1130116E+00
         25   -1    0    0    0    0  0.00000000000E+00  0.00000000000E+00  0.99999998245E-14  0.12500000000E+03  0.12500000000E+03 0.  0.
        -11    1    3    3    0    0 -0.15678801124E+02 -0.18313625610E+02  0.57867265840E+01  0.24793142046E+02  0.51100000000E-03 0. -1.
         23    2    1    0    0    0  0.19800579489E+02  0.20554720910E+01 -0.36370685156E+02  0.83537792481E+02  0.72522052648E+02 0.  0.
         11    1    3    3    0    0  0.35479380614E+02  0.20369097701E+02 -0.42157411740E+02  0.58744650435E+02  0.51100000000E-03 0.  1.
         22    1    1    0    0    0 -0.19800579489E+02 -0.20554720910E+01  0.36370685156E+02  0.41462207519E+02  0.00000000000E+00 0.  1.
</event>
<event>
 5    1  0.8778268E-005  0.9118800E+02  0.7818608E-02  0.1130116E+00
         25   -1    0    0    0    0  0.00000000000E+00  0.00000000000E+00  0.99999998245E-14  0.12500000000E+03  0.12500000000E+03 0.  0.
        -11    1    3    3    0    0  0.49570354340E+02  0.12249229188E+02  0.61545638858E+01  0.51430946928E+02  0.51100000000E-03 0.  1.
         23    2    1    0    0    0  0.10491196968E+02  0.22307915078E+02 -0.14119960385E+02  0.96590818910E+02  0.92318496128E+02 0.  0.
         11    1    3    3    0    0 -0.39079157371E+02  0.10058685889E+02 -0.20274524271E+02  0.45159871981E+02  0.51100000000E-03 0. -1.
         22    1    1    0    0    0 -0.10491196968E+02 -0.22307915078E+02  0.14119960385E+02  0.28409181090E+02  0.00000000000E+00 0.  1.
</event>
<event>
 5    1  0.8778268E-005  0.9118800E+02  0.7818608E-02  0.1130116E+00
         25   -1    0    0    0    0  0.00000000000E+00  0.00000000000E+00  0.99999998245E-14  0.12500000000E+03  0.12500000000E+03 0.  0.
        -11    1    3    3    0    0  0.62106415116E+01  0.13985552365E+02 -0.41893651275E+02  0.44600961428E+02  0.51100000000E-03 0. -1.
         23    2    1    0    0    0 -0.25051898737E+02 -0.11637773282E+02 -0.11962181242E+02  0.94898020375E+02  0.89997250478E+02 0.  0.
         11    1    3    3    0    0 -0.31262540249E+02 -0.25623325648E+02  0.29931470033E+02  0.50297058946E+02  0.51100000000E-03 0.  1.
         22    1    1    0    0    0  0.25051898737E+02  0.11637773282E+02  0.11962181242E+02  0.30101979625E+02  0.00000000000E+00 0.  1.
</event>
<event>
 5    1  0.8778268E-005  0.9118800E+02  0.7818608E-02  0.1130116E+00
         25   -1    0    0    0    0  0.00000000000E+00  0.00000000000E+00  0.99999998245E-14  0.12500000000E+03  0.12500000000E+03 0.  0.
        -11    1    3    3    0    0 -0.56508993824E+01 -0.21530963831E+02 -0.26188688122E+02  0.34370953626E+02  0.51100000000E-03 0. -1.
         23    2    1    0    0    0  0.11710901560E+02  0.43715485177E+01  0.26558929046E+02  0.95646425024E+02  0.91030798393E+02 0.  0.
         11    1    3    3    0    0  0.17361800942E+02  0.25902512349E+02  0.52747617168E+02  0.61275471398E+02  0.51100000000E-03 0.  1.
         22    1    1    0    0    0 -0.11710901560E+02 -0.43715485177E+01 -0.26558929046E+02  0.29353574976E+02  0.00000000000E+00 0.  1.
</event>
<event>
 5    1  0.8778268E-005  0.9118800E+02  0.7818608E-02  0.1130116E+00
         25   -1    0    0    0    0  0.00000000000E+00  0.00000000000E+00  0.99999998245E-14  0.12500000000E+03  0.12500000000E+03 0.  0.
        -11    1    3    3    0    0 -0.26373432733E+02 -0.23241797704E+02 -0.20223222285E+02  0.40555120940E+02  0.51100000000E-03 0. -1.
         23    2    1    0    0    0 -0.52069459504E+01  0.26793159370E+02 -0.10550853212E+02  0.95737290305E+02  0.91155485717E+02 0.  0.
         11    1    3    3    0    0  0.21166486782E+02  0.50034957074E+02  0.96723690725E+01  0.55182169365E+02  0.51100000000E-03 0.  1.
         22    1    1    0    0    0  0.52069459504E+01 -0.26793159370E+02  0.10550853212E+02  0.29262709695E+02  0.00000000000E+00 0.  1.
</event>
<event>
 5    1  0.8778268E-005  0.9118800E+02  0.7818608E-02  0.1130116E+00
         25   -1    0    0    0    0  0.00000000000E+00  0.00000000000E+00  0.99999998245E-14  0.12500000000E+03  0.12500000000E+03 0.  0.
        -11    1    3    3    0    0 -0.21808447487E+02  0.27383340367E+02 -0.10228139685E+02  0.36470132343E+02  0.51100000000E-03 0. -1.
         23    2    1    0    0    0  0.89280210651E+01 -0.26915148181E+01  0.28914092370E+02  0.94619437962E+02  0.89609483263E+02 0.  0.
         11    1    3    3    0    0  0.30736468552E+02 -0.30074855185E+02  0.39142232054E+02  0.58149305619E+02  0.51100000000E-03 0.  1.
         22    1    1    0    0    0 -0.89280210651E+01  0.26915148181E+01 -0.28914092370E+02  0.30380562038E+02  0.00000000000E+00 0.  1.
</event>
<event>
 5    1  0.8778268E-005  0.9118800E+02  0.7818608E-02  0.1130116E+00
         25   -1    0    0    0    0  0.00000000000E+00  0.00000000000E+00  0.99999998245E-14  0.12500000000E+03  0.12500000000E+03 0.  0.
        -11    1    3    3    0    0 -0.18720368520E+02 -0.25209517293E+02 -0.36339578583E+02  0.48026419100E+02  0.51100000000E-03 0. -1.
         23    2    1    0    0    0 -0.21802453756E+02  0.15069936028E+02 -0.82054349625E+01  0.97255106333E+02  0.93213607286E+02 0.  0.
         11    1    3    3    0    0 -0.30820852357E+01  0.40279453321E+02  0.28134143620E+02  0.49228687234E+02  0.51100000000E-03 0.  1.
         22    1    1    0    0    0  0.21802453756E+02 -0.15069936028E+02  0.82054349625E+01  0.27744893667E+02  0.00000000000E+00 0. -1.
</event>
<event>
 5    1  0.8778268E-005  0.9118800E+02  0.7818608E-02  0.1130116E+00
         25   -1    0    0    0    0  0.00000000000E+00  0.00000000000E+00  0.99999998245E-14  0.12500000000E+03  0.12500000000E+03 0.  0.
        -11    1    3    3    0    0 -0.46727491849E+02  0.21657407568E+01 -0.10752787895E+02  0.47997618434E+02  0.51100000000E-03 0.  1.
         23    2    1    0    0    0 -0.13069083709E+02  0.22349971846E+02  0.15132077418E+02  0.95011636298E+02  0.90154917085E+02 0.  0.
         11    1    3    3    0    0  0.33658408140E+02  0.20184231089E+02  0.25884865314E+02  0.47014017864E+02  0.51100000000E-03 0. -1.
         22    1    1    0    0    0  0.13069083709E+02 -0.22349971846E+02 -0.15132077418E+02  0.29988363702E+02  0.00000000000E+00 0.  1.
</event>
<event>
 5    1  0.8778268E-005  0.9118800E+02  0.7818608E-02  0.1130116E+00
         25   -1    0    0    0    0  0.00000000000E+00  0.00000000000E+00  0.99999998245E-14  0.12500000000E+03  0.12500000000E+03 0.  0.
        -11    1    3    3    0    0  0.28334258492E+00 -0.31614838161E+02  0.59068248230E+01  0.32163159899E+02  0.51100000000E-03 0.  1.
         23    2    1    0    0    0 -0.28486810424E+01  0.28228465599E+02 -0.11223715517E+02  0.94488804616E+02  0.89427071707E+02 0.  0.
         11    1    3    3    0    0 -0.31320236273E+01  0.59843303759E+02 -0.17130540340E+02  0.62325644717E+02  0.51100000000E-03 0. -1.
         22    1    1    0    0    0  0.28486810424E+01 -0.28228465599E+02  0.11223715517E+02  0.30511195384E+02  0.00000000000E+00 0. -1.
</event>
<event>
 5    1  0.8778268E-005  0.9118800E+02  0.7818608E-02  0.1130116E+00
         25   -1    0    0    0    0  0.00000000000E+00  0.00000000000E+00  0.99999998245E-14  0.12500000000E+03  0.12500000000E+03 0.  0.
        -11    1    3    3    0    0 -0.31530973533E+02  0.54771215355E+01  0.48093339402E+02  0.57768247743E+02  0.51100000000E-03 0.  1.
         23    2    1    0    0    0 -0.29038708019E+02  0.10108952094E+02  0.15907852650E+02  0.90380680946E+02  0.83487545397E+02 0.  0.
         11    1    3    3    0    0  0.24922655148E+01  0.46318305583E+01 -0.32185486751E+02  0.32612433203E+02  0.51100000000E-03 0. -1.
         22    1    1    0    0    0  0.29038708019E+02 -0.10108952094E+02 -0.15907852650E+02  0.34619319054E+02  0.00000000000E+00 0.  1.
</event>
<event>
 5    1  0.8778268E-005  0.9118800E+02  0.7818608E-02  0.1130116E+00
         25   -1    0    0    0    0  0.00000000000E+00  0.00000000000E+00  0.99999998245E-14  0.12500000000E+03  0.12500000000E+03 0.  0.
        -11    1    3    3    0    0 -0.29689313865E+02 -0.82219052943E+01 -0.22816080628E+02  0.38335735547E+02  0.51100000000E-03 0.  1.
         23    2    1    0    0    0  0.14950359056E+02 -0.24069494861E+02  0.88509597119E+01  0.95315099687E+02  0.90574692501E+02 0.  0.
         11    1    3    3    0    0  0.44639672922E+02 -0.15847589567E+02  0.31667040340E+02  0.56979364140E+02  0.51100000000E-03 0. -1.
         22    1    1    0    0    0 -0.14950359056E+02  0.24069494861E+02 -0.88509597119E+01  0.29684900313E+02  0.00000000000E+00 0. -1.
</event>
<event>
 5    1  0.8778268E-005  0.9118800E+02  0.7818608E-02  0.1130116E+00
         25   -1    0    0    0    0  0.00000000000E+00  0.00000000000E+00  0.99999998245E-14  0.12500000000E+03  0.12500000000E+03 0.  0.
        -11    1    3    3    0    0 -0.15947246598E+02  0.34317511193E+02  0.10558297688E+02  0.39287197646E+02  0.51100000000E-03 0.  1.
         23    2    1    0    0    0  0.65620080135E+01 -0.63901467368E+01  0.32869921684E+02  0.90877783249E+02  0.84228533243E+02 0.  0.
         11    1    3    3    0    0  0.22509254612E+02 -0.40707657929E+02  0.22311623996E+02  0.51590585603E+02  0.51100000000E-03 0. -1.
         22    1    1    0    0    0 -0.65620080135E+01  0.63901467368E+01 -0.32869921684E+02  0.34122216751E+02  0.00000000000E+00 0. -1.
</event>
<event>
 5    1  0.8778268E-005  0.9118800E+02  0.7818608E-02  0.1130116E+00
         25   -1    0    0    0    0  0.00000000000E+00  0.00000000000E+00  0.99999998245E-14  0.12500000000E+03  0.12500000000E+03 0.  0.
        -11    1    3    3    0    0  0.93575499690E+01  0.54852687711E+02  0.25574497544E+01  0.55703874552E+02  0.51100000000E-03 0.  1.
         23    2    1    0    0    0  0.22577046963E+02  0.16829810236E+02  0.63365169099E+01  0.96136233636E+02  0.91700918257E+02 0.  0.
         11    1    3    3    0    0  0.13219496994E+02 -0.38022877476E+02  0.37790671555E+01  0.40432359084E+02  0.51100000000E-03 0. -1.
         22    1    1    0    0    0 -0.22577046963E+02 -0.16829810236E+02 -0.63365169099E+01  0.28863766364E+02  0.00000000000E+00 0.  1.
</event>
<event>
 5    1  0.8778268E-005  0.9118800E+02  0.7818608E-02  0.1130116E+00
         25   -1    0    0    0    0  0.00000000000E+00  0.00000000000E+00  0.99999998245E-14  0.12500000000E+03  0.12500000000E+03 0.  0.
        -11    1    3    3    0    0  0.31498568034E+02 -0.30599759435E+02 -0.29319334283E+02  0.52802731262E+02  0.51100000000E-03 0.  1.
         23    2    1    0    0    0  0.47916019005E+01 -0.27516826005E+02  0.52340738483E+01  0.96582915504E+02  0.92307794233E+02 0.  0.
         11    1    3    3    0    0 -0.26706966133E+02  0.30829334292E+01  0.34553408131E+02  0.43780184243E+02  0.51100000000E-03 0. -1.
         22    1    1    0    0    0 -0.47916019005E+01  0.27516826005E+02 -0.52340738483E+01  0.28417084496E+02  0.00000000000E+00 0.  1.
</event>
<event>
 5    1  0.8778268E-005  0.9118800E+02  0.7818608E-02  0.1130116E+00
         25   -1    0    0    0    0  0.00000000000E+00  0.00000000000E+00  0.99999998245E-14  0.12500000000E+03  0.12500000000E+03 0.  0.
        -11    1    3    3    0    0  0.16206058423E+02  0.30934147290E+02 -0.37578734020E+02  0.51300283128E+02  0.51100000000E-03 0.  1.
         23    2    1    0    0    0 -0.16988368282E+02  0.80259358797E+01 -0.25351839406E+02  0.93444714153E+02  0.87955548650E+02 0.  0.
         11    1    3    3    0    0 -0.33194426705E+02 -0.22908211411E+02  0.12226894614E+02  0.42144431025E+02  0.51100000000E-03 0. -1.
         22    1    1    0    0    0  0.16988368282E+02 -0.80259358797E+01  0.25351839406E+02  0.31555285847E+02  0.00000000000E+00 0.  1.
</event>
<event>
 5    1  0.8778268E-005  0.9118800E+02  0.7818608E-02  0.1130116E+00
         25   -1    0    0    0    0  0.00000000000E+00  0.00000000000E+00  0.99999998245E-14  0.12500000000E+03  0.12500000000E+03 0.  0.
        -11    1    3    3    0    0 -0.10908018827E+02 -0.41862356471E+02  0.22011473777E+02  0.48538095782E+02  0.51100000000E-03 0.  1.
         23    2    1    0    0    0  0.36760892593E+01 -0.22638458287E+02 -0.18393841042E+02  0.95600224250E+02  0.90967335141E+02 0.  0.
         11    1    3    3    0    0  0.14584108086E+02  0.19223898184E+02 -0.40405314820E+02  0.47062128469E+02  0.51100000000E-03 0. -1.
         22    1    1    0    0    0 -0.36760892593E+01  0.22638458287E+02  0.18393841042E+02  0.29399775750E+02  0.00000000000E+00 0.  1.
</event>
<event>
 5    1  0.8778268E-005  0.9118800E+02  0.7818608E-02  0.1130116E+00
         25   -1    0    0    0    0  0.00000000000E+00  0.00000000000E+00  0.99999998245E-14  0.12500000000E+03  0.12500000000E+03 0.  0.
        -11    1    3    3    0    0 -0.55703271517E+01  0.46303593700E+02 -0.37068477867E+02  0.59574519601E+02  0.51100000000E-03 0.  1.
         23    2    1    0    0    0  0.10448475801E+02  0.23528427785E+02 -0.14244956440E+02  0.95577621705E+02  0.90936271236E+02 0.  0.
         11    1    3    3    0    0  0.16018802952E+02 -0.22775165915E+02  0.22823521427E+02  0.36003102104E+02  0.51100000000E-03 0. -1.
         22    1    1    0    0    0 -0.10448475801E+02 -0.23528427785E+02  0.14244956440E+02  0.29422378295E+02  0.00000000000E+00 0.  1.
</event>
<event>
 5    1  0.8778268E-005  0.9118800E+02  0.7818608E-02  0.1130116E+00
         25   -1    0    0    0    0  0.00000000000E+00  0.00000000000E+00  0.99999998245E-14  0.12500000000E+03  0.12500000000E+03 0.  0.
        -11    1    3    3    0    0  0.19255125592E+02 -0.51690754636E+02  0.14994870371E+02  0.57162401228E+02  0.51100000000E-03 0.  1.
         23    2    1    0    0    0 -0.24235531035E+01 -0.18556698202E+02  0.20617753335E+02  0.97155495868E+02  0.93079933213E+02 0.  0.
         11    1    3    3    0    0 -0.21678678695E+02  0.33134056435E+02  0.56228829637E+01  0.39993094640E+02  0.51100000000E-03 0. -1.
         22    1    1    0    0    0  0.24235531035E+01  0.18556698202E+02 -0.20617753335E+02  0.27844504132E+02  0.00000000000E+00 0.  1.
</event>
<event>
 5    1  0.8778268E-005  0.9118800E+02  0.7818608E-02  0.1130116E+00
         25   -1    0    0    0    0  0.00000000000E+00  0.00000000000E+00  0.99999998245E-14  0.12500000000E+03  0.12500000000E+03 0.  0.
        -11    1    3    3    0    0  0.55572491836E+02  0.14178413327E+02 -0.62632618995E+01  0.57693653925E+02  0.51100000000E-03 0.  1.
         23    2    1    0    0    0  0.30186489859E+02  0.22166216409E+01  0.13337324751E+02  0.91923999441E+02  0.85767125754E+02 0.  0.
         11    1    3    3    0    0 -0.25386001978E+02 -0.11961791687E+02  0.19600586651E+02  0.34230345515E+02  0.51100000000E-03 0. -1.
         22    1    1    0    0    0 -0.30186489859E+02 -0.22166216409E+01 -0.13337324751E+02  0.33076000559E+02  0.00000000000E+00 0.  1.
</event>
<event>
 4    1  0.8778268E-005  0.9118800E+02  0.7818608E-02  0.1130116E+00
         25   -1    0    0    0    0  0.00000000000E+00  0.00000000000E+00  0.99999998245E-14  0.12500000000E+03  0.12500000000E+03 0.  0.
        -11    1    1    0    0    0 -0.12578934388E+02  0.76451875446E+01 -0.39818291477E+02  0.42452029625E+02  0.51100000000E-03 0. -1.
         11    1    1    0    0    0 -0.28953140196E+02 -0.46730058630E+01  0.87791633224E+01  0.30613641076E+02  0.51100000000E-03 0.  1.
         22    1    1    0    0    0  0.41532074584E+02 -0.29721816816E+01  0.31039128154E+02  0.51934329299E+02  0.00000000000E+00 0.  1.
</event>
<event>
 5    1  0.8778268E-005  0.9118800E+02  0.7818608E-02  0.1130116E+00
         25   -1    0    0    0    0  0.00000000000E+00  0.00000000000E+00  0.99999998245E-14  0.12500000000E+03  0.12500000000E+03 0.  0.
        -11    1    3    3    0    0  0.25492568700E+02  0.28652013983E+02 -0.30746664894E+02  0.49154515221E+02  0.51100000000E-03 0.  1.
         23    2    1    0    0    0 -0.17178589729E+02  0.16858038064E+02 -0.17079444285E+02  0.95487209391E+02  0.90811906420E+02 0.  0.
         11    1    3    3    0    0 -0.42671158429E+02 -0.11793975919E+02  0.13667220609E+02  0.46332694170E+02  0.51100000000E-03 0. -1.
         22    1    1    0    0    0  0.17178589729E+02 -0.16858038064E+02  0.17079444285E+02  0.29512790609E+02  0.00000000000E+00 0.  1.
</event>
<event>
 5    1  0.8778268E-005  0.9118800E+02  0.7818608E-02  0.1130116E+00
         25   -1    0    0    0    0  0.00000000000E+00  0.00000000000E+00  0.99999998245E-14  0.12500000000E+03  0.12500000000E+03 0.  0.
        -11    1    3    3    0    0 -0.37895988613E+02  0.72505399347E+01  0.72055976083E+01  0.39250438462E+02  0.51100000000E-03 0.  1.
         23    2    1    0    0    0  0.13748897040E+02 -0.18642787394E+01  0.26465304012E+02  0.95118232625E+02  0.90302592190E+02 0.  0.
         11    1    3    3    0    0  0.51644885653E+02 -0.91148186741E+01  0.19259706403E+02  0.55867794163E+02  0.51100000000E-03 0. -1.
         22    1    1    0    0    0 -0.13748897040E+02  0.18642787394E+01 -0.26465304012E+02  0.29881767375E+02  0.00000000000E+00 0. -1.
</event>
<event>
 5    1  0.8778268E-005  0.9118800E+02  0.7818608E-02  0.1130116E+00
         25   -1    0    0    0    0  0.00000000000E+00  0.00000000000E+00  0.99999998245E-14  0.12500000000E+03  0.12500000000E+03 0.  0.
        -11    1    3    3    0    0 -0.54412703593E+02  0.15357782511E+01  0.27816762127E+02  0.61129969594E+02  0.51100000000E-03 0.  1.
         23    2    1    0    0    0 -0.24184480142E+02  0.98145044025E+01  0.14006336370E+02  0.95379212790E+02  0.90663130310E+02 0.  0.
         11    1    3    3    0    0  0.30228223451E+02  0.82787261514E+01 -0.13810425757E+02  0.34249243196E+02  0.51100000000E-03 0. -1.
         22    1    1    0    0    0  0.24184480142E+02 -0.98145044025E+01 -0.14006336370E+02  0.29620787210E+02  0.00000000000E+00 0.  1.
</event>
<event>
 5    1  0.8778268E-005  0.9118800E+02  0.7818608E-02  0.1130116E+00
         25   -1    0    0    0    0  0.00000000000E+00  0.00000000000E+00  0.99999998245E-14  0.12500000000E+03  0.12500000000E+03 0.  0.
        -11    1    3    3    0    0  0.17188502706E+02  0.33640596748E+02 -0.71991527590E+01  0.38457277276E+02  0.51100000000E-03 0. -1.
         23    2    1    0    0    0  0.19553824313E+02 -0.16153744933E+02  0.17592968585E+02  0.94132410780E+02  0.88927513712E+02 0.  0.
         11    1    3    3    0    0  0.23653216072E+01 -0.49794341680E+02  0.24792121344E+02  0.55675133504E+02  0.51100000000E-03 0.  1.
         22    1    1    0    0    0 -0.19553824313E+02  0.16153744933E+02 -0.17592968585E+02  0.30867589220E+02  0.00000000000E+00 0.  1.
</event>
<event>
 5    1  0.8778268E-005  0.9118800E+02  0.7818608E-02  0.1130116E+00
         25   -1    0    0    0    0  0.00000000000E+00  0.00000000000E+00  0.99999998245E-14  0.12500000000E+03  0.12500000000E+03 0.  0.
        -11    1    3    3    0    0 -0.30174303965E+02  0.15269128163E+00  0.90937634495E+01  0.31515210111E+02  0.51100000000E-03 0.  1.
         23    2    1    0    0    0  0.21607727264E+02 -0.96459772235E+01 -0.21987180711E+02  0.92698686254E+02  0.86888846024E+02 0.  0.
         11    1    3    3    0    0  0.51782031230E+02 -0.97986685051E+01 -0.31080944160E+02  0.61183476143E+02  0.51100000000E-03 0. -1.
         22    1    1    0    0    0 -0.21607727264E+02  0.96459772235E+01  0.21987180711E+02  0.32301313746E+02  0.00000000000E+00 0. -1.
</event>
<event>
 5    1  0.8778268E-005  0.9118800E+02  0.7818608E-02  0.1130116E+00
         25   -1    0    0    0    0  0.00000000000E+00  0.00000000000E+00  0.99999998245E-14  0.12500000000E+03  0.12500000000E+03 0.  0.
        -11    1    3    3    0    0 -0.30417876886E+02 -0.34576674146E+02  0.38619683181E+02  0.60102192627E+02  0.51100000000E-03 0.  1.
         23    2    1    0    0    0 -0.15848557297E+02 -0.54851051562E+01  0.23875298799E+02  0.95823073505E+02  0.91273042988E+02 0.  0.
         11    1    3    3    0    0  0.14569319589E+02  0.29091568990E+02 -0.14744384383E+02  0.35720880878E+02  0.51100000000E-03 0. -1.
         22    1    1    0    0    0  0.15848557297E+02  0.54851051562E+01 -0.23875298799E+02  0.29176926495E+02  0.00000000000E+00 0.  1.
</event>
<event>
 5    1  0.8778268E-005  0.9118800E+02  0.7818608E-02  0.1130116E+00
         25   -1    0    0    0    0  0.00000000000E+00  0.00000000000E+00  0.99999998245E-14  0.12500000000E+03  0.12500000000E+03 0.  0.
        -11    1    3    3    0    0  0.14596023065E+02  0.13946466222E+02  0.40018123993E+02  0.44821847994E+02  0.51100000000E-03 0.  1.
         23    2    1    0    0    0 -0.67506947685E+01  0.27720193410E+02 -0.45373421851E+01  0.96111101152E+02  0.91666653086E+02 0.  0.
         11    1    3    3    0    0 -0.21346717833E+02  0.13773727188E+02 -0.44555466178E+02  0.51289253158E+02  0.51100000000E-03 0. -1.
         22    1    1    0    0    0  0.67506947685E+01 -0.27720193410E+02  0.45373421851E+01  0.28888898848E+02  0.00000000000E+00 0.  1.
</event>
<event>
 5    1  0.8778268E-005  0.9118800E+02  0.7818608E-02  0.1130116E+00
         25   -1    0    0    0    0  0.00000000000E+00  0.00000000000E+00  0.99999998245E-14  0.12500000000E+03  0.12500000000E+03 0.  0.
        -11    1    3    3    0    0  0.43192991573E+02 -0.10572195967E+02  0.23930349329E+02  0.50498192719E+02  0.51100000000E-03 0.  1.
         23    2    1    0    0    0  0.33992635162E+01 -0.27043141638E+02  0.12222753553E+02  0.95128906841E+02  0.90317366604E+02 0.  0.
         11    1    3    3    0    0 -0.39793728057E+02 -0.16470945671E+02 -0.11707595776E+02  0.44630714122E+02  0.51100000000E-03 0. -1.
         22    1    1    0    0    0 -0.33992635162E+01  0.27043141638E+02 -0.12222753553E+02  0.29871093159E+02  0.00000000000E+00 0. -1.
</event>
<event>
 5    1  0.8778268E-005  0.9118800E+02  0.7818608E-02  0.1130116E+00
         25   -1    0    0    0    0  0.00000000000E+00  0.00000000000E+00  0.99999998245E-14  0.12500000000E+03  0.12500000000E+03 0.  0.
        -11    1    3    3    0    0  0.41700626682E+02  0.35072692525E+01  0.58589793648E+01  0.42256015462E+02  0.51100000000E-03 0. -1.
         23    2    1    0    0    0 -0.56102486375E+01  0.12722319747E+02  0.26799421274E+02  0.94808257915E+02  0.89872490110E+02 0.  0.
         11    1    3    3    0    0 -0.47310875320E+02  0.92150504941E+01  0.20940441910E+02  0.52552242452E+02  0.51100000000E-03 0.  1.
         22    1    1    0    0    0  0.56102486375E+01 -0.12722319747E+02 -0.26799421274E+02  0.30191742085E+02  0.00000000000E+00 0. -1.
</event>
<event>
 5    1  0.8778268E-005  0.9118800E+02  0.7818608E-02  0.1130116E+00
         25   -1    0    0    0    0  0.00000000000E+00  0.00000000000E+00  0.99999998245E-14  0.12500000000E+03  0.12500000000E+03 0.  0.
        -11    1    3    3    0    0  0.79547020812E+01 -0.23195982327E+02 -0.27349404673E+02  0.36733102476E+02  0.51100000000E-03 0.  1.
         23    2    1    0    0    0 -0.18980536562E+02 -0.26824730433E+01  0.21517086095E+02  0.96182619414E+02  0.91764126180E+02 0.  0.
         11    1    3    3    0    0 -0.26935238643E+02  0.20513509284E+02  0.48866490768E+02  0.59449516938E+02  0.51100000000E-03 0. -1.
         22    1    1    0    0    0  0.18980536562E+02  0.26824730433E+01 -0.21517086095E+02  0.28817380586E+02  0.00000000000E+00 0. -1.
</event>
