<event>
 5    1  0.9041167E-005  0.9118800E+02  0.7818608E-02  0.1130116E+00
         25   -1    0    0    0    0  0.00000000000E+00  0.00000000000E+00  0.99999998245E-14  0.12500000000E+03  0.12500000000E+03 0.  0.
        -13    1    3    3    0    0  0.21221402161E+02 -0.48385485725E+02  0.85116905789E+01  0.53516008624E+02  0.10566000000E+00 0. -1.
         23    2    1    0    0    0 -0.16115436141E+01 -0.29252678553E+02 -0.15570555506E+02  0.91822319639E+02  0.85618805819E+02 0.  0.
         13    1    3    3    0    0 -0.22832945775E+02  0.19132807172E+02 -0.24082246085E+02  0.38306311015E+02  0.10566000000E+00 0.  1.
         22    1    1    0    0    0  0.16115436141E+01  0.29252678553E+02  0.15570555506E+02  0.33177680361E+02  0.00000000000E+00 0. -1.
</event>
<event>
 5    1  0.9041167E-005  0.9118800E+02  0.7818608E-02  0.1130116E+00
         25   -1    0    0    0    0  0.00000000000E+00  0.00000000000E+00  0.99999998245E-14  0.12500000000E+03  0.12500000000E+03 0.  0.
        -13    1    3    3    0    0  0.19561628937E+01  0.31598507728E+02  0.31923668777E+01  0.31819720838E+02  0.10566000000E+00 0. -1.
         23    2    1    0    0    0  0.54592134410E+00 -0.25375133031E+02 -0.19326394138E+02  0.93098512310E+02  0.87462152258E+02 0.  0.
         13    1    3    3    0    0 -0.14102415496E+01 -0.56973640759E+02 -0.22518761015E+02  0.61278791472E+02  0.10566000000E+00 0.  1.
         22    1    1    0    0    0 -0.54592134410E+00  0.25375133031E+02  0.19326394138E+02  0.31901487690E+02  0.00000000000E+00 0.  1.
</event>
<event>
 5    1  0.9041167E-005  0.9118800E+02  0.7818608E-02  0.1130116E+00
         25   -1    0    0    0    0  0.00000000000E+00  0.00000000000E+00  0.99999998245E-14  0.12500000000E+03  0.12500000000E+03 0.  0.
        -13    1    3    3    0    0  0.53793445939E+01 -0.39574223655E+02  0.32285896719E+02  0.51356078677E+02  0.10566000000E+00 0. -1.
         23    2    1    0    0    0 -0.23596686765E+02 -0.22229040998E+02  0.15945297612E+02  0.88872636328E+02  0.81198270190E+02 0.  0.
         13    1    3    3    0    0 -0.28976031359E+02  0.17345182657E+02 -0.16340599107E+02  0.37516557650E+02  0.10566000000E+00 0.  1.
         22    1    1    0    0    0  0.23596686765E+02  0.22229040998E+02 -0.15945297612E+02  0.36127363672E+02  0.00000000000E+00 0. -1.
</event>
<event>
 5    1  0.9041167E-005  0.9118800E+02  0.7818608E-02  0.1130116E+00
         25   -1    0    0    0    0  0.00000000000E+00  0.00000000000E+00  0.99999998245E-14  0.12500000000E+03  0.12500000000E+03 0.  0.
        -13    1    3    3    0    0 -0.28522450213E+02  0.20195886412E+02 -0.13179717929E+02  0.37351306843E+02  0.10566000000E+00 0. -1.
         23    2    1    0    0    0  0.90729244306E+01 -0.24277254489E+02 -0.13900219066E+02  0.95590492467E+02  0.90953961523E+02 0.  0.
         13    1    3    3    0    0  0.37595374644E+02 -0.44473140901E+02 -0.72050113752E+00  0.58239185624E+02  0.10566000000E+00 0.  1.
         22    1    1    0    0    0 -0.90729244306E+01  0.24277254489E+02  0.13900219066E+02  0.29409507533E+02  0.00000000000E+00 0.  1.
</event>
<event>
 5    1  0.9041167E-005  0.9118800E+02  0.7818608E-02  0.1130116E+00
         25   -1    0    0    0    0  0.00000000000E+00  0.00000000000E+00  0.99999998245E-14  0.12500000000E+03  0.12500000000E+03 0.  0.
        -13    1    3    3    0    0  0.43930988655E+02  0.13799121404E+02 -0.23043793021E+02  0.51491504898E+02  0.10566000000E+00 0. -1.
         23    2    1    0    0    0  0.71262896234E+01 -0.11542419077E+02 -0.25363194887E+02  0.96237122939E+02  0.91838340221E+02 0.  0.
         13    1    3    3    0    0 -0.36804699032E+02 -0.25341540482E+02 -0.23194018662E+01  0.44745618041E+02  0.10566000000E+00 0.  1.
         22    1    1    0    0    0 -0.71262896234E+01  0.11542419077E+02  0.25363194887E+02  0.28762877061E+02  0.00000000000E+00 0.  1.
</event>
<event>
 5    1  0.9041167E-005  0.9118800E+02  0.7818608E-02  0.1130116E+00
         25   -1    0    0    0    0  0.00000000000E+00  0.00000000000E+00  0.99999998245E-14  0.12500000000E+03  0.12500000000E+03 0.  0.
        -13    1    3    3    0    0  0.24631111723E+02  0.17709640777E+02  0.14853521714E+02  0.33778118842E+02  0.10566000000E+00 0.  1.
         23    2    1    0    0    0 -0.31113318657E+02 -0.10793678263E+01  0.65390136436E+01  0.93188644603E+02  0.87590873673E+02 0.  0.
         13    1    3    3    0    0 -0.55744430380E+02 -0.18789008603E+02 -0.83145080702E+01  0.59410525761E+02  0.10566000000E+00 0. -1.
         22    1    1    0    0    0  0.31113318657E+02  0.10793678263E+01 -0.65390136436E+01  0.31811355397E+02  0.00000000000E+00 0. -1.
</event>
<event>
 5    1  0.9041167E-005  0.9118800E+02  0.7818608E-02  0.1130116E+00
         25   -1    0    0    0    0  0.00000000000E+00  0.00000000000E+00  0.99999998245E-14  0.12500000000E+03  0.12500000000E+03 0.  0.
        -13    1    3    3    0    0 -0.57408958236E+02 -0.11394528607E+02  0.77922475362E+01  0.59045355902E+02  0.10566000000E+00 0.  1.
         23    2    1    0    0    0 -0.28165477653E+02  0.83035699642E+01 -0.17842257410E+01  0.95581861597E+02  0.90942099158E+02 0.  0.
         13    1    3    3    0    0  0.29243480583E+02  0.19698098571E+02 -0.95764732772E+01  0.36536505695E+02  0.10566000000E+00 0. -1.
         22    1    1    0    0    0  0.28165477653E+02 -0.83035699642E+01  0.17842257410E+01  0.29418138403E+02  0.00000000000E+00 0.  1.
</event>
<event>
 5    1  0.9041167E-005  0.9118800E+02  0.7818608E-02  0.1130116E+00
         25   -1    0    0    0    0  0.00000000000E+00  0.00000000000E+00  0.99999998245E-14  0.12500000000E+03  0.12500000000E+03 0.  0.
        -13    1    3    3    0    0  0.36007428144E+02 -0.12575712981E+02  0.30188541202E+02  0.48641984154E+02  0.10566000000E+00 0.  1.
         23    2    1    0    0    0  0.14380079438E+01 -0.16226284247E+01 -0.16836025237E+02  0.10802494372E+03  0.10668287553E+03 0.  0.
         13    1    3    3    0    0 -0.34569420200E+02  0.10953084556E+02 -0.47024566439E+02  0.59382959568E+02  0.10566000000E+00 0. -1.
         22    1    1    0    0    0 -0.14380079438E+01  0.16226284247E+01  0.16836025237E+02  0.16975056278E+02  0.00000000000E+00 0. -1.
</event>
<event>
 5    1  0.9041167E-005  0.9118800E+02  0.7818608E-02  0.1130116E+00
         25   -1    0    0    0    0  0.00000000000E+00  0.00000000000E+00  0.99999998245E-14  0.12500000000E+03  0.12500000000E+03 0.  0.
        -13    1    3    3    0    0  0.11461505966E+02 -0.31680536012E+02 -0.23419873276E+02  0.41030770274E+02  0.10566000000E+00 0.  1.
         23    2    1    0    0    0 -0.16552756319E+02  0.11952315805E+02 -0.24769604020E+02  0.92900391308E+02  0.87178539946E+02 0.  0.
         13    1    3    3    0    0 -0.28014262285E+02  0.43632851817E+02 -0.13497307440E+01  0.51869621034E+02  0.10566000000E+00 0. -1.
         22    1    1    0    0    0  0.16552756319E+02 -0.11952315805E+02  0.24769604020E+02  0.32099608692E+02  0.00000000000E+00 0. -1.
</event>
<event>
 5    1  0.9041167E-005  0.9118800E+02  0.7818608E-02  0.1130116E+00
         25   -1    0    0    0    0  0.00000000000E+00  0.00000000000E+00  0.99999998245E-14  0.12500000000E+03  0.12500000000E+03 0.  0.
        -13    1    3    3    0    0 -0.72862462906E+01  0.22617742800E+02  0.40431540945E+02  0.46897466260E+02  0.10566000000E+00 0. -1.
         23    2    1    0    0    0 -0.70952788660E+00 -0.21368915782E+02  0.19539743145E+02  0.96035615772E+02  0.91563660603E+02 0.  0.
         13    1    3    3    0    0  0.65767184040E+01 -0.43986658582E+02 -0.20891797800E+02  0.49138149513E+02  0.10566000000E+00 0.  1.
         22    1    1    0    0    0  0.70952788660E+00  0.21368915782E+02 -0.19539743145E+02  0.28964384228E+02  0.00000000000E+00 0.  1.
</event>
<event>
 5    1  0.9041167E-005  0.9118800E+02  0.7818608E-02  0.1130116E+00
         25   -1    0    0    0    0  0.00000000000E+00  0.00000000000E+00  0.99999998245E-14  0.12500000000E+03  0.12500000000E+03 0.  0.
        -13    1    3    3    0    0  0.29997338346E+02 -0.49508033155E+02  0.23000376263E+02  0.62288956702E+02  0.10566000000E+00 0. -1.
         23    2    1    0    0    0  0.14472036998E+02 -0.19751141689E+02  0.66269255765E+01  0.99633415770E+02  0.96350163168E+02 0.  0.
         13    1    3    3    0    0 -0.15525301349E+02  0.29756891465E+02 -0.16373450687E+02  0.37344459068E+02  0.10566000000E+00 0.  1.
         22    1    1    0    0    0 -0.14472036998E+02  0.19751141689E+02 -0.66269255765E+01  0.25366584230E+02  0.00000000000E+00 0. -1.
</event>
<event>
 5    1  0.9041167E-005  0.9118800E+02  0.7818608E-02  0.1130116E+00
         25   -1    0    0    0    0  0.00000000000E+00  0.00000000000E+00  0.99999998245E-14  0.12500000000E+03  0.12500000000E+03 0.  0.
        -13    1    3    3    0    0 -0.12044394821E+02  0.33556636854E+02  0.95881338502E+01  0.36919626194E+02  0.10566000000E+00 0. -1.
         23    2    1    0    0    0 -0.14266133656E+02 -0.15458137370E+02 -0.21433308672E+02  0.94968961039E+02  0.90095728310E+02 0.  0.
         13    1    3    3    0    0 -0.22217388348E+01 -0.49014774224E+02 -0.31021442523E+02  0.58049334845E+02  0.10566000000E+00 0.  1.
         22    1    1    0    0    0  0.14266133656E+02  0.15458137370E+02  0.21433308672E+02  0.30031038961E+02  0.00000000000E+00 0.  1.
</event>
<event>
 5    1  0.9041167E-005  0.9118800E+02  0.7818608E-02  0.1130116E+00
         25   -1    0    0    0    0  0.00000000000E+00  0.00000000000E+00  0.99999998245E-14  0.12500000000E+03  0.12500000000E+03 0.  0.
        -13    1    3    3    0    0 -0.30029276731E+02 -0.13596514572E+01  0.74682367198E+01  0.30974051024E+02  0.10566000000E+00 0.  1.
         23    2    1    0    0    0  0.15475503041E+02 -0.25235279864E+02 -0.20030746818E+02  0.89257289383E+02  0.81788277557E+02 0.  0.
         13    1    3    3    0    0  0.45504779772E+02 -0.23875628407E+02 -0.27498983538E+02  0.58283238359E+02  0.10566000000E+00 0. -1.
         22    1    1    0    0    0 -0.15475503041E+02  0.25235279864E+02  0.20030746818E+02  0.35742710617E+02  0.00000000000E+00 0. -1.
</event>
<event>
 5    1  0.9041167E-005  0.9118800E+02  0.7818608E-02  0.1130116E+00
         25   -1    0    0    0    0  0.00000000000E+00  0.00000000000E+00  0.99999998245E-14  0.12500000000E+03  0.12500000000E+03 0.  0.
        -13    1    3    3    0    0 -0.12420546577E+02  0.30863660949E+02  0.21764838419E+02  0.39756193227E+02  0.10566000000E+00 0.  1.
         23    2    1    0    0    0 -0.17389743260E+02  0.10506306270E+01 -0.24450745758E+02  0.94977575656E+02  0.90107679551E+02 0.  0.
         13    1    3    3    0    0 -0.49691966824E+01 -0.29813030322E+02 -0.46215584176E+02  0.55221382430E+02  0.10566000000E+00 0. -1.
         22    1    1    0    0    0  0.17389743260E+02 -0.10506306270E+01  0.24450745758E+02  0.30022424344E+02  0.00000000000E+00 0. -1.
</event>
<event>
 5    1  0.9041167E-005  0.9118800E+02  0.7818608E-02  0.1130116E+00
         25   -1    0    0    0    0  0.00000000000E+00  0.00000000000E+00  0.99999998245E-14  0.12500000000E+03  0.12500000000E+03 0.  0.
        -13    1    3    3    0    0  0.53467395541E+02 -0.13906069255E+02 -0.19426784196E+02  0.58562379189E+02  0.10566000000E+00 0.  1.
         23    2    1    0    0    0  0.24530807893E+02  0.64615363953E+01  0.13489773828E+01  0.99596619743E+02  0.96302413967E+02 0.  0.
         13    1    3    3    0    0 -0.28936587647E+02  0.20367605651E+02  0.20775761579E+02  0.41034240554E+02  0.10566000000E+00 0. -1.
         22    1    1    0    0    0 -0.24530807893E+02 -0.64615363953E+01 -0.13489773828E+01  0.25403380257E+02  0.00000000000E+00 0.  1.
</event>
<event>
 5    1  0.9041167E-005  0.9118800E+02  0.7818608E-02  0.1130116E+00
         25   -1    0    0    0    0  0.00000000000E+00  0.00000000000E+00  0.99999998245E-14  0.12500000000E+03  0.12500000000E+03 0.  0.
        -13    1    3    3    0    0  0.18257524050E+02 -0.50674975041E+02  0.18025962109E+01  0.53893884598E+02  0.10566000000E+00 0.  1.
         23    2    1    0    0    0 -0.10931397313E+02 -0.22761484747E+02  0.14057953375E+02  0.96100057298E+02  0.91651592045E+02 0.  0.
         13    1    3    3    0    0 -0.29188921363E+02  0.27913490294E+02  0.12255357164E+02  0.42206172700E+02  0.10566000000E+00 0. -1.
         22    1    1    0    0    0  0.10931397313E+02  0.22761484747E+02 -0.14057953375E+02  0.28899942702E+02  0.00000000000E+00 0.  1.
</event>
<event>
 5    1  0.9041167E-005  0.9118800E+02  0.7818608E-02  0.1130116E+00
         25   -1    0    0    0    0  0.00000000000E+00  0.00000000000E+00  0.99999998245E-14  0.12500000000E+03  0.12500000000E+03 0.  0.
        -13    1    3    3    0    0 -0.15223807429E+02  0.28279135755E+01  0.31430698296E+02  0.35037998904E+02  0.10566000000E+00 0. -1.
         23    2    1    0    0    0 -0.90404640519E+00 -0.14528608925E+01 -0.28319314078E+02  0.96629035009E+02  0.92370226547E+02 0.  0.
         13    1    3    3    0    0  0.14319761024E+02 -0.42807744680E+01 -0.59750012373E+02  0.61591036105E+02  0.10566000000E+00 0.  1.
         22    1    1    0    0    0  0.90404640519E+00  0.14528608925E+01  0.28319314078E+02  0.28370964991E+02  0.00000000000E+00 0.  1.
</event>
<event>
 5    1  0.9041167E-005  0.9118800E+02  0.7818608E-02  0.1130116E+00
         25   -1    0    0    0    0  0.00000000000E+00  0.00000000000E+00  0.99999998245E-14  0.12500000000E+03  0.12500000000E+03 0.  0.
        -13    1    3    3    0    0 -0.29491343258E+02  0.14770091370E+02 -0.85503031798E+01  0.34073652207E+02  0.10566000000E+00 0.  1.
         23    2    1    0    0    0  0.52691158828E+01 -0.15500950089E+02  0.27773760842E+02  0.92759887916E+02  0.86976847374E+02 0.  0.
         13    1    3    3    0    0  0.34760459140E+02 -0.30271041458E+02  0.36324064022E+02  0.58686235709E+02  0.10566000000E+00 0. -1.
         22    1    1    0    0    0 -0.52691158828E+01  0.15500950089E+02 -0.27773760842E+02  0.32240112084E+02  0.00000000000E+00 0. -1.
</event>
<event>
 5    1  0.9041167E-005  0.9118800E+02  0.7818608E-02  0.1130116E+00
         25   -1    0    0    0    0  0.00000000000E+00  0.00000000000E+00  0.99999998245E-14  0.12500000000E+03  0.12500000000E+03 0.  0.
        -13    1    3    3    0    0  0.88059730808E+01 -0.20155185559E+02  0.37331686189E+02  0.43329466008E+02  0.10566000000E+00 0.  1.
         23    2    1    0    0    0  0.61224601983E+01 -0.25941955729E+02 -0.13887560111E+02  0.94944486167E+02  0.90061765149E+02 0.  0.
         13    1    3    3    0    0 -0.26835128825E+01 -0.57867701704E+01 -0.51219246300E+02  0.51615020159E+02  0.10566000000E+00 0. -1.
         22    1    1    0    0    0 -0.61224601983E+01  0.25941955729E+02  0.13887560111E+02  0.30055513833E+02  0.00000000000E+00 0.  1.
</event>
<event>
 5    1  0.9041167E-005  0.9118800E+02  0.7818608E-02  0.1130116E+00
         25   -1    0    0    0    0  0.00000000000E+00  0.00000000000E+00  0.99999998245E-14  0.12500000000E+03  0.12500000000E+03 0.  0.
        -13    1    3    3    0    0 -0.38140432199E+02  0.55420895891E+01  0.10718429131E+02  0.40003789976E+02  0.10566000000E+00 0.  1.
         23    2    1    0    0    0  0.15462713111E+02  0.55309940440E+01  0.24643268389E+02  0.95386184495E+02  0.90672741900E+02 0.  0.
         13    1    3    3    0    0  0.53603145310E+02 -0.11095545124E-01  0.13924839259E+02  0.55382394519E+02  0.10566000000E+00 0. -1.
         22    1    1    0    0    0 -0.15462713111E+02 -0.55309940440E+01 -0.24643268389E+02  0.29613815505E+02  0.00000000000E+00 0. -1.
</event>
<event>
 5    1  0.9041167E-005  0.9118800E+02  0.7818608E-02  0.1130116E+00
         25   -1    0    0    0    0  0.00000000000E+00  0.00000000000E+00  0.99999998245E-14  0.12500000000E+03  0.12500000000E+03 0.  0.
        -13    1    3    3    0    0  0.15686164822E+02  0.45946401824E+02 -0.27937549417E+02  0.56014689492E+02  0.10566000000E+00 0. -1.
         23    2    1    0    0    0 -0.11440759620E+02  0.26169220468E+02 -0.69518400567E+01  0.95605320877E+02  0.90974338246E+02 0.  0.
         13    1    3    3    0    0 -0.27126924442E+02 -0.19777181356E+02  0.20985709361E+02  0.39590631385E+02  0.10566000000E+00 0.  1.
         22    1    1    0    0    0  0.11440759620E+02 -0.26169220468E+02  0.69518400567E+01  0.29394679123E+02  0.00000000000E+00 0. -1.
</event>
<event>
 5    1  0.9041167E-005  0.9118800E+02  0.7818608E-02  0.1130116E+00
         25   -1    0    0    0    0  0.00000000000E+00  0.00000000000E+00  0.99999998245E-14  0.12500000000E+03  0.12500000000E+03 0.  0.
        -13    1    3    3    0    0 -0.36729237350E+02  0.19788261637E+02 -0.37269299523E+02  0.55943042694E+02  0.10566000000E+00 0.  1.
         23    2    1    0    0    0 -0.78779645419E+00  0.20793432615E+02 -0.21095097038E+02  0.95369094138E+02  0.90649178344E+02 0.  0.
         13    1    3    3    0    0  0.35941440896E+02  0.10051709777E+01  0.16174202485E+02  0.39426051444E+02  0.10566000000E+00 0. -1.
         22    1    1    0    0    0  0.78779645419E+00 -0.20793432615E+02  0.21095097038E+02  0.29630905862E+02  0.00000000000E+00 0.  1.
</event>
<event>
 5    1  0.9041167E-005  0.9118800E+02  0.7818608E-02  0.1130116E+00
         25   -1    0    0    0    0  0.00000000000E+00  0.00000000000E+00  0.99999998245E-14  0.12500000000E+03  0.12500000000E+03 0.  0.
        -13    1    3    3    0    0  0.17808908226E+02 -0.27125674283E+02 -0.10080338678E+02  0.33979167285E+02  0.10566000000E+00 0.  1.
         23    2    1    0    0    0 -0.70994162715E+01  0.19162557830E+02  0.21529632919E+02  0.95316158813E+02  0.90576154165E+02 0.  0.
         13    1    3    3    0    0 -0.24908324498E+02  0.46288232112E+02  0.31609971597E+02  0.61336991528E+02  0.10566000000E+00 0. -1.
         22    1    1    0    0    0  0.70994162715E+01 -0.19162557830E+02 -0.21529632919E+02  0.29683841187E+02  0.00000000000E+00 0. -1.
</event>
<event>
 5    1  0.9041167E-005  0.9118800E+02  0.7818608E-02  0.1130116E+00
         25   -1    0    0    0    0  0.00000000000E+00  0.00000000000E+00  0.99999998245E-14  0.12500000000E+03  0.12500000000E+03 0.  0.
        -13    1    3    3    0    0  0.11830905825E+02 -0.78125202803E+01  0.57043204822E+02  0.58778773262E+02  0.10566000000E+00 0.  1.
         23    2    1    0    0    0  0.10867748853E+02  0.10526483747E+02  0.22779473638E+02  0.97653716076E+02  0.93746621374E+02 0.  0.
         13    1    3    3    0    0 -0.96315697204E+00  0.18339004028E+02 -0.34263731184E+02  0.38874942814E+02  0.10566000000E+00 0. -1.
         22    1    1    0    0    0 -0.10867748853E+02 -0.10526483747E+02 -0.22779473638E+02  0.27346283924E+02  0.00000000000E+00 0.  1.
</event>
<event>
 5    1  0.9041167E-005  0.9118800E+02  0.7818608E-02  0.1130116E+00
         25   -1    0    0    0    0  0.00000000000E+00  0.00000000000E+00  0.99999998245E-14  0.12500000000E+03  0.12500000000E+03 0.  0.
        -13    1    3    3    0    0  0.46486653162E+01 -0.41085592429E+02  0.35549785229E+02  0.54529206746E+02  0.10566000000E+00 0. -1.
         23    2    1    0    0    0 -0.71296035243E+01 -0.28980493017E+02 -0.13647403496E+01  0.95124211505E+02  0.90310867986E+02 0.  0.
         13    1    3    3    0    0 -0.11778268840E+02  0.12105099412E+02 -0.36914525579E+02  0.40595004759E+02  0.10566000000E+00 0.  1.
         22    1    1    0    0    0  0.71296035243E+01  0.28980493017E+02  0.13647403496E+01  0.29875788495E+02  0.00000000000E+00 0. -1.
</event>
<event>
 5    1  0.9041167E-005  0.9118800E+02  0.7818608E-02  0.1130116E+00
         25   -1    0    0    0    0  0.00000000000E+00  0.00000000000E+00  0.99999998245E-14  0.12500000000E+03  0.12500000000E+03 0.  0.
        -13    1    3    3    0    0 -0.72650472798E+01 -0.12274646901E+02  0.30569727059E+02  0.33733770098E+02  0.10566000000E+00 0.  1.
         23    2    1    0    0    0  0.50852095129E+01  0.12781445537E+02 -0.25302381346E+02  0.96200083201E+02  0.91787912060E+02 0.  0.
         13    1    3    3    0    0  0.12350256793E+02  0.25056092438E+02 -0.55872108405E+02  0.62466313104E+02  0.10566000000E+00 0. -1.
         22    1    1    0    0    0 -0.50852095129E+01 -0.12781445537E+02  0.25302381346E+02  0.28799916799E+02  0.00000000000E+00 0. -1.
</event>
<event>
 5    1  0.9041167E-005  0.9118800E+02  0.7818608E-02  0.1130116E+00
         25   -1    0    0    0    0  0.00000000000E+00  0.00000000000E+00  0.99999998245E-14  0.12500000000E+03  0.12500000000E+03 0.  0.
        -13    1    3    3    0    0 -0.32641943705E+02  0.47939707902E+01 -0.21421349643E+02  0.39336548264E+02  0.10566000000E+00 0. -1.
         23    2    1    0    0    0 -0.83235848416E+01 -0.13015683124E+02  0.25546713781E+02  0.95144939176E+02  0.90339552766E+02 0.  0.
         13    1    3    3    0    0  0.24318358864E+02 -0.17809653914E+02  0.46968063424E+02  0.55808390912E+02  0.10566000000E+00 0.  1.
         22    1    1    0    0    0  0.83235848416E+01  0.13015683124E+02 -0.25546713781E+02  0.29855060824E+02  0.00000000000E+00 0.  1.
</event>
<event>
 5    1  0.9041167E-005  0.9118800E+02  0.7818608E-02  0.1130116E+00
         25   -1    0    0    0    0  0.00000000000E+00  0.00000000000E+00  0.99999998245E-14  0.12500000000E+03  0.12500000000E+03 0.  0.
        -13    1    3    3    0    0  0.18789138415E+02  0.38813675147E+01  0.31250863872E+02  0.36670483947E+02  0.10566000000E+00 0.  1.
         23    2    1    0    0    0  0.17477382611E+02  0.99418603351E+01 -0.24805367980E+02  0.93068733654E+02  0.87419582552E+02 0.  0.
         13    1    3    3    0    0 -0.13117558049E+01  0.60604928204E+01 -0.56056231852E+02  0.56398249707E+02  0.10566000000E+00 0. -1.
         22    1    1    0    0    0 -0.17477382611E+02 -0.99418603351E+01  0.24805367980E+02  0.31931266346E+02  0.00000000000E+00 0. -1.
</event>
<event>
 5    1  0.9041167E-005  0.9118800E+02  0.7818608E-02  0.1130116E+00
         25   -1    0    0    0    0  0.00000000000E+00  0.00000000000E+00  0.99999998245E-14  0.12500000000E+03  0.12500000000E+03 0.  0.
        -13    1    3    3    0    0  0.46087746786E+02  0.12566919105E+02  0.21720341159E+02  0.52476587577E+02  0.10566000000E+00 0.  1.
         23    2    1    0    0    0  0.25499286361E+02 -0.52193763165E+01 -0.12443411068E+02  0.96150494406E+02  0.91720355437E+02 0.  0.
         13    1    3    3    0    0 -0.20588460425E+02 -0.17786295421E+02 -0.34163752227E+02  0.43673906829E+02  0.10566000000E+00 0. -1.
         22    1    1    0    0    0 -0.25499286361E+02  0.52193763165E+01  0.12443411068E+02  0.28849505594E+02  0.00000000000E+00 0.  1.
</event>
<event>
 5    1  0.9041167E-005  0.9118800E+02  0.7818608E-02  0.1130116E+00
         25   -1    0    0    0    0  0.00000000000E+00  0.00000000000E+00  0.99999998245E-14  0.12500000000E+03  0.12500000000E+03 0.  0.
        -13    1    3    3    0    0  0.25978631426E+02  0.46605679201E+00 -0.55243058090E+02  0.61048449046E+02  0.10566000000E+00 0. -1.
         23    2    1    0    0    0  0.19599936970E+02  0.19461555482E+01 -0.19871937696E+02  0.97020740567E+02  0.92898789775E+02 0.  0.
         13    1    3    3    0    0 -0.63786944563E+01  0.14800987562E+01  0.35371120394E+02  0.35972291521E+02  0.10566000000E+00 0.  1.
         22    1    1    0    0    0 -0.19599936970E+02 -0.19461555482E+01  0.19871937696E+02  0.27979259433E+02  0.00000000000E+00 0. -1.
</event>
<event>
 5    1  0.9041167E-005  0.9118800E+02  0.7818608E-02  0.1130116E+00
         25   -1    0    0    0    0  0.00000000000E+00  0.00000000000E+00  0.99999998245E-14  0.12500000000E+03  0.12500000000E+03 0.  0.
        -13    1    3    3    0    0  0.23843470638E+02  0.71254665812E+00 -0.28849259574E+02  0.37434072138E+02  0.10566000000E+00 0. -1.
         23    2    1    0    0    0 -0.21449462086E+02 -0.19035420725E+02  0.29149617758E+01  0.96174253381E+02  0.91752729362E+02 0.  0.
         13    1    3    3    0    0 -0.45292932724E+02 -0.19747967384E+02  0.31764221350E+02  0.58740181244E+02  0.10566000000E+00 0.  1.
         22    1    1    0    0    0  0.21449462086E+02  0.19035420725E+02 -0.29149617758E+01  0.28825746619E+02  0.00000000000E+00 0.  1.
</event>
<event>
 5    1  0.9041167E-005  0.9118800E+02  0.7818608E-02  0.1130116E+00
         25   -1    0    0    0    0  0.00000000000E+00  0.00000000000E+00  0.99999998245E-14  0.12500000000E+03  0.12500000000E+03 0.  0.
        -13    1    3    3    0    0  0.54149316530E+02 -0.18407133324E+02  0.58091068402E+00  0.57195451385E+02  0.10566000000E+00 0.  1.
         23    2    1    0    0    0  0.29112693174E+02  0.89984572730E+01 -0.23925935796E+01  0.94434567872E+02  0.89351228128E+02 0.  0.
         13    1    3    3    0    0 -0.25036623356E+02  0.27405590597E+02 -0.29735042636E+01  0.37239116487E+02  0.10566000000E+00 0. -1.
         22    1    1    0    0    0 -0.29112693174E+02 -0.89984572730E+01  0.23925935796E+01  0.30565432128E+02  0.00000000000E+00 0.  1.
</event>
<event>
 5    1  0.9041167E-005  0.9118800E+02  0.7818608E-02  0.1130116E+00
         25   -1    0    0    0    0  0.00000000000E+00  0.00000000000E+00  0.99999998245E-14  0.12500000000E+03  0.12500000000E+03 0.  0.
        -13    1    3    3    0    0  0.73969085844E+01 -0.47045074324E+02 -0.86943702937E+01  0.48410293467E+02  0.10566000000E+00 0.  1.
         23    2    1    0    0    0  0.27059687823E+02 -0.98309441968E+01  0.10078649349E+02  0.94496666714E+02  0.89438060569E+02 0.  0.
         13    1    3    3    0    0  0.19662779239E+02  0.37214130127E+02  0.18773019643E+02  0.46086373247E+02  0.10566000000E+00 0. -1.
         22    1    1    0    0    0 -0.27059687823E+02  0.98309441968E+01 -0.10078649349E+02  0.30503333286E+02  0.00000000000E+00 0.  1.
</event>
<event>
 5    1  0.9041167E-005  0.9118800E+02  0.7818608E-02  0.1130116E+00
         25   -1    0    0    0    0  0.00000000000E+00  0.00000000000E+00  0.99999998245E-14  0.12500000000E+03  0.12500000000E+03 0.  0.
        -13    1    3    3    0    0 -0.38863974549E+01  0.35250226393E+02 -0.51420408790E+02  0.62464006837E+02  0.10566000000E+00 0.  1.
         23    2    1    0    0    0 -0.33535146413E+01  0.17376095829E+02 -0.26370518617E+02  0.93241866887E+02  0.87666793723E+02 0.  0.
         13    1    3    3    0    0  0.53288281357E+00 -0.17874130564E+02  0.25049890173E+02  0.30777860050E+02  0.10566000000E+00 0. -1.
         22    1    1    0    0    0  0.33535146413E+01 -0.17376095829E+02  0.26370518617E+02  0.31758133113E+02  0.00000000000E+00 0.  1.
</event>
<event>
 5    1  0.9041167E-005  0.9118800E+02  0.7818608E-02  0.1130116E+00
         25   -1    0    0    0    0  0.00000000000E+00  0.00000000000E+00  0.99999998245E-14  0.12500000000E+03  0.12500000000E+03 0.  0.
        -13    1    3    3    0    0 -0.15982894257E+02 -0.59665499303E+02 -0.21675008220E+01  0.61807232099E+02  0.10566000000E+00 0.  1.
         23    2    1    0    0    0 -0.94170614864E+01 -0.26680359638E+02 -0.71762704612E+01  0.95810592758E+02  0.91255948789E+02 0.  0.
         13    1    3    3    0    0  0.65658327709E+01  0.32985139665E+02 -0.50087696392E+01  0.34003360658E+02  0.10566000000E+00 0. -1.
         22    1    1    0    0    0  0.94170614864E+01  0.26680359638E+02  0.71762704612E+01  0.29189407242E+02  0.00000000000E+00 0.  1.
</event>
<event>
 5    1  0.9041167E-005  0.9118800E+02  0.7818608E-02  0.1130116E+00
         25   -1    0    0    0    0  0.00000000000E+00  0.00000000000E+00  0.99999998245E-14  0.12500000000E+03  0.12500000000E+03 0.  0.
        -13    1    3    3    0    0  0.13224827657E+02 -0.28101420054E+02  0.28414916476E+02  0.42095184023E+02  0.10566000000E+00 0. -1.
         23    2    1    0    0    0 -0.26580918903E+02 -0.80367627022E+01 -0.36293861378E+01  0.96994513963E+02  0.92863493853E+02 0.  0.
         13    1    3    3    0    0 -0.39805746560E+02  0.20064657351E+02 -0.32044302613E+02  0.54899329940E+02  0.10566000000E+00 0.  1.
         22    1    1    0    0    0  0.26580918903E+02  0.80367627022E+01  0.36293861378E+01  0.28005486037E+02  0.00000000000E+00 0.  1.
</event>
<event>
 5    1  0.9041167E-005  0.9118800E+02  0.7818608E-02  0.1130116E+00
         25   -1    0    0    0    0  0.00000000000E+00  0.00000000000E+00  0.99999998245E-14  0.12500000000E+03  0.12500000000E+03 0.  0.
        -13    1    3    3    0    0 -0.19940435112E+02 -0.23672540201E+02 -0.22505769864E+02  0.38269190652E+02  0.10566000000E+00 0.  1.
         23    2    1    0    0    0  0.21805789191E+02 -0.10561567907E+02  0.15508770049E+02  0.96232638159E+02  0.91832235842E+02 0.  0.
         13    1    3    3    0    0  0.41746224302E+02  0.13110972294E+02  0.38014539912E+02  0.57963447506E+02  0.10566000000E+00 0. -1.
         22    1    1    0    0    0 -0.21805789191E+02  0.10561567907E+02 -0.15508770049E+02  0.28767361841E+02  0.00000000000E+00 0. -1.
</event>
<event>
 5    1  0.9041167E-005  0.9118800E+02  0.7818608E-02  0.1130116E+00
         25   -1    0    0    0    0  0.00000000000E+00  0.00000000000E+00  0.99999998245E-14  0.12500000000E+03  0.12500000000E+03 0.  0.
        -13    1    3    3    0    0  0.70549585752E+01  0.55103366113E+02 -0.26436126823E+02  0.61522624806E+02  0.10566000000E+00 0. -1.
         23    2    1    0    0    0  0.14217003021E+00  0.22127365206E+02 -0.18548118773E+02  0.96126600247E+02  0.91687785783E+02 0.  0.
         13    1    3    3    0    0 -0.69127885450E+01 -0.32976000907E+02  0.78880080503E+01  0.34603975441E+02  0.10566000000E+00 0.  1.
         22    1    1    0    0    0 -0.14217003021E+00 -0.22127365206E+02  0.18548118773E+02  0.28873399753E+02  0.00000000000E+00 0. -1.
</event>
<event>
 5    1  0.9041167E-005  0.9118800E+02  0.7818608E-02  0.1130116E+00
         25   -1    0    0    0    0  0.00000000000E+00  0.00000000000E+00  0.99999998245E-14  0.12500000000E+03  0.12500000000E+03 0.  0.
        -13    1    3    3    0    0 -0.23072184026E+02  0.38232968587E+02 -0.12496588194E+02  0.46370911607E+02  0.10566000000E+00 0.  1.
         23    2    1    0    0    0 -0.22408086854E+02 -0.88599781809E+01 -0.19520033825E+02  0.93989464849E+02  0.88726355793E+02 0.  0.
         13    1    3    3    0    0  0.66409717241E+00 -0.47092946768E+02 -0.70234456307E+01  0.47618553242E+02  0.10566000000E+00 0. -1.
         22    1    1    0    0    0  0.22408086854E+02  0.88599781809E+01  0.19520033825E+02  0.31010535151E+02  0.00000000000E+00 0. -1.
</event>
<event>
 5    1  0.9041167E-005  0.9118800E+02  0.7818608E-02  0.1130116E+00
         25   -1    0    0    0    0  0.00000000000E+00  0.00000000000E+00  0.99999998245E-14  0.12500000000E+03  0.12500000000E+03 0.  0.
        -13    1    3    3    0    0  0.24423988289E+02 -0.18058598926E+02  0.12379796497E+02  0.32801139072E+02  0.10566000000E+00 0. -1.
         23    2    1    0    0    0 -0.17973148605E+02  0.10579857484E+02 -0.22188962132E+02  0.94548111788E+02  0.89509932114E+02 0.  0.
         13    1    3    3    0    0 -0.42397136894E+02  0.28638456410E+02 -0.34568758629E+02  0.61746972716E+02  0.10566000000E+00 0.  1.
         22    1    1    0    0    0  0.17973148605E+02 -0.10579857484E+02  0.22188962132E+02  0.30451888212E+02  0.00000000000E+00 0.  1.
</event>
<event>
 5    1  0.9041167E-005  0.9118800E+02  0.7818608E-02  0.1130116E+00
         25   -1    0    0    0    0  0.00000000000E+00  0.00000000000E+00  0.99999998245E-14  0.12500000000E+03  0.12500000000E+03 0.  0.
        -13    1    3    3    0    0  0.42592521014E+02  0.30943102421E+02 -0.18629190627E+02  0.55844931204E+02  0.10566000000E+00 0.  1.
         23    2    1    0    0    0  0.55286338299E+01  0.28733904716E+02 -0.55068631435E+01  0.95225369626E+02  0.90450773388E+02 0.  0.
         13    1    3    3    0    0 -0.37063887184E+02 -0.22091977055E+01  0.13122327483E+02  0.39380438422E+02  0.10566000000E+00 0. -1.
         22    1    1    0    0    0 -0.55286338299E+01 -0.28733904716E+02  0.55068631435E+01  0.29774630374E+02  0.00000000000E+00 0.  1.
</event>
<event>
 5    1  0.9041167E-005  0.9118800E+02  0.7818608E-02  0.1130116E+00
         25   -1    0    0    0    0  0.00000000000E+00  0.00000000000E+00  0.99999998245E-14  0.12500000000E+03  0.12500000000E+03 0.  0.
        -13    1    3    3    0    0 -0.16020415689E+02  0.51365982770E+02  0.91475248618E+01  0.54578441530E+02  0.10566000000E+00 0.  1.
         23    2    1    0    0    0 -0.25644268845E+02  0.13149734276E+02 -0.35032339771E+01  0.95968694751E+02  0.91472256383E+02 0.  0.
         13    1    3    3    0    0 -0.96238531561E+01 -0.38216248493E+02 -0.12650758839E+02  0.41390253221E+02  0.10566000000E+00 0. -1.
         22    1    1    0    0    0  0.25644268845E+02 -0.13149734276E+02  0.35032339771E+01  0.29031305249E+02  0.00000000000E+00 0.  1.
</event>
<event>
 5    1  0.9041167E-005  0.9118800E+02  0.7818608E-02  0.1130116E+00
         25   -1    0    0    0    0  0.00000000000E+00  0.00000000000E+00  0.99999998245E-14  0.12500000000E+03  0.12500000000E+03 0.  0.
        -13    1    3    3    0    0  0.26550950801E+02 -0.49698658074E+02  0.92106981245E+01  0.57094288040E+02  0.10566000000E+00 0. -1.
         23    2    1    0    0    0 -0.49345856539E+01 -0.27727745175E+02 -0.98751405145E+00  0.96819276587E+02  0.92627313179E+02 0.  0.
         13    1    3    3    0    0 -0.31485536455E+02  0.21970912899E+02 -0.10198212176E+02  0.39724988547E+02  0.10566000000E+00 0.  1.
         22    1    1    0    0    0  0.49345856539E+01  0.27727745175E+02  0.98751405145E+00  0.28180723413E+02  0.00000000000E+00 0. -1.
</event>
<event>
 5    1  0.9041167E-005  0.9118800E+02  0.7818608E-02  0.1130116E+00
         25   -1    0    0    0    0  0.00000000000E+00  0.00000000000E+00  0.99999998245E-14  0.12500000000E+03  0.12500000000E+03 0.  0.
        -13    1    3    3    0    0  0.11764491879E+02 -0.22305157409E+02 -0.54981274022E+02  0.60488635076E+02  0.10566000000E+00 0.  1.
         23    2    1    0    0    0  0.16317436193E+02 -0.81616463823E+01 -0.23964664098E+02  0.94880632130E+02  0.89973096159E+02 0.  0.
         13    1    3    3    0    0  0.45529443132E+01  0.14143511027E+02  0.31016609924E+02  0.34391997053E+02  0.10566000000E+00 0. -1.
         22    1    1    0    0    0 -0.16317436193E+02  0.81616463823E+01  0.23964664098E+02  0.30119367870E+02  0.00000000000E+00 0.  1.
</event>
<event>
 5    1  0.9041167E-005  0.9118800E+02  0.7818608E-02  0.1130116E+00
         25   -1    0    0    0    0  0.00000000000E+00  0.00000000000E+00  0.99999998245E-14  0.12500000000E+03  0.12500000000E+03 0.  0.
        -13    1    3    3    0    0  0.20490715859E+01  0.46991867773E+01  0.36723769461E+02  0.37080014269E+02  0.10566000000E+00 0. -1.
         23    2    1    0    0    0  0.18884618173E+02 -0.27825095136E+02 -0.31547586961E+01  0.91224014074E+02  0.84740801969E+02 0.  0.
         13    1    3    3    0    0  0.16835546587E+02 -0.32524281913E+02 -0.39878528157E+02  0.54143999805E+02  0.10566000000E+00 0.  1.
         22    1    1    0    0    0 -0.18884618173E+02  0.27825095136E+02  0.31547586961E+01  0.33775985926E+02  0.00000000000E+00 0.  1.
</event>
<event>
 5    1  0.9041167E-005  0.9118800E+02  0.7818608E-02  0.1130116E+00
         25   -1    0    0    0    0  0.00000000000E+00  0.00000000000E+00  0.99999998245E-14  0.12500000000E+03  0.12500000000E+03 0.  0.
        -13    1    3    3    0    0  0.39757925439E+02 -0.41244528953E+02 -0.68657034770E+01  0.57697078367E+02  0.10566000000E+00 0. -1.
         23    2    1    0    0    0  0.11213912676E+02 -0.24582118416E+02  0.11643962921E+02  0.95578676851E+02  0.90937721616E+02 0.  0.
         13    1    3    3    0    0 -0.28544012763E+02  0.16662410537E+02  0.18509666398E+02  0.37881598484E+02  0.10566000000E+00 0.  1.
         22    1    1    0    0    0 -0.11213912676E+02  0.24582118416E+02 -0.11643962921E+02  0.29421323149E+02  0.00000000000E+00 0. -1.
</event>
<event>
 5    1  0.9041167E-005  0.9118800E+02  0.7818608E-02  0.1130116E+00
         25   -1    0    0    0    0  0.00000000000E+00  0.00000000000E+00  0.99999998245E-14  0.12500000000E+03  0.12500000000E+03 0.  0.
        -13    1    3    3    0    0 -0.37954591381E+02 -0.12574941134E+02 -0.29200995446E+02  0.49511508264E+02  0.10566000000E+00 0. -1.
         23    2    1    0    0    0 -0.25852488862E+02  0.40330870402E+01  0.12500983587E+02  0.96001869680E+02  0.91517579841E+02 0.  0.
         13    1    3    3    0    0  0.12102102520E+02  0.16608028174E+02  0.41701979034E+02  0.46490361416E+02  0.10566000000E+00 0.  1.
         22    1    1    0    0    0  0.25852488862E+02 -0.40330870402E+01 -0.12500983587E+02  0.28998130320E+02  0.00000000000E+00 0. -1.
</event>
<event>
 5    1  0.9041167E-005  0.9118800E+02  0.7818608E-02  0.1130116E+00
         25   -1    0    0    0    0  0.00000000000E+00  0.00000000000E+00  0.99999998245E-14  0.12500000000E+03  0.12500000000E+03 0.  0.
        -13    1    3    3    0    0  0.47884358552E+02  0.10934744434E+02  0.99691686741E+01  0.50118618475E+02  0.10566000000E+00 0. -1.
         23    2    1    0    0    0  0.32659488452E+01  0.22577941572E+02  0.16710647076E+02  0.96721464090E+02  0.92495221620E+02 0.  0.
         13    1    3    3    0    0 -0.44618409707E+02  0.11643197139E+02  0.67414784022E+01  0.46602845615E+02  0.10566000000E+00 0.  1.
         22    1    1    0    0    0 -0.32659488452E+01 -0.22577941572E+02 -0.16710647076E+02  0.28278535910E+02  0.00000000000E+00 0.  1.
</event>
<event>
 5    1  0.9041167E-005  0.9118800E+02  0.7818608E-02  0.1130116E+00
         25   -1    0    0    0    0  0.00000000000E+00  0.00000000000E+00  0.99999998245E-14  0.12500000000E+03  0.12500000000E+03 0.  0.
        -13    1    3    3    0    0  0.17383998054E+02  0.14019305595E+01 -0.29393846257E+02  0.34178621380E+02  0.10566000000E+00 0. -1.
         23    2    1    0    0    0 -0.15431353434E+02 -0.95996385809E+01  0.22202419924E+02  0.96308064197E+02  0.91934846762E+02 0.  0.
         13    1    3    3    0    0 -0.32815351488E+02 -0.11001569140E+02  0.51596266181E+02  0.62129442816E+02  0.10566000000E+00 0.  1.
         22    1    1    0    0    0  0.15431353434E+02  0.95996385809E+01 -0.22202419924E+02  0.28691935803E+02  0.00000000000E+00 0.  1.
</event>
<event>
 5    1  0.9041167E-005  0.9118800E+02  0.7818608E-02  0.1130116E+00
         25   -1    0    0    0    0  0.00000000000E+00  0.00000000000E+00  0.99999998245E-14  0.12500000000E+03  0.12500000000E+03 0.  0.
        -13    1    3    3    0    0 -0.22683311119E+02 -0.31937705314E+02 -0.32685422953E+02  0.51018601134E+02  0.10566000000E+00 0.  1.
         23    2    1    0    0    0 -0.22640349759E+02  0.91590036282E+01 -0.18000853850E+02  0.94660199012E+02  0.89666324521E+02 0.  0.
         13    1    3    3    0    0  0.42961359988E-01  0.41096708942E+02  0.14684569104E+02  0.43641597878E+02  0.10566000000E+00 0. -1.
         22    1    1    0    0    0  0.22640349759E+02 -0.91590036282E+01  0.18000853850E+02  0.30339800988E+02  0.00000000000E+00 0.  1.
</event>
<event>
 5    1  0.9041167E-005  0.9118800E+02  0.7818608E-02  0.1130116E+00
         25   -1    0    0    0    0  0.00000000000E+00  0.00000000000E+00  0.99999998245E-14  0.12500000000E+03  0.12500000000E+03 0.  0.
        -13    1    3    3    0    0 -0.55473913049E+02  0.30229054476E+01 -0.88122626336E+01  0.56250867754E+02  0.10566000000E+00 0. -1.
         23    2    1    0    0    0 -0.18285611776E+02  0.58076553586E+01 -0.22002598726E+02  0.95807418588E+02  0.91251600792E+02 0.  0.
         13    1    3    3    0    0  0.37188301273E+02  0.27847499110E+01 -0.13190336092E+02  0.39556550834E+02  0.10566000000E+00 0.  1.
         22    1    1    0    0    0  0.18285611776E+02 -0.58076553586E+01  0.22002598726E+02  0.29192581412E+02  0.00000000000E+00 0. -1.
</event>
<event>
 5    1  0.9041167E-005  0.9118800E+02  0.7818608E-02  0.1130116E+00
         25   -1    0    0    0    0  0.00000000000E+00  0.00000000000E+00  0.99999998245E-14  0.12500000000E+03  0.12500000000E+03 0.  0.
        -13    1    3    3    0    0  0.31463965805E+02  0.17788826062E+02 -0.17439151199E+02  0.40131765915E+02  0.10566000000E+00 0. -1.
         23    2    1    0    0    0  0.11051146878E+02 -0.27790961809E+02  0.46361922293E+01  0.94735174146E+02  0.89770783312E+02 0.  0.
         13    1    3    3    0    0 -0.20412818927E+02 -0.45579787871E+02  0.22075343428E+02  0.54603408231E+02  0.10566000000E+00 0.  1.
         22    1    1    0    0    0 -0.11051146878E+02  0.27790961809E+02 -0.46361922293E+01  0.30264825854E+02  0.00000000000E+00 0.  1.
</event>
<event>
 5    1  0.9041167E-005  0.9118800E+02  0.7818608E-02  0.1130116E+00
         25   -1    0    0    0    0  0.00000000000E+00  0.00000000000E+00  0.99999998245E-14  0.12500000000E+03  0.12500000000E+03 0.  0.
        -13    1    3    3    0    0 -0.32425122610E+02  0.24849928743E+02 -0.25063517939E+02  0.47928056818E+02  0.10566000000E+00 0.  1.
         23    2    1    0    0    0 -0.24841858317E+02 -0.16697357417E+02 -0.51222594617E+01  0.94632958469E+02  0.89628341597E+02 0.  0.
         13    1    3    3    0    0  0.75832642934E+01 -0.41547286160E+02  0.19941258477E+02  0.46704901652E+02  0.10566000000E+00 0. -1.
         22    1    1    0    0    0  0.24841858317E+02  0.16697357417E+02  0.51222594617E+01  0.30367041531E+02  0.00000000000E+00 0.  1.
</event>
<event>
 5    1  0.9041167E-005  0.9118800E+02  0.7818608E-02  0.1130116E+00
         25   -1    0    0    0    0  0.00000000000E+00  0.00000000000E+00  0.99999998245E-14  0.12500000000E+03  0.12500000000E+03 0.  0.
        -13    1    3    3    0    0  0.30483435012E+02 -0.30953995609E+01  0.16404363842E+02  0.34755368300E+02  0.10566000000E+00 0.  1.
         23    2    1    0    0    0 -0.23234270933E+02  0.19555253029E+02  0.38651615542E+01  0.94386624808E+02  0.89284131860E+02 0.  0.
         13    1    3    3    0    0 -0.53717705945E+02  0.22650652590E+02 -0.12539202287E+02  0.59631256508E+02  0.10566000000E+00 0. -1.
         22    1    1    0    0    0  0.23234270933E+02 -0.19555253029E+02 -0.38651615542E+01  0.30613375192E+02  0.00000000000E+00 0. -1.
</event>
<event>
 5    1  0.9041167E-005  0.9118800E+02  0.7818608E-02  0.1130116E+00
         25   -1    0    0    0    0  0.00000000000E+00  0.00000000000E+00  0.99999998245E-14  0.12500000000E+03  0.12500000000E+03 0.  0.
        -13    1    3    3    0    0 -0.62853429468E+00 -0.26262398631E+02 -0.19784053869E+02  0.32886601964E+02  0.10566000000E+00 0. -1.
         23    2    1    0    0    0 -0.98431421602E+00  0.30114070946E+02  0.49758631531E+01  0.94461739448E+02  0.89389232361E+02 0.  0.
         13    1    3    3    0    0 -0.35577992134E+00  0.56376469577E+02  0.24759917022E+02  0.61575137485E+02  0.10566000000E+00 0.  1.
         22    1    1    0    0    0  0.98431421602E+00 -0.30114070946E+02 -0.49758631531E+01  0.30538260552E+02  0.00000000000E+00 0.  1.
</event>
<event>
 5    1  0.9041167E-005  0.9118800E+02  0.7818608E-02  0.1130116E+00
         25   -1    0    0    0    0  0.00000000000E+00  0.00000000000E+00  0.99999998245E-14  0.12500000000E+03  0.12500000000E+03 0.  0.
        -13    1    3    3    0    0  0.17723201126E+02 -0.28255478191E+02  0.17942949026E+02  0.37874060910E+02  0.10566000000E+00 0. -1.
         23    2    1    0    0    0 -0.77581601127E+01 -0.45096947698E+01 -0.28039783107E+02  0.95559282755E+02  0.90911059221E+02 0.  0.
         13    1    3    3    0    0 -0.25481361239E+02  0.23745783422E+02 -0.45982732133E+02  0.57685221845E+02  0.10566000000E+00 0.  1.
         22    1    1    0    0    0  0.77581601127E+01  0.45096947698E+01  0.28039783107E+02  0.29440717245E+02  0.00000000000E+00 0.  1.
</event>
<event>
 5    1  0.9041167E-005  0.9118800E+02  0.7818608E-02  0.1130116E+00
         25   -1    0    0    0    0  0.00000000000E+00  0.00000000000E+00  0.99999998245E-14  0.12500000000E+03  0.12500000000E+03 0.  0.
        -13    1    3    3    0    0  0.12634863846E+02 -0.10860508754E+02  0.33694183622E+02  0.37588556886E+02  0.10566000000E+00 0. -1.
         23    2    1    0    0    0 -0.31373505176E+02  0.24414080474E+01  0.19235646667E+01  0.93472910040E+02  0.87995610743E+02 0.  0.
         13    1    3    3    0    0 -0.44008369022E+02  0.13301916801E+02 -0.31770618955E+02  0.55884353154E+02  0.10566000000E+00 0.  1.
         22    1    1    0    0    0  0.31373505176E+02 -0.24414080474E+01 -0.19235646667E+01  0.31527089960E+02  0.00000000000E+00 0.  1.
</event>
<event>
 5    1  0.9041167E-005  0.9118800E+02  0.7818608E-02  0.1130116E+00
         25   -1    0    0    0    0  0.00000000000E+00  0.00000000000E+00  0.99999998245E-14  0.12500000000E+03  0.12500000000E+03 0.  0.
        -13    1    3    3    0    0  0.27575256328E+02  0.19593484464E+02  0.67465121927E+01  0.34493854319E+02  0.10566000000E+00 0.  1.
         23    2    1    0    0    0 -0.22744050818E+02  0.30228052877E+00 -0.20049694354E+02  0.94678828110E+02  0.89692290792E+02 0.  0.
         13    1    3    3    0    0 -0.50319307145E+02 -0.19291203936E+02 -0.26796206546E+02  0.60184973791E+02  0.10566000000E+00 0. -1.
         22    1    1    0    0    0  0.22744050818E+02 -0.30228052877E+00  0.20049694354E+02  0.30321171890E+02  0.00000000000E+00 0. -1.
</event>
<event>
 5    1  0.9041167E-005  0.9118800E+02  0.7818608E-02  0.1130116E+00
         25   -1    0    0    0    0  0.00000000000E+00  0.00000000000E+00  0.99999998245E-14  0.12500000000E+03  0.12500000000E+03 0.  0.
        -13    1    3    3    0    0 -0.97357221325E+01 -0.36668800932E+02  0.43231720738E+02  0.57518502147E+02  0.10566000000E+00 0.  1.
         23    2    1    0    0    0 -0.17195714168E+02 -0.21551499094E+02  0.84617816798E+01  0.96159725241E+02  0.91732934709E+02 0.  0.
         13    1    3    3    0    0 -0.74599920357E+01  0.15117301838E+02 -0.34769939059E+02  0.38641223094E+02  0.10566000000E+00 0. -1.
         22    1    1    0    0    0  0.17195714168E+02  0.21551499094E+02 -0.84617816798E+01  0.28840274759E+02  0.00000000000E+00 0. -1.
</event>
<event>
 5    1  0.9041167E-005  0.9118800E+02  0.7818608E-02  0.1130116E+00
         25   -1    0    0    0    0  0.00000000000E+00  0.00000000000E+00  0.99999998245E-14  0.12500000000E+03  0.12500000000E+03 0.  0.
        -13    1    3    3    0    0 -0.28135534605E+02 -0.51516825468E+01  0.18631172343E+02  0.34136196149E+02  0.10566000000E+00 0.  1.
         23    2    1    0    0    0  0.29855537480E+02  0.40627383751E+01  0.44565036062E+01  0.94541513732E+02  0.89500717500E+02 0.  0.
         13    1    3    3    0    0  0.57991072085E+02  0.92144209219E+01 -0.14174668737E+02  0.60405317584E+02  0.10566000000E+00 0. -1.
         22    1    1    0    0    0 -0.29855537480E+02 -0.40627383751E+01 -0.44565036062E+01  0.30458486268E+02  0.00000000000E+00 0. -1.
</event>
<event>
 5    1  0.9041167E-005  0.9118800E+02  0.7818608E-02  0.1130116E+00
         25   -1    0    0    0    0  0.00000000000E+00  0.00000000000E+00  0.99999998245E-14  0.12500000000E+03  0.12500000000E+03 0.  0.
        -13    1    3    3    0    0  0.39989393345E+02  0.40276726866E+02 -0.10735369146E+02  0.57763531937E+02  0.10566000000E+00 0.  1.
         23    2    1    0    0    0  0.10105231900E+02  0.25962854459E+02  0.82390452199E+01  0.95947162109E+02  0.91442826549E+02 0.  0.
         13    1    3    3    0    0 -0.29884161445E+02 -0.14313872407E+02  0.18974414366E+02  0.38183630172E+02  0.10566000000E+00 0. -1.
         22    1    1    0    0    0 -0.10105231900E+02 -0.25962854459E+02 -0.82390452199E+01  0.29052837891E+02  0.00000000000E+00 0.  1.
</event>
<event>
 5    1  0.9041167E-005  0.9118800E+02  0.7818608E-02  0.1130116E+00
         25   -1    0    0    0    0  0.00000000000E+00  0.00000000000E+00  0.99999998245E-14  0.12500000000E+03  0.12500000000E+03 0.  0.
        -13    1    3    3    0    0  0.99547955581E+01 -0.26993088026E+02  0.18070370872E+02  0.33974611451E+02  0.10566000000E+00 0. -1.
         23    2    1    0    0    0 -0.14656547973E+02  0.17173143765E+02 -0.18035322436E+02  0.96103562146E+02  0.91656372045E+02 0.  0.
         13    1    3    3    0    0 -0.24611343532E+02  0.44166231791E+02 -0.36105693309E+02  0.62128950694E+02  0.10566000000E+00 0.  1.
         22    1    1    0    0    0  0.14656547973E+02 -0.17173143765E+02  0.18035322436E+02  0.28896437854E+02  0.00000000000E+00 0.  1.
</event>
<event>
 5    1  0.9041167E-005  0.9118800E+02  0.7818608E-02  0.1130116E+00
         25   -1    0    0    0    0  0.00000000000E+00  0.00000000000E+00  0.99999998245E-14  0.12500000000E+03  0.12500000000E+03 0.  0.
        -13    1    3    3    0    0  0.23721744646E+02  0.14014613980E+02  0.55793921221E+02  0.62226227455E+02  0.10566000000E+00 0.  1.
         23    2    1    0    0    0  0.14597555834E+02  0.74130314274E+01  0.24072212855E+02  0.95887921699E+02  0.91361810538E+02 0.  0.
         13    1    3    3    0    0 -0.91241888117E+01 -0.66015825527E+01 -0.31721708366E+02  0.33661694244E+02  0.10566000000E+00 0. -1.
         22    1    1    0    0    0 -0.14597555834E+02 -0.74130314274E+01 -0.24072212855E+02  0.29112078301E+02  0.00000000000E+00 0.  1.
</event>
<event>
 5    1  0.9041167E-005  0.9118800E+02  0.7818608E-02  0.1130116E+00
         25   -1    0    0    0    0  0.00000000000E+00  0.00000000000E+00  0.99999998245E-14  0.12500000000E+03  0.12500000000E+03 0.  0.
        -13    1    3    3    0    0 -0.17023227052E+02 -0.34344480406E+02 -0.38053183951E+02  0.54012864823E+02  0.10566000000E+00 0.  1.
         23    2    1    0    0    0 -0.10644304085E+02  0.47586712347E+01 -0.27674132623E+02  0.94969952085E+02  0.90097103290E+02 0.  0.
         13    1    3    3    0    0  0.63789229671E+01  0.39103151640E+02  0.10379051328E+02  0.40957087261E+02  0.10566000000E+00 0. -1.
         22    1    1    0    0    0  0.10644304085E+02 -0.47586712347E+01  0.27674132623E+02  0.30030047915E+02  0.00000000000E+00 0.  1.
</event>
<event>
 5    1  0.9041167E-005  0.9118800E+02  0.7818608E-02  0.1130116E+00
         25   -1    0    0    0    0  0.00000000000E+00  0.00000000000E+00  0.99999998245E-14  0.12500000000E+03  0.12500000000E+03 0.  0.
        -13    1    3    3    0    0  0.13655837179E+02  0.98036232874E+01  0.28397884181E+02  0.33000665275E+02  0.10566000000E+00 0. -1.
         23    2    1    0    0    0 -0.28814014333E+02  0.26356531922E+02  0.24835247717E+02  0.78721455013E+02  0.63681737989E+02 0.  0.
         13    1    3    3    0    0 -0.42469851512E+02  0.16552908634E+02 -0.35626364634E+01  0.45720789738E+02  0.10566000000E+00 0.  1.
         22    1    1    0    0    0  0.28814014333E+02 -0.26356531922E+02 -0.24835247717E+02  0.46278544987E+02  0.00000000000E+00 0. -1.
</event>
<event>
 5    1  0.9041167E-005  0.9118800E+02  0.7818608E-02  0.1130116E+00
         25   -1    0    0    0    0  0.00000000000E+00  0.00000000000E+00  0.99999998245E-14  0.12500000000E+03  0.12500000000E+03 0.  0.
        -13    1    3    3    0    0  0.17757031381E+02 -0.12818344498E+02  0.38040244046E+02  0.43894116352E+02  0.10566000000E+00 0. -1.
         23    2    1    0    0    0 -0.25186374028E+02  0.40150304510E+01  0.13862911582E+02  0.95971492912E+02  0.91476080087E+02 0.  0.
         13    1    3    3    0    0 -0.42943405409E+02  0.16833374949E+02 -0.24177332464E+02  0.52077376561E+02  0.10566000000E+00 0.  1.
         22    1    1    0    0    0  0.25186374028E+02 -0.40150304510E+01 -0.13862911582E+02  0.29028507088E+02  0.00000000000E+00 0.  1.
</event>
<event>
 5    1  0.9041167E-005  0.9118800E+02  0.7818608E-02  0.1130116E+00
         25   -1    0    0    0    0  0.00000000000E+00  0.00000000000E+00  0.99999998245E-14  0.12500000000E+03  0.12500000000E+03 0.  0.
        -13    1    3    3    0    0  0.88472445627E+01  0.50295463850E+02  0.35894375530E+02  0.62420547730E+02  0.10566000000E+00 0.  1.
         23    2    1    0    0    0  0.25665812791E+01  0.24665015399E+02  0.15702951247E+02  0.95648117574E+02  0.91033122508E+02 0.  0.
         13    1    3    3    0    0 -0.62806632837E+01 -0.25630448451E+02 -0.20191424283E+02  0.33227569844E+02  0.10566000000E+00 0. -1.
         22    1    1    0    0    0 -0.25665812791E+01 -0.24665015399E+02 -0.15702951247E+02  0.29351882426E+02  0.00000000000E+00 0.  1.
</event>
<event>
 5    1  0.9041167E-005  0.9118800E+02  0.7818608E-02  0.1130116E+00
         25   -1    0    0    0    0  0.00000000000E+00  0.00000000000E+00  0.99999998245E-14  0.12500000000E+03  0.12500000000E+03 0.  0.
        -13    1    3    3    0    0 -0.10852363796E+00  0.32650759782E+02  0.37061224467E+01  0.32860772957E+02  0.10566000000E+00 0. -1.
         23    2    1    0    0    0  0.46750638426E+01 -0.26164778295E+02 -0.14638561226E+02  0.94656313343E+02  0.89660907512E+02 0.  0.
         13    1    3    3    0    0  0.47835874805E+01 -0.58815538077E+02 -0.18344683673E+02  0.61795540386E+02  0.10566000000E+00 0.  1.
         22    1    1    0    0    0 -0.46750638426E+01  0.26164778295E+02  0.14638561226E+02  0.30343686657E+02  0.00000000000E+00 0.  1.
</event>
<event>
 5    1  0.9041167E-005  0.9118800E+02  0.7818608E-02  0.1130116E+00
         25   -1    0    0    0    0  0.00000000000E+00  0.00000000000E+00  0.99999998245E-14  0.12500000000E+03  0.12500000000E+03 0.  0.
        -13    1    3    3    0    0  0.57626186429E+01 -0.38976266047E+02 -0.86566674600E+01  0.40339882797E+02  0.10566000000E+00 0. -1.
         23    2    1    0    0    0 -0.28819244612E+02  0.37125884377E+01 -0.89716628160E-01  0.95942467035E+02  0.91436408278E+02 0.  0.
         13    1    3    3    0    0 -0.34581863255E+02  0.42688854484E+02  0.85669508319E+01  0.55602584238E+02  0.10566000000E+00 0.  1.
         22    1    1    0    0    0  0.28819244612E+02 -0.37125884377E+01  0.89716628160E-01  0.29057532965E+02  0.00000000000E+00 0.  1.
</event>
<event>
 5    1  0.9041167E-005  0.9118800E+02  0.7818608E-02  0.1130116E+00
         25   -1    0    0    0    0  0.00000000000E+00  0.00000000000E+00  0.99999998245E-14  0.12500000000E+03  0.12500000000E+03 0.  0.
        -13    1    3    3    0    0 -0.46513748439E+02  0.15203751583E+02  0.24753877849E+02  0.54840208685E+02  0.10566000000E+00 0. -1.
         23    2    1    0    0    0 -0.74512419525E+01  0.22608937319E+02  0.17971289276E+02  0.95172960396E+02  0.90378316531E+02 0.  0.
         13    1    3    3    0    0  0.39062506486E+02  0.74051857360E+01 -0.67825885733E+01  0.40332751711E+02  0.10566000000E+00 0.  1.
         22    1    1    0    0    0  0.74512419525E+01 -0.22608937319E+02 -0.17971289276E+02  0.29827039604E+02  0.00000000000E+00 0. -1.
</event>
<event>
 5    1  0.9041167E-005  0.9118800E+02  0.7818608E-02  0.1130116E+00
         25   -1    0    0    0    0  0.00000000000E+00  0.00000000000E+00  0.99999998245E-14  0.12500000000E+03  0.12500000000E+03 0.  0.
        -13    1    3    3    0    0 -0.14847718779E+02 -0.55251860967E+01  0.36891641721E+02  0.40149555754E+02  0.10566000000E+00 0. -1.
         23    2    1    0    0    0 -0.32446502371E+01 -0.27098655758E+02 -0.12270290558E+02  0.95076348327E+02  0.90244595859E+02 0.  0.
         13    1    3    3    0    0  0.11603068542E+02 -0.21573469662E+02 -0.49161932279E+02  0.54926792573E+02  0.10566000000E+00 0.  1.
         22    1    1    0    0    0  0.32446502371E+01  0.27098655758E+02  0.12270290558E+02  0.29923651673E+02  0.00000000000E+00 0.  1.
</event>
<event>
 5    1  0.9041167E-005  0.9118800E+02  0.7818608E-02  0.1130116E+00
         25   -1    0    0    0    0  0.00000000000E+00  0.00000000000E+00  0.99999998245E-14  0.12500000000E+03  0.12500000000E+03 0.  0.
        -13    1    3    3    0    0 -0.35793501460E+02 -0.31092953852E+02 -0.23492953622E+02  0.52913859809E+02  0.10566000000E+00 0.  1.
         23    2    1    0    0    0 -0.21898975990E+02  0.84267722507E+01 -0.18536263345E+02  0.95097346292E+02  0.90273675969E+02 0.  0.
         13    1    3    3    0    0  0.13894525470E+02  0.39519726103E+02  0.49566902764E+01  0.42183486483E+02  0.10566000000E+00 0. -1.
         22    1    1    0    0    0  0.21898975990E+02 -0.84267722507E+01  0.18536263345E+02  0.29902653708E+02  0.00000000000E+00 0.  1.
</event>
<event>
 5    1  0.9041167E-005  0.9118800E+02  0.7818608E-02  0.1130116E+00
         25   -1    0    0    0    0  0.00000000000E+00  0.00000000000E+00  0.99999998245E-14  0.12500000000E+03  0.12500000000E+03 0.  0.
        -13    1    3    3    0    0 -0.13596165105E+02 -0.30410685303E+02  0.16526587666E+02  0.37186082747E+02  0.10566000000E+00 0.  1.
         23    2    1    0    0    0  0.66628124250E+01  0.16119185781E+02 -0.19056166087E+02  0.99166713612E+02  0.95742772067E+02 0.  0.
         13    1    3    3    0    0  0.20258977530E+02  0.46529871084E+02 -0.35582753754E+02  0.61980630865E+02  0.10566000000E+00 0. -1.
         22    1    1    0    0    0 -0.66628124250E+01 -0.16119185781E+02  0.19056166087E+02  0.25833286388E+02  0.00000000000E+00 0. -1.
</event>
<event>
 5    1  0.9041167E-005  0.9118800E+02  0.7818608E-02  0.1130116E+00
         25   -1    0    0    0    0  0.00000000000E+00  0.00000000000E+00  0.99999998245E-14  0.12500000000E+03  0.12500000000E+03 0.  0.
        -13    1    3    3    0    0  0.28314116861E+02 -0.81984717650E+01  0.90070764899E+01  0.30822763404E+02  0.10566000000E+00 0.  1.
         23    2    1    0    0    0  0.10517065795E+02  0.26662205158E+02 -0.28174995437E+02  0.84809052951E+02  0.74681076838E+02 0.  0.
         13    1    3    3    0    0 -0.17797051066E+02  0.34860676923E+02 -0.37182071927E+02  0.53986289547E+02  0.10566000000E+00 0. -1.
         22    1    1    0    0    0 -0.10517065795E+02 -0.26662205158E+02  0.28174995437E+02  0.40190947049E+02  0.00000000000E+00 0. -1.
</event>
<event>
 5    1  0.9041167E-005  0.9118800E+02  0.7818608E-02  0.1130116E+00
         25   -1    0    0    0    0  0.00000000000E+00  0.00000000000E+00  0.99999998245E-14  0.12500000000E+03  0.12500000000E+03 0.  0.
        -13    1    3    3    0    0  0.33879939488E+02 -0.25695721952E+02  0.10865085141E+02  0.43888286199E+02  0.10566000000E+00 0.  1.
         23    2    1    0    0    0  0.65413631754E+01 -0.46114087281E+01 -0.28003056876E+02  0.95875685123E+02  0.91345067085E+02 0.  0.
         13    1    3    3    0    0 -0.27338576313E+02  0.21084313223E+02 -0.38868142017E+02  0.51987398924E+02  0.10566000000E+00 0. -1.
         22    1    1    0    0    0 -0.65413631754E+01  0.46114087281E+01  0.28003056876E+02  0.29124314877E+02  0.00000000000E+00 0. -1.
</event>
<event>
 5    1  0.9041167E-005  0.9118800E+02  0.7818608E-02  0.1130116E+00
         25   -1    0    0    0    0  0.00000000000E+00  0.00000000000E+00  0.99999998245E-14  0.12500000000E+03  0.12500000000E+03 0.  0.
        -13    1    3    3    0    0  0.43474944675E+02  0.35104121914E+02 -0.17514038986E+02  0.58558713404E+02  0.10566000000E+00 0. -1.
         23    2    1    0    0    0  0.14717592957E+02  0.24945342691E+02  0.38298573427E+01  0.95784499462E+02  0.91220199877E+02 0.  0.
         13    1    3    3    0    0 -0.28757351718E+02 -0.10158779224E+02  0.21343896329E+02  0.37225786058E+02  0.10566000000E+00 0.  1.
         22    1    1    0    0    0 -0.14717592957E+02 -0.24945342691E+02 -0.38298573427E+01  0.29215500538E+02  0.00000000000E+00 0. -1.
</event>
<event>
 5    1  0.9041167E-005  0.9118800E+02  0.7818608E-02  0.1130116E+00
         25   -1    0    0    0    0  0.00000000000E+00  0.00000000000E+00  0.99999998245E-14  0.12500000000E+03  0.12500000000E+03 0.  0.
        -13    1    3    3    0    0  0.29608181638E+02 -0.15639095557E+02  0.33638798358E+02  0.47463729823E+02  0.10566000000E+00 0. -1.
         23    2    1    0    0    0  0.35734164517E+01  0.22504039286E+02  0.17076891679E+02  0.96525075615E+02  0.92229436210E+02 0.  0.
         13    1    3    3    0    0 -0.26034765186E+02  0.38143134843E+02 -0.16561906679E+02  0.49061345791E+02  0.10566000000E+00 0.  1.
         22    1    1    0    0    0 -0.35734164517E+01 -0.22504039286E+02 -0.17076891679E+02  0.28474924385E+02  0.00000000000E+00 0. -1.
</event>
<event>
 5    1  0.9041167E-005  0.9118800E+02  0.7818608E-02  0.1130116E+00
         25   -1    0    0    0    0  0.00000000000E+00  0.00000000000E+00  0.99999998245E-14  0.12500000000E+03  0.12500000000E+03 0.  0.
        -13    1    3    3    0    0 -0.73419410334E-01 -0.34286869924E+02  0.39000865050E+02  0.51929504892E+02  0.10566000000E+00 0. -1.
         23    2    1    0    0    0  0.11047749842E+02  0.66786341040E+01  0.25406863420E+02  0.96501480058E+02  0.92197451236E+02 0.  0.
         13    1    3    3    0    0  0.11121169252E+02  0.40965504028E+02 -0.13594001630E+02  0.44571975166E+02  0.10566000000E+00 0.  1.
         22    1    1    0    0    0 -0.11047749842E+02 -0.66786341040E+01 -0.25406863420E+02  0.28498519942E+02  0.00000000000E+00 0. -1.
</event>
<event>
 5    1  0.9041167E-005  0.9118800E+02  0.7818608E-02  0.1130116E+00
         25   -1    0    0    0    0  0.00000000000E+00  0.00000000000E+00  0.99999998245E-14  0.12500000000E+03  0.12500000000E+03 0.  0.
        -13    1    3    3    0    0  0.24416866199E+02  0.31614987577E+02 -0.43527661517E+00  0.39948609792E+02  0.10566000000E+00 0. -1.
         23    2    1    0    0    0  0.65242313278E+01 -0.15568149457E+01  0.33603222044E+02  0.90733897231E+02  0.84014726732E+02 0.  0.
         13    1    3    3    0    0 -0.17892634872E+02 -0.33171802523E+02  0.34038498660E+02  0.50785287440E+02  0.10566000000E+00 0.  1.
         22    1    1    0    0    0 -0.65242313278E+01  0.15568149457E+01 -0.33603222044E+02  0.34266102769E+02  0.00000000000E+00 0.  1.
</event>
<event>
 5    1  0.9041167E-005  0.9118800E+02  0.7818608E-02  0.1130116E+00
         25   -1    0    0    0    0  0.00000000000E+00  0.00000000000E+00  0.99999998245E-14  0.12500000000E+03  0.12500000000E+03 0.  0.
        -13    1    3    3    0    0 -0.12806180780E+02 -0.20809335822E+01  0.42751939407E+02  0.44677377249E+02  0.10566000000E+00 0.  1.
         23    2    1    0    0    0  0.23417830656E+02 -0.15820811401E+02  0.11361326819E+02  0.94540639975E+02  0.89499497170E+02 0.  0.
         13    1    3    3    0    0  0.36224011437E+02 -0.13739877819E+02 -0.31390612587E+02  0.49863262726E+02  0.10566000000E+00 0. -1.
         22    1    1    0    0    0 -0.23417830656E+02  0.15820811401E+02 -0.11361326819E+02  0.30459360025E+02  0.00000000000E+00 0.  1.
</event>
<event>
 5    1  0.9041167E-005  0.9118800E+02  0.7818608E-02  0.1130116E+00
         25   -1    0    0    0    0  0.00000000000E+00  0.00000000000E+00  0.99999998245E-14  0.12500000000E+03  0.12500000000E+03 0.  0.
        -13    1    3    3    0    0 -0.14489621872E+02 -0.31139253587E+01 -0.41518374620E+02  0.44084376691E+02  0.10566000000E+00 0.  1.
         23    2    1    0    0    0  0.21337411266E+02  0.16920833517E+02 -0.94488554802E+01  0.96175000498E+02  0.91753747195E+02 0.  0.
         13    1    3    3    0    0  0.35827033138E+02  0.20034758876E+02  0.32069519140E+02  0.52090623806E+02  0.10566000000E+00 0. -1.
         22    1    1    0    0    0 -0.21337411266E+02 -0.16920833517E+02  0.94488554802E+01  0.28824999502E+02  0.00000000000E+00 0. -1.
</event>
<event>
 5    1  0.9041167E-005  0.9118800E+02  0.7818608E-02  0.1130116E+00
         25   -1    0    0    0    0  0.00000000000E+00  0.00000000000E+00  0.99999998245E-14  0.12500000000E+03  0.12500000000E+03 0.  0.
        -13    1    3    3    0    0  0.19607584675E+02  0.54679349237E+01  0.41686368827E+02  0.46390949539E+02  0.10566000000E+00 0. -1.
         23    2    1    0    0    0  0.10606809745E+02 -0.26410203296E+02  0.45090361989E+01  0.96184471919E+02  0.91766649606E+02 0.  0.
         13    1    3    3    0    0 -0.90007749299E+01 -0.31878138220E+02 -0.37177332628E+02  0.49793522381E+02  0.10566000000E+00 0.  1.
         22    1    1    0    0    0 -0.10606809745E+02  0.26410203296E+02 -0.45090361989E+01  0.28815528081E+02  0.00000000000E+00 0. -1.
</event>
<event>
 4    1  0.9041167E-005  0.9118800E+02  0.7818608E-02  0.1130116E+00
         25   -1    0    0    0    0  0.00000000000E+00  0.00000000000E+00  0.99999998245E-14  0.12500000000E+03  0.12500000000E+03 0.  0.
        -13    1    1    0    0    0  0.17492945777E+02  0.12568530265E+01 -0.13521855877E+01  0.17590406516E+02  0.10566000000E+00 0.  1.
         13    1    1    0    0    0 -0.29428412211E+01  0.38834565602E+02  0.35558373587E+02  0.52737016375E+02  0.10566000000E+00 0. -1.
         22    1    1    0    0    0 -0.14550104556E+02 -0.40091418629E+02 -0.34206187999E+02  0.54672577109E+02  0.00000000000E+00 0. -1.
</event>
<event>
 5    1  0.9041167E-005  0.9118800E+02  0.7818608E-02  0.1130116E+00
         25   -1    0    0    0    0  0.00000000000E+00  0.00000000000E+00  0.99999998245E-14  0.12500000000E+03  0.12500000000E+03 0.  0.
        -13    1    3    3    0    0 -0.16147996829E+02  0.12793810600E+02 -0.26148787612E+02  0.33289782951E+02  0.10566000000E+00 0.  1.
         23    2    1    0    0    0  0.33262541437E+02  0.29022360748E+01  0.29532830664E+01  0.91480729155E+02  0.85118636554E+02 0.  0.
         13    1    3    3    0    0  0.49410538266E+02 -0.98915745251E+01  0.29102070679E+02  0.58190946205E+02  0.10566000000E+00 0. -1.
         22    1    1    0    0    0 -0.33262541437E+02 -0.29022360748E+01 -0.29532830664E+01  0.33519270845E+02  0.00000000000E+00 0. -1.
</event>
<event>
 5    1  0.9041167E-005  0.9118800E+02  0.7818608E-02  0.1130116E+00
         25   -1    0    0    0    0  0.00000000000E+00  0.00000000000E+00  0.99999998245E-14  0.12500000000E+03  0.12500000000E+03 0.  0.
        -13    1    3    3    0    0  0.39125885607E+01 -0.10181871352E+02  0.57532936854E+02  0.58557910145E+02  0.10566000000E+00 0.  1.
         23    2    1    0    0    0 -0.12222999914E+02 -0.10549375523E+02  0.20892627712E+02  0.98595588559E+02  0.94994195295E+02 0.  0.
         13    1    3    3    0    0 -0.16135588474E+02 -0.36750417141E+00 -0.36640309142E+02  0.40037678414E+02  0.10566000000E+00 0. -1.
         22    1    1    0    0    0  0.12222999914E+02  0.10549375523E+02 -0.20892627712E+02  0.26404411441E+02  0.00000000000E+00 0.  1.
</event>
<event>
 5    1  0.9041167E-005  0.9118800E+02  0.7818608E-02  0.1130116E+00
         25   -1    0    0    0    0  0.00000000000E+00  0.00000000000E+00  0.99999998245E-14  0.12500000000E+03  0.12500000000E+03 0.  0.
        -13    1    3    3    0    0  0.84344598114E+01 -0.25344164714E+01 -0.33817954152E+02  0.34946080842E+02  0.10566000000E+00 0.  1.
         23    2    1    0    0    0 -0.60333277718E+01 -0.81060109381E+01  0.26191955750E+02  0.96926400243E+02  0.92771763272E+02 0.  0.
         13    1    3    3    0    0 -0.14467787583E+02 -0.55715944667E+01  0.60009909902E+02  0.61980319400E+02  0.10566000000E+00 0. -1.
         22    1    1    0    0    0  0.60333277718E+01  0.81060109381E+01 -0.26191955750E+02  0.28073599757E+02  0.00000000000E+00 0. -1.
</event>
<event>
 5    1  0.9041167E-005  0.9118800E+02  0.7818608E-02  0.1130116E+00
         25   -1    0    0    0    0  0.00000000000E+00  0.00000000000E+00  0.99999998245E-14  0.12500000000E+03  0.12500000000E+03 0.  0.
        -13    1    3    3    0    0 -0.17977908309E+02 -0.33783349821E+02  0.36192950175E+02  0.52673149884E+02  0.10566000000E+00 0.  1.
         23    2    1    0    0    0  0.15948291673E+02 -0.20842560468E+02  0.13565100762E+02  0.95457280206E+02  0.90770700402E+02 0.  0.
         13    1    3    3    0    0  0.33926199983E+02  0.12940789353E+02 -0.22627849413E+02  0.42784130322E+02  0.10566000000E+00 0. -1.
         22    1    1    0    0    0 -0.15948291673E+02  0.20842560468E+02 -0.13565100762E+02  0.29542719794E+02  0.00000000000E+00 0.  1.
</event>
<event>
 5    1  0.9041167E-005  0.9118800E+02  0.7818608E-02  0.1130116E+00
         25   -1    0    0    0    0  0.00000000000E+00  0.00000000000E+00  0.99999998245E-14  0.12500000000E+03  0.12500000000E+03 0.  0.
        -13    1    3    3    0    0  0.13109281999E+02 -0.10865304026E+02 -0.10969662810E+02  0.20254697537E+02  0.10566000000E+00 0.  1.
         23    2    1    0    0    0  0.87459709815E-01  0.31392787831E+01  0.45251701659E+02  0.79639453007E+02  0.65458866869E+02 0.  0.
         13    1    3    3    0    0 -0.13021822289E+02  0.14004582809E+02  0.56221364469E+02  0.59384755470E+02  0.10566000000E+00 0. -1.
         22    1    1    0    0    0 -0.87459709815E-01 -0.31392787831E+01 -0.45251701659E+02  0.45360546993E+02  0.00000000000E+00 0. -1.
</event>
<event>
 5    1  0.9041167E-005  0.9118800E+02  0.7818608E-02  0.1130116E+00
         25   -1    0    0    0    0  0.00000000000E+00  0.00000000000E+00  0.99999998245E-14  0.12500000000E+03  0.12500000000E+03 0.  0.
        -13    1    3    3    0    0 -0.18026783213E+01  0.31546774296E+02 -0.52532507279E+02  0.61303540703E+02  0.10566000000E+00 0.  1.
         23    2    1    0    0    0 -0.35236140010E+01  0.22877530048E+02 -0.22088646416E+02  0.93004601312E+02  0.87327832494E+02 0.  0.
         13    1    3    3    0    0 -0.17209356797E+01 -0.86692442489E+01  0.30443860863E+02  0.31701060609E+02  0.10566000000E+00 0. -1.
         22    1    1    0    0    0  0.35236140010E+01 -0.22877530048E+02  0.22088646416E+02  0.31995398688E+02  0.00000000000E+00 0.  1.
</event>
<event>
 5    1  0.9041167E-005  0.9118800E+02  0.7818608E-02  0.1130116E+00
         25   -1    0    0    0    0  0.00000000000E+00  0.00000000000E+00  0.99999998245E-14  0.12500000000E+03  0.12500000000E+03 0.  0.
        -13    1    3    3    0    0  0.27370840717E+02 -0.63712939898E+01  0.28786913113E+02  0.40230011674E+02  0.10566000000E+00 0. -1.
         23    2    1    0    0    0 -0.18894000684E+02  0.18975148908E+02  0.12565208098E+02  0.95420885874E+02  0.90720568057E+02 0.  0.
         13    1    3    3    0    0 -0.46264841401E+02  0.25346442898E+02 -0.16221705015E+02  0.55190874201E+02  0.10566000000E+00 0.  1.
         22    1    1    0    0    0  0.18894000684E+02 -0.18975148908E+02 -0.12565208098E+02  0.29579114126E+02  0.00000000000E+00 0.  1.
</event>
<event>
 5    1  0.9041167E-005  0.9118800E+02  0.7818608E-02  0.1130116E+00
         25   -1    0    0    0    0  0.00000000000E+00  0.00000000000E+00  0.99999998245E-14  0.12500000000E+03  0.12500000000E+03 0.  0.
        -13    1    3    3    0    0 -0.33982332747E+02  0.10986546704E+02 -0.15011915475E+02  0.38741088235E+02  0.10566000000E+00 0.  1.
         23    2    1    0    0    0  0.41451492053E+01 -0.28973652797E+02 -0.94088339418E+01  0.94256204293E+02  0.89101352813E+02 0.  0.
         13    1    3    3    0    0  0.38127481952E+02 -0.39960199501E+02  0.56030815333E+01  0.55515116057E+02  0.10566000000E+00 0. -1.
         22    1    1    0    0    0 -0.41451492053E+01  0.28973652797E+02  0.94088339418E+01  0.30743795707E+02  0.00000000000E+00 0. -1.
</event>
<event>
 5    1  0.9041167E-005  0.9118800E+02  0.7818608E-02  0.1130116E+00
         25   -1    0    0    0    0  0.00000000000E+00  0.00000000000E+00  0.99999998245E-14  0.12500000000E+03  0.12500000000E+03 0.  0.
        -13    1    3    3    0    0  0.23764770556E+02 -0.34490200887E+02  0.97942537634E+01  0.43014844503E+02  0.10566000000E+00 0.  1.
         23    2    1    0    0    0 -0.21187179097E+02 -0.16623336750E+02 -0.11310617040E+02  0.95791064028E+02  0.91229194927E+02 0.  0.
         13    1    3    3    0    0 -0.44951949653E+02  0.17866864137E+02 -0.21104870803E+02  0.52776219525E+02  0.10566000000E+00 0. -1.
         22    1    1    0    0    0  0.21187179097E+02  0.16623336750E+02  0.11310617040E+02  0.29208935972E+02  0.00000000000E+00 0.  1.
</event>
<event>
 5    1  0.9041167E-005  0.9118800E+02  0.7818608E-02  0.1130116E+00
         25   -1    0    0    0    0  0.00000000000E+00  0.00000000000E+00  0.99999998245E-14  0.12500000000E+03  0.12500000000E+03 0.  0.
        -13    1    3    3    0    0 -0.11721049407E+02 -0.27348922504E+02  0.21492852196E+02  0.36705591139E+02  0.10566000000E+00 0. -1.
         23    2    1    0    0    0 -0.17462172956E+02  0.23180602979E+02 -0.72027076219E+01  0.95097711862E+02  0.90274182164E+02 0.  0.
         13    1    3    3    0    0 -0.57411235490E+01  0.50529525483E+02 -0.28695559818E+02  0.58392120722E+02  0.10566000000E+00 0.  1.
         22    1    1    0    0    0  0.17462172956E+02 -0.23180602979E+02  0.72027076219E+01  0.29902288138E+02  0.00000000000E+00 0.  1.
</event>
<event>
 5    1  0.9041167E-005  0.9118800E+02  0.7818608E-02  0.1130116E+00
         25   -1    0    0    0    0  0.00000000000E+00  0.00000000000E+00  0.99999998245E-14  0.12500000000E+03  0.12500000000E+03 0.  0.
        -13    1    3    3    0    0 -0.10207832795E+02  0.42542272448E+02  0.17372545036E+02  0.47072935753E+02  0.10566000000E+00 0. -1.
         23    2    1    0    0    0 -0.28100459117E+02  0.33277579497E+01 -0.59536892772E+01  0.96083634537E+02  0.91629190951E+02 0.  0.
         13    1    3    3    0    0 -0.17892626323E+02 -0.39214514498E+02 -0.23326234313E+02  0.49010698784E+02  0.10566000000E+00 0.  1.
         22    1    1    0    0    0  0.28100459117E+02 -0.33277579497E+01  0.59536892772E+01  0.28916365463E+02  0.00000000000E+00 0. -1.
</event>
<event>
 5    1  0.9041167E-005  0.9118800E+02  0.7818608E-02  0.1130116E+00
         25   -1    0    0    0    0  0.00000000000E+00  0.00000000000E+00  0.99999998245E-14  0.12500000000E+03  0.12500000000E+03 0.  0.
        -13    1    3    3    0    0 -0.56828175943E+01 -0.15388639335E+01  0.34177959579E+02  0.34681502318E+02  0.10566000000E+00 0.  1.
         23    2    1    0    0    0  0.20822509371E+02  0.14046671984E+02 -0.17200158954E+02  0.94557737299E+02  0.89523373064E+02 0.  0.
         13    1    3    3    0    0  0.26505326966E+02  0.15585535917E+02 -0.51378118533E+02  0.59876234980E+02  0.10566000000E+00 0. -1.
         22    1    1    0    0    0 -0.20822509371E+02 -0.14046671984E+02  0.17200158954E+02  0.30442262701E+02  0.00000000000E+00 0. -1.
</event>
<event>
 5    1  0.9041167E-005  0.9118800E+02  0.7818608E-02  0.1130116E+00
         25   -1    0    0    0    0  0.00000000000E+00  0.00000000000E+00  0.99999998245E-14  0.12500000000E+03  0.12500000000E+03 0.  0.
        -13    1    3    3    0    0 -0.31117444792E+02  0.12697688912E+02 -0.26330193669E+02  0.42694460259E+02  0.10566000000E+00 0. -1.
         23    2    1    0    0    0  0.14807926711E+02 -0.12900072480E+02 -0.22089493298E+02  0.95442728853E+02  0.90750659575E+02 0.  0.
         13    1    3    3    0    0  0.45925371504E+02 -0.25597761393E+02  0.42407003705E+01  0.52748268594E+02  0.10566000000E+00 0.  1.
         22    1    1    0    0    0 -0.14807926711E+02  0.12900072480E+02  0.22089493298E+02  0.29557271147E+02  0.00000000000E+00 0.  1.
</event>
<event>
 5    1  0.9041167E-005  0.9118800E+02  0.7818608E-02  0.1130116E+00
         25   -1    0    0    0    0  0.00000000000E+00  0.00000000000E+00  0.99999998245E-14  0.12500000000E+03  0.12500000000E+03 0.  0.
        -13    1    3    3    0    0  0.50837460576E+02 -0.93263172298E+01 -0.25845572621E+02  0.57787822065E+02  0.10566000000E+00 0.  1.
         23    2    1    0    0    0  0.27897950577E+02  0.97009135316E+01 -0.30567910448E+01  0.95305769226E+02  0.90561814837E+02 0.  0.
         13    1    3    3    0    0 -0.22939509998E+02  0.19027230761E+02  0.22788781576E+02  0.37517947161E+02  0.10566000000E+00 0. -1.
         22    1    1    0    0    0 -0.27897950577E+02 -0.97009135316E+01  0.30567910448E+01  0.29694230774E+02  0.00000000000E+00 0.  1.
</event>
<event>
 5    1  0.9041167E-005  0.9118800E+02  0.7818608E-02  0.1130116E+00
         25   -1    0    0    0    0  0.00000000000E+00  0.00000000000E+00  0.99999998245E-14  0.12500000000E+03  0.12500000000E+03 0.  0.
        -13    1    3    3    0    0  0.18977330535E+02  0.17339681468E+02 -0.38618446643E+02  0.46391801137E+02  0.10566000000E+00 0.  1.
         23    2    1    0    0    0  0.21292170186E+02 -0.83811309455E+01  0.88785331185E+01  0.10045558684E+03  0.97410968116E+02 0.  0.
         13    1    3    3    0    0  0.23148396515E+01 -0.25720812413E+02  0.47496979761E+02  0.54063785700E+02  0.10566000000E+00 0. -1.
         22    1    1    0    0    0 -0.21292170186E+02  0.83811309455E+01 -0.88785331185E+01  0.24544413163E+02  0.00000000000E+00 0. -1.
</event>
<event>
 5    1  0.9041167E-005  0.9118800E+02  0.7818608E-02  0.1130116E+00
         25   -1    0    0    0    0  0.00000000000E+00  0.00000000000E+00  0.99999998245E-14  0.12500000000E+03  0.12500000000E+03 0.  0.
        -13    1    3    3    0    0 -0.28251548048E+02  0.17837221640E+02 -0.17289979378E+02  0.37620087638E+02  0.10566000000E+00 0.  1.
         23    2    1    0    0    0  0.19732663177E+02  0.17571790443E+02  0.14188737568E+02  0.95008899834E+02  0.90151122891E+02 0.  0.
         13    1    3    3    0    0  0.47984211225E+02 -0.26543119744E+00  0.31478716946E+02  0.57388812195E+02  0.10566000000E+00 0. -1.
         22    1    1    0    0    0 -0.19732663177E+02 -0.17571790443E+02 -0.14188737568E+02  0.29991100166E+02  0.00000000000E+00 0.  1.
</event>
<event>
 5    1  0.9041167E-005  0.9118800E+02  0.7818608E-02  0.1130116E+00
         25   -1    0    0    0    0  0.00000000000E+00  0.00000000000E+00  0.99999998245E-14  0.12500000000E+03  0.12500000000E+03 0.  0.
        -13    1    3    3    0    0  0.34864647379E+02  0.57202350539E+01 -0.26399192610E+02  0.44104345142E+02  0.10566000000E+00 0.  1.
         23    2    1    0    0    0  0.94329106808E+01  0.20305638537E+02  0.17285002877E+02  0.96714489845E+02  0.92485795997E+02 0.  0.
         13    1    3    3    0    0 -0.25431736698E+02  0.14585403483E+02  0.43684195487E+02  0.52610144702E+02  0.10566000000E+00 0. -1.
         22    1    1    0    0    0 -0.94329106808E+01 -0.20305638537E+02 -0.17285002877E+02  0.28285510155E+02  0.00000000000E+00 0. -1.
</event>
<event>
 5    1  0.9041167E-005  0.9118800E+02  0.7818608E-02  0.1130116E+00
         25   -1    0    0    0    0  0.00000000000E+00  0.00000000000E+00  0.99999998245E-14  0.12500000000E+03  0.12500000000E+03 0.  0.
        -13    1    3    3    0    0 -0.21290367231E+02  0.32964744761E+02 -0.27326682400E+02  0.47819586667E+02  0.10566000000E+00 0.  1.
         23    2    1    0    0    0  0.14960008274E+02  0.25172695058E+02  0.27855219549E+01  0.95585283333E+02  0.90946802216E+02 0.  0.
         13    1    3    3    0    0  0.36250375505E+02 -0.77920497026E+01  0.30112204355E+02  0.47765696666E+02  0.10566000000E+00 0. -1.
         22    1    1    0    0    0 -0.14960008274E+02 -0.25172695058E+02 -0.27855219549E+01  0.29414716667E+02  0.00000000000E+00 0.  1.
</event>
<event>
 5    1  0.9041167E-005  0.9118800E+02  0.7818608E-02  0.1130116E+00
         25   -1    0    0    0    0  0.00000000000E+00  0.00000000000E+00  0.99999998245E-14  0.12500000000E+03  0.12500000000E+03 0.  0.
        -13    1    3    3    0    0  0.13154816704E+02 -0.24882284511E+02 -0.21703419886E+02  0.35541903211E+02  0.10566000000E+00 0.  1.
         23    2    1    0    0    0 -0.10462766482E+02  0.80173745095E-01  0.27510844048E+02  0.95566643913E+02  0.90921180032E+02 0.  0.
         13    1    3    3    0    0 -0.23617583187E+02  0.24962458257E+02  0.49214263934E+02  0.60024740703E+02  0.10566000000E+00 0. -1.
         22    1    1    0    0    0  0.10462766482E+02 -0.80173745095E-01 -0.27510844048E+02  0.29433356087E+02  0.00000000000E+00 0. -1.
</event>
<event>
 5    1  0.9041167E-005  0.9118800E+02  0.7818608E-02  0.1130116E+00
         25   -1    0    0    0    0  0.00000000000E+00  0.00000000000E+00  0.99999998245E-14  0.12500000000E+03  0.12500000000E+03 0.  0.
        -13    1    3    3    0    0 -0.23280595498E+02 -0.21596371381E+02  0.16886598265E+02  0.35966063846E+02  0.10566000000E+00 0.  1.
         23    2    1    0    0    0 -0.30701608050E+01  0.30924252118E+02  0.43492266721E+01  0.93620850409E+02  0.88205513446E+02 0.  0.
         13    1    3    3    0    0  0.20210434693E+02  0.52520623498E+02 -0.12537371593E+02  0.57654786563E+02  0.10566000000E+00 0. -1.
         22    1    1    0    0    0  0.30701608050E+01 -0.30924252118E+02 -0.43492266721E+01  0.31379149591E+02  0.00000000000E+00 0. -1.
</event>
<event>
 5    1  0.9041167E-005  0.9118800E+02  0.7818608E-02  0.1130116E+00
         25   -1    0    0    0    0  0.00000000000E+00  0.00000000000E+00  0.99999998245E-14  0.12500000000E+03  0.12500000000E+03 0.  0.
        -13    1    3    3    0    0 -0.11199227207E+02  0.17342373830E+02 -0.55301002919E+02  0.59028744761E+02  0.10566000000E+00 0. -1.
         23    2    1    0    0    0 -0.34297388515E+01  0.20503416882E+02 -0.17269796642E+02  0.97974103373E+02  0.94172850882E+02 0.  0.
         13    1    3    3    0    0  0.77694883555E+01  0.31610430521E+01  0.38031206277E+02  0.38945358612E+02  0.10566000000E+00 0.  1.
         22    1    1    0    0    0  0.34297388515E+01 -0.20503416882E+02  0.17269796642E+02  0.27025896627E+02  0.00000000000E+00 0. -1.
</event>
<event>
 5    1  0.9041167E-005  0.9118800E+02  0.7818608E-02  0.1130116E+00
         25   -1    0    0    0    0  0.00000000000E+00  0.00000000000E+00  0.99999998245E-14  0.12500000000E+03  0.12500000000E+03 0.  0.
        -13    1    3    3    0    0 -0.17410500748E+02  0.48696464042E+02 -0.20577852393E+02  0.55659054246E+02  0.10566000000E+00 0. -1.
         23    2    1    0    0    0 -0.25336485590E+02  0.14917455705E+02 -0.82019189080E+00  0.95586725760E+02  0.90948784709E+02 0.  0.
         13    1    3    3    0    0 -0.79259848427E+01 -0.33779008337E+02  0.19757660502E+02  0.39927671514E+02  0.10566000000E+00 0.  1.
         22    1    1    0    0    0  0.25336485590E+02 -0.14917455705E+02  0.82019189080E+00  0.29413274240E+02  0.00000000000E+00 0. -1.
</event>
<event>
 5    1  0.9041167E-005  0.9118800E+02  0.7818608E-02  0.1130116E+00
         25   -1    0    0    0    0  0.00000000000E+00  0.00000000000E+00  0.99999998245E-14  0.12500000000E+03  0.12500000000E+03 0.  0.
        -13    1    3    3    0    0 -0.15454980250E+02 -0.29681410213E+02 -0.25468670900E+01  0.33560992577E+02  0.10566000000E+00 0.  1.
         23    2    1    0    0    0  0.14058685646E+02  0.24162245117E+02  0.81362015560E+01  0.95885424493E+02  0.91358393831E+02 0.  0.
         13    1    3    3    0    0  0.29513665896E+02  0.53843655330E+02  0.10683068646E+02  0.62324431916E+02  0.10566000000E+00 0. -1.
         22    1    1    0    0    0 -0.14058685646E+02 -0.24162245117E+02 -0.81362015560E+01  0.29114575507E+02  0.00000000000E+00 0. -1.
</event>
<event>
 5    1  0.9041167E-005  0.9118800E+02  0.7818608E-02  0.1130116E+00
         25   -1    0    0    0    0  0.00000000000E+00  0.00000000000E+00  0.99999998245E-14  0.12500000000E+03  0.12500000000E+03 0.  0.
        -13    1    3    3    0    0  0.14152841207E+02 -0.26376338194E+02  0.26857955960E+02  0.40216602208E+02  0.10566000000E+00 0.  1.
         23    2    1    0    0    0  0.92554675232E+01 -0.10153113073E+02 -0.25928462477E+02  0.95656609763E+02  0.91044782612E+02 0.  0.
         13    1    3    3    0    0 -0.48973736835E+01  0.16223225120E+02 -0.52786418437E+02  0.55440007556E+02  0.10566000000E+00 0. -1.
         22    1    1    0    0    0 -0.92554675232E+01  0.10153113073E+02  0.25928462477E+02  0.29343390237E+02  0.00000000000E+00 0. -1.
</event>
<event>
 5    1  0.9041167E-005  0.9118800E+02  0.7818608E-02  0.1130116E+00
         25   -1    0    0    0    0  0.00000000000E+00  0.00000000000E+00  0.99999998245E-14  0.12500000000E+03  0.12500000000E+03 0.  0.
        -13    1    3    3    0    0  0.34212635400E+02  0.75109354216E+01  0.26515402362E+01  0.35127772511E+02  0.10566000000E+00 0.  1.
         23    2    1    0    0    0 -0.25467967040E+02  0.11403272027E+02  0.99408617959E+01  0.95377834459E+02  0.90661229943E+02 0.  0.
         13    1    3    3    0    0 -0.59680602440E+02  0.38923366053E+01  0.72893215597E+01  0.60250061948E+02  0.10566000000E+00 0. -1.
         22    1    1    0    0    0  0.25467967040E+02 -0.11403272027E+02 -0.99408617959E+01  0.29622165541E+02  0.00000000000E+00 0. -1.
</event>
<event>
 5    1  0.9041167E-005  0.9118800E+02  0.7818608E-02  0.1130116E+00
         25   -1    0    0    0    0  0.00000000000E+00  0.00000000000E+00  0.99999998245E-14  0.12500000000E+03  0.12500000000E+03 0.  0.
        -13    1    3    3    0    0 -0.31385486945E+02 -0.13594890988E+02  0.38746010005E+02  0.51683017589E+02  0.10566000000E+00 0. -1.
         23    2    1    0    0    0 -0.22387728919E+02 -0.17468279788E+02 -0.46977976655E+01  0.96217704959E+02  0.91811906852E+02 0.  0.
         13    1    3    3    0    0  0.89977580262E+01 -0.38733887998E+01 -0.43443807670E+02  0.44534687371E+02  0.10566000000E+00 0.  1.
         22    1    1    0    0    0  0.22387728919E+02  0.17468279788E+02  0.46977976655E+01  0.28782295041E+02  0.00000000000E+00 0. -1.
</event>
<event>
 5    1  0.9041167E-005  0.9118800E+02  0.7818608E-02  0.1130116E+00
         25   -1    0    0    0    0  0.00000000000E+00  0.00000000000E+00  0.99999998245E-14  0.12500000000E+03  0.12500000000E+03 0.  0.
        -13    1    3    3    0    0  0.35191032039E+01 -0.30481072717E+02 -0.18461624393E+02  0.35809532538E+02  0.10566000000E+00 0.  1.
         23    2    1    0    0    0  0.16487038990E+02  0.24878562193E+02 -0.16169979752E+01  0.95110537075E+02  0.90291939113E+02 0.  0.
         13    1    3    3    0    0  0.12967935786E+02  0.55359634910E+02  0.16844626418E+02  0.59301004537E+02  0.10566000000E+00 0. -1.
         22    1    1    0    0    0 -0.16487038990E+02 -0.24878562193E+02  0.16169979752E+01  0.29889462925E+02  0.00000000000E+00 0. -1.
</event>
<event>
 5    1  0.9041167E-005  0.9118800E+02  0.7818608E-02  0.1130116E+00
         25   -1    0    0    0    0  0.00000000000E+00  0.00000000000E+00  0.99999998245E-14  0.12500000000E+03  0.12500000000E+03 0.  0.
        -13    1    3    3    0    0 -0.41377030762E+02 -0.39697768348E+01  0.12408370678E+02  0.43379679917E+02  0.10566000000E+00 0.  1.
         23    2    1    0    0    0 -0.20609538441E+02  0.30000435024E+02 -0.74115233125E+01  0.87855554195E+02  0.79617137280E+02 0.  0.
         13    1    3    3    0    0  0.20767492320E+02  0.33970211858E+02 -0.19819893990E+02  0.44475874278E+02  0.10566000000E+00 0. -1.
         22    1    1    0    0    0  0.20609538441E+02 -0.30000435024E+02  0.74115233125E+01  0.37144445805E+02  0.00000000000E+00 0. -1.
</event>
<event>
 5    1  0.9041167E-005  0.9118800E+02  0.7818608E-02  0.1130116E+00
         25   -1    0    0    0    0  0.00000000000E+00  0.00000000000E+00  0.99999998245E-14  0.12500000000E+03  0.12500000000E+03 0.  0.
        -13    1    3    3    0    0 -0.32764426115E+02  0.15494209293E+02  0.13799577307E+02  0.38781666264E+02  0.10566000000E+00 0.  1.
         23    2    1    0    0    0  0.22787959099E+02  0.20102062046E+01  0.17693356037E+02  0.96079646325E+02  0.91623750093E+02 0.  0.
         13    1    3    3    0    0  0.55552385214E+02 -0.13484003089E+02  0.38937787293E+01  0.57297980061E+02  0.10566000000E+00 0. -1.
         22    1    1    0    0    0 -0.22787959099E+02 -0.20102062046E+01 -0.17693356037E+02  0.28920353675E+02  0.00000000000E+00 0. -1.
</event>
<event>
 5    1  0.9041167E-005  0.9118800E+02  0.7818608E-02  0.1130116E+00
         25   -1    0    0    0    0  0.00000000000E+00  0.00000000000E+00  0.99999998245E-14  0.12500000000E+03  0.12500000000E+03 0.  0.
        -13    1    3    3    0    0  0.10788780816E+02 -0.24568936489E+02 -0.34297425952E+02  0.43547158606E+02  0.10566000000E+00 0.  1.
         23    2    1    0    0    0 -0.22231334311E+02 -0.22159972375E+02  0.30570197485E+01  0.93462055066E+02  0.87980189626E+02 0.  0.
         13    1    3    3    0    0 -0.33020115127E+02  0.24089641144E+01  0.37354445700E+02  0.49914896461E+02  0.10566000000E+00 0. -1.
         22    1    1    0    0    0  0.22231334311E+02  0.22159972375E+02 -0.30570197485E+01  0.31537944934E+02  0.00000000000E+00 0. -1.
</event>
<event>
 5    1  0.9041167E-005  0.9118800E+02  0.7818608E-02  0.1130116E+00
         25   -1    0    0    0    0  0.00000000000E+00  0.00000000000E+00  0.99999998245E-14  0.12500000000E+03  0.12500000000E+03 0.  0.
        -13    1    3    3    0    0 -0.28872779004E+02 -0.25676925915E+01 -0.45604595195E+02  0.54037215691E+02  0.10566000000E+00 0. -1.
         23    2    1    0    0    0 -0.21066901459E+02  0.18714139573E+02 -0.12466360103E+02  0.94186959072E+02  0.89004155902E+02 0.  0.
         13    1    3    3    0    0  0.78058775451E+01  0.21281832165E+02  0.33138235092E+02  0.40149743381E+02  0.10566000000E+00 0.  1.
         22    1    1    0    0    0  0.21066901459E+02 -0.18714139573E+02  0.12466360103E+02  0.30813040928E+02  0.00000000000E+00 0. -1.
</event>
<event>
 5    1  0.9041167E-005  0.9118800E+02  0.7818608E-02  0.1130116E+00
         25   -1    0    0    0    0  0.00000000000E+00  0.00000000000E+00  0.99999998245E-14  0.12500000000E+03  0.12500000000E+03 0.  0.
        -13    1    3    3    0    0 -0.26716010265E+02  0.92418971649E+01  0.50265256462E+02  0.57669446320E+02  0.10566000000E+00 0.  1.
         23    2    1    0    0    0  0.22017961139E+01  0.13083202399E+02  0.26755854800E+02  0.95135407968E+02  0.90326363771E+02 0.  0.
         13    1    3    3    0    0  0.28917806379E+02  0.38413052343E+01 -0.23509401662E+02  0.37465961648E+02  0.10566000000E+00 0. -1.
         22    1    1    0    0    0 -0.22017961139E+01 -0.13083202399E+02 -0.26755854800E+02  0.29864592032E+02  0.00000000000E+00 0.  1.
</event>
<event>
 5    1  0.9041167E-005  0.9118800E+02  0.7818608E-02  0.1130116E+00
         25   -1    0    0    0    0  0.00000000000E+00  0.00000000000E+00  0.99999998245E-14  0.12500000000E+03  0.12500000000E+03 0.  0.
        -13    1    3    3    0    0  0.73484105273E+01 -0.29466478656E+02  0.17114678544E+02  0.34859659886E+02  0.10566000000E+00 0.  1.
         23    2    1    0    0    0 -0.25617549948E+02  0.16182881393E+02 -0.27625553131E+01  0.94573428925E+02  0.89545280340E+02 0.  0.
         13    1    3    3    0    0 -0.32965960476E+02  0.45649360049E+02 -0.19877233857E+02  0.59713769039E+02  0.10566000000E+00 0. -1.
         22    1    1    0    0    0  0.25617549948E+02 -0.16182881393E+02  0.27625553131E+01  0.30426571075E+02  0.00000000000E+00 0. -1.
</event>
<event>
 5    1  0.9041167E-005  0.9118800E+02  0.7818608E-02  0.1130116E+00
         25   -1    0    0    0    0  0.00000000000E+00  0.00000000000E+00  0.99999998245E-14  0.12500000000E+03  0.12500000000E+03 0.  0.
        -13    1    3    3    0    0 -0.11611011911E+02  0.51016575151E+02 -0.14233925219E+02  0.54222894878E+02  0.10566000000E+00 0.  1.
         23    2    1    0    0    0 -0.14692376726E+02  0.11370508255E+02 -0.23489439289E+02  0.95051575167E+02  0.90210275422E+02 0.  0.
         13    1    3    3    0    0 -0.30813648152E+01 -0.39646066896E+02 -0.92555140706E+01  0.40828680289E+02  0.10566000000E+00 0. -1.
         22    1    1    0    0    0  0.14692376726E+02 -0.11370508255E+02  0.23489439289E+02  0.29948424833E+02  0.00000000000E+00 0. -1.
</event>
<event>
 5    1  0.9041167E-005  0.9118800E+02  0.7818608E-02  0.1130116E+00
         25   -1    0    0    0    0  0.00000000000E+00  0.00000000000E+00  0.99999998245E-14  0.12500000000E+03  0.12500000000E+03 0.  0.
        -13    1    3    3    0    0 -0.12660918595E+02 -0.24305858610E+02 -0.28593091600E+02  0.39606182266E+02  0.10566000000E+00 0.  1.
         23    2    1    0    0    0  0.14255989902E+02 -0.15432027888E+02  0.20085436584E+02  0.95934462063E+02  0.91425464263E+02 0.  0.
         13    1    3    3    0    0  0.26916908497E+02  0.88738307220E+01  0.48678528184E+02  0.56328279797E+02  0.10566000000E+00 0. -1.
         22    1    1    0    0    0 -0.14255989902E+02  0.15432027888E+02 -0.20085436584E+02  0.29065537937E+02  0.00000000000E+00 0. -1.
</event>
<event>
 5    1  0.9041167E-005  0.9118800E+02  0.7818608E-02  0.1130116E+00
         25   -1    0    0    0    0  0.00000000000E+00  0.00000000000E+00  0.99999998245E-14  0.12500000000E+03  0.12500000000E+03 0.  0.
        -13    1    3    3    0    0 -0.20942831274E+02  0.39522120806E+02  0.38366131929E+02  0.58928528388E+02  0.10566000000E+00 0. -1.
         23    2    1    0    0    0 -0.11230329515E+02  0.23546015080E+02  0.32509348240E+01  0.98711148667E+02  0.95146135848E+02 0.  0.
         13    1    3    3    0    0  0.97125017590E+01 -0.15976105726E+02 -0.35115197105E+02  0.39782620280E+02  0.10566000000E+00 0.  1.
         22    1    1    0    0    0  0.11230329515E+02 -0.23546015080E+02 -0.32509348240E+01  0.26288851333E+02  0.00000000000E+00 0. -1.
</event>
<event>
 5    1  0.9041167E-005  0.9118800E+02  0.7818608E-02  0.1130116E+00
         25   -1    0    0    0    0  0.00000000000E+00  0.00000000000E+00  0.99999998245E-14  0.12500000000E+03  0.12500000000E+03 0.  0.
        -13    1    3    3    0    0  0.27372494973E+02  0.65232247374E+01  0.46290337194E+02  0.54172063129E+02  0.10566000000E+00 0.  1.
         23    2    1    0    0    0 -0.75372309205E+01  0.24363459187E+01  0.31864680633E+02  0.92165513508E+02  0.86118397436E+02 0.  0.
         13    1    3    3    0    0 -0.34909725894E+02 -0.40868788187E+01 -0.14425656561E+02  0.37993450379E+02  0.10566000000E+00 0. -1.
         22    1    1    0    0    0  0.75372309205E+01 -0.24363459187E+01 -0.31864680633E+02  0.32834486492E+02  0.00000000000E+00 0.  1.
</event>
<event>
 5    1  0.9041167E-005  0.9118800E+02  0.7818608E-02  0.1130116E+00
         25   -1    0    0    0    0  0.00000000000E+00  0.00000000000E+00  0.99999998245E-14  0.12500000000E+03  0.12500000000E+03 0.  0.
        -13    1    3    3    0    0  0.50396549640E+02  0.10288352670E+02  0.16510176357E+02  0.54020917278E+02  0.10566000000E+00 0.  1.
         23    2    1    0    0    0  0.23357364308E+02 -0.12257231157E+02 -0.85904190167E+01  0.97258307876E+02  0.93217900475E+02 0.  0.
         13    1    3    3    0    0 -0.27039185332E+02 -0.22545583827E+02 -0.25100595373E+02  0.43237390597E+02  0.10566000000E+00 0. -1.
         22    1    1    0    0    0 -0.23357364308E+02  0.12257231157E+02  0.85904190167E+01  0.27741692124E+02  0.00000000000E+00 0.  1.
</event>
<event>
 5    1  0.9041167E-005  0.9118800E+02  0.7818608E-02  0.1130116E+00
         25   -1    0    0    0    0  0.00000000000E+00  0.00000000000E+00  0.99999998245E-14  0.12500000000E+03  0.12500000000E+03 0.  0.
        -13    1    3    3    0    0  0.27137876192E+02  0.19038048405E+02  0.13367176820E+02  0.35743589515E+02  0.10566000000E+00 0. -1.
         23    2    1    0    0    0  0.10756148420E+01 -0.19791354728E+02 -0.22746340171E+02  0.94829639372E+02  0.89902223794E+02 0.  0.
         13    1    3    3    0    0 -0.26062261350E+02 -0.38829403132E+02 -0.36113516990E+02  0.59086049857E+02  0.10566000000E+00 0.  1.
         22    1    1    0    0    0 -0.10756148420E+01  0.19791354728E+02  0.22746340171E+02  0.30170360628E+02  0.00000000000E+00 0.  1.
</event>
<event>
 5    1  0.9041167E-005  0.9118800E+02  0.7818608E-02  0.1130116E+00
         25   -1    0    0    0    0  0.00000000000E+00  0.00000000000E+00  0.99999998245E-14  0.12500000000E+03  0.12500000000E+03 0.  0.
        -13    1    3    3    0    0  0.31907931418E+02  0.20500979013E+02  0.34245880314E+02  0.51099879749E+02  0.10566000000E+00 0. -1.
         23    2    1    0    0    0 -0.74306778860E+01  0.17410335932E+02  0.28222610068E+02  0.91016908761E+02  0.84434751082E+02 0.  0.
         13    1    3    3    0    0 -0.39338609304E+02 -0.30906430803E+01 -0.60232702460E+01  0.39917029012E+02  0.10566000000E+00 0.  1.
         22    1    1    0    0    0  0.74306778860E+01 -0.17410335932E+02 -0.28222610068E+02  0.33983091239E+02  0.00000000000E+00 0. -1.
</event>
<event>
 5    1  0.9041167E-005  0.9118800E+02  0.7818608E-02  0.1130116E+00
         25   -1    0    0    0    0  0.00000000000E+00  0.00000000000E+00  0.99999998245E-14  0.12500000000E+03  0.12500000000E+03 0.  0.
        -13    1    3    3    0    0 -0.72393100295E+01 -0.16791141294E+02 -0.26335256698E+01  0.18474216009E+02  0.10566000000E+00 0.  1.
         23    2    1    0    0    0 -0.13899588432E+02  0.31340107519E+02 -0.34325219646E+02  0.76485861838E+02  0.59130917966E+02 0.  0.
         13    1    3    3    0    0 -0.66602784023E+01  0.48131248813E+02 -0.31691693976E+02  0.58011645829E+02  0.10566000000E+00 0. -1.
         22    1    1    0    0    0  0.13899588432E+02 -0.31340107519E+02  0.34325219646E+02  0.48514138162E+02  0.00000000000E+00 0. -1.
</event>
<event>
 5    1  0.9041167E-005  0.9118800E+02  0.7818608E-02  0.1130116E+00
         25   -1    0    0    0    0  0.00000000000E+00  0.00000000000E+00  0.99999998245E-14  0.12500000000E+03  0.12500000000E+03 0.  0.
        -13    1    3    3    0    0 -0.31870689538E+02  0.11819508357E+01  0.50239435468E+02  0.59507561701E+02  0.10566000000E+00 0.  1.
         23    2    1    0    0    0 -0.27093866061E+01  0.97316879484E+01  0.21084249971E+02  0.10162069028E+03  0.98894755018E+02 0.  0.
         13    1    3    3    0    0  0.29161302932E+02  0.85497371128E+01 -0.29155185497E+02  0.42113128580E+02  0.10566000000E+00 0. -1.
         22    1    1    0    0    0  0.27093866061E+01 -0.97316879484E+01 -0.21084249971E+02  0.23379309719E+02  0.00000000000E+00 0.  1.
</event>
<event>
 5    1  0.9041167E-005  0.9118800E+02  0.7818608E-02  0.1130116E+00
         25   -1    0    0    0    0  0.00000000000E+00  0.00000000000E+00  0.99999998245E-14  0.12500000000E+03  0.12500000000E+03 0.  0.
        -13    1    3    3    0    0 -0.20799901114E+02 -0.26835443188E+02  0.22475262144E+02  0.40717630947E+02  0.10566000000E+00 0. -1.
         23    2    1    0    0    0  0.10144625967E+02  0.99698735046E+01 -0.16931060925E+02  0.10288727430E+03  0.10048292679E+03 0.  0.
         13    1    3    3    0    0  0.30944527081E+02  0.36805316693E+02 -0.39406323070E+02  0.62169643356E+02  0.10566000000E+00 0.  1.
         22    1    1    0    0    0 -0.10144625967E+02 -0.99698735046E+01  0.16931060925E+02  0.22112725697E+02  0.00000000000E+00 0.  1.
</event>
<event>
 5    1  0.9041167E-005  0.9118800E+02  0.7818608E-02  0.1130116E+00
         25   -1    0    0    0    0  0.00000000000E+00  0.00000000000E+00  0.99999998245E-14  0.12500000000E+03  0.12500000000E+03 0.  0.
        -13    1    3    3    0    0 -0.42602788577E+02 -0.18348623508E+02 -0.35476922975E+02  0.58397712344E+02  0.10566000000E+00 0.  1.
         23    2    1    0    0    0 -0.12837994415E+02 -0.22686455019E+02 -0.13544216614E+02  0.95624242212E+02  0.91000332708E+02 0.  0.
         13    1    3    3    0    0  0.29764794162E+02 -0.43378315106E+01  0.21932706360E+02  0.37226529868E+02  0.10566000000E+00 0. -1.
         22    1    1    0    0    0  0.12837994415E+02  0.22686455019E+02  0.13544216614E+02  0.29375757788E+02  0.00000000000E+00 0.  1.
</event>
<event>
 5    1  0.9041167E-005  0.9118800E+02  0.7818608E-02  0.1130116E+00
         25   -1    0    0    0    0  0.00000000000E+00  0.00000000000E+00  0.99999998245E-14  0.12500000000E+03  0.12500000000E+03 0.  0.
        -13    1    3    3    0    0  0.21973837946E+02 -0.81220071023E+01 -0.33092510666E+02  0.40545554376E+02  0.10566000000E+00 0. -1.
         23    2    1    0    0    0 -0.23173504506E+02  0.14331506268E+02 -0.10472280844E+02  0.95809726807E+02  0.91254762625E+02 0.  0.
         13    1    3    3    0    0 -0.45147342453E+02  0.22453513371E+02  0.22620229822E+02  0.55264172431E+02  0.10566000000E+00 0.  1.
         22    1    1    0    0    0  0.23173504506E+02 -0.14331506268E+02  0.10472280844E+02  0.29190273193E+02  0.00000000000E+00 0.  1.
</event>
<event>
 5    1  0.9041167E-005  0.9118800E+02  0.7818608E-02  0.1130116E+00
         25   -1    0    0    0    0  0.00000000000E+00  0.00000000000E+00  0.99999998245E-14  0.12500000000E+03  0.12500000000E+03 0.  0.
        -13    1    3    3    0    0 -0.30014825321E+02 -0.11192570092E+02  0.16313741035E+02  0.35948750673E+02  0.10566000000E+00 0.  1.
         23    2    1    0    0    0  0.11617235191E+02  0.26335727494E+02 -0.47508233074E+01  0.95826364330E+02  0.91277549717E+02 0.  0.
         13    1    3    3    0    0  0.41632060513E+02  0.37528297586E+02 -0.21064564343E+02  0.59877613657E+02  0.10566000000E+00 0. -1.
         22    1    1    0    0    0 -0.11617235191E+02 -0.26335727494E+02  0.47508233074E+01  0.29173635670E+02  0.00000000000E+00 0. -1.
</event>
<event>
 5    1  0.9041167E-005  0.9118800E+02  0.7818608E-02  0.1130116E+00
         25   -1    0    0    0    0  0.00000000000E+00  0.00000000000E+00  0.99999998245E-14  0.12500000000E+03  0.12500000000E+03 0.  0.
        -13    1    3    3    0    0  0.45472840937E+02 -0.19241507964E+02  0.37059114566E+02  0.61736569616E+02  0.10566000000E+00 0.  1.
         23    2    1    0    0    0  0.15653012176E+02 -0.11770478962E+02  0.20476058761E+02  0.96665746039E+02  0.92419892392E+02 0.  0.
         13    1    3    3    0    0 -0.29819828761E+02  0.74710290025E+01 -0.16583055805E+02  0.34929176422E+02  0.10566000000E+00 0. -1.
         22    1    1    0    0    0 -0.15653012176E+02  0.11770478962E+02 -0.20476058761E+02  0.28334253961E+02  0.00000000000E+00 0.  1.
</event>
<event>
 5    1  0.9041167E-005  0.9118800E+02  0.7818608E-02  0.1130116E+00
         25   -1    0    0    0    0  0.00000000000E+00  0.00000000000E+00  0.99999998245E-14  0.12500000000E+03  0.12500000000E+03 0.  0.
        -13    1    3    3    0    0  0.19212408479E+02  0.31906026563E+02  0.19076753042E+02  0.41845487705E+02  0.10566000000E+00 0.  1.
         23    2    1    0    0    0 -0.22674764915E+02  0.15468648066E+02 -0.10410469067E+02  0.95643537285E+02  0.91026832974E+02 0.  0.
         13    1    3    3    0    0 -0.41887173395E+02 -0.16437378497E+02 -0.29487222109E+02  0.53798049580E+02  0.10566000000E+00 0. -1.
         22    1    1    0    0    0  0.22674764915E+02 -0.15468648066E+02  0.10410469067E+02  0.29356462715E+02  0.00000000000E+00 0. -1.
</event>
<event>
 5    1  0.9041167E-005  0.9118800E+02  0.7818608E-02  0.1130116E+00
         25   -1    0    0    0    0  0.00000000000E+00  0.00000000000E+00  0.99999998245E-14  0.12500000000E+03  0.12500000000E+03 0.  0.
        -13    1    3    3    0    0 -0.25787049140E+02  0.44553149164E+02 -0.33370605319E+02  0.61347888857E+02  0.10566000000E+00 0.  1.
         23    2    1    0    0    0 -0.11844626271E+02  0.26977041224E+02 -0.96506107670E+01  0.93996932202E+02  0.88736875370E+02 0.  0.
         13    1    3    3    0    0  0.13942422869E+02 -0.17576107940E+02  0.23719994552E+02  0.32649043345E+02  0.10566000000E+00 0. -1.
         22    1    1    0    0    0  0.11844626271E+02 -0.26977041224E+02  0.96506107670E+01  0.31003067798E+02  0.00000000000E+00 0.  1.
</event>
<event>
 5    1  0.9041167E-005  0.9118800E+02  0.7818608E-02  0.1130116E+00
         25   -1    0    0    0    0  0.00000000000E+00  0.00000000000E+00  0.99999998245E-14  0.12500000000E+03  0.12500000000E+03 0.  0.
        -13    1    3    3    0    0  0.11087148691E+01  0.41154564467E+02 -0.39443454138E+02  0.57015126620E+02  0.10566000000E+00 0. -1.
         23    2    1    0    0    0  0.11741128082E+02  0.27330780415E+02 -0.61133953612E+01  0.94632266308E+02  0.89627376270E+02 0.  0.
         13    1    3    3    0    0  0.10632413213E+02 -0.13823784052E+02  0.33330058776E+02  0.37617139688E+02  0.10566000000E+00 0.  1.
         22    1    1    0    0    0 -0.11741128082E+02 -0.27330780415E+02  0.61133953612E+01  0.30367733692E+02  0.00000000000E+00 0. -1.
</event>
<event>
 5    1  0.9041167E-005  0.9118800E+02  0.7818608E-02  0.1130116E+00
         25   -1    0    0    0    0  0.00000000000E+00  0.00000000000E+00  0.99999998245E-14  0.12500000000E+03  0.12500000000E+03 0.  0.
        -13    1    3    3    0    0 -0.17809060691E+01  0.40335113856E+02 -0.19937450283E+02  0.45028947623E+02  0.10566000000E+00 0. -1.
         23    2    1    0    0    0 -0.54266497466E+01 -0.13302343594E+02 -0.21879496358E+02  0.98825332219E+02  0.95296028536E+02 0.  0.
         13    1    3    3    0    0 -0.36457436775E+01 -0.53637457450E+02 -0.19420460749E+01  0.53796384596E+02  0.10566000000E+00 0.  1.
         22    1    1    0    0    0  0.54266497466E+01  0.13302343594E+02  0.21879496358E+02  0.26174667781E+02  0.00000000000E+00 0. -1.
</event>
<event>
 5    1  0.9041167E-005  0.9118800E+02  0.7818608E-02  0.1130116E+00
         25   -1    0    0    0    0  0.00000000000E+00  0.00000000000E+00  0.99999998245E-14  0.12500000000E+03  0.12500000000E+03 0.  0.
        -13    1    3    3    0    0 -0.23414781241E+02 -0.41508885724E+02 -0.17157656762E+02  0.50652106809E+02  0.10566000000E+00 0. -1.
         23    2    1    0    0    0  0.14418878464E+02 -0.25685271006E+02  0.10582938753E+01  0.95525312746E+02  0.90864339465E+02 0.  0.
         13    1    3    3    0    0  0.37833659705E+02  0.15823614718E+02  0.18215950637E+02  0.44873205937E+02  0.10566000000E+00 0.  1.
         22    1    1    0    0    0 -0.14418878464E+02  0.25685271006E+02 -0.10582938753E+01  0.29474687254E+02  0.00000000000E+00 0. -1.
</event>
<event>
 5    1  0.9041167E-005  0.9118800E+02  0.7818608E-02  0.1130116E+00
         25   -1    0    0    0    0  0.00000000000E+00  0.00000000000E+00  0.99999998245E-14  0.12500000000E+03  0.12500000000E+03 0.  0.
        -13    1    3    3    0    0  0.13795756507E+02 -0.31607979339E+02  0.32973475431E+02  0.47714237933E+02  0.10566000000E+00 0.  1.
         23    2    1    0    0    0  0.26933221358E+02  0.68768599397E+01  0.58546386880E+01  0.96592845804E+02  0.92321240519E+02 0.  0.
         13    1    3    3    0    0  0.13137464851E+02  0.38484839279E+02 -0.27118836743E+02  0.48878607870E+02  0.10566000000E+00 0. -1.
         22    1    1    0    0    0 -0.26933221358E+02 -0.68768599397E+01 -0.58546386880E+01  0.28407154196E+02  0.00000000000E+00 0. -1.
</event>
<event>
 5    1  0.9041167E-005  0.9118800E+02  0.7818608E-02  0.1130116E+00
         25   -1    0    0    0    0  0.00000000000E+00  0.00000000000E+00  0.99999998245E-14  0.12500000000E+03  0.12500000000E+03 0.  0.
        -13    1    3    3    0    0  0.33953384192E+02 -0.93911147349E+01 -0.38385515722E+02  0.52100713194E+02  0.10566000000E+00 0.  1.
         23    2    1    0    0    0  0.84925369916E+01  0.20710207541E+02 -0.16488805842E+02  0.97198622354E+02  0.93137831134E+02 0.  0.
         13    1    3    3    0    0 -0.25460847200E+02  0.30101322276E+02  0.21896709881E+02  0.45097909159E+02  0.10566000000E+00 0. -1.
         22    1    1    0    0    0 -0.84925369916E+01 -0.20710207541E+02  0.16488805842E+02  0.27801377646E+02  0.00000000000E+00 0.  1.
</event>
<event>
 5    1  0.9041167E-005  0.9118800E+02  0.7818608E-02  0.1130116E+00
         25   -1    0    0    0    0  0.00000000000E+00  0.00000000000E+00  0.99999998245E-14  0.12500000000E+03  0.12500000000E+03 0.  0.
        -13    1    3    3    0    0 -0.61045703366E+01 -0.55336160490E+02  0.13016727777E+02  0.57173444910E+02  0.10566000000E+00 0.  1.
         23    2    1    0    0    0  0.13052410494E+02 -0.25557294529E+02 -0.32106854285E+01  0.96123552430E+02  0.91683630532E+02 0.  0.
         13    1    3    3    0    0  0.19156980830E+02  0.29778865961E+02 -0.16227413205E+02  0.38950107520E+02  0.10566000000E+00 0. -1.
         22    1    1    0    0    0 -0.13052410494E+02  0.25557294529E+02  0.32106854285E+01  0.28876447570E+02  0.00000000000E+00 0.  1.
</event>
<event>
 5    1  0.9041167E-005  0.9118800E+02  0.7818608E-02  0.1130116E+00
         25   -1    0    0    0    0  0.00000000000E+00  0.00000000000E+00  0.99999998245E-14  0.12500000000E+03  0.12500000000E+03 0.  0.
        -13    1    3    3    0    0 -0.33265535489E+01  0.15118886475E+02 -0.34126654831E+02  0.37473809798E+02  0.10566000000E+00 0. -1.
         23    2    1    0    0    0 -0.29289015617E+02  0.22643858380E+02  0.76148632008E+01  0.87203480323E+02  0.78586704223E+02 0.  0.
         13    1    3    3    0    0 -0.25962462068E+02  0.75249719048E+01  0.41741518032E+02  0.49729670525E+02  0.10566000000E+00 0.  1.
         22    1    1    0    0    0  0.29289015617E+02 -0.22643858380E+02 -0.76148632008E+01  0.37796519677E+02  0.00000000000E+00 0.  1.
</event>
<event>
 5    1  0.9041167E-005  0.9118800E+02  0.7818608E-02  0.1130116E+00
         25   -1    0    0    0    0  0.00000000000E+00  0.00000000000E+00  0.99999998245E-14  0.12500000000E+03  0.12500000000E+03 0.  0.
        -13    1    3    3    0    0 -0.45891341544E+01 -0.56554632664E+02 -0.57532117043E+01  0.57031545981E+02  0.10566000000E+00 0.  1.
         23    2    1    0    0    0 -0.16183290548E+02 -0.24213400934E+02  0.91375654799E+01  0.94476520830E+02  0.89409899941E+02 0.  0.
         13    1    3    3    0    0 -0.11594156393E+02  0.32341231729E+02  0.14890777184E+02  0.37444974849E+02  0.10566000000E+00 0. -1.
         22    1    1    0    0    0  0.16183290548E+02  0.24213400934E+02 -0.91375654799E+01  0.30523479170E+02  0.00000000000E+00 0.  1.
</event>
<event>
 5    1  0.9041167E-005  0.9118800E+02  0.7818608E-02  0.1130116E+00
         25   -1    0    0    0    0  0.00000000000E+00  0.00000000000E+00  0.99999998245E-14  0.12500000000E+03  0.12500000000E+03 0.  0.
        -13    1    3    3    0    0  0.44142106071E+02  0.11770937245E+02  0.41136184665E+02  0.61475827321E+02  0.10566000000E+00 0. -1.
         23    2    1    0    0    0  0.17309163512E+02  0.15331153403E+01  0.25401407428E+02  0.94223562854E+02  0.89055548471E+02 0.  0.
         13    1    3    3    0    0 -0.26832942560E+02 -0.10237821904E+02 -0.15734777237E+02  0.32747735532E+02  0.10566000000E+00 0.  1.
         22    1    1    0    0    0 -0.17309163512E+02 -0.15331153403E+01 -0.25401407428E+02  0.30776437146E+02  0.00000000000E+00 0. -1.
</event>
<event>
 5    1  0.9041167E-005  0.9118800E+02  0.7818608E-02  0.1130116E+00
         25   -1    0    0    0    0  0.00000000000E+00  0.00000000000E+00  0.99999998245E-14  0.12500000000E+03  0.12500000000E+03 0.  0.
        -13    1    3    3    0    0  0.52396468159E+02 -0.99983152114E+00 -0.12178963823E+02  0.53802675235E+02  0.10566000000E+00 0. -1.
         23    2    1    0    0    0  0.17490253458E+02 -0.19044229232E+02 -0.17956215908E+02  0.93519572385E+02  0.88061870842E+02 0.  0.
         13    1    3    3    0    0 -0.34906214701E+02 -0.18044397711E+02 -0.57772520856E+01  0.39716897150E+02  0.10566000000E+00 0.  1.
         22    1    1    0    0    0 -0.17490253458E+02  0.19044229232E+02  0.17956215908E+02  0.31480427615E+02  0.00000000000E+00 0. -1.
</event>
<event>
 5    1  0.9041167E-005  0.9118800E+02  0.7818608E-02  0.1130116E+00
         25   -1    0    0    0    0  0.00000000000E+00  0.00000000000E+00  0.99999998245E-14  0.12500000000E+03  0.12500000000E+03 0.  0.
        -13    1    3    3    0    0  0.17542875458E+02 -0.31863019313E+02  0.45415044035E+02  0.58185409407E+02  0.10566000000E+00 0. -1.
         23    2    1    0    0    0  0.25830357694E+02 -0.18355577026E+02  0.22139038994E+02  0.86344190163E+02  0.77207820464E+02 0.  0.
         13    1    3    3    0    0  0.82874822360E+01  0.13507442287E+02 -0.23276005041E+02  0.28158780756E+02  0.10566000000E+00 0.  1.
         22    1    1    0    0    0 -0.25830357694E+02  0.18355577026E+02 -0.22139038994E+02  0.38655809837E+02  0.00000000000E+00 0. -1.
</event>
<event>
 5    1  0.9041167E-005  0.9118800E+02  0.7818608E-02  0.1130116E+00
         25   -1    0    0    0    0  0.00000000000E+00  0.00000000000E+00  0.99999998245E-14  0.12500000000E+03  0.12500000000E+03 0.  0.
        -13    1    3    3    0    0 -0.27737399336E+02  0.24929501690E+01 -0.40766531326E+02  0.49371037692E+02  0.10566000000E+00 0. -1.
         23    2    1    0    0    0 -0.28731603620E+02  0.41867400385E+01  0.53047970546E+01  0.95484331101E+02  0.90807944450E+02 0.  0.
         13    1    3    3    0    0 -0.99420428497E+00  0.16937898696E+01  0.46071328380E+02  0.46113293409E+02  0.10566000000E+00 0.  1.
         22    1    1    0    0    0  0.28731603620E+02 -0.41867400385E+01 -0.53047970546E+01  0.29515668899E+02  0.00000000000E+00 0. -1.
</event>
<event>
 5    1  0.9041167E-005  0.9118800E+02  0.7818608E-02  0.1130116E+00
         25   -1    0    0    0    0  0.00000000000E+00  0.00000000000E+00  0.99999998245E-14  0.12500000000E+03  0.12500000000E+03 0.  0.
        -13    1    3    3    0    0 -0.29120891883E+02  0.44879404775E+01  0.16662752179E+02  0.33850058021E+02  0.10566000000E+00 0. -1.
         23    2    1    0    0    0  0.18821650478E+02 -0.72655134710E+01 -0.20954128385E+02  0.95911897465E+02  0.91394607971E+02 0.  0.
         13    1    3    3    0    0  0.47942542361E+02 -0.11753453949E+02 -0.37616880564E+02  0.62061839444E+02  0.10566000000E+00 0.  1.
         22    1    1    0    0    0 -0.18821650478E+02  0.72655134710E+01  0.20954128385E+02  0.29088102535E+02  0.00000000000E+00 0.  1.
</event>
<event>
 5    1  0.9041167E-005  0.9118800E+02  0.7818608E-02  0.1130116E+00
         25   -1    0    0    0    0  0.00000000000E+00  0.00000000000E+00  0.99999998245E-14  0.12500000000E+03  0.12500000000E+03 0.  0.
        -13    1    3    3    0    0  0.26121242988E+02 -0.13126915615E+02 -0.43491149299E+02  0.52403496832E+02  0.10566000000E+00 0. -1.
         23    2    1    0    0    0  0.12873127998E+02  0.19239302894E+02 -0.16829613910E+02  0.96380005160E+02  0.92032609927E+02 0.  0.
         13    1    3    3    0    0 -0.13248114990E+02  0.32366218509E+02  0.26661535389E+02  0.43976508328E+02  0.10566000000E+00 0.  1.
         22    1    1    0    0    0 -0.12873127998E+02 -0.19239302894E+02  0.16829613910E+02  0.28619994840E+02  0.00000000000E+00 0.  1.
</event>
<event>
 5    1  0.9041167E-005  0.9118800E+02  0.7818608E-02  0.1130116E+00
         25   -1    0    0    0    0  0.00000000000E+00  0.00000000000E+00  0.99999998245E-14  0.12500000000E+03  0.12500000000E+03 0.  0.
        -13    1    3    3    0    0 -0.31332580398E+02  0.27945822003E+02 -0.40712945459E+02  0.58482943272E+02  0.10566000000E+00 0.  1.
         23    2    1    0    0    0 -0.11888411468E+02 -0.10885680982E+00 -0.27418616457E+02  0.95114774462E+02  0.90297805153E+02 0.  0.
         13    1    3    3    0    0  0.19444168931E+02 -0.28054678813E+02  0.13294329002E+02  0.36631831190E+02  0.10566000000E+00 0. -1.
         22    1    1    0    0    0  0.11888411468E+02  0.10885680982E+00  0.27418616457E+02  0.29885225538E+02  0.00000000000E+00 0.  1.
</event>
<event>
 5    1  0.9041167E-005  0.9118800E+02  0.7818608E-02  0.1130116E+00
         25   -1    0    0    0    0  0.00000000000E+00  0.00000000000E+00  0.99999998245E-14  0.12500000000E+03  0.12500000000E+03 0.  0.
        -13    1    3    3    0    0  0.18236496154E+02 -0.12884019912E+02  0.32438715740E+02  0.39380822795E+02  0.10566000000E+00 0. -1.
         23    2    1    0    0    0 -0.32000856379E+01  0.28614965096E+02  0.74225072629E-01  0.96206558301E+02  0.91796729654E+02 0.  0.
         13    1    3    3    0    0 -0.21436581792E+02  0.41498985008E+02 -0.32364490668E+02  0.56825735506E+02  0.10566000000E+00 0.  1.
         22    1    1    0    0    0  0.32000856379E+01 -0.28614965096E+02 -0.74225072629E-01  0.28793441699E+02  0.00000000000E+00 0.  1.
</event>
<event>
 5    1  0.9041167E-005  0.9118800E+02  0.7818608E-02  0.1130116E+00
         25   -1    0    0    0    0  0.00000000000E+00  0.00000000000E+00  0.99999998245E-14  0.12500000000E+03  0.12500000000E+03 0.  0.
        -13    1    3    3    0    0  0.18595976293E+02 -0.42703547187E+02  0.17365466844E+02  0.49708891351E+02  0.10566000000E+00 0.  1.
         23    2    1    0    0    0  0.48787929278E+01 -0.17997482608E+01  0.29912325569E+02  0.94639022822E+02  0.89636798836E+02 0.  0.
         13    1    3    3    0    0 -0.13717183366E+02  0.40903798926E+02  0.12546858725E+02  0.44930131470E+02  0.10566000000E+00 0. -1.
         22    1    1    0    0    0 -0.48787929278E+01  0.17997482608E+01 -0.29912325569E+02  0.30360977178E+02  0.00000000000E+00 0. -1.
</event>
<event>
 5    1  0.9041167E-005  0.9118800E+02  0.7818608E-02  0.1130116E+00
         25   -1    0    0    0    0  0.00000000000E+00  0.00000000000E+00  0.99999998245E-14  0.12500000000E+03  0.12500000000E+03 0.  0.
        -13    1    3    3    0    0  0.21363366026E+02  0.16945429813E+02  0.30550870703E+02  0.40950065498E+02  0.10566000000E+00 0. -1.
         23    2    1    0    0    0  0.21566577615E+02  0.48135317458E+01 -0.21363863558E+02  0.94263994664E+02  0.89112281230E+02 0.  0.
         13    1    3    3    0    0  0.20321158937E+00 -0.12131898067E+02 -0.51914734261E+02  0.53313929166E+02  0.10566000000E+00 0.  1.
         22    1    1    0    0    0 -0.21566577615E+02 -0.48135317458E+01  0.21363863558E+02  0.30736005336E+02  0.00000000000E+00 0. -1.
</event>
<event>
 5    1  0.9041167E-005  0.9118800E+02  0.7818608E-02  0.1130116E+00
         25   -1    0    0    0    0  0.00000000000E+00  0.00000000000E+00  0.99999998245E-14  0.12500000000E+03  0.12500000000E+03 0.  0.
        -13    1    3    3    0    0 -0.32973033484E+02  0.31125013875E+01  0.20939911148E+02  0.39184175951E+02  0.10566000000E+00 0.  1.
         23    2    1    0    0    0  0.28255971446E+01  0.23734526645E+02 -0.17311848339E+02  0.95487090161E+02  0.90811742303E+02 0.  0.
         13    1    3    3    0    0  0.35798630629E+02  0.20622025257E+02 -0.38251759487E+02  0.56302914210E+02  0.10566000000E+00 0. -1.
         22    1    1    0    0    0 -0.28255971446E+01 -0.23734526645E+02  0.17311848339E+02  0.29512909839E+02  0.00000000000E+00 0. -1.
</event>
<event>
 5    1  0.9041167E-005  0.9118800E+02  0.7818608E-02  0.1130116E+00
         25   -1    0    0    0    0  0.00000000000E+00  0.00000000000E+00  0.99999998245E-14  0.12500000000E+03  0.12500000000E+03 0.  0.
        -13    1    3    3    0    0  0.62191135051E+01  0.56807691192E+01  0.34240692473E+02  0.35261660421E+02  0.10566000000E+00 0.  1.
         23    2    1    0    0    0 -0.17504534669E+02 -0.15653677538E+02 -0.17268069392E+02  0.95851542495E+02  0.91312023434E+02 0.  0.
         13    1    3    3    0    0 -0.23723648174E+02 -0.21334446657E+02 -0.51508761865E+02  0.60589882074E+02  0.10566000000E+00 0. -1.
         22    1    1    0    0    0  0.17504534669E+02  0.15653677538E+02  0.17268069392E+02  0.29148457505E+02  0.00000000000E+00 0. -1.
</event>
<event>
 5    1  0.9041167E-005  0.9118800E+02  0.7818608E-02  0.1130116E+00
         25   -1    0    0    0    0  0.00000000000E+00  0.00000000000E+00  0.99999998245E-14  0.12500000000E+03  0.12500000000E+03 0.  0.
        -13    1    3    3    0    0 -0.16318328547E+02 -0.34783595634E+02 -0.37370433383E+01  0.38602629817E+02  0.10566000000E+00 0. -1.
         23    2    1    0    0    0 -0.17177654435E+02  0.17093200190E+02  0.17956221869E+02  0.94839177590E+02  0.89915484748E+02 0.  0.
         13    1    3    3    0    0 -0.85932588835E+00  0.51876795825E+02  0.21693265208E+02  0.56236547773E+02  0.10566000000E+00 0.  1.
         22    1    1    0    0    0  0.17177654435E+02 -0.17093200190E+02 -0.17956221869E+02  0.30160822410E+02  0.00000000000E+00 0.  1.
</event>
<event>
 5    1  0.9041167E-005  0.9118800E+02  0.7818608E-02  0.1130116E+00
         25   -1    0    0    0    0  0.00000000000E+00  0.00000000000E+00  0.99999998245E-14  0.12500000000E+03  0.12500000000E+03 0.  0.
        -13    1    3    3    0    0  0.40571034399E+02  0.18152860518E+02 -0.74535290084E+01  0.45067742743E+02  0.10566000000E+00 0.  1.
         23    2    1    0    0    0  0.84334974368E+01 -0.17363561515E+02 -0.22575987642E+02  0.95296593369E+02  0.90549148765E+02 0.  0.
         13    1    3    3    0    0 -0.32137536962E+02 -0.35516422033E+02 -0.15122458634E+02  0.50228850626E+02  0.10566000000E+00 0. -1.
         22    1    1    0    0    0 -0.84334974368E+01  0.17363561515E+02  0.22575987642E+02  0.29703406631E+02  0.00000000000E+00 0. -1.
</event>
<event>
 5    1  0.9041167E-005  0.9118800E+02  0.7818608E-02  0.1130116E+00
         25   -1    0    0    0    0  0.00000000000E+00  0.00000000000E+00  0.99999998245E-14  0.12500000000E+03  0.12500000000E+03 0.  0.
        -13    1    3    3    0    0  0.18707612785E+02 -0.17844444370E+02  0.50008539242E+02  0.56296217742E+02  0.10566000000E+00 0. -1.
         23    2    1    0    0    0  0.30135951132E+01  0.96344489334E+01  0.29034036588E+02  0.94261105382E+02  0.89108228270E+02 0.  0.
         13    1    3    3    0    0 -0.15694017672E+02  0.27478893304E+02 -0.20974502654E+02  0.37964887640E+02  0.10566000000E+00 0.  1.
         22    1    1    0    0    0 -0.30135951132E+01 -0.96344489334E+01 -0.29034036588E+02  0.30738894618E+02  0.00000000000E+00 0. -1.
</event>
<event>
 5    1  0.9041167E-005  0.9118800E+02  0.7818608E-02  0.1130116E+00
         25   -1    0    0    0    0  0.00000000000E+00  0.00000000000E+00  0.99999998245E-14  0.12500000000E+03  0.12500000000E+03 0.  0.
        -13    1    3    3    0    0  0.45605017727E+02 -0.20132497822E+02  0.83540913205E+01  0.50546385788E+02  0.10566000000E+00 0. -1.
         23    2    1    0    0    0  0.77388913257E+00 -0.28281978196E+02  0.53062082918E+01  0.96214152062E+02  0.91807069529E+02 0.  0.
         13    1    3    3    0    0 -0.44831128595E+02 -0.81494803743E+01 -0.30478830287E+01  0.45667766274E+02  0.10566000000E+00 0.  1.
         22    1    1    0    0    0 -0.77388913257E+00  0.28281978196E+02 -0.53062082918E+01  0.28785847938E+02  0.00000000000E+00 0.  1.
</event>
<event>
 5    1  0.9041167E-005  0.9118800E+02  0.7818608E-02  0.1130116E+00
         25   -1    0    0    0    0  0.00000000000E+00  0.00000000000E+00  0.99999998245E-14  0.12500000000E+03  0.12500000000E+03 0.  0.
        -13    1    3    3    0    0  0.36115476439E+02  0.32875797901E+01  0.34064104105E+00  0.36266555111E+02  0.10566000000E+00 0.  1.
         23    2    1    0    0    0 -0.22268237455E+02  0.85122605854E+01  0.15186018368E+02  0.96734329417E+02  0.92512606461E+02 0.  0.
         13    1    3    3    0    0 -0.58383713894E+02  0.52246807953E+01  0.14845377327E+02  0.60467774306E+02  0.10566000000E+00 0. -1.
         22    1    1    0    0    0  0.22268237455E+02 -0.85122605854E+01 -0.15186018368E+02  0.28265670583E+02  0.00000000000E+00 0. -1.
</event>
<event>
 5    1  0.9041167E-005  0.9118800E+02  0.7818608E-02  0.1130116E+00
         25   -1    0    0    0    0  0.00000000000E+00  0.00000000000E+00  0.99999998245E-14  0.12500000000E+03  0.12500000000E+03 0.  0.
        -13    1    3    3    0    0  0.32320875826E+02 -0.21568115906E+02  0.23275594351E+02  0.45294448825E+02  0.10566000000E+00 0.  1.
         23    2    1    0    0    0  0.24687476430E+02  0.39953383556E+01 -0.17820959691E+02  0.94291355853E+02  0.89150653184E+02 0.  0.
         13    1    3    3    0    0 -0.76333993966E+01  0.25563454262E+02 -0.41096554042E+02  0.48996907028E+02  0.10566000000E+00 0. -1.
         22    1    1    0    0    0 -0.24687476430E+02 -0.39953383556E+01  0.17820959691E+02  0.30708644147E+02  0.00000000000E+00 0.  1.
</event>
<event>
 5    1  0.9041167E-005  0.9118800E+02  0.7818608E-02  0.1130116E+00
         25   -1    0    0    0    0  0.00000000000E+00  0.00000000000E+00  0.99999998245E-14  0.12500000000E+03  0.12500000000E+03 0.  0.
        -13    1    3    3    0    0 -0.56258891537E+02 -0.21733326168E+02 -0.15422712458E+02  0.62251679230E+02  0.10566000000E+00 0. -1.
         23    2    1    0    0    0 -0.27205343296E+02 -0.12168466362E+02 -0.11349394232E+02  0.93109389676E+02  0.87477696694E+02 0.  0.
         13    1    3    3    0    0  0.29053548242E+02  0.95648598062E+01  0.40733182261E+01  0.30857710446E+02  0.10566000000E+00 0.  1.
         22    1    1    0    0    0  0.27205343296E+02  0.12168466362E+02  0.11349394232E+02  0.31890610324E+02  0.00000000000E+00 0. -1.
</event>
<event>
 5    1  0.9041167E-005  0.9118800E+02  0.7818608E-02  0.1130116E+00
         25   -1    0    0    0    0  0.00000000000E+00  0.00000000000E+00  0.99999998245E-14  0.12500000000E+03  0.12500000000E+03 0.  0.
        -13    1    3    3    0    0  0.33201861693E+01 -0.33069729928E+02 -0.25016551679E+02  0.41598914597E+02  0.10566000000E+00 0.  1.
         23    2    1    0    0    0 -0.22395798835E+02 -0.15507758213E+02  0.16237561354E+02  0.93286899096E+02  0.87730979556E+02 0.  0.
         13    1    3    3    0    0 -0.25715985004E+02  0.17561971715E+02  0.41254113034E+02  0.51687984498E+02  0.10566000000E+00 0. -1.
         22    1    1    0    0    0  0.22395798835E+02  0.15507758213E+02 -0.16237561354E+02  0.31713100904E+02  0.00000000000E+00 0. -1.
</event>
<event>
 5    1  0.9041167E-005  0.9118800E+02  0.7818608E-02  0.1130116E+00
         25   -1    0    0    0    0  0.00000000000E+00  0.00000000000E+00  0.99999998245E-14  0.12500000000E+03  0.12500000000E+03 0.  0.
        -13    1    3    3    0    0 -0.40060321335E+01 -0.54984219074E+02 -0.17440911500E+01  0.55157643701E+02  0.10566000000E+00 0.  1.
         23    2    1    0    0    0  0.15003259399E+02 -0.34964636777E+02 -0.12743077308E+02  0.84875074619E+02  0.74791501221E+02 0.  0.
         13    1    3    3    0    0  0.19009291532E+02  0.20019582297E+02 -0.10998986158E+02  0.29717430919E+02  0.10566000000E+00 0. -1.
         22    1    1    0    0    0 -0.15003259399E+02  0.34964636777E+02  0.12743077308E+02  0.40124925381E+02  0.00000000000E+00 0.  1.
</event>
<event>
 5    1  0.9041167E-005  0.9118800E+02  0.7818608E-02  0.1130116E+00
         25   -1    0    0    0    0  0.00000000000E+00  0.00000000000E+00  0.99999998245E-14  0.12500000000E+03  0.12500000000E+03 0.  0.
        -13    1    3    3    0    0  0.56207231898E+02  0.13034578540E+00 -0.10865193421E+02  0.57247999963E+02  0.10566000000E+00 0. -1.
         23    2    1    0    0    0  0.30313478788E+02 -0.10963726997E+02 -0.20239849557E+02  0.86937396095E+02  0.78162324836E+02 0.  0.
         13    1    3    3    0    0 -0.25893753110E+02 -0.11094072782E+02 -0.93746561358E+01  0.29689396132E+02  0.10566000000E+00 0.  1.
         22    1    1    0    0    0 -0.30313478788E+02  0.10963726997E+02  0.20239849557E+02  0.38062603905E+02  0.00000000000E+00 0. -1.
</event>
<event>
 5    1  0.9041167E-005  0.9118800E+02  0.7818608E-02  0.1130116E+00
         25   -1    0    0    0    0  0.00000000000E+00  0.00000000000E+00  0.99999998245E-14  0.12500000000E+03  0.12500000000E+03 0.  0.
        -13    1    3    3    0    0  0.14115027629E+02 -0.93139410968E+01 -0.52630362461E+02  0.55280645080E+02  0.10566000000E+00 0. -1.
         23    2    1    0    0    0  0.22095669331E+02  0.88366585895E+01 -0.18089677091E+02  0.95107834547E+02  0.90288197660E+02 0.  0.
         13    1    3    3    0    0  0.79806417024E+01  0.18150599686E+02  0.34540685370E+02  0.39827189467E+02  0.10566000000E+00 0.  1.
         22    1    1    0    0    0 -0.22095669331E+02 -0.88366585895E+01  0.18089677091E+02  0.29892165453E+02  0.00000000000E+00 0.  1.
</event>
<event>
 5    1  0.9041167E-005  0.9118800E+02  0.7818608E-02  0.1130116E+00
         25   -1    0    0    0    0  0.00000000000E+00  0.00000000000E+00  0.99999998245E-14  0.12500000000E+03  0.12500000000E+03 0.  0.
        -13    1    3    3    0    0  0.15911366379E+02 -0.80439904254E+01 -0.42889011841E+02  0.46447345056E+02  0.10566000000E+00 0.  1.
         23    2    1    0    0    0  0.16998607014E+02  0.23759190238E+02 -0.59801101597E+01  0.95180317260E+02  0.90388491054E+02 0.  0.
         13    1    3    3    0    0  0.10872406351E+01  0.31803180663E+02  0.36908901681E+02  0.48732972204E+02  0.10566000000E+00 0. -1.
         22    1    1    0    0    0 -0.16998607014E+02 -0.23759190238E+02  0.59801101597E+01  0.29819682740E+02  0.00000000000E+00 0.  1.
</event>
<event>
 5    1  0.9041167E-005  0.9118800E+02  0.7818608E-02  0.1130116E+00
         25   -1    0    0    0    0  0.00000000000E+00  0.00000000000E+00  0.99999998245E-14  0.12500000000E+03  0.12500000000E+03 0.  0.
        -13    1    3    3    0    0 -0.20707590960E+02 -0.32580342833E+02 -0.32329684810E+01  0.38739467107E+02  0.10566000000E+00 0. -1.
         23    2    1    0    0    0 -0.25968298646E+02  0.20303531893E+02 -0.31702532872E+01  0.91884498376E+02  0.85709536190E+02 0.  0.
         13    1    3    3    0    0 -0.52607076859E+01  0.52883874726E+02  0.62715193793E-01  0.53145031269E+02  0.10566000000E+00 0.  1.
         22    1    1    0    0    0  0.25968298646E+02 -0.20303531893E+02  0.31702532872E+01  0.33115501624E+02  0.00000000000E+00 0.  1.
</event>
<event>
 5    1  0.9041167E-005  0.9118800E+02  0.7818608E-02  0.1130116E+00
         25   -1    0    0    0    0  0.00000000000E+00  0.00000000000E+00  0.99999998245E-14  0.12500000000E+03  0.12500000000E+03 0.  0.
        -13    1    3    3    0    0 -0.90625438298E+01  0.45483546339E+02  0.20858725039E+01  0.46424613261E+02  0.10566000000E+00 0. -1.
         23    2    1    0    0    0  0.44634426701E+01  0.69345157736E+01  0.28671095231E+02  0.95166436163E+02  0.90369292576E+02 0.  0.
         13    1    3    3    0    0  0.13525986500E+02 -0.38549030566E+02  0.26585222727E+02  0.48741822902E+02  0.10566000000E+00 0.  1.
         22    1    1    0    0    0 -0.44634426701E+01 -0.69345157736E+01 -0.28671095231E+02  0.29833563837E+02  0.00000000000E+00 0.  1.
</event>
<event>
 5    1  0.9041167E-005  0.9118800E+02  0.7818608E-02  0.1130116E+00
         25   -1    0    0    0    0  0.00000000000E+00  0.00000000000E+00  0.99999998245E-14  0.12500000000E+03  0.12500000000E+03 0.  0.
        -13    1    3    3    0    0 -0.30836769295E+02 -0.18385068825E+02 -0.23385342725E+02  0.42846266052E+02  0.10566000000E+00 0.  1.
         23    2    1    0    0    0  0.12602278100E+02 -0.25059428452E+02  0.67685343835E+01  0.96145097031E+02  0.91712999393E+02 0.  0.
         13    1    3    3    0    0  0.43439047394E+02 -0.66743596278E+01  0.30153877108E+02  0.53298830979E+02  0.10566000000E+00 0. -1.
         22    1    1    0    0    0 -0.12602278100E+02  0.25059428452E+02 -0.67685343835E+01  0.28854902969E+02  0.00000000000E+00 0. -1.
</event>
<event>
 5    1  0.9041167E-005  0.9118800E+02  0.7818608E-02  0.1130116E+00
         25   -1    0    0    0    0  0.00000000000E+00  0.00000000000E+00  0.99999998245E-14  0.12500000000E+03  0.12500000000E+03 0.  0.
        -13    1    3    3    0    0 -0.41005721679E+02  0.16017748037E+02  0.22182870259E+01  0.44079126851E+02  0.10566000000E+00 0. -1.
         23    2    1    0    0    0  0.26302027843E+01  0.29791494165E+01  0.28206594837E+02  0.96514823325E+02  0.92215540074E+02 0.  0.
         13    1    3    3    0    0  0.43635924463E+02 -0.13038598620E+02  0.25988307811E+02  0.52435696474E+02  0.10566000000E+00 0.  1.
         22    1    1    0    0    0 -0.26302027843E+01 -0.29791494165E+01 -0.28206594837E+02  0.28485176675E+02  0.00000000000E+00 0.  1.
</event>
<event>
 5    1  0.9041167E-005  0.9118800E+02  0.7818608E-02  0.1130116E+00
         25   -1    0    0    0    0  0.00000000000E+00  0.00000000000E+00  0.99999998245E-14  0.12500000000E+03  0.12500000000E+03 0.  0.
        -13    1    3    3    0    0 -0.12098825480E+02 -0.37186447303E+02  0.40092695566E+02  0.56005792939E+02  0.10566000000E+00 0.  1.
         23    2    1    0    0    0 -0.13210138992E+02 -0.28082860497E+02  0.34556092328E+01  0.93773471838E+02  0.88421535610E+02 0.  0.
         13    1    3    3    0    0 -0.11113135115E+01  0.91035868056E+01 -0.36637086333E+02  0.37767678899E+02  0.10566000000E+00 0. -1.
         22    1    1    0    0    0  0.13210138992E+02  0.28082860497E+02 -0.34556092328E+01  0.31226528162E+02  0.00000000000E+00 0.  1.
</event>
<event>
 5    1  0.9041167E-005  0.9118800E+02  0.7818608E-02  0.1130116E+00
         25   -1    0    0    0    0  0.00000000000E+00  0.00000000000E+00  0.99999998245E-14  0.12500000000E+03  0.12500000000E+03 0.  0.
        -13    1    3    3    0    0 -0.35352245390E+02 -0.11893711739E+02  0.22587671268E+02  0.43605684152E+02  0.10566000000E+00 0.  1.
         23    2    1    0    0    0 -0.17743345553E+02  0.13784504787E+02 -0.19012011845E+02  0.95567102113E+02  0.90921809970E+02 0.  0.
         13    1    3    3    0    0  0.17608899837E+02  0.25678216526E+02 -0.41599683113E+02  0.51961417961E+02  0.10566000000E+00 0. -1.
         22    1    1    0    0    0  0.17743345553E+02 -0.13784504787E+02  0.19012011845E+02  0.29432897887E+02  0.00000000000E+00 0. -1.
</event>
<event>
 5    1  0.9041167E-005  0.9118800E+02  0.7818608E-02  0.1130116E+00
         25   -1    0    0    0    0  0.00000000000E+00  0.00000000000E+00  0.99999998245E-14  0.12500000000E+03  0.12500000000E+03 0.  0.
        -13    1    3    3    0    0  0.28222353008E+02  0.27018806613E+02 -0.20256173116E+02  0.44009553889E+02  0.10566000000E+00 0. -1.
         23    2    1    0    0    0 -0.48867663239E+01 -0.10665466231E+02 -0.27883382410E+02  0.94749121175E+02  0.89790201547E+02 0.  0.
         13    1    3    3    0    0 -0.33109119332E+02 -0.37684272844E+02 -0.76272092940E+01  0.50739567286E+02  0.10566000000E+00 0.  1.
         22    1    1    0    0    0  0.48867663239E+01  0.10665466231E+02  0.27883382410E+02  0.30250878825E+02  0.00000000000E+00 0. -1.
</event>
<event>
 5    1  0.9041167E-005  0.9118800E+02  0.7818608E-02  0.1130116E+00
         25   -1    0    0    0    0  0.00000000000E+00  0.00000000000E+00  0.99999998245E-14  0.12500000000E+03  0.12500000000E+03 0.  0.
        -13    1    3    3    0    0 -0.17646327130E+02  0.24277472353E+02 -0.20283663548E+02  0.36224669716E+02  0.10566000000E+00 0. -1.
         23    2    1    0    0    0  0.21149988175E+02 -0.13177522159E+02  0.10088802432E+02  0.98115933630E+02  0.94360920976E+02 0.  0.
         13    1    3    3    0    0  0.38796315306E+02 -0.37454994512E+02  0.30372465981E+02  0.61891263915E+02  0.10566000000E+00 0.  1.
         22    1    1    0    0    0 -0.21149988175E+02  0.13177522159E+02 -0.10088802432E+02  0.26884066370E+02  0.00000000000E+00 0.  1.
</event>
<event>
 5    1  0.9041167E-005  0.9118800E+02  0.7818608E-02  0.1130116E+00
         25   -1    0    0    0    0  0.00000000000E+00  0.00000000000E+00  0.99999998245E-14  0.12500000000E+03  0.12500000000E+03 0.  0.
        -13    1    3    3    0    0  0.38259523671E+01 -0.33275249671E+02 -0.18728510448E+01  0.33546965396E+02  0.10566000000E+00 0.  1.
         23    2    1    0    0    0  0.97041262666E+00  0.26678397578E+02  0.12886115294E+02  0.95356610090E+02  0.90631961925E+02 0.  0.
         13    1    3    3    0    0 -0.28555397404E+01  0.59953647250E+02  0.14758966339E+02  0.61809644694E+02  0.10566000000E+00 0. -1.
         22    1    1    0    0    0 -0.97041262666E+00 -0.26678397578E+02 -0.12886115294E+02  0.29643389910E+02  0.00000000000E+00 0. -1.
</event>
<event>
 5    1  0.9041167E-005  0.9118800E+02  0.7818608E-02  0.1130116E+00
         25   -1    0    0    0    0  0.00000000000E+00  0.00000000000E+00  0.99999998245E-14  0.12500000000E+03  0.12500000000E+03 0.  0.
        -13    1    3    3    0    0 -0.43789558903E+02 -0.20541323352E+02 -0.88526947771E+00  0.48376298950E+02  0.10566000000E+00 0.  1.
         23    2    1    0    0    0 -0.21143414609E+02  0.15686953291E+02 -0.16574356907E+02  0.93889972810E+02  0.88586077927E+02 0.  0.
         13    1    3    3    0    0  0.22646144294E+02  0.36228276643E+02 -0.15689087429E+02  0.45513673861E+02  0.10566000000E+00 0. -1.
         22    1    1    0    0    0  0.21143414609E+02 -0.15686953291E+02  0.16574356907E+02  0.31110027190E+02  0.00000000000E+00 0.  1.
</event>
<event>
 5    1  0.9041167E-005  0.9118800E+02  0.7818608E-02  0.1130116E+00
         25   -1    0    0    0    0  0.00000000000E+00  0.00000000000E+00  0.99999998245E-14  0.12500000000E+03  0.12500000000E+03 0.  0.
        -13    1    3    3    0    0 -0.49472617429E+01 -0.56726104999E+02  0.15830942210E+01  0.56963529898E+02  0.10566000000E+00 0.  1.
         23    2    1    0    0    0 -0.20494456157E+02 -0.22637454259E+02  0.63511873463E-02  0.94463511845E+02  0.89391710809E+02 0.  0.
         13    1    3    3    0    0 -0.15547194414E+02  0.34088650740E+02 -0.15767430337E+01  0.37499981947E+02  0.10566000000E+00 0. -1.
         22    1    1    0    0    0  0.20494456157E+02  0.22637454259E+02 -0.63511873463E-02  0.30536488155E+02  0.00000000000E+00 0.  1.
</event>
<event>
 5    1  0.9041167E-005  0.9118800E+02  0.7818608E-02  0.1130116E+00
         25   -1    0    0    0    0  0.00000000000E+00  0.00000000000E+00  0.99999998245E-14  0.12500000000E+03  0.12500000000E+03 0.  0.
        -13    1    3    3    0    0  0.27826922143E+02  0.13763836498E+02 -0.23905883081E+02  0.39182690068E+02  0.10566000000E+00 0. -1.
         23    2    1    0    0    0  0.10772312892E+02 -0.24186008073E+02  0.13632372457E+02  0.95220018631E+02  0.90443378186E+02 0.  0.
         13    1    3    3    0    0 -0.17054609251E+02 -0.37949844570E+02  0.37538255537E+02  0.56037328563E+02  0.10566000000E+00 0.  1.
         22    1    1    0    0    0 -0.10772312892E+02  0.24186008073E+02 -0.13632372457E+02  0.29779981369E+02  0.00000000000E+00 0.  1.
</event>
<event>
 5    1  0.9041167E-005  0.9118800E+02  0.7818608E-02  0.1130116E+00
         25   -1    0    0    0    0  0.00000000000E+00  0.00000000000E+00  0.99999998245E-14  0.12500000000E+03  0.12500000000E+03 0.  0.
        -13    1    3    3    0    0  0.19216110033E+02 -0.26662428708E+02 -0.23534737133E+02  0.40423248327E+02  0.10566000000E+00 0.  1.
         23    2    1    0    0    0  0.13849865733E+01 -0.15116864091E+02  0.26320580212E+02  0.94615617326E+02  0.89604153539E+02 0.  0.
         13    1    3    3    0    0 -0.17831123459E+02  0.11545564616E+02  0.49855317345E+02  0.54192368999E+02  0.10566000000E+00 0. -1.
         22    1    1    0    0    0 -0.13849865733E+01  0.15116864091E+02 -0.26320580212E+02  0.30384382674E+02  0.00000000000E+00 0.  1.
</event>
<event>
 5    1  0.9041167E-005  0.9118800E+02  0.7818608E-02  0.1130116E+00
         25   -1    0    0    0    0  0.00000000000E+00  0.00000000000E+00  0.99999998245E-14  0.12500000000E+03  0.12500000000E+03 0.  0.
        -13    1    3    3    0    0  0.76300324762E+01 -0.18477543834E+02 -0.29933636764E+02  0.35995427427E+02  0.10566000000E+00 0. -1.
         23    2    1    0    0    0  0.16458370271E+02  0.91674943557E+01  0.22335296242E+02  0.95780377091E+02  0.91214550773E+02 0.  0.
         13    1    3    3    0    0  0.88283377950E+01  0.27645038189E+02  0.52268933006E+02  0.59784949664E+02  0.10566000000E+00 0.  1.
         22    1    1    0    0    0 -0.16458370271E+02 -0.91674943557E+01 -0.22335296242E+02  0.29219622909E+02  0.00000000000E+00 0.  1.
</event>
<event>
 5    1  0.9041167E-005  0.9118800E+02  0.7818608E-02  0.1130116E+00
         25   -1    0    0    0    0  0.00000000000E+00  0.00000000000E+00  0.99999998245E-14  0.12500000000E+03  0.12500000000E+03 0.  0.
        -13    1    3    3    0    0  0.17976993141E+02 -0.13717688921E+01 -0.39057042468E+02  0.43017644783E+02  0.10566000000E+00 0. -1.
         23    2    1    0    0    0 -0.26848041994E+02 -0.39929386882E+01 -0.13467532668E+02  0.94699251586E+02  0.89720749532E+02 0.  0.
         13    1    3    3    0    0 -0.44825035134E+02 -0.26211697961E+01  0.25589509800E+02  0.51681606803E+02  0.10566000000E+00 0.  1.
         22    1    1    0    0    0  0.26848041994E+02  0.39929386882E+01  0.13467532668E+02  0.30300748414E+02  0.00000000000E+00 0.  1.
</event>
<event>
 5    1  0.9041167E-005  0.9118800E+02  0.7818608E-02  0.1130116E+00
         25   -1    0    0    0    0  0.00000000000E+00  0.00000000000E+00  0.99999998245E-14  0.12500000000E+03  0.12500000000E+03 0.  0.
        -13    1    3    3    0    0  0.20683722237E+01  0.22303917402E+02  0.38620310992E+02  0.44646192226E+02  0.10566000000E+00 0. -1.
         23    2    1    0    0    0 -0.16270049771E+02  0.20567231414E+01 -0.13675216386E+02  0.10364686972E+03  0.10142345601E+03 0.  0.
         13    1    3    3    0    0 -0.18338421995E+02 -0.20247194260E+02 -0.52295527378E+02  0.59000677492E+02  0.10566000000E+00 0.  1.
         22    1    1    0    0    0  0.16270049771E+02 -0.20567231414E+01  0.13675216386E+02  0.21353130282E+02  0.00000000000E+00 0.  1.
</event>
<event>
 5    1  0.9041167E-005  0.9118800E+02  0.7818608E-02  0.1130116E+00
         25   -1    0    0    0    0  0.00000000000E+00  0.00000000000E+00  0.99999998245E-14  0.12500000000E+03  0.12500000000E+03 0.  0.
        -13    1    3    3    0    0  0.29035663542E+02  0.11008342760E+02 -0.13984126882E+02  0.34056135077E+02  0.10566000000E+00 0. -1.
         23    2    1    0    0    0 -0.13797322839E+02 -0.11744325627E+02  0.23480108015E+02  0.95341767174E+02  0.90611488198E+02 0.  0.
         13    1    3    3    0    0 -0.42832986382E+02 -0.22752668387E+02  0.37464234897E+02  0.61285632097E+02  0.10566000000E+00 0.  1.
         22    1    1    0    0    0  0.13797322839E+02  0.11744325627E+02 -0.23480108015E+02  0.29658232826E+02  0.00000000000E+00 0.  1.
</event>
<event>
 5    1  0.9041167E-005  0.9118800E+02  0.7818608E-02  0.1130116E+00
         25   -1    0    0    0    0  0.00000000000E+00  0.00000000000E+00  0.99999998245E-14  0.12500000000E+03  0.12500000000E+03 0.  0.
        -13    1    3    3    0    0 -0.24915460320E+02  0.56266379142E+01  0.29227918112E+02  0.38816511672E+02  0.10566000000E+00 0.  1.
         23    2    1    0    0    0  0.89021610837E+01 -0.26600184532E+02 -0.47097093701E+01  0.96557080820E+02  0.92272803171E+02 0.  0.
         13    1    3    3    0    0  0.33817621404E+02 -0.32226822446E+02 -0.33937627482E+02  0.57740569148E+02  0.10566000000E+00 0. -1.
         22    1    1    0    0    0 -0.89021610837E+01  0.26600184532E+02  0.47097093701E+01  0.28442919180E+02  0.00000000000E+00 0. -1.
</event>
<event>
 5    1  0.9041167E-005  0.9118800E+02  0.7818608E-02  0.1130116E+00
         25   -1    0    0    0    0  0.00000000000E+00  0.00000000000E+00  0.99999998245E-14  0.12500000000E+03  0.12500000000E+03 0.  0.
        -13    1    3    3    0    0 -0.32941953902E+02 -0.33371545877E+02  0.13901031299E+02  0.48908917758E+02  0.10566000000E+00 0. -1.
         23    2    1    0    0    0 -0.28900078158E+02  0.16778568490E+01 -0.12990019585E+02  0.93270355660E+02  0.87707405131E+02 0.  0.
         13    1    3    3    0    0  0.40418757432E+01  0.35049402727E+02 -0.26891050883E+02  0.44361437901E+02  0.10566000000E+00 0.  1.
         22    1    1    0    0    0  0.28900078158E+02 -0.16778568490E+01  0.12990019585E+02  0.31729644340E+02  0.00000000000E+00 0.  1.
</event>
<event>
 5    1  0.9041167E-005  0.9118800E+02  0.7818608E-02  0.1130116E+00
         25   -1    0    0    0    0  0.00000000000E+00  0.00000000000E+00  0.99999998245E-14  0.12500000000E+03  0.12500000000E+03 0.  0.
        -13    1    3    3    0    0 -0.33746588989E+02 -0.22418397257E+02 -0.25813542065E+01  0.40596691461E+02  0.10566000000E+00 0.  1.
         23    2    1    0    0    0 -0.39796060885E+01  0.26261484501E+02  0.43816304490E+01  0.98079719202E+02  0.94312935489E+02 0.  0.
         13    1    3    3    0    0  0.29766982901E+02  0.48679881758E+02  0.69629846555E+01  0.57483027742E+02  0.10566000000E+00 0. -1.
         22    1    1    0    0    0  0.39796060885E+01 -0.26261484501E+02 -0.43816304490E+01  0.26920280798E+02  0.00000000000E+00 0. -1.
</event>
<event>
 5    1  0.9041167E-005  0.9118800E+02  0.7818608E-02  0.1130116E+00
         25   -1    0    0    0    0  0.00000000000E+00  0.00000000000E+00  0.99999998245E-14  0.12500000000E+03  0.12500000000E+03 0.  0.
        -13    1    3    3    0    0 -0.26255273554E+02  0.24736237033E+02 -0.28838879052E+02  0.46183470213E+02  0.10566000000E+00 0. -1.
         23    2    1    0    0    0 -0.51268512569E+01  0.14996800351E+02  0.19524914521E+02  0.99852218554E+02  0.96633610295E+02 0.  0.
         13    1    3    3    0    0  0.21128422297E+02 -0.97394366815E+01  0.48363793573E+02  0.53668748341E+02  0.10566000000E+00 0.  1.
         22    1    1    0    0    0  0.51268512569E+01 -0.14996800351E+02 -0.19524914521E+02  0.25147781446E+02  0.00000000000E+00 0.  1.
</event>
<event>
 5    1  0.9041167E-005  0.9118800E+02  0.7818608E-02  0.1130116E+00
         25   -1    0    0    0    0  0.00000000000E+00  0.00000000000E+00  0.99999998245E-14  0.12500000000E+03  0.12500000000E+03 0.  0.
        -13    1    3    3    0    0 -0.68846020021E+00 -0.37568006833E+01 -0.42314868698E+02  0.42487019262E+02  0.10566000000E+00 0. -1.
         23    2    1    0    0    0 -0.17605927504E+02 -0.21346808345E+02  0.60637489801E+01  0.96672911171E+02  0.92429582888E+02 0.  0.
         13    1    3    3    0    0 -0.16917467304E+02 -0.17590007662E+02  0.48378617678E+02  0.54185891909E+02  0.10566000000E+00 0.  1.
         22    1    1    0    0    0  0.17605927504E+02  0.21346808345E+02 -0.60637489801E+01  0.28327088829E+02  0.00000000000E+00 0.  1.
</event>
<event>
 5    1  0.9041167E-005  0.9118800E+02  0.7818608E-02  0.1130116E+00
         25   -1    0    0    0    0  0.00000000000E+00  0.00000000000E+00  0.99999998245E-14  0.12500000000E+03  0.12500000000E+03 0.  0.
        -13    1    3    3    0    0  0.49500716657E+02 -0.33657658363E+02  0.77272670154E+01  0.60356281658E+02  0.10566000000E+00 0.  1.
         23    2    1    0    0    0  0.20960587120E+02 -0.19110459834E+02 -0.72572547804E+01  0.95721618309E+02  0.91133992436E+02 0.  0.
         13    1    3    3    0    0 -0.28540129536E+02  0.14547198529E+02 -0.14984521796E+02  0.35365336651E+02  0.10566000000E+00 0. -1.
         22    1    1    0    0    0 -0.20960587120E+02  0.19110459834E+02  0.72572547804E+01  0.29278381691E+02  0.00000000000E+00 0.  1.
</event>
<event>
 5    1  0.9041167E-005  0.9118800E+02  0.7818608E-02  0.1130116E+00
         25   -1    0    0    0    0  0.00000000000E+00  0.00000000000E+00  0.99999998245E-14  0.12500000000E+03  0.12500000000E+03 0.  0.
        -13    1    3    3    0    0 -0.59756157972E+02  0.12915101048E+01  0.46312968667E+01  0.59949366040E+02  0.10566000000E+00 0. -1.
         23    2    1    0    0    0 -0.28731152339E+02  0.10822006214E+01 -0.10400867949E+02  0.94425037579E+02  0.89337894507E+02 0.  0.
         13    1    3    3    0    0  0.31025005633E+02 -0.20930948336E+00 -0.15032164816E+02  0.34475671539E+02  0.10566000000E+00 0.  1.
         22    1    1    0    0    0  0.28731152339E+02 -0.10822006214E+01  0.10400867949E+02  0.30574962421E+02  0.00000000000E+00 0. -1.
</event>
<event>
 5    1  0.9041167E-005  0.9118800E+02  0.7818608E-02  0.1130116E+00
         25   -1    0    0    0    0  0.00000000000E+00  0.00000000000E+00  0.99999998245E-14  0.12500000000E+03  0.12500000000E+03 0.  0.
        -13    1    3    3    0    0 -0.15319679511E+02 -0.27828334028E+02 -0.18588737761E+02  0.36805720896E+02  0.10566000000E+00 0.  1.
         23    2    1    0    0    0 -0.13987742980E+02  0.20777596212E+02  0.14908735666E+02  0.95851486193E+02  0.91311946361E+02 0.  0.
         13    1    3    3    0    0  0.13319365312E+01  0.48605930240E+02  0.33497473427E+02  0.59045765296E+02  0.10566000000E+00 0. -1.
         22    1    1    0    0    0  0.13987742980E+02 -0.20777596212E+02 -0.14908735666E+02  0.29148513807E+02  0.00000000000E+00 0. -1.
</event>
<event>
 5    1  0.9041167E-005  0.9118800E+02  0.7818608E-02  0.1130116E+00
         25   -1    0    0    0    0  0.00000000000E+00  0.00000000000E+00  0.99999998245E-14  0.12500000000E+03  0.12500000000E+03 0.  0.
        -13    1    3    3    0    0  0.18967228054E+02  0.11278349536E+02  0.55705270449E+02  0.59916986140E+02  0.10566000000E+00 0.  1.
         23    2    1    0    0    0  0.14140095012E+02  0.16809308786E+02  0.23982070090E+02  0.92478701830E+02  0.86571793660E+02 0.  0.
         13    1    3    3    0    0 -0.48271330416E+01  0.55309592500E+01 -0.31723200359E+02  0.32561715690E+02  0.10566000000E+00 0. -1.
         22    1    1    0    0    0 -0.14140095012E+02 -0.16809308786E+02 -0.23982070090E+02  0.32521298170E+02  0.00000000000E+00 0.  1.
</event>
<event>
 5    1  0.9041167E-005  0.9118800E+02  0.7818608E-02  0.1130116E+00
         25   -1    0    0    0    0  0.00000000000E+00  0.00000000000E+00  0.99999998245E-14  0.12500000000E+03  0.12500000000E+03 0.  0.
        -13    1    3    3    0    0  0.56371856935E+01 -0.33811496779E+02  0.38089286579E+02  0.51242561344E+02  0.10566000000E+00 0.  1.
         23    2    1    0    0    0  0.27313149300E+02 -0.18840975326E+02  0.87267330002E+01  0.90690433626E+02  0.83950035179E+02 0.  0.
         13    1    3    3    0    0  0.21675963606E+02  0.14970521453E+02 -0.29362553579E+02  0.39447872281E+02  0.10566000000E+00 0. -1.
         22    1    1    0    0    0 -0.27313149300E+02  0.18840975326E+02 -0.87267330002E+01  0.34309566374E+02  0.00000000000E+00 0.  1.
</event>
<event>
 5    1  0.9041167E-005  0.9118800E+02  0.7818608E-02  0.1130116E+00
         25   -1    0    0    0    0  0.00000000000E+00  0.00000000000E+00  0.99999998245E-14  0.12500000000E+03  0.12500000000E+03 0.  0.
        -13    1    3    3    0    0 -0.61978048968E+00 -0.17978040864E+02 -0.54098544364E+02  0.57011031805E+02  0.10566000000E+00 0.  1.
         23    2    1    0    0    0  0.15296173255E+02  0.18298284155E+01 -0.24917701929E+02  0.95704726359E+02  0.91110820376E+02 0.  0.
         13    1    3    3    0    0  0.15915953745E+02  0.19807869279E+02  0.29180842435E+02  0.38693694554E+02  0.10566000000E+00 0. -1.
         22    1    1    0    0    0 -0.15296173255E+02 -0.18298284155E+01  0.24917701929E+02  0.29295273641E+02  0.00000000000E+00 0.  1.
</event>
<event>
 5    1  0.9041167E-005  0.9118800E+02  0.7818608E-02  0.1130116E+00
         25   -1    0    0    0    0  0.00000000000E+00  0.00000000000E+00  0.99999998245E-14  0.12500000000E+03  0.12500000000E+03 0.  0.
        -13    1    3    3    0    0 -0.31673010077E+02  0.26162569033E+02  0.41970088236E+02  0.58729541598E+02  0.10566000000E+00 0.  1.
         23    2    1    0    0    0 -0.79574405286E+01  0.97198814746E+00  0.27714883359E+02  0.96148996893E+02  0.91718314546E+02 0.  0.
         13    1    3    3    0    0  0.23715569549E+02 -0.25190580885E+02 -0.14255204878E+02  0.37419455294E+02  0.10566000000E+00 0. -1.
         22    1    1    0    0    0  0.79574405286E+01 -0.97198814746E+00 -0.27714883359E+02  0.28851003107E+02  0.00000000000E+00 0.  1.
</event>
<event>
 5    1  0.9041167E-005  0.9118800E+02  0.7818608E-02  0.1130116E+00
         25   -1    0    0    0    0  0.00000000000E+00  0.00000000000E+00  0.99999998245E-14  0.12500000000E+03  0.12500000000E+03 0.  0.
        -13    1    3    3    0    0  0.53168101892E+02 -0.29301317907E+01  0.34341438601E+00  0.53249993695E+02  0.10566000000E+00 0.  1.
         23    2    1    0    0    0  0.17984955017E+02 -0.53327889309E+01  0.23116914449E+02  0.95229394055E+02  0.90456334845E+02 0.  0.
         13    1    3    3    0    0 -0.35183146875E+02 -0.24026571402E+01  0.22773500063E+02  0.41979400359E+02  0.10566000000E+00 0. -1.
         22    1    1    0    0    0 -0.17984955017E+02  0.53327889309E+01 -0.23116914449E+02  0.29770605945E+02  0.00000000000E+00 0.  1.
</event>
<event>
 5    1  0.9041167E-005  0.9118800E+02  0.7818608E-02  0.1130116E+00
         25   -1    0    0    0    0  0.00000000000E+00  0.00000000000E+00  0.99999998245E-14  0.12500000000E+03  0.12500000000E+03 0.  0.
        -13    1    3    3    0    0  0.19502180108E+01  0.17982200447E+02 -0.42551244318E+02  0.46236159446E+02  0.10566000000E+00 0. -1.
         23    2    1    0    0    0  0.27515364353E+02 -0.63283761277E+01 -0.79099439704E+01  0.95679174065E+02  0.91075757018E+02 0.  0.
         13    1    3    3    0    0  0.25565146342E+02 -0.24310576575E+02  0.34641300348E+02  0.49443014620E+02  0.10566000000E+00 0.  1.
         22    1    1    0    0    0 -0.27515364353E+02  0.63283761277E+01  0.79099439704E+01  0.29320825935E+02  0.00000000000E+00 0.  1.
</event>
<event>
 5    1  0.9041167E-005  0.9118800E+02  0.7818608E-02  0.1130116E+00
         25   -1    0    0    0    0  0.00000000000E+00  0.00000000000E+00  0.99999998245E-14  0.12500000000E+03  0.12500000000E+03 0.  0.
        -13    1    3    3    0    0  0.47618890285E+02 -0.34364972745E+02 -0.21639544713E+01  0.58763967929E+02  0.10566000000E+00 0.  1.
         23    2    1    0    0    0  0.21452629091E+02 -0.11086947530E+02 -0.15573509086E+02  0.96265527920E+02  0.91876993748E+02 0.  0.
         13    1    3    3    0    0 -0.26166261194E+02  0.23278025216E+02 -0.13409554615E+02  0.37501559991E+02  0.10566000000E+00 0. -1.
         22    1    1    0    0    0 -0.21452629091E+02  0.11086947530E+02  0.15573509086E+02  0.28734472080E+02  0.00000000000E+00 0.  1.
</event>
<event>
 5    1  0.9041167E-005  0.9118800E+02  0.7818608E-02  0.1130116E+00
         25   -1    0    0    0    0  0.00000000000E+00  0.00000000000E+00  0.99999998245E-14  0.12500000000E+03  0.12500000000E+03 0.  0.
        -13    1    3    3    0    0  0.34757638290E+02 -0.92992685733E+01  0.13684481667E+02  0.38494753123E+02  0.10566000000E+00 0. -1.
         23    2    1    0    0    0 -0.23795948724E+02  0.40189110400E+01  0.10652799938E+02  0.98620444125E+02  0.95026896357E+02 0.  0.
         13    1    3    3    0    0 -0.58553587014E+02  0.13318179613E+02 -0.30316817290E+01  0.60125691002E+02  0.10566000000E+00 0.  1.
         22    1    1    0    0    0  0.23795948724E+02 -0.40189110400E+01 -0.10652799938E+02  0.26379555875E+02  0.00000000000E+00 0.  1.
</event>
<event>
 5    1  0.9041167E-005  0.9118800E+02  0.7818608E-02  0.1130116E+00
         25   -1    0    0    0    0  0.00000000000E+00  0.00000000000E+00  0.99999998245E-14  0.12500000000E+03  0.12500000000E+03 0.  0.
        -13    1    3    3    0    0  0.45968693880E+02 -0.80606927726E+01  0.33390440570E+02  0.57384913266E+02  0.10566000000E+00 0.  1.
         23    2    1    0    0    0  0.22520940032E+02 -0.17107230469E+02  0.33986455189E+01  0.96514900990E+02  0.92215645351E+02 0.  0.
         13    1    3    3    0    0 -0.23447753848E+02 -0.90465376966E+01 -0.29991795052E+02  0.39129987724E+02  0.10566000000E+00 0. -1.
         22    1    1    0    0    0 -0.22520940032E+02  0.17107230469E+02 -0.33986455189E+01  0.28485099010E+02  0.00000000000E+00 0.  1.
</event>
<event>
 5    1  0.9041167E-005  0.9118800E+02  0.7818608E-02  0.1130116E+00
         25   -1    0    0    0    0  0.00000000000E+00  0.00000000000E+00  0.99999998245E-14  0.12500000000E+03  0.12500000000E+03 0.  0.
        -13    1    3    3    0    0  0.16029775384E+02 -0.25271205015E+02  0.26696910955E+02  0.40103911534E+02  0.10566000000E+00 0.  1.
         23    2    1    0    0    0 -0.16765281592E+02  0.18919344113E+02  0.11724252456E+02  0.97134710764E+02  0.93052016051E+02 0.  0.
         13    1    3    3    0    0 -0.32795056976E+02  0.44190549128E+02 -0.14972658499E+02  0.57030799230E+02  0.10566000000E+00 0. -1.
         22    1    1    0    0    0  0.16765281592E+02 -0.18919344113E+02 -0.11724252456E+02  0.27865289236E+02  0.00000000000E+00 0. -1.
</event>
<event>
 5    1  0.9041167E-005  0.9118800E+02  0.7818608E-02  0.1130116E+00
         25   -1    0    0    0    0  0.00000000000E+00  0.00000000000E+00  0.99999998245E-14  0.12500000000E+03  0.12500000000E+03 0.  0.
        -13    1    3    3    0    0 -0.15548333183E+02 -0.32478813164E+01  0.28821204292E+02  0.32908545678E+02  0.10566000000E+00 0. -1.
         23    2    1    0    0    0  0.19637666194E+02  0.91352119224E+00 -0.22404224141E+02  0.95193596093E+02  0.90406852745E+02 0.  0.
         13    1    3    3    0    0  0.35185999376E+02  0.41614025087E+01 -0.51225428433E+02  0.62285050414E+02  0.10566000000E+00 0.  1.
         22    1    1    0    0    0 -0.19637666194E+02 -0.91352119224E+00  0.22404224141E+02  0.29806403907E+02  0.00000000000E+00 0.  1.
</event>
<event>
 5    1  0.9041167E-005  0.9118800E+02  0.7818608E-02  0.1130116E+00
         25   -1    0    0    0    0  0.00000000000E+00  0.00000000000E+00  0.99999998245E-14  0.12500000000E+03  0.12500000000E+03 0.  0.
        -13    1    3    3    0    0  0.42461435232E+01  0.17849078716E+02 -0.48776444947E+02  0.52113070256E+02  0.10566000000E+00 0. -1.
         23    2    1    0    0    0 -0.18248917073E+02 -0.77737719235E+01 -0.14768570189E+02  0.10027015629E+03  0.97172728035E+02 0.  0.
         13    1    3    3    0    0 -0.22495060596E+02 -0.25622850639E+02  0.34007874758E+02  0.48157086038E+02  0.10566000000E+00 0.  1.
         22    1    1    0    0    0  0.18248917073E+02  0.77737719235E+01  0.14768570189E+02  0.24729843705E+02  0.00000000000E+00 0.  1.
</event>
<event>
 5    1  0.9041167E-005  0.9118800E+02  0.7818608E-02  0.1130116E+00
         25   -1    0    0    0    0  0.00000000000E+00  0.00000000000E+00  0.99999998245E-14  0.12500000000E+03  0.12500000000E+03 0.  0.
        -13    1    3    3    0    0  0.27579033816E+02 -0.26292477607E+01  0.20100204251E+02  0.34227845754E+02  0.10566000000E+00 0.  1.
         23    2    1    0    0    0 -0.23768923668E+02 -0.56677624483E+01 -0.14840847610E+02  0.96410910800E+02  0.92074576838E+02 0.  0.
         13    1    3    3    0    0 -0.51347957484E+02 -0.30385146876E+01 -0.34941051861E+02  0.62183065046E+02  0.10566000000E+00 0. -1.
         22    1    1    0    0    0  0.23768923668E+02  0.56677624483E+01  0.14840847610E+02  0.28589089200E+02  0.00000000000E+00 0. -1.
</event>
<event>
 5    1  0.9041167E-005  0.9118800E+02  0.7818608E-02  0.1130116E+00
         25   -1    0    0    0    0  0.00000000000E+00  0.00000000000E+00  0.99999998245E-14  0.12500000000E+03  0.12500000000E+03 0.  0.
        -13    1    3    3    0    0  0.32327776803E+02  0.12913995224E+02 -0.12391263581E+02  0.36951468210E+02  0.10566000000E+00 0.  1.
         23    2    1    0    0    0 -0.25179242900E+02  0.28539121793E+01 -0.15290333950E+02  0.95403827949E+02  0.90697061624E+02 0.  0.
         13    1    3    3    0    0 -0.57507019703E+02 -0.10060083045E+02 -0.28990703694E+01  0.58452359739E+02  0.10566000000E+00 0. -1.
         22    1    1    0    0    0  0.25179242900E+02 -0.28539121793E+01  0.15290333950E+02  0.29596172051E+02  0.00000000000E+00 0.  1.
</event>
<event>
 5    1  0.9041167E-005  0.9118800E+02  0.7818608E-02  0.1130116E+00
         25   -1    0    0    0    0  0.00000000000E+00  0.00000000000E+00  0.99999998245E-14  0.12500000000E+03  0.12500000000E+03 0.  0.
        -13    1    3    3    0    0 -0.24159421634E+02 -0.17622431560E+02  0.29543599621E+02  0.42036450735E+02  0.10566000000E+00 0. -1.
         23    2    1    0    0    0  0.19457083999E+02 -0.22260377900E+02 -0.88727850538E+00  0.95421463776E+02  0.90721364320E+02 0.  0.
         13    1    3    3    0    0  0.43616505633E+02 -0.46379463405E+01 -0.30430878126E+02  0.53385013042E+02  0.10566000000E+00 0.  1.
         22    1    1    0    0    0 -0.19457083999E+02  0.22260377900E+02  0.88727850538E+00  0.29578536224E+02  0.00000000000E+00 0.  1.
</event>
<event>
 5    1  0.9041167E-005  0.9118800E+02  0.7818608E-02  0.1130116E+00
         25   -1    0    0    0    0  0.00000000000E+00  0.00000000000E+00  0.99999998245E-14  0.12500000000E+03  0.12500000000E+03 0.  0.
        -13    1    3    3    0    0 -0.22476736667E+02  0.31826758977E+02 -0.43049921751E+02  0.58064216217E+02  0.10566000000E+00 0.  1.
         23    2    1    0    0    0 -0.75193617685E+01  0.20996095554E+00 -0.27763861767E+02  0.96235144617E+02  0.91835647513E+02 0.  0.
         13    1    3    3    0    0  0.14957374898E+02 -0.31616798022E+02  0.15286059984E+02  0.38170928399E+02  0.10566000000E+00 0. -1.
         22    1    1    0    0    0  0.75193617685E+01 -0.20996095554E+00  0.27763861767E+02  0.28764855383E+02  0.00000000000E+00 0.  1.
</event>
<event>
 5    1  0.9041167E-005  0.9118800E+02  0.7818608E-02  0.1130116E+00
         25   -1    0    0    0    0  0.00000000000E+00  0.00000000000E+00  0.99999998245E-14  0.12500000000E+03  0.12500000000E+03 0.  0.
        -13    1    3    3    0    0 -0.50255773948E+01 -0.30998831811E+02 -0.48984688660E+02  0.58186724336E+02  0.10566000000E+00 0.  1.
         23    2    1    0    0    0  0.12747669961E+02 -0.83426347778E+01 -0.25279299305E+02  0.95484823940E+02  0.90808622856E+02 0.  0.
         13    1    3    3    0    0  0.17773247356E+02  0.22656197033E+02  0.23705389355E+02  0.37298099604E+02  0.10566000000E+00 0. -1.
         22    1    1    0    0    0 -0.12747669961E+02  0.83426347778E+01  0.25279299305E+02  0.29515176060E+02  0.00000000000E+00 0.  1.
</event>
<event>
 5    1  0.9041167E-005  0.9118800E+02  0.7818608E-02  0.1130116E+00
         25   -1    0    0    0    0  0.00000000000E+00  0.00000000000E+00  0.99999998245E-14  0.12500000000E+03  0.12500000000E+03 0.  0.
        -13    1    3    3    0    0 -0.38632681697E+02 -0.34247409429E+02 -0.40429493236E+01  0.51785381634E+02  0.10566000000E+00 0.  1.
         23    2    1    0    0    0 -0.28156185575E+02  0.80297297133E+01 -0.47002638136E+01  0.95346335382E+02  0.90617789895E+02 0.  0.
         13    1    3    3    0    0  0.10476496123E+02  0.42277139142E+02 -0.65731449002E+00  0.43560953748E+02  0.10566000000E+00 0. -1.
         22    1    1    0    0    0  0.28156185575E+02 -0.80297297133E+01  0.47002638136E+01  0.29653664618E+02  0.00000000000E+00 0.  1.
</event>
<event>
 5    1  0.9041167E-005  0.9118800E+02  0.7818608E-02  0.1130116E+00
         25   -1    0    0    0    0  0.00000000000E+00  0.00000000000E+00  0.99999998245E-14  0.12500000000E+03  0.12500000000E+03 0.  0.
        -13    1    3    3    0    0 -0.28596607790E+02  0.22131137440E+02 -0.43485475473E+01  0.36420794216E+02  0.10566000000E+00 0. -1.
         23    2    1    0    0    0 -0.54495497804E+01 -0.23167252931E+02  0.21003334487E+02  0.93257926017E+02  0.87689688700E+02 0.  0.
         13    1    3    3    0    0  0.23147058010E+02 -0.45298390371E+02  0.25351882034E+02  0.56837131801E+02  0.10566000000E+00 0.  1.
         22    1    1    0    0    0  0.54495497804E+01  0.23167252931E+02 -0.21003334487E+02  0.31742073983E+02  0.00000000000E+00 0.  1.
</event>
<event>
 5    1  0.9041167E-005  0.9118800E+02  0.7818608E-02  0.1130116E+00
         25   -1    0    0    0    0  0.00000000000E+00  0.00000000000E+00  0.99999998245E-14  0.12500000000E+03  0.12500000000E+03 0.  0.
        -13    1    3    3    0    0 -0.41944255229E+01 -0.13005905764E+02 -0.39667149205E+02  0.41955222324E+02  0.10566000000E+00 0.  1.
         23    2    1    0    0    0  0.17879174813E+02 -0.21498920456E+02  0.86334123472E+01  0.95735614110E+02  0.91153187150E+02 0.  0.
         13    1    3    3    0    0  0.22073600336E+02 -0.84930146921E+01  0.48300561552E+02  0.53780391786E+02  0.10566000000E+00 0. -1.
         22    1    1    0    0    0 -0.17879174813E+02  0.21498920456E+02 -0.86334123472E+01  0.29264385890E+02  0.00000000000E+00 0. -1.
</event>
<event>
 5    1  0.9041167E-005  0.9118800E+02  0.7818608E-02  0.1130116E+00
         25   -1    0    0    0    0  0.00000000000E+00  0.00000000000E+00  0.99999998245E-14  0.12500000000E+03  0.12500000000E+03 0.  0.
        -13    1    3    3    0    0 -0.32464114457E+01  0.28956154602E+02 -0.11044988274E+02  0.31160889054E+02  0.10566000000E+00 0.  1.
         23    2    1    0    0    0 -0.12242179087E+02 -0.21429476493E+02 -0.30366776255E+02  0.85869008297E+02  0.76434626146E+02 0.  0.
         13    1    3    3    0    0 -0.89957676415E+01 -0.50385631095E+02 -0.19321787982E+02  0.54708119243E+02  0.10566000000E+00 0. -1.
         22    1    1    0    0    0  0.12242179087E+02  0.21429476493E+02  0.30366776255E+02  0.39130991703E+02  0.00000000000E+00 0. -1.
</event>
<event>
 5    1  0.9041167E-005  0.9118800E+02  0.7818608E-02  0.1130116E+00
         25   -1    0    0    0    0  0.00000000000E+00  0.00000000000E+00  0.99999998245E-14  0.12500000000E+03  0.12500000000E+03 0.  0.
        -13    1    3    3    0    0 -0.47522176786E+02 -0.33584590797E+02  0.14536810619E+02  0.59980097137E+02  0.10566000000E+00 0. -1.
         23    2    1    0    0    0 -0.23442466820E+02 -0.33785527916E+01 -0.17039823853E+00  0.10131471121E+03  0.98507247461E+02 0.  0.
         13    1    3    3    0    0  0.24079709967E+02  0.30206038006E+02 -0.14707208858E+02  0.41334614072E+02  0.10566000000E+00 0.  1.
         22    1    1    0    0    0  0.23442466820E+02  0.33785527916E+01  0.17039823853E+00  0.23685288791E+02  0.00000000000E+00 0. -1.
</event>
<event>
 5    1  0.9041167E-005  0.9118800E+02  0.7818608E-02  0.1130116E+00
         25   -1    0    0    0    0  0.00000000000E+00  0.00000000000E+00  0.99999998245E-14  0.12500000000E+03  0.12500000000E+03 0.  0.
        -13    1    3    3    0    0  0.18677001675E+02  0.17143753666E+02  0.19767252236E+02  0.32148003147E+02  0.10566000000E+00 0.  1.
         23    2    1    0    0    0 -0.21793565261E+02  0.20117449987E+01 -0.23216032924E+02  0.93094032071E+02  0.87455748912E+02 0.  0.
         13    1    3    3    0    0 -0.40470566937E+02 -0.15132008667E+02 -0.42983285160E+02  0.60946028924E+02  0.10566000000E+00 0. -1.
         22    1    1    0    0    0  0.21793565261E+02 -0.20117449987E+01  0.23216032924E+02  0.31905967929E+02  0.00000000000E+00 0. -1.
</event>
<event>
 5    1  0.9041167E-005  0.9118800E+02  0.7818608E-02  0.1130116E+00
         25   -1    0    0    0    0  0.00000000000E+00  0.00000000000E+00  0.99999998245E-14  0.12500000000E+03  0.12500000000E+03 0.  0.
        -13    1    3    3    0    0 -0.37832076406E+02  0.83686012295E+00  0.95015588532E+01  0.39016113655E+02  0.10566000000E+00 0. -1.
         23    2    1    0    0    0  0.63322848276E+01  0.22005172987E+02 -0.18616197353E+02  0.95489183793E+02  0.90814624088E+02 0.  0.
         13    1    3    3    0    0  0.44164361234E+02  0.21168312864E+02 -0.28117756206E+02  0.56473070138E+02  0.10566000000E+00 0.  1.
         22    1    1    0    0    0 -0.63322848276E+01 -0.22005172987E+02  0.18616197353E+02  0.29510816207E+02  0.00000000000E+00 0.  1.
</event>
<event>
 5    1  0.9041167E-005  0.9118800E+02  0.7818608E-02  0.1130116E+00
         25   -1    0    0    0    0  0.00000000000E+00  0.00000000000E+00  0.99999998245E-14  0.12500000000E+03  0.12500000000E+03 0.  0.
        -13    1    3    3    0    0  0.16859320150E+00  0.32284203176E+02 -0.15275247908E+02  0.35716138664E+02  0.10566000000E+00 0. -1.
         23    2    1    0    0    0  0.92513193297E+01 -0.24884281608E+02 -0.16729888763E+02  0.93620013408E+02  0.88204327287E+02 0.  0.
         13    1    3    3    0    0  0.90827261282E+01 -0.57168484783E+02 -0.14546408548E+01  0.57903874744E+02  0.10566000000E+00 0.  1.
         22    1    1    0    0    0 -0.92513193297E+01  0.24884281608E+02  0.16729888763E+02  0.31379986592E+02  0.00000000000E+00 0.  1.
</event>
<event>
 5    1  0.9041167E-005  0.9118800E+02  0.7818608E-02  0.1130116E+00
         25   -1    0    0    0    0  0.00000000000E+00  0.00000000000E+00  0.99999998245E-14  0.12500000000E+03  0.12500000000E+03 0.  0.
        -13    1    3    3    0    0  0.99887826467E+00  0.52925081103E+02  0.65471875489E+01  0.53337967682E+02  0.10566000000E+00 0. -1.
         23    2    1    0    0    0 -0.22364489538E+02  0.19169966197E+02 -0.27061650859E+01  0.95419916739E+02  0.90719232717E+02 0.  0.
         13    1    3    3    0    0 -0.23363367803E+02 -0.33755114907E+02 -0.92533526348E+01  0.42081949057E+02  0.10566000000E+00 0.  1.
         22    1    1    0    0    0  0.22364489538E+02 -0.19169966197E+02  0.27061650859E+01  0.29580083261E+02  0.00000000000E+00 0.  1.
</event>
<event>
 5    1  0.9041167E-005  0.9118800E+02  0.7818608E-02  0.1130116E+00
         25   -1    0    0    0    0  0.00000000000E+00  0.00000000000E+00  0.99999998245E-14  0.12500000000E+03  0.12500000000E+03 0.  0.
        -13    1    3    3    0    0 -0.41784437993E+02  0.13264632767E+02 -0.47670401910E+01  0.44097908987E+02  0.10566000000E+00 0.  1.
         23    2    1    0    0    0  0.27223820457E+01  0.30128548323E+02  0.86292371494E+01  0.93542019743E+02  0.88093728130E+02 0.  0.
         13    1    3    3    0    0  0.44506820039E+02  0.16863915556E+02  0.13396277340E+02  0.49444110756E+02  0.10566000000E+00 0. -1.
         22    1    1    0    0    0 -0.27223820457E+01 -0.30128548323E+02 -0.86292371494E+01  0.31457980257E+02  0.00000000000E+00 0.  1.
</event>
<event>
 5    1  0.9041167E-005  0.9118800E+02  0.7818608E-02  0.1130116E+00
         25   -1    0    0    0    0  0.00000000000E+00  0.00000000000E+00  0.99999998245E-14  0.12500000000E+03  0.12500000000E+03 0.  0.
        -13    1    3    3    0    0 -0.81427472074E+01  0.46789339123E+02 -0.28562866006E+01  0.47578525879E+02  0.10566000000E+00 0. -1.
         23    2    1    0    0    0  0.70833083276E+01  0.12698012915E+02  0.26298208289E+02  0.94949899366E+02  0.90069278012E+02 0.  0.
         13    1    3    3    0    0  0.15226055535E+02 -0.34091326208E+02  0.29154494890E+02  0.47371373487E+02  0.10566000000E+00 0.  1.
         22    1    1    0    0    0 -0.70833083276E+01 -0.12698012915E+02 -0.26298208289E+02  0.30050100634E+02  0.00000000000E+00 0.  1.
</event>
<event>
 5    1  0.9041167E-005  0.9118800E+02  0.7818608E-02  0.1130116E+00
         25   -1    0    0    0    0  0.00000000000E+00  0.00000000000E+00  0.99999998245E-14  0.12500000000E+03  0.12500000000E+03 0.  0.
        -13    1    3    3    0    0  0.56681759367E+02 -0.39055464751E+01  0.23308795099E+02  0.61411613162E+02  0.10566000000E+00 0. -1.
         23    2    1    0    0    0  0.34468208833E+02 -0.24880205343E+01  0.53111995616E+01  0.90036354493E+02  0.82970408118E+02 0.  0.
         13    1    3    3    0    0 -0.22213550533E+02  0.14175259408E+01 -0.17997595537E+02  0.28624741331E+02  0.10566000000E+00 0.  1.
         22    1    1    0    0    0 -0.34468208833E+02  0.24880205343E+01 -0.53111995616E+01  0.34963645507E+02  0.00000000000E+00 0. -1.
</event>
<event>
 5    1  0.9041167E-005  0.9118800E+02  0.7818608E-02  0.1130116E+00
         25   -1    0    0    0    0  0.00000000000E+00  0.00000000000E+00  0.99999998245E-14  0.12500000000E+03  0.12500000000E+03 0.  0.
        -13    1    3    3    0    0  0.30046384032E+02  0.45148007435E+02  0.11187518260E+02  0.55374177173E+02  0.10566000000E+00 0. -1.
         23    2    1    0    0    0 -0.52618913700E+01  0.29541006239E+02  0.68593381391E+01  0.94219989115E+02  0.89050532164E+02 0.  0.
         13    1    3    3    0    0 -0.35308275402E+02 -0.15607001197E+02 -0.43281801213E+01  0.38845811941E+02  0.10566000000E+00 0.  1.
         22    1    1    0    0    0  0.52618913700E+01 -0.29541006239E+02 -0.68593381391E+01  0.30780010885E+02  0.00000000000E+00 0. -1.
</event>
<event>
 5    1  0.9041167E-005  0.9118800E+02  0.7818608E-02  0.1130116E+00
         25   -1    0    0    0    0  0.00000000000E+00  0.00000000000E+00  0.99999998245E-14  0.12500000000E+03  0.12500000000E+03 0.  0.
        -13    1    3    3    0    0  0.11040601166E+02  0.14421617167E+02 -0.33125582896E+02  0.37778212266E+02  0.10566000000E+00 0.  1.
         23    2    1    0    0    0 -0.28679555018E+02 -0.11936804834E+02 -0.39065853539E+01  0.93690806545E+02  0.88304595783E+02 0.  0.
         13    1    3    3    0    0 -0.39720156183E+02 -0.26358422001E+02  0.29218997542E+02  0.55912594279E+02  0.10566000000E+00 0. -1.
         22    1    1    0    0    0  0.28679555018E+02  0.11936804834E+02  0.39065853539E+01  0.31309193455E+02  0.00000000000E+00 0. -1.
</event>
<event>
 5    1  0.9041167E-005  0.9118800E+02  0.7818608E-02  0.1130116E+00
         25   -1    0    0    0    0  0.00000000000E+00  0.00000000000E+00  0.99999998245E-14  0.12500000000E+03  0.12500000000E+03 0.  0.
        -13    1    3    3    0    0 -0.18158913442E+02  0.37042248250E+01 -0.50190364189E+02  0.53502815257E+02  0.10566000000E+00 0.  1.
         23    2    1    0    0    0 -0.20944899745E+02  0.16739741801E+02 -0.91254170256E+01  0.96677199700E+02  0.92435382431E+02 0.  0.
         13    1    3    3    0    0 -0.27859863033E+01  0.13035516976E+02  0.41064947163E+02  0.43174384444E+02  0.10566000000E+00 0. -1.
         22    1    1    0    0    0  0.20944899745E+02 -0.16739741801E+02  0.91254170256E+01  0.28322800300E+02  0.00000000000E+00 0.  1.
</event>
<event>
 5    1  0.9041167E-005  0.9118800E+02  0.7818608E-02  0.1130116E+00
         25   -1    0    0    0    0  0.00000000000E+00  0.00000000000E+00  0.99999998245E-14  0.12500000000E+03  0.12500000000E+03 0.  0.
        -13    1    3    3    0    0  0.16281747643E+02  0.34930227726E+02  0.54770408438E+00  0.38542538307E+02  0.10566000000E+00 0. -1.
         23    2    1    0    0    0  0.41690631536E+01 -0.15829263187E+02 -0.23789111345E+02  0.96123219030E+02  0.91683175978E+02 0.  0.
         13    1    3    3    0    0 -0.12112684489E+02 -0.50759490913E+02 -0.24336815429E+02  0.57580680723E+02  0.10566000000E+00 0.  1.
         22    1    1    0    0    0 -0.41690631536E+01  0.15829263187E+02  0.23789111345E+02  0.28876780970E+02  0.00000000000E+00 0.  1.
</event>
<event>
 5    1  0.9041167E-005  0.9118800E+02  0.7818608E-02  0.1130116E+00
         25   -1    0    0    0    0  0.00000000000E+00  0.00000000000E+00  0.99999998245E-14  0.12500000000E+03  0.12500000000E+03 0.  0.
        -13    1    3    3    0    0 -0.24832912256E+02 -0.12376203253E+02 -0.27846491492E+02  0.39310077468E+02  0.10566000000E+00 0. -1.
         23    2    1    0    0    0  0.13591426499E+02 -0.64391634445E+01  0.19371482782E+02  0.10047564383E+03  0.97436702319E+02 0.  0.
         13    1    3    3    0    0  0.38424338755E+02  0.59370398085E+01  0.47217974274E+02  0.61165566367E+02  0.10566000000E+00 0.  1.
         22    1    1    0    0    0 -0.13591426499E+02  0.64391634445E+01 -0.19371482782E+02  0.24524356165E+02  0.00000000000E+00 0.  1.
</event>
<event>
 5    1  0.9041167E-005  0.9118800E+02  0.7818608E-02  0.1130116E+00
         25   -1    0    0    0    0  0.00000000000E+00  0.00000000000E+00  0.99999998245E-14  0.12500000000E+03  0.12500000000E+03 0.  0.
        -13    1    3    3    0    0  0.55244791628E+02  0.15296320411E+02  0.34630439104E+00  0.57324475670E+02  0.10566000000E+00 0.  1.
         23    2    1    0    0    0  0.18575676974E+02  0.23100247956E+02  0.43970600364E+01  0.95033162202E+02  0.90184757861E+02 0.  0.
         13    1    3    3    0    0 -0.36669114654E+02  0.78039275445E+01  0.40507556453E+01  0.37708686532E+02  0.10566000000E+00 0. -1.
         22    1    1    0    0    0 -0.18575676974E+02 -0.23100247956E+02 -0.43970600364E+01  0.29966837798E+02  0.00000000000E+00 0.  1.
</event>
<event>
 5    1  0.9041167E-005  0.9118800E+02  0.7818608E-02  0.1130116E+00
         25   -1    0    0    0    0  0.00000000000E+00  0.00000000000E+00  0.99999998245E-14  0.12500000000E+03  0.12500000000E+03 0.  0.
        -13    1    3    3    0    0  0.41238213523E+02  0.38153166404E+01 -0.40408707923E+00  0.41416438114E+02  0.10566000000E+00 0.  1.
         23    2    1    0    0    0  0.41508164809E+01 -0.12549979765E+02 -0.30403460944E+02  0.91847297140E+02  0.85655264200E+02 0.  0.
         13    1    3    3    0    0 -0.37087397043E+02 -0.16365296405E+02 -0.29999373864E+02  0.50430859026E+02  0.10566000000E+00 0. -1.
         22    1    1    0    0    0 -0.41508164809E+01  0.12549979765E+02  0.30403460944E+02  0.33152702860E+02  0.00000000000E+00 0. -1.
</event>
<event>
 5    1  0.9041167E-005  0.9118800E+02  0.7818608E-02  0.1130116E+00
         25   -1    0    0    0    0  0.00000000000E+00  0.00000000000E+00  0.99999998245E-14  0.12500000000E+03  0.12500000000E+03 0.  0.
        -13    1    3    3    0    0  0.34906054969E+01  0.58170273058E+02  0.59514944896E+01  0.58578122581E+02  0.10566000000E+00 0.  1.
         23    2    1    0    0    0 -0.13563780665E+02  0.25412778810E+02  0.63094953021E+01  0.95511100330E+02  0.90844785665E+02 0.  0.
         13    1    3    3    0    0 -0.17054386162E+02 -0.32757494249E+02  0.35800081243E+00  0.36932977749E+02  0.10566000000E+00 0. -1.
         22    1    1    0    0    0  0.13563780665E+02 -0.25412778810E+02 -0.63094953021E+01  0.29488899670E+02  0.00000000000E+00 0.  1.
</event>
<event>
 5    1  0.9041167E-005  0.9118800E+02  0.7818608E-02  0.1130116E+00
         25   -1    0    0    0    0  0.00000000000E+00  0.00000000000E+00  0.99999998245E-14  0.12500000000E+03  0.12500000000E+03 0.  0.
        -13    1    3    3    0    0 -0.39492169966E+02 -0.78506657545E+00 -0.33264658111E+02  0.51641034667E+02  0.10566000000E+00 0. -1.
         23    2    1    0    0    0 -0.10529260636E+02  0.24664384485E+02 -0.13015400716E+02  0.95190641615E+02  0.90402767677E+02 0.  0.
         13    1    3    3    0    0  0.28962909330E+02  0.25449451061E+02  0.20249257396E+02  0.43549606948E+02  0.10566000000E+00 0.  1.
         22    1    1    0    0    0  0.10529260636E+02 -0.24664384485E+02  0.13015400716E+02  0.29809358385E+02  0.00000000000E+00 0. -1.
</event>
<event>
 5    1  0.9041167E-005  0.9118800E+02  0.7818608E-02  0.1130116E+00
         25   -1    0    0    0    0  0.00000000000E+00  0.00000000000E+00  0.99999998245E-14  0.12500000000E+03  0.12500000000E+03 0.  0.
        -13    1    3    3    0    0  0.97773500882E+01  0.52016857535E+02 -0.31399382567E+02  0.61540900483E+02  0.10566000000E+00 0.  1.
         23    2    1    0    0    0 -0.17261373255E+01  0.27994318614E+02 -0.11992401359E+02  0.94496244246E+02  0.89437470121E+02 0.  0.
         13    1    3    3    0    0 -0.11503487414E+02 -0.24022538922E+02  0.19406981208E+02  0.32955343764E+02  0.10566000000E+00 0. -1.
         22    1    1    0    0    0  0.17261373255E+01 -0.27994318614E+02  0.11992401359E+02  0.30503755754E+02  0.00000000000E+00 0.  1.
</event>
<event>
 5    1  0.9041167E-005  0.9118800E+02  0.7818608E-02  0.1130116E+00
         25   -1    0    0    0    0  0.00000000000E+00  0.00000000000E+00  0.99999998245E-14  0.12500000000E+03  0.12500000000E+03 0.  0.
        -13    1    3    3    0    0 -0.43272563657E+02 -0.21121405322E+02  0.17984737085E+02  0.51401269053E+02  0.10566000000E+00 0. -1.
         23    2    1    0    0    0 -0.13412003797E+02 -0.18509586096E+02 -0.16287876804E+02  0.96932553481E+02  0.92780053731E+02 0.  0.
         13    1    3    3    0    0  0.29860559860E+02  0.26118192258E+01 -0.34272613890E+02  0.45531284428E+02  0.10566000000E+00 0.  1.
         22    1    1    0    0    0  0.13412003797E+02  0.18509586096E+02  0.16287876804E+02  0.28067446519E+02  0.00000000000E+00 0. -1.
</event>
<event>
 5    1  0.9041167E-005  0.9118800E+02  0.7818608E-02  0.1130116E+00
         25   -1    0    0    0    0  0.00000000000E+00  0.00000000000E+00  0.99999998245E-14  0.12500000000E+03  0.12500000000E+03 0.  0.
        -13    1    3    3    0    0  0.27140224122E+02  0.12946405545E+02  0.24932723891E+02  0.39062169251E+02  0.10566000000E+00 0.  1.
         23    2    1    0    0    0  0.10547380658E+02 -0.20326301746E+02 -0.18011523984E+02  0.95865471041E+02  0.91331088685E+02 0.  0.
         13    1    3    3    0    0 -0.16592843464E+02 -0.33272707291E+02 -0.42944247875E+02  0.56803301790E+02  0.10566000000E+00 0. -1.
         22    1    1    0    0    0 -0.10547380658E+02  0.20326301746E+02  0.18011523984E+02  0.29134528959E+02  0.00000000000E+00 0. -1.
</event>
<event>
 5    1  0.9041167E-005  0.9118800E+02  0.7818608E-02  0.1130116E+00
         25   -1    0    0    0    0  0.00000000000E+00  0.00000000000E+00  0.99999998245E-14  0.12500000000E+03  0.12500000000E+03 0.  0.
        -13    1    3    3    0    0  0.50882661332E+02 -0.26548801275E+02  0.14509576363E+02  0.59198167570E+02  0.10566000000E+00 0. -1.
         23    2    1    0    0    0  0.24207894330E+01 -0.13718009547E+02  0.48341371766E+01  0.11025507241E+03  0.10926466996E+03 0.  0.
         13    1    3    3    0    0 -0.48461871899E+02  0.12830791728E+02 -0.96754391864E+01  0.51056904840E+02  0.10566000000E+00 0.  1.
         22    1    1    0    0    0 -0.24207894330E+01  0.13718009547E+02 -0.48341371766E+01  0.14744927590E+02  0.00000000000E+00 0. -1.
</event>
<event>
 5    1  0.9041167E-005  0.9118800E+02  0.7818608E-02  0.1130116E+00
         25   -1    0    0    0    0  0.00000000000E+00  0.00000000000E+00  0.99999998245E-14  0.12500000000E+03  0.12500000000E+03 0.  0.
        -13    1    3    3    0    0 -0.17761107130E+02  0.51645432814E+02  0.58487341007E+01  0.54926555615E+02  0.10566000000E+00 0.  1.
         23    2    1    0    0    0 -0.17307423704E+02  0.34518493171E+02  0.23718475130E+02  0.79682902249E+02  0.65541784858E+02 0.  0.
         13    1    3    3    0    0  0.45368342609E+00 -0.17126939644E+02  0.17869741029E+02  0.24756346635E+02  0.10566000000E+00 0. -1.
         22    1    1    0    0    0  0.17307423704E+02 -0.34518493171E+02 -0.23718475130E+02  0.45317097751E+02  0.00000000000E+00 0.  1.
</event>
<event>
 5    1  0.9041167E-005  0.9118800E+02  0.7818608E-02  0.1130116E+00
         25   -1    0    0    0    0  0.00000000000E+00  0.00000000000E+00  0.99999998245E-14  0.12500000000E+03  0.12500000000E+03 0.  0.
        -13    1    3    3    0    0 -0.47010090549E+02  0.36803302331E+02  0.17748822538E+02  0.62285339699E+02  0.10566000000E+00 0. -1.
         23    2    1    0    0    0 -0.23746071745E+02  0.14433947726E+02  0.65235927320E+01  0.96455788110E+02  0.92135481914E+02 0.  0.
         13    1    3    3    0    0  0.23264018804E+02 -0.22369354605E+02 -0.11225229806E+02  0.34170448411E+02  0.10566000000E+00 0.  1.
         22    1    1    0    0    0  0.23746071745E+02 -0.14433947726E+02 -0.65235927320E+01  0.28544211890E+02  0.00000000000E+00 0. -1.
</event>
<event>
 5    1  0.9041167E-005  0.9118800E+02  0.7818608E-02  0.1130116E+00
         25   -1    0    0    0    0  0.00000000000E+00  0.00000000000E+00  0.99999998245E-14  0.12500000000E+03  0.12500000000E+03 0.  0.
        -13    1    3    3    0    0 -0.75370477466E+01 -0.16571685648E+02  0.30728268363E+02  0.35716459715E+02  0.10566000000E+00 0.  1.
         23    2    1    0    0    0 -0.13956676600E+02  0.99068186075E+01 -0.23219632076E+02  0.96154113112E+02  0.91725287015E+02 0.  0.
         13    1    3    3    0    0 -0.64196288531E+01  0.26478504255E+02 -0.53947900439E+02  0.60437653396E+02  0.10566000000E+00 0. -1.
         22    1    1    0    0    0  0.13956676600E+02 -0.99068186075E+01  0.23219632076E+02  0.28845886888E+02  0.00000000000E+00 0. -1.
</event>
<event>
 5    1  0.9041167E-005  0.9118800E+02  0.7818608E-02  0.1130116E+00
         25   -1    0    0    0    0  0.00000000000E+00  0.00000000000E+00  0.99999998245E-14  0.12500000000E+03  0.12500000000E+03 0.  0.
        -13    1    3    3    0    0 -0.10100727563E+02 -0.56541652994E+02  0.12066266868E+02  0.58690622597E+02  0.10566000000E+00 0.  1.
         23    2    1    0    0    0  0.99369851628E+01 -0.29210170040E+02  0.18349204623E+01  0.94091350062E+02  0.88869778415E+02 0.  0.
         13    1    3    3    0    0  0.20037712726E+02  0.27331482954E+02 -0.10231346406E+02  0.35400727465E+02  0.10566000000E+00 0. -1.
         22    1    1    0    0    0 -0.99369851628E+01  0.29210170040E+02 -0.18349204623E+01  0.30908649938E+02  0.00000000000E+00 0.  1.
</event>
<event>
 5    1  0.9041167E-005  0.9118800E+02  0.7818608E-02  0.1130116E+00
         25   -1    0    0    0    0  0.00000000000E+00  0.00000000000E+00  0.99999998245E-14  0.12500000000E+03  0.12500000000E+03 0.  0.
        -13    1    3    3    0    0 -0.24837775029E+02  0.13835259255E+02 -0.23139791899E+02  0.36657749525E+02  0.10566000000E+00 0. -1.
         23    2    1    0    0    0  0.27923841592E+02 -0.22752289216E+01 -0.17156617876E+02  0.92147798661E+02  0.86092680672E+02 0.  0.
         13    1    3    3    0    0  0.52761616621E+02 -0.16110488177E+02  0.59831740236E+01  0.55490049136E+02  0.10566000000E+00 0.  1.
         22    1    1    0    0    0 -0.27923841592E+02  0.22752289216E+01  0.17156617876E+02  0.32852201339E+02  0.00000000000E+00 0.  1.
</event>
<event>
 5    1  0.9041167E-005  0.9118800E+02  0.7818608E-02  0.1130116E+00
         25   -1    0    0    0    0  0.00000000000E+00  0.00000000000E+00  0.99999998245E-14  0.12500000000E+03  0.12500000000E+03 0.  0.
        -13    1    3    3    0    0 -0.22074510917E+02  0.71550807763E+01  0.36253634852E+02  0.43044354068E+02  0.10566000000E+00 0.  1.
         23    2    1    0    0    0 -0.20201687218E+02 -0.12833731808E+02 -0.14078457481E+02  0.97232828671E+02  0.93183728020E+02 0.  0.
         13    1    3    3    0    0  0.18728236988E+01 -0.19988812584E+02 -0.50332092333E+02  0.54188474603E+02  0.10566000000E+00 0. -1.
         22    1    1    0    0    0  0.20201687218E+02  0.12833731808E+02  0.14078457481E+02  0.27767171329E+02  0.00000000000E+00 0. -1.
</event>
<event>
 5    1  0.9041167E-005  0.9118800E+02  0.7818608E-02  0.1130116E+00
         25   -1    0    0    0    0  0.00000000000E+00  0.00000000000E+00  0.99999998245E-14  0.12500000000E+03  0.12500000000E+03 0.  0.
        -13    1    3    3    0    0 -0.10283783610E+02  0.58361327538E+02  0.61195747513E+01  0.59575675544E+02  0.10566000000E+00 0.  1.
         23    2    1    0    0    0 -0.51189140298E+01  0.26633946337E+02 -0.10686625110E+02  0.95849110913E+02  0.91308694703E+02 0.  0.
         13    1    3    3    0    0  0.51648695801E+01 -0.31727381202E+02 -0.16806199861E+02  0.36273435369E+02  0.10566000000E+00 0. -1.
         22    1    1    0    0    0  0.51189140298E+01 -0.26633946337E+02  0.10686625110E+02  0.29150889087E+02  0.00000000000E+00 0.  1.
</event>
<event>
 5    1  0.9041167E-005  0.9118800E+02  0.7818608E-02  0.1130116E+00
         25   -1    0    0    0    0  0.00000000000E+00  0.00000000000E+00  0.99999998245E-14  0.12500000000E+03  0.12500000000E+03 0.  0.
        -13    1    3    3    0    0 -0.42149321681E+02 -0.35154014070E+02  0.12223056777E+02  0.56229745726E+02  0.10566000000E+00 0.  1.
         23    2    1    0    0    0 -0.39287280366E+01 -0.22678897879E+02  0.16526638835E+02  0.96664560985E+02  0.92418289566E+02 0.  0.
         13    1    3    3    0    0  0.38220593644E+02  0.12475116191E+02  0.43035820572E+01  0.40434815259E+02  0.10566000000E+00 0. -1.
         22    1    1    0    0    0  0.39287280366E+01  0.22678897879E+02 -0.16526638835E+02  0.28335439015E+02  0.00000000000E+00 0.  1.
</event>
<event>
 5    1  0.9041167E-005  0.9118800E+02  0.7818608E-02  0.1130116E+00
         25   -1    0    0    0    0  0.00000000000E+00  0.00000000000E+00  0.99999998245E-14  0.12500000000E+03  0.12500000000E+03 0.  0.
        -13    1    3    3    0    0  0.45993705258E+02  0.28497153389E+02 -0.28566957290E+02  0.61184891007E+02  0.10566000000E+00 0.  1.
         23    2    1    0    0    0  0.22527679775E+02  0.18885130914E+02 -0.62909815077E+01  0.94938047734E+02  0.90052828571E+02 0.  0.
         13    1    3    3    0    0 -0.23466025483E+02 -0.96120224758E+01  0.22275975782E+02  0.33753156728E+02  0.10566000000E+00 0. -1.
         22    1    1    0    0    0 -0.22527679775E+02 -0.18885130914E+02  0.62909815077E+01  0.30061952266E+02  0.00000000000E+00 0.  1.
</event>
<event>
 5    1  0.9041167E-005  0.9118800E+02  0.7818608E-02  0.1130116E+00
         25   -1    0    0    0    0  0.00000000000E+00  0.00000000000E+00  0.99999998245E-14  0.12500000000E+03  0.12500000000E+03 0.  0.
        -13    1    3    3    0    0  0.36325756175E+02  0.41493468920E+02  0.24349856196E+02  0.60284286390E+02  0.10566000000E+00 0.  1.
         23    2    1    0    0    0  0.66235707174E+01  0.24363516588E+02  0.14150758555E+02  0.96057011259E+02  0.91592864431E+02 0.  0.
         13    1    3    3    0    0 -0.29702185458E+02 -0.17129952332E+02 -0.10199097641E+02  0.35772724869E+02  0.10566000000E+00 0. -1.
         22    1    1    0    0    0 -0.66235707174E+01 -0.24363516588E+02 -0.14150758555E+02  0.28942988741E+02  0.00000000000E+00 0.  1.
</event>
<event>
 5    1  0.9041167E-005  0.9118800E+02  0.7818608E-02  0.1130116E+00
         25   -1    0    0    0    0  0.00000000000E+00  0.00000000000E+00  0.99999998245E-14  0.12500000000E+03  0.12500000000E+03 0.  0.
        -13    1    3    3    0    0 -0.35803681925E+02  0.10958869324E+02 -0.14454391673E+02  0.40136530230E+02  0.10566000000E+00 0.  1.
         23    2    1    0    0    0  0.15034501846E+02 -0.13757047257E+02 -0.19378448589E+02  0.96878533738E+02  0.92707245858E+02 0.  0.
         13    1    3    3    0    0  0.50838183771E+02 -0.24715916581E+02 -0.49240569156E+01  0.56742003508E+02  0.10566000000E+00 0. -1.
         22    1    1    0    0    0 -0.15034501846E+02  0.13757047257E+02  0.19378448589E+02  0.28121466262E+02  0.00000000000E+00 0. -1.
</event>
<event>
 5    1  0.9041167E-005  0.9118800E+02  0.7818608E-02  0.1130116E+00
         25   -1    0    0    0    0  0.00000000000E+00  0.00000000000E+00  0.99999998245E-14  0.12500000000E+03  0.12500000000E+03 0.  0.
        -13    1    3    3    0    0 -0.31849381731E+02  0.11291721700E+02  0.44036318553E+02  0.55507608590E+02  0.10566000000E+00 0.  1.
         23    2    1    0    0    0 -0.22987093436E+02  0.63161399491E+01 -0.46652979717E+00  0.10115638999E+03  0.98306141702E+02 0.  0.
         13    1    3    3    0    0  0.88622882953E+01 -0.49755817510E+01 -0.44502848350E+02  0.45648781396E+02  0.10566000000E+00 0. -1.
         22    1    1    0    0    0  0.22987093436E+02 -0.63161399491E+01  0.46652979717E+00  0.23843610015E+02  0.00000000000E+00 0.  1.
</event>
<event>
 5    1  0.9041167E-005  0.9118800E+02  0.7818608E-02  0.1130116E+00
         25   -1    0    0    0    0  0.00000000000E+00  0.00000000000E+00  0.99999998245E-14  0.12500000000E+03  0.12500000000E+03 0.  0.
        -13    1    3    3    0    0  0.14302191031E+02  0.15288881605E+02 -0.45013574434E+02  0.49644089441E+02  0.10566000000E+00 0. -1.
         23    2    1    0    0    0 -0.22036480771E+02  0.73300044987E+01 -0.16622331022E+02  0.96440634823E+02  0.92114921190E+02 0.  0.
         13    1    3    3    0    0 -0.36338671802E+02 -0.79588771063E+01  0.28391243413E+02  0.46796545382E+02  0.10566000000E+00 0.  1.
         22    1    1    0    0    0  0.22036480771E+02 -0.73300044987E+01  0.16622331022E+02  0.28559365177E+02  0.00000000000E+00 0. -1.
</event>
<event>
 5    1  0.9041167E-005  0.9118800E+02  0.7818608E-02  0.1130116E+00
         25   -1    0    0    0    0  0.00000000000E+00  0.00000000000E+00  0.99999998245E-14  0.12500000000E+03  0.12500000000E+03 0.  0.
        -13    1    3    3    0    0  0.17013206890E+02 -0.59864172734E+01 -0.33531170443E+02  0.38074098227E+02  0.10566000000E+00 0. -1.
         23    2    1    0    0    0 -0.27206711168E+02 -0.12294791259E+02  0.18940343725E+01  0.95084211678E+02  0.90255486922E+02 0.  0.
         13    1    3    3    0    0 -0.44219918059E+02 -0.63083739860E+01  0.35425204816E+02  0.57010113451E+02  0.10566000000E+00 0.  1.
         22    1    1    0    0    0  0.27206711168E+02  0.12294791259E+02 -0.18940343725E+01  0.29915788322E+02  0.00000000000E+00 0.  1.
</event>
<event>
 5    1  0.9041167E-005  0.9118800E+02  0.7818608E-02  0.1130116E+00
         25   -1    0    0    0    0  0.00000000000E+00  0.00000000000E+00  0.99999998245E-14  0.12500000000E+03  0.12500000000E+03 0.  0.
        -13    1    3    3    0    0  0.94493262679E+01  0.78323634551E+00 -0.42555504176E+02  0.43599143637E+02  0.10566000000E+00 0.  1.
         23    2    1    0    0    0 -0.26421184317E+02 -0.72830681429E+00 -0.95280878352E+00  0.98551611464E+02  0.94936309524E+02 0.  0.
         13    1    3    3    0    0 -0.35870510585E+02 -0.15115431598E+01  0.41602695393E+02  0.54952467828E+02  0.10566000000E+00 0. -1.
         22    1    1    0    0    0  0.26421184317E+02  0.72830681429E+00  0.95280878352E+00  0.26448388536E+02  0.00000000000E+00 0. -1.
</event>
<event>
 5    1  0.9041167E-005  0.9118800E+02  0.7818608E-02  0.1130116E+00
         25   -1    0    0    0    0  0.00000000000E+00  0.00000000000E+00  0.99999998245E-14  0.12500000000E+03  0.12500000000E+03 0.  0.
        -13    1    3    3    0    0 -0.32213829416E+02 -0.15370485124E+02  0.19159426002E+01  0.35744434793E+02  0.10566000000E+00 0. -1.
         23    2    1    0    0    0  0.18576597747E+02  0.65664728186E+01 -0.21514370612E+02  0.95826781255E+02  0.91278120673E+02 0.  0.
         13    1    3    3    0    0  0.50790427162E+02  0.21936957942E+02 -0.23430313213E+02  0.60082346462E+02  0.10566000000E+00 0.  1.
         22    1    1    0    0    0 -0.18576597747E+02 -0.65664728186E+01  0.21514370612E+02  0.29173218745E+02  0.00000000000E+00 0.  1.
</event>
<event>
 5    1  0.9041167E-005  0.9118800E+02  0.7818608E-02  0.1130116E+00
         25   -1    0    0    0    0  0.00000000000E+00  0.00000000000E+00  0.99999998245E-14  0.12500000000E+03  0.12500000000E+03 0.  0.
        -13    1    3    3    0    0 -0.32350332069E+02 -0.50109898444E+02  0.34233120077E+00  0.59646242646E+02  0.10566000000E+00 0.  1.
         23    2    1    0    0    0 -0.81081313290E+01 -0.25073785374E+02 -0.11212549734E+02  0.96361603080E+02  0.92007612566E+02 0.  0.
         13    1    3    3    0    0  0.24242200740E+02  0.25036113071E+02 -0.11554880934E+02  0.36715360435E+02  0.10566000000E+00 0. -1.
         22    1    1    0    0    0  0.81081313290E+01  0.25073785374E+02  0.11212549734E+02  0.28638396920E+02  0.00000000000E+00 0.  1.
</event>
<event>
 5    1  0.9041167E-005  0.9118800E+02  0.7818608E-02  0.1130116E+00
         25   -1    0    0    0    0  0.00000000000E+00  0.00000000000E+00  0.99999998245E-14  0.12500000000E+03  0.12500000000E+03 0.  0.
        -13    1    3    3    0    0 -0.16911704166E+02 -0.16811268485E+02 -0.21600389756E+02  0.32174718142E+02  0.10566000000E+00 0. -1.
         23    2    1    0    0    0  0.19056768849E+02  0.15960000264E+02  0.17502894903E+02  0.94598793159E+02  0.89580680337E+02 0.  0.
         13    1    3    3    0    0  0.35968473016E+02  0.32771268749E+02  0.39103284659E+02  0.62424075017E+02  0.10566000000E+00 0.  1.
         22    1    1    0    0    0 -0.19056768849E+02 -0.15960000264E+02 -0.17502894903E+02  0.30401206841E+02  0.00000000000E+00 0.  1.
</event>
<event>
 5    1  0.9041167E-005  0.9118800E+02  0.7818608E-02  0.1130116E+00
         25   -1    0    0    0    0  0.00000000000E+00  0.00000000000E+00  0.99999998245E-14  0.12500000000E+03  0.12500000000E+03 0.  0.
        -13    1    3    3    0    0  0.10391933051E+02  0.52164458543E+02  0.15632551319E+02  0.55439253534E+02  0.10566000000E+00 0.  1.
         23    2    1    0    0    0 -0.14903473068E+02  0.32341002536E+02  0.71184347940E+01  0.88685731889E+02  0.80910030109E+02 0.  0.
         13    1    3    3    0    0 -0.25295406119E+02 -0.19823456007E+02 -0.85141165245E+01  0.33246478355E+02  0.10566000000E+00 0. -1.
         22    1    1    0    0    0  0.14903473068E+02 -0.32341002536E+02 -0.71184347940E+01  0.36314268111E+02  0.00000000000E+00 0.  1.
</event>
<event>
 5    1  0.9041167E-005  0.9118800E+02  0.7818608E-02  0.1130116E+00
         25   -1    0    0    0    0  0.00000000000E+00  0.00000000000E+00  0.99999998245E-14  0.12500000000E+03  0.12500000000E+03 0.  0.
        -13    1    3    3    0    0  0.67194237086E+01  0.32494112451E+02 -0.13786542391E+02  0.35931850969E+02  0.10566000000E+00 0. -1.
         23    2    1    0    0    0 -0.97842663576E+01 -0.25401963628E+02 -0.90224917592E+01  0.96322535296E+02  0.91954520411E+02 0.  0.
         13    1    3    3    0    0 -0.16503690066E+02 -0.57896076078E+02  0.47640506318E+01  0.60390684327E+02  0.10566000000E+00 0.  1.
         22    1    1    0    0    0  0.97842663576E+01  0.25401963628E+02  0.90224917592E+01  0.28677464704E+02  0.00000000000E+00 0.  1.
</event>
<event>
 5    1  0.9041167E-005  0.9118800E+02  0.7818608E-02  0.1130116E+00
         25   -1    0    0    0    0  0.00000000000E+00  0.00000000000E+00  0.99999998245E-14  0.12500000000E+03  0.12500000000E+03 0.  0.
        -13    1    3    3    0    0  0.57819565321E+02 -0.33867455889E+01  0.21228333865E+02  0.61686509890E+02  0.10566000000E+00 0. -1.
         23    2    1    0    0    0  0.28449649565E+02 -0.75845908751E+01  0.14811523733E+02  0.92041088999E+02  0.85937606725E+02 0.  0.
         13    1    3    3    0    0 -0.29369915756E+02 -0.41978452862E+01 -0.64168101327E+01  0.30354579109E+02  0.10566000000E+00 0.  1.
         22    1    1    0    0    0 -0.28449649565E+02  0.75845908751E+01 -0.14811523733E+02  0.32958911001E+02  0.00000000000E+00 0. -1.
</event>
<event>
 5    1  0.9041167E-005  0.9118800E+02  0.7818608E-02  0.1130116E+00
         25   -1    0    0    0    0  0.00000000000E+00  0.00000000000E+00  0.99999998245E-14  0.12500000000E+03  0.12500000000E+03 0.  0.
        -13    1    3    3    0    0  0.56238408357E+02 -0.35253370786E+01  0.20445381237E+02  0.59943401255E+02  0.10566000000E+00 0.  1.
         23    2    1    0    0    0  0.23534706898E+02 -0.12523193363E+02  0.15333892254E+02  0.94245471025E+02  0.89086293875E+02 0.  0.
         13    1    3    3    0    0 -0.32703701459E+02 -0.89978562849E+01 -0.51114889834E+01  0.34302069770E+02  0.10566000000E+00 0. -1.
         22    1    1    0    0    0 -0.23534706898E+02  0.12523193363E+02 -0.15333892254E+02  0.30754528975E+02  0.00000000000E+00 0.  1.
</event>
<event>
 5    1  0.9041167E-005  0.9118800E+02  0.7818608E-02  0.1130116E+00
         25   -1    0    0    0    0  0.00000000000E+00  0.00000000000E+00  0.99999998245E-14  0.12500000000E+03  0.12500000000E+03 0.  0.
        -13    1    3    3    0    0 -0.24293419965E+02 -0.54606998534E+02  0.15003442418E+02  0.61621497798E+02  0.10566000000E+00 0.  1.
         23    2    1    0    0    0 -0.10954154889E+02 -0.27077679166E+02 -0.21680501215E+00  0.95789706904E+02  0.91227335410E+02 0.  0.
         13    1    3    3    0    0  0.13339265077E+02  0.27529319368E+02 -0.15220247430E+02  0.34168209106E+02  0.10566000000E+00 0. -1.
         22    1    1    0    0    0  0.10954154889E+02  0.27077679166E+02  0.21680501215E+00  0.29210293096E+02  0.00000000000E+00 0.  1.
</event>
<event>
 5    1  0.9041167E-005  0.9118800E+02  0.7818608E-02  0.1130116E+00
         25   -1    0    0    0    0  0.00000000000E+00  0.00000000000E+00  0.99999998245E-14  0.12500000000E+03  0.12500000000E+03 0.  0.
        -13    1    3    3    0    0 -0.46707448118E+02 -0.18879855027E+02  0.32161389074E+02  0.59769563715E+02  0.10566000000E+00 0.  1.
         23    2    1    0    0    0 -0.29410150094E+02 -0.24468435970E+01  0.65543503708E+01  0.94769163410E+02  0.89818098691E+02 0.  0.
         13    1    3    3    0    0  0.17297298023E+02  0.16433011430E+02 -0.25607038703E+02  0.34999599695E+02  0.10566000000E+00 0. -1.
         22    1    1    0    0    0  0.29410150094E+02  0.24468435970E+01 -0.65543503708E+01  0.30230836590E+02  0.00000000000E+00 0.  1.
</event>
<event>
 5    1  0.9041167E-005  0.9118800E+02  0.7818608E-02  0.1130116E+00
         25   -1    0    0    0    0  0.00000000000E+00  0.00000000000E+00  0.99999998245E-14  0.12500000000E+03  0.12500000000E+03 0.  0.
        -13    1    3    3    0    0  0.43519423020E+02  0.12347240343E+02 -0.39466704783E+02  0.60033544577E+02  0.10566000000E+00 0.  1.
         23    2    1    0    0    0  0.24379815868E+02  0.13384574074E+02 -0.94927243880E+01  0.95612348491E+02  0.90983993773E+02 0.  0.
         13    1    3    3    0    0 -0.19139607152E+02  0.10373337307E+01  0.29973980395E+02  0.35578803914E+02  0.10566000000E+00 0. -1.
         22    1    1    0    0    0 -0.24379815868E+02 -0.13384574074E+02  0.94927243880E+01  0.29387651509E+02  0.00000000000E+00 0.  1.
</event>
<event>
 5    1  0.9041167E-005  0.9118800E+02  0.7818608E-02  0.1130116E+00
         25   -1    0    0    0    0  0.00000000000E+00  0.00000000000E+00  0.99999998245E-14  0.12500000000E+03  0.12500000000E+03 0.  0.
        -13    1    3    3    0    0 -0.44125753097E+02 -0.10895043418E+02 -0.33815116609E+02  0.56650307438E+02  0.10566000000E+00 0. -1.
         23    2    1    0    0    0 -0.19339182971E+02  0.13999849382E+02 -0.17582446165E+02  0.95349667896E+02  0.90622386716E+02 0.  0.
         13    1    3    3    0    0  0.24786570126E+02  0.24894892800E+02  0.16232670444E+02  0.38699360459E+02  0.10566000000E+00 0.  1.
         22    1    1    0    0    0  0.19339182971E+02 -0.13999849382E+02  0.17582446165E+02  0.29650332104E+02  0.00000000000E+00 0. -1.
</event>
<event>
 5    1  0.9041167E-005  0.9118800E+02  0.7818608E-02  0.1130116E+00
         25   -1    0    0    0    0  0.00000000000E+00  0.00000000000E+00  0.99999998245E-14  0.12500000000E+03  0.12500000000E+03 0.  0.
        -13    1    3    3    0    0 -0.17737156233E+02 -0.38913870810E+02 -0.34875537884E+02  0.55183424680E+02  0.10566000000E+00 0. -1.
         23    2    1    0    0    0  0.13345640169E+02 -0.20114023718E+02 -0.14734552070E+02  0.96719492820E+02  0.92492557565E+02 0.  0.
         13    1    3    3    0    0  0.31082796402E+02  0.18799847092E+02  0.20140985814E+02  0.41536068139E+02  0.10566000000E+00 0.  1.
         22    1    1    0    0    0 -0.13345640169E+02  0.20114023718E+02  0.14734552070E+02  0.28280507180E+02  0.00000000000E+00 0. -1.
</event>
<event>
 5    1  0.9041167E-005  0.9118800E+02  0.7818608E-02  0.1130116E+00
         25   -1    0    0    0    0  0.00000000000E+00  0.00000000000E+00  0.99999998245E-14  0.12500000000E+03  0.12500000000E+03 0.  0.
        -13    1    3    3    0    0  0.10909821793E+02  0.45463813066E+02  0.26349496489E+02  0.53668329947E+02  0.10566000000E+00 0.  1.
         23    2    1    0    0    0  0.25608990790E+02  0.13152360978E+02  0.32319864686E+01  0.96030175266E+02  0.91556233084E+02 0.  0.
         13    1    3    3    0    0  0.14699168997E+02 -0.32311452088E+02 -0.23117510020E+02  0.42361845319E+02  0.10566000000E+00 0. -1.
         22    1    1    0    0    0 -0.25608990790E+02 -0.13152360978E+02 -0.32319864686E+01  0.28969824734E+02  0.00000000000E+00 0. -1.
</event>
<event>
 5    1  0.9041167E-005  0.9118800E+02  0.7818608E-02  0.1130116E+00
         25   -1    0    0    0    0  0.00000000000E+00  0.00000000000E+00  0.99999998245E-14  0.12500000000E+03  0.12500000000E+03 0.  0.
        -13    1    3    3    0    0  0.57002285771E+01  0.22866379785E+02  0.40927990568E+01  0.23919157561E+02  0.10566000000E+00 0. -1.
         23    2    1    0    0    0 -0.25942972147E+02 -0.18167347828E+02 -0.26159924720E+02  0.83921635959E+02  0.73180659943E+02 0.  0.
         13    1    3    3    0    0 -0.31643200724E+02 -0.41033727613E+02 -0.30252723777E+02  0.60002478397E+02  0.10566000000E+00 0.  1.
         22    1    1    0    0    0  0.25942972147E+02  0.18167347828E+02  0.26159924720E+02  0.41078364041E+02  0.00000000000E+00 0.  1.
</event>
<event>
 5    1  0.9041167E-005  0.9118800E+02  0.7818608E-02  0.1130116E+00
         25   -1    0    0    0    0  0.00000000000E+00  0.00000000000E+00  0.99999998245E-14  0.12500000000E+03  0.12500000000E+03 0.  0.
        -13    1    3    3    0    0  0.19003380205E+02  0.13542936615E+02 -0.36748690825E+02  0.43531793356E+02  0.10566000000E+00 0.  1.
         23    2    1    0    0    0  0.25783345672E+02 -0.10789494642E+02  0.88696188648E+01  0.95676558055E+02  0.91072166516E+02 0.  0.
         13    1    3    3    0    0  0.67799654668E+01 -0.24332431257E+02  0.45618309690E+02  0.52144764700E+02  0.10566000000E+00 0. -1.
         22    1    1    0    0    0 -0.25783345672E+02  0.10789494642E+02 -0.88696188648E+01  0.29323441945E+02  0.00000000000E+00 0. -1.
</event>
<event>
 5    1  0.9041167E-005  0.9118800E+02  0.7818608E-02  0.1130116E+00
         25   -1    0    0    0    0  0.00000000000E+00  0.00000000000E+00  0.99999998245E-14  0.12500000000E+03  0.12500000000E+03 0.  0.
        -13    1    3    3    0    0 -0.47798109579E+02 -0.15537313817E+02  0.10918321570E+02  0.51432366365E+02  0.10566000000E+00 0.  1.
         23    2    1    0    0    0 -0.25350996023E+02  0.14853727817E+02 -0.91663433901E+01  0.94221304762E+02  0.89052378916E+02 0.  0.
         13    1    3    3    0    0  0.22447113556E+02  0.30391041634E+02 -0.20084664960E+02  0.42788938397E+02  0.10566000000E+00 0. -1.
         22    1    1    0    0    0  0.25350996023E+02 -0.14853727817E+02  0.91663433901E+01  0.30778695238E+02  0.00000000000E+00 0.  1.
</event>
<event>
 5    1  0.9041167E-005  0.9118800E+02  0.7818608E-02  0.1130116E+00
         25   -1    0    0    0    0  0.00000000000E+00  0.00000000000E+00  0.99999998245E-14  0.12500000000E+03  0.12500000000E+03 0.  0.
        -13    1    3    3    0    0  0.18339115923E+02 -0.38283189114E+02  0.44846737401E+02  0.61750844213E+02  0.10566000000E+00 0.  1.
         23    2    1    0    0    0  0.11082956828E+02 -0.12085819915E+02  0.23645512580E+02  0.96224850300E+02  0.91821634570E+02 0.  0.
         13    1    3    3    0    0 -0.72561590954E+01  0.26197369198E+02 -0.21201224821E+02  0.34474006087E+02  0.10566000000E+00 0. -1.
         22    1    1    0    0    0 -0.11082956828E+02  0.12085819915E+02 -0.23645512580E+02  0.28775149700E+02  0.00000000000E+00 0.  1.
</event>
<event>
 5    1  0.9041167E-005  0.9118800E+02  0.7818608E-02  0.1130116E+00
         25   -1    0    0    0    0  0.00000000000E+00  0.00000000000E+00  0.99999998245E-14  0.12500000000E+03  0.12500000000E+03 0.  0.
        -13    1    3    3    0    0  0.12959659812E+02 -0.13089202422E+02  0.53038010453E+02  0.56145540512E+02  0.10566000000E+00 0.  1.
         23    2    1    0    0    0  0.21119788901E+02  0.63487693848E+01  0.20665909376E+02  0.94776959679E+02  0.89828948117E+02 0.  0.
         13    1    3    3    0    0  0.81601290886E+01  0.19437971807E+02 -0.32372101077E+02  0.38631419167E+02  0.10566000000E+00 0. -1.
         22    1    1    0    0    0 -0.21119788901E+02 -0.63487693848E+01 -0.20665909376E+02  0.30223040321E+02  0.00000000000E+00 0.  1.
</event>
<event>
 5    1  0.9041167E-005  0.9118800E+02  0.7818608E-02  0.1130116E+00
         25   -1    0    0    0    0  0.00000000000E+00  0.00000000000E+00  0.99999998245E-14  0.12500000000E+03  0.12500000000E+03 0.  0.
        -13    1    3    3    0    0  0.44524699437E+02  0.10347642337E+02  0.18074597685E+02  0.49155109677E+02  0.10566000000E+00 0.  1.
         23    2    1    0    0    0  0.21010140566E+02 -0.11195619138E+02 -0.16378930400E+02  0.96102988813E+02  0.91655590136E+02 0.  0.
         13    1    3    3    0    0 -0.23514558870E+02 -0.21543261474E+02 -0.34453528085E+02  0.46947879136E+02  0.10566000000E+00 0. -1.
         22    1    1    0    0    0 -0.21010140566E+02  0.11195619138E+02  0.16378930400E+02  0.28897011187E+02  0.00000000000E+00 0.  1.
</event>
<event>
 5    1  0.9041167E-005  0.9118800E+02  0.7818608E-02  0.1130116E+00
         25   -1    0    0    0    0  0.00000000000E+00  0.00000000000E+00  0.99999998245E-14  0.12500000000E+03  0.12500000000E+03 0.  0.
        -13    1    3    3    0    0  0.28098750859E+02 -0.23012223803E+02  0.50104658466E+02  0.61883682892E+02  0.10566000000E+00 0. -1.
         23    2    1    0    0    0  0.84062860786E+01 -0.14698384990E+02  0.24102558687E+02  0.95544245007E+02  0.90890380413E+02 0.  0.
         13    1    3    3    0    0 -0.19692464780E+02  0.83138388126E+01 -0.26002099779E+02  0.33660562115E+02  0.10566000000E+00 0.  1.
         22    1    1    0    0    0 -0.84062860786E+01  0.14698384990E+02 -0.24102558687E+02  0.29455754993E+02  0.00000000000E+00 0. -1.
</event>
<event>
 5    1  0.9041167E-005  0.9118800E+02  0.7818608E-02  0.1130116E+00
         25   -1    0    0    0    0  0.00000000000E+00  0.00000000000E+00  0.99999998245E-14  0.12500000000E+03  0.12500000000E+03 0.  0.
        -13    1    3    3    0    0  0.12824683295E+02  0.37161317766E+02  0.15671089310E+02  0.42320565260E+02  0.10566000000E+00 0.  1.
         23    2    1    0    0    0  0.16720163631E+02 -0.15383369482E+02  0.19375971579E+02  0.95139655007E+02  0.90332240932E+02 0.  0.
         13    1    3    3    0    0  0.38954803365E+01 -0.52544687248E+02  0.37048822696E+01  0.52819089747E+02  0.10566000000E+00 0. -1.
         22    1    1    0    0    0 -0.16720163631E+02  0.15383369482E+02 -0.19375971579E+02  0.29860344993E+02  0.00000000000E+00 0.  1.
</event>
<event>
 5    1  0.9041167E-005  0.9118800E+02  0.7818608E-02  0.1130116E+00
         25   -1    0    0    0    0  0.00000000000E+00  0.00000000000E+00  0.99999998245E-14  0.12500000000E+03  0.12500000000E+03 0.  0.
        -13    1    3    3    0    0  0.32962282202E+02 -0.95719077671E+01  0.70970912968E+01  0.35050154567E+02  0.10566000000E+00 0.  1.
         23    2    1    0    0    0 -0.19444742215E+02 -0.99163944312E+01 -0.21167592964E+02  0.94594410543E+02  0.89574564670E+02 0.  0.
         13    1    3    3    0    0 -0.52407024417E+02 -0.34448666411E+00 -0.28264684261E+02  0.59544255976E+02  0.10566000000E+00 0. -1.
         22    1    1    0    0    0  0.19444742215E+02  0.99163944312E+01  0.21167592964E+02  0.30405589457E+02  0.00000000000E+00 0. -1.
</event>
<event>
 5    1  0.9041167E-005  0.9118800E+02  0.7818608E-02  0.1130116E+00
         25   -1    0    0    0    0  0.00000000000E+00  0.00000000000E+00  0.99999998245E-14  0.12500000000E+03  0.12500000000E+03 0.  0.
        -13    1    3    3    0    0 -0.11609597749E+02 -0.50052913433E+01 -0.40691104896E+02  0.42610009189E+02  0.10566000000E+00 0.  1.
         23    2    1    0    0    0 -0.14008507830E+02 -0.25057415382E+02  0.78955082660E+01  0.95226666158E+02  0.90452565135E+02 0.  0.
         13    1    3    3    0    0 -0.23989100807E+01 -0.20052124039E+02  0.48586613162E+02  0.52616656970E+02  0.10566000000E+00 0. -1.
         22    1    1    0    0    0  0.14008507830E+02  0.25057415382E+02 -0.78955082660E+01  0.29773333842E+02  0.00000000000E+00 0. -1.
</event>
<event>
 5    1  0.9041167E-005  0.9118800E+02  0.7818608E-02  0.1130116E+00
         25   -1    0    0    0    0  0.00000000000E+00  0.00000000000E+00  0.99999998245E-14  0.12500000000E+03  0.12500000000E+03 0.  0.
        -13    1    3    3    0    0  0.10324014337E+02 -0.19757687697E+02 -0.27107964504E+02  0.35097071085E+02  0.10566000000E+00 0.  1.
         23    2    1    0    0    0 -0.23821470207E+02  0.19852440666E+02 -0.23630940608E-01  0.93990607848E+02  0.88727966064E+02 0.  0.
         13    1    3    3    0    0 -0.34145484544E+02  0.39610128364E+02  0.27084333563E+02  0.58893536762E+02  0.10566000000E+00 0. -1.
         22    1    1    0    0    0  0.23821470207E+02 -0.19852440666E+02  0.23630940608E-01  0.31009392152E+02  0.00000000000E+00 0. -1.
</event>
<event>
 5    1  0.9041167E-005  0.9118800E+02  0.7818608E-02  0.1130116E+00
         25   -1    0    0    0    0  0.00000000000E+00  0.00000000000E+00  0.99999998245E-14  0.12500000000E+03  0.12500000000E+03 0.  0.
        -13    1    3    3    0    0  0.31214009922E+02  0.12343283271E+01 -0.24136756293E+02  0.39476982537E+02  0.10566000000E+00 0.  1.
         23    2    1    0    0    0  0.97292289223E+01  0.38727469408E+01  0.27557272515E+02  0.95520187708E+02  0.90857288794E+02 0.  0.
         13    1    3    3    0    0 -0.21484781000E+02  0.26384186137E+01  0.51694028808E+02  0.56043205171E+02  0.10566000000E+00 0. -1.
         22    1    1    0    0    0 -0.97292289223E+01 -0.38727469408E+01 -0.27557272515E+02  0.29479812292E+02  0.00000000000E+00 0. -1.
</event>
<event>
 5    1  0.9041167E-005  0.9118800E+02  0.7818608E-02  0.1130116E+00
         25   -1    0    0    0    0  0.00000000000E+00  0.00000000000E+00  0.99999998245E-14  0.12500000000E+03  0.12500000000E+03 0.  0.
        -13    1    3    3    0    0 -0.19787787984E+02  0.26921670920E+02  0.18072323522E+02  0.37986220659E+02  0.10566000000E+00 0.  1.
         23    2    1    0    0    0 -0.16177485021E+02 -0.19293591730E+02 -0.15688944895E+02  0.95333576296E+02  0.90600188046E+02 0.  0.
         13    1    3    3    0    0  0.36103029623E+01 -0.46215262650E+02 -0.33761268418E+02  0.57347355637E+02  0.10566000000E+00 0. -1.
         22    1    1    0    0    0  0.16177485021E+02  0.19293591730E+02  0.15688944895E+02  0.29666423704E+02  0.00000000000E+00 0. -1.
</event>
<event>
 5    1  0.9041167E-005  0.9118800E+02  0.7818608E-02  0.1130116E+00
         25   -1    0    0    0    0  0.00000000000E+00  0.00000000000E+00  0.99999998245E-14  0.12500000000E+03  0.12500000000E+03 0.  0.
        -13    1    3    3    0    0 -0.28135625537E+02 -0.11175972054E+01 -0.13944829363E+02  0.31421837596E+02  0.10566000000E+00 0.  1.
         23    2    1    0    0    0  0.27415838065E+02 -0.19621092958E+02 -0.16820447682E+01  0.91244337656E+02  0.84770775707E+02 0.  0.
         13    1    3    3    0    0  0.55551463602E+02 -0.18503495753E+02  0.12262784595E+02  0.59822500060E+02  0.10566000000E+00 0. -1.
         22    1    1    0    0    0 -0.27415838065E+02  0.19621092958E+02  0.16820447682E+01  0.33755662344E+02  0.00000000000E+00 0. -1.
</event>
<event>
 5    1  0.9041167E-005  0.9118800E+02  0.7818608E-02  0.1130116E+00
         25   -1    0    0    0    0  0.00000000000E+00  0.00000000000E+00  0.99999998245E-14  0.12500000000E+03  0.12500000000E+03 0.  0.
        -13    1    3    3    0    0 -0.23639260629E+02 -0.58502199510E+01  0.49486842338E+02  0.55154314837E+02  0.10566000000E+00 0. -1.
         23    2    1    0    0    0  0.89469660294E+01 -0.98612331457E+01  0.26837153289E+02  0.95041279785E+02  0.90196008483E+02 0.  0.
         13    1    3    3    0    0  0.32586226658E+02 -0.40110131946E+01 -0.22649689049E+02  0.39886964947E+02  0.10566000000E+00 0.  1.
         22    1    1    0    0    0 -0.89469660294E+01  0.98612331457E+01 -0.26837153289E+02  0.29958720215E+02  0.00000000000E+00 0. -1.
</event>
<event>
 5    1  0.9041167E-005  0.9118800E+02  0.7818608E-02  0.1130116E+00
         25   -1    0    0    0    0  0.00000000000E+00  0.00000000000E+00  0.99999998245E-14  0.12500000000E+03  0.12500000000E+03 0.  0.
        -13    1    3    3    0    0 -0.29571177042E+02  0.89825609467E+01  0.14561139077E+02  0.34163999299E+02  0.10566000000E+00 0. -1.
         23    2    1    0    0    0  0.24054369256E+02 -0.17137807205E+02  0.43930102868E+00  0.95461718034E+02  0.90776811513E+02 0.  0.
         13    1    3    3    0    0  0.53625546299E+02 -0.26120368152E+02 -0.14121838048E+02  0.61297718735E+02  0.10566000000E+00 0.  1.
         22    1    1    0    0    0 -0.24054369256E+02  0.17137807205E+02 -0.43930102868E+00  0.29538281966E+02  0.00000000000E+00 0.  1.
</event>
<event>
 5    1  0.9041167E-005  0.9118800E+02  0.7818608E-02  0.1130116E+00
         25   -1    0    0    0    0  0.00000000000E+00  0.00000000000E+00  0.99999998245E-14  0.12500000000E+03  0.12500000000E+03 0.  0.
        -13    1    3    3    0    0 -0.16405825476E+02 -0.17052054967E+02  0.22610600879E+02  0.32728796561E+02  0.10566000000E+00 0.  1.
         23    2    1    0    0    0  0.13248380194E+02  0.18875584085E+02 -0.18944953343E+02  0.95155092403E+02  0.90353600375E+02 0.  0.
         13    1    3    3    0    0  0.29654205670E+02  0.35927639052E+02 -0.41555554222E+02  0.62426295842E+02  0.10566000000E+00 0. -1.
         22    1    1    0    0    0 -0.13248380194E+02 -0.18875584085E+02  0.18944953343E+02  0.29844907597E+02  0.00000000000E+00 0. -1.
</event>
<event>
 5    1  0.9041167E-005  0.9118800E+02  0.7818608E-02  0.1130116E+00
         25   -1    0    0    0    0  0.00000000000E+00  0.00000000000E+00  0.99999998245E-14  0.12500000000E+03  0.12500000000E+03 0.  0.
        -13    1    3    3    0    0  0.17531679992E+02 -0.20250023781E+02  0.29392848567E+02  0.39766493149E+02  0.10566000000E+00 0.  1.
         23    2    1    0    0    0  0.99976471982E+01 -0.49941830974E+00 -0.24971922656E+02  0.98096481842E+02  0.94335149655E+02 0.  0.
         13    1    3    3    0    0 -0.75340327936E+01  0.19750605472E+02 -0.54364771223E+02  0.58329988692E+02  0.10566000000E+00 0. -1.
         22    1    1    0    0    0 -0.99976471982E+01  0.49941830974E+00  0.24971922656E+02  0.26903518158E+02  0.00000000000E+00 0. -1.
</event>
<event>
 5    1  0.9041167E-005  0.9118800E+02  0.7818608E-02  0.1130116E+00
         25   -1    0    0    0    0  0.00000000000E+00  0.00000000000E+00  0.99999998245E-14  0.12500000000E+03  0.12500000000E+03 0.  0.
        -13    1    3    3    0    0  0.29301764672E+02  0.22364016343E+02 -0.15418701580E+02  0.39956102942E+02  0.10566000000E+00 0.  1.
         23    2    1    0    0    0 -0.16848779113E+02  0.88928135085E+01  0.18224697883E+02  0.98635191968E+02  0.95046293941E+02 0.  0.
         13    1    3    3    0    0 -0.46150543784E+02 -0.13471202835E+02  0.33643399463E+02  0.58679089025E+02  0.10566000000E+00 0. -1.
         22    1    1    0    0    0  0.16848779113E+02 -0.88928135085E+01 -0.18224697883E+02  0.26364808032E+02  0.00000000000E+00 0. -1.
</event>
<event>
 5    1  0.9041167E-005  0.9118800E+02  0.7818608E-02  0.1130116E+00
         25   -1    0    0    0    0  0.00000000000E+00  0.00000000000E+00  0.99999998245E-14  0.12500000000E+03  0.12500000000E+03 0.  0.
        -13    1    3    3    0    0 -0.12382684900E+02 -0.86481049122E+01 -0.38309197438E+02  0.41179198344E+02  0.10566000000E+00 0.  1.
         23    2    1    0    0    0 -0.36073790141E+02  0.30361074625E+01  0.12843016775E+01  0.88775895946E+02  0.81049207193E+02 0.  0.
         13    1    3    3    0    0 -0.23691105242E+02  0.11684212375E+02  0.39593499116E+02  0.47596697602E+02  0.10566000000E+00 0. -1.
         22    1    1    0    0    0  0.36073790141E+02 -0.30361074625E+01 -0.12843016775E+01  0.36224104054E+02  0.00000000000E+00 0. -1.
</event>
<event>
 5    1  0.9041167E-005  0.9118800E+02  0.7818608E-02  0.1130116E+00
         25   -1    0    0    0    0  0.00000000000E+00  0.00000000000E+00  0.99999998245E-14  0.12500000000E+03  0.12500000000E+03 0.  0.
        -13    1    3    3    0    0  0.36351860771E+02 -0.93309862490E+01  0.86916204492E+00  0.37540533995E+02  0.10566000000E+00 0. -1.
         23    2    1    0    0    0 -0.18333785074E+02 -0.23469336462E+02 -0.65418240461E+01  0.94508478376E+02  0.89454567206E+02 0.  0.
         13    1    3    3    0    0 -0.54685645845E+02 -0.14138350213E+02 -0.74109860910E+01  0.56967944382E+02  0.10566000000E+00 0.  1.
         22    1    1    0    0    0  0.18333785074E+02  0.23469336462E+02  0.65418240461E+01  0.30491521624E+02  0.00000000000E+00 0.  1.
</event>
<event>
 5    1  0.9041167E-005  0.9118800E+02  0.7818608E-02  0.1130116E+00
         25   -1    0    0    0    0  0.00000000000E+00  0.00000000000E+00  0.99999998245E-14  0.12500000000E+03  0.12500000000E+03 0.  0.
        -13    1    3    3    0    0  0.75602956642E-01 -0.13301819013E+02  0.37079136578E+02  0.39393116636E+02  0.10566000000E+00 0.  1.
         23    2    1    0    0    0 -0.10125815916E+02  0.27582885859E+01 -0.21548987676E+02  0.10103128761E+03  0.98146940359E+02 0.  0.
         13    1    3    3    0    0 -0.10201418873E+02  0.16060107599E+02 -0.58628124254E+02  0.61638170972E+02  0.10566000000E+00 0. -1.
         22    1    1    0    0    0  0.10125815916E+02 -0.27582885859E+01  0.21548987676E+02  0.23968712393E+02  0.00000000000E+00 0. -1.
</event>
<event>
 5    1  0.9041167E-005  0.9118800E+02  0.7818608E-02  0.1130116E+00
         25   -1    0    0    0    0  0.00000000000E+00  0.00000000000E+00  0.99999998245E-14  0.12500000000E+03  0.12500000000E+03 0.  0.
        -13    1    3    3    0    0 -0.28095868778E+02  0.25576226040E+02  0.37481952708E+02  0.53370676627E+02  0.10566000000E+00 0. -1.
         23    2    1    0    0    0 -0.18288535978E+01  0.33421543028E+02  0.23130255342E+02  0.84313970997E+02  0.73847767395E+02 0.  0.
         13    1    3    3    0    0  0.26267015180E+02  0.78453169883E+01 -0.14351697366E+02  0.30943294370E+02  0.10566000000E+00 0.  1.
         22    1    1    0    0    0  0.18288535978E+01 -0.33421543028E+02 -0.23130255342E+02  0.40686029003E+02  0.00000000000E+00 0. -1.
</event>
<event>
 5    1  0.9041167E-005  0.9118800E+02  0.7818608E-02  0.1130116E+00
         25   -1    0    0    0    0  0.00000000000E+00  0.00000000000E+00  0.99999998245E-14  0.12500000000E+03  0.12500000000E+03 0.  0.
        -13    1    3    3    0    0  0.14527307827E+02 -0.25309324405E+02 -0.13007881999E+02  0.31950285330E+02  0.10566000000E+00 0.  1.
         23    2    1    0    0    0  0.27149573799E+02  0.26723855374E+02 -0.10182695080E+02  0.85567131950E+02  0.75939337550E+02 0.  0.
         13    1    3    3    0    0  0.12622265972E+02  0.52033179780E+02  0.28251869198E+01  0.53616846620E+02  0.10566000000E+00 0. -1.
         22    1    1    0    0    0 -0.27149573799E+02 -0.26723855374E+02  0.10182695080E+02  0.39432868050E+02  0.00000000000E+00 0. -1.
</event>
<event>
 5    1  0.9041167E-005  0.9118800E+02  0.7818608E-02  0.1130116E+00
         25   -1    0    0    0    0  0.00000000000E+00  0.00000000000E+00  0.99999998245E-14  0.12500000000E+03  0.12500000000E+03 0.  0.
        -13    1    3    3    0    0  0.34261669293E+02 -0.14018507957E+02  0.24368930438E+02  0.44319707612E+02  0.10566000000E+00 0.  1.
         23    2    1    0    0    0 -0.17348459544E+01 -0.27017077710E+02 -0.10372654645E+02  0.96008205594E+02  0.91526233390E+02 0.  0.
         13    1    3    3    0    0 -0.35996515248E+02 -0.12998569753E+02 -0.34741585082E+02  0.51688497982E+02  0.10566000000E+00 0. -1.
         22    1    1    0    0    0  0.17348459544E+01  0.27017077710E+02  0.10372654645E+02  0.28991794406E+02  0.00000000000E+00 0.  1.
</event>
<event>
 5    1  0.9041167E-005  0.9118800E+02  0.7818608E-02  0.1130116E+00
         25   -1    0    0    0    0  0.00000000000E+00  0.00000000000E+00  0.99999998245E-14  0.12500000000E+03  0.12500000000E+03 0.  0.
        -13    1    3    3    0    0 -0.27929094112E+01 -0.23001560021E+02 -0.47030128639E+02  0.52428201096E+02  0.10566000000E+00 0.  1.
         23    2    1    0    0    0 -0.18168015274E+02  0.73640633311E+01 -0.26000645506E+02  0.92437141182E+02  0.86511763913E+02 0.  0.
         13    1    3    3    0    0 -0.15375105862E+02  0.30365623352E+02  0.21029483133E+02  0.40008940085E+02  0.10566000000E+00 0. -1.
         22    1    1    0    0    0  0.18168015274E+02 -0.73640633311E+01  0.26000645506E+02  0.32562858818E+02  0.00000000000E+00 0. -1.
</event>
<event>
 5    1  0.9041167E-005  0.9118800E+02  0.7818608E-02  0.1130116E+00
         25   -1    0    0    0    0  0.00000000000E+00  0.00000000000E+00  0.99999998245E-14  0.12500000000E+03  0.12500000000E+03 0.  0.
        -13    1    3    3    0    0  0.19633837877E+02 -0.17970971115E+02 -0.33986228324E+02  0.43168487028E+02  0.10566000000E+00 0. -1.
         23    2    1    0    0    0 -0.25836208822E+02 -0.64777172551E+01 -0.63062345412E+01  0.97627767697E+02  0.93712015901E+02 0.  0.
         13    1    3    3    0    0 -0.45470046699E+02  0.11493253860E+02  0.27679993783E+02  0.54459280669E+02  0.10566000000E+00 0.  1.
         22    1    1    0    0    0  0.25836208822E+02  0.64777172551E+01  0.63062345412E+01  0.27372232303E+02  0.00000000000E+00 0.  1.
</event>
<event>
 5    1  0.9041167E-005  0.9118800E+02  0.7818608E-02  0.1130116E+00
         25   -1    0    0    0    0  0.00000000000E+00  0.00000000000E+00  0.99999998245E-14  0.12500000000E+03  0.12500000000E+03 0.  0.
        -13    1    3    3    0    0  0.46878133902E+01  0.12443215614E+02  0.54807633897E+02  0.56397669336E+02  0.10566000000E+00 0. -1.
         23    2    1    0    0    0  0.16059572005E+02 -0.55178047114E+01  0.37584054823E+02  0.83757822575E+02  0.72900313057E+02 0.  0.
         13    1    3    3    0    0  0.11371758615E+02 -0.17961020325E+02 -0.17223579074E+02  0.27360153239E+02  0.10566000000E+00 0.  1.
         22    1    1    0    0    0 -0.16059572005E+02  0.55178047114E+01 -0.37584054823E+02  0.41242177425E+02  0.00000000000E+00 0. -1.
</event>
<event>
 5    1  0.9041167E-005  0.9118800E+02  0.7818608E-02  0.1130116E+00
         25   -1    0    0    0    0  0.00000000000E+00  0.00000000000E+00  0.99999998245E-14  0.12500000000E+03  0.12500000000E+03 0.  0.
        -13    1    3    3    0    0 -0.26905254291E+02 -0.19869254692E+02  0.50765791813E+02  0.60793558647E+02  0.10566000000E+00 0. -1.
         23    2    1    0    0    0 -0.19623769337E+02 -0.16569035563E+01  0.25790656946E+02  0.92550105731E+02  0.86674831599E+02 0.  0.
         13    1    3    3    0    0  0.72814849540E+01  0.18212351136E+02 -0.24975134867E+02  0.31756547084E+02  0.10566000000E+00 0.  1.
         22    1    1    0    0    0  0.19623769337E+02  0.16569035563E+01 -0.25790656946E+02  0.32449894269E+02  0.00000000000E+00 0. -1.
</event>
<event>
 5    1  0.9041167E-005  0.9118800E+02  0.7818608E-02  0.1130116E+00
         25   -1    0    0    0    0  0.00000000000E+00  0.00000000000E+00  0.99999998245E-14  0.12500000000E+03  0.12500000000E+03 0.  0.
        -13    1    3    3    0    0 -0.12067508478E+02 -0.10539383692E+02 -0.33170524704E+02  0.36837457060E+02  0.10566000000E+00 0.  1.
         23    2    1    0    0    0 -0.13496674963E+02  0.22813672752E+02  0.14307993865E+02  0.94877872122E+02  0.89969261586E+02 0.  0.
         13    1    3    3    0    0 -0.14291664858E+01  0.33353056443E+02  0.47478518569E+02  0.58040415062E+02  0.10566000000E+00 0. -1.
         22    1    1    0    0    0  0.13496674963E+02 -0.22813672752E+02 -0.14307993865E+02  0.30122127878E+02  0.00000000000E+00 0. -1.
</event>
<event>
 5    1  0.9041167E-005  0.9118800E+02  0.7818608E-02  0.1130116E+00
         25   -1    0    0    0    0  0.00000000000E+00  0.00000000000E+00  0.99999998245E-14  0.12500000000E+03  0.12500000000E+03 0.  0.
        -13    1    3    3    0    0 -0.42338338019E+02  0.32422846526E+02  0.26490995223E+02  0.59544603744E+02  0.10566000000E+00 0.  1.
         23    2    1    0    0    0 -0.12583028656E+02  0.13196203557E+02  0.23722875904E+02  0.95079317527E+02  0.90248708477E+02 0.  0.
         13    1    3    3    0    0  0.29755309362E+02 -0.19226642969E+02 -0.27681193191E+01  0.35534713784E+02  0.10566000000E+00 0. -1.
         22    1    1    0    0    0  0.12583028656E+02 -0.13196203557E+02 -0.23722875904E+02  0.29920682473E+02  0.00000000000E+00 0.  1.
</event>
<event>
 5    1  0.9041167E-005  0.9118800E+02  0.7818608E-02  0.1130116E+00
         25   -1    0    0    0    0  0.00000000000E+00  0.00000000000E+00  0.99999998245E-14  0.12500000000E+03  0.12500000000E+03 0.  0.
        -13    1    3    3    0    0  0.90394971969E+01  0.43273031951E+02  0.27709691437E+02  0.52173805376E+02  0.10566000000E+00 0. -1.
         23    2    1    0    0    0  0.18750910558E+02  0.90405828985E+00  0.22101440983E+02  0.96001936933E+02  0.91517671699E+02 0.  0.
         13    1    3    3    0    0  0.97114133611E+01 -0.42368973661E+02 -0.56082504543E+01  0.43828131557E+02  0.10566000000E+00 0.  1.
         22    1    1    0    0    0 -0.18750910558E+02 -0.90405828985E+00 -0.22101440983E+02  0.28998063067E+02  0.00000000000E+00 0.  1.
</event>
<event>
 5    1  0.9041167E-005  0.9118800E+02  0.7818608E-02  0.1130116E+00
         25   -1    0    0    0    0  0.00000000000E+00  0.00000000000E+00  0.99999998245E-14  0.12500000000E+03  0.12500000000E+03 0.  0.
        -13    1    3    3    0    0 -0.27189839393E+02  0.19233408702E+02  0.26998143729E+02  0.42873328602E+02  0.10566000000E+00 0. -1.
         23    2    1    0    0    0  0.42291967309E+01 -0.22119557902E+02  0.19231216852E+02  0.95385803264E+02  0.90672216339E+02 0.  0.
         13    1    3    3    0    0  0.31419036124E+02 -0.41352966604E+02 -0.77669268778E+01  0.52512474662E+02  0.10566000000E+00 0.  1.
         22    1    1    0    0    0 -0.42291967309E+01  0.22119557902E+02 -0.19231216852E+02  0.29614196736E+02  0.00000000000E+00 0.  1.
</event>
<event>
 5    1  0.9041167E-005  0.9118800E+02  0.7818608E-02  0.1130116E+00
         25   -1    0    0    0    0  0.00000000000E+00  0.00000000000E+00  0.99999998245E-14  0.12500000000E+03  0.12500000000E+03 0.  0.
        -13    1    3    3    0    0  0.14031907712E+02 -0.96083945067E+01 -0.43777517869E+02  0.46964858286E+02  0.10566000000E+00 0.  1.
         23    2    1    0    0    0  0.29567680740E+02 -0.48976526917E+01  0.14262621578E+01  0.94995517502E+02  0.90132565566E+02 0.  0.
         13    1    3    3    0    0  0.15535773028E+02  0.47107418150E+01  0.45203780027E+02  0.48030659216E+02  0.10566000000E+00 0. -1.
         22    1    1    0    0    0 -0.29567680740E+02  0.48976526917E+01 -0.14262621578E+01  0.30004482498E+02  0.00000000000E+00 0. -1.
</event>
<event>
 5    1  0.9041167E-005  0.9118800E+02  0.7818608E-02  0.1130116E+00
         25   -1    0    0    0    0  0.00000000000E+00  0.00000000000E+00  0.99999998245E-14  0.12500000000E+03  0.12500000000E+03 0.  0.
        -13    1    3    3    0    0  0.21643101014E+02 -0.22425877555E+02  0.32027107277E+02  0.44688819297E+02  0.10566000000E+00 0.  1.
         23    2    1    0    0    0 -0.22946726864E+02 -0.30306946036E+01  0.19067213542E+02  0.95011735365E+02  0.90155054441E+02 0.  0.
         13    1    3    3    0    0 -0.44589827879E+02  0.19395182951E+02 -0.12959893735E+02  0.50322916068E+02  0.10566000000E+00 0. -1.
         22    1    1    0    0    0  0.22946726864E+02  0.30306946036E+01 -0.19067213542E+02  0.29988264635E+02  0.00000000000E+00 0. -1.
</event>
<event>
 5    1  0.9041167E-005  0.9118800E+02  0.7818608E-02  0.1130116E+00
         25   -1    0    0    0    0  0.00000000000E+00  0.00000000000E+00  0.99999998245E-14  0.12500000000E+03  0.12500000000E+03 0.  0.
        -13    1    3    3    0    0  0.26927691572E+02 -0.37895180955E+02  0.25098482627E+02  0.52830770458E+02  0.10566000000E+00 0. -1.
         23    2    1    0    0    0 -0.11964081323E+02 -0.23149001419E+02  0.89859210252E+01  0.97436214243E+02  0.93456158495E+02 0.  0.
         13    1    3    3    0    0 -0.38891772895E+02  0.14746179536E+02 -0.16112561601E+02  0.44605443784E+02  0.10566000000E+00 0.  1.
         22    1    1    0    0    0  0.11964081323E+02  0.23149001419E+02 -0.89859210252E+01  0.27563785757E+02  0.00000000000E+00 0. -1.
</event>
<event>
 5    1  0.9041167E-005  0.9118800E+02  0.7818608E-02  0.1130116E+00
         25   -1    0    0    0    0  0.00000000000E+00  0.00000000000E+00  0.99999998245E-14  0.12500000000E+03  0.12500000000E+03 0.  0.
        -13    1    3    3    0    0  0.60572938816E+01 -0.40330863763E+02 -0.44232864650E+02  0.60164996968E+02  0.10566000000E+00 0.  1.
         23    2    1    0    0    0  0.12777434659E+02 -0.13127378874E+02 -0.24371076657E+02  0.94511636810E+02  0.89458980558E+02 0.  0.
         13    1    3    3    0    0  0.67201407773E+01  0.27203484888E+02  0.19861787992E+02  0.34346639842E+02  0.10566000000E+00 0. -1.
         22    1    1    0    0    0 -0.12777434659E+02  0.13127378874E+02  0.24371076657E+02  0.30488363190E+02  0.00000000000E+00 0.  1.
</event>
<event>
 5    1  0.9041167E-005  0.9118800E+02  0.7818608E-02  0.1130116E+00
         25   -1    0    0    0    0  0.00000000000E+00  0.00000000000E+00  0.99999998245E-14  0.12500000000E+03  0.12500000000E+03 0.  0.
        -13    1    3    3    0    0 -0.31572546990E+02 -0.40672070925E+01 -0.25980873178E+02  0.41089960234E+02  0.10566000000E+00 0. -1.
         23    2    1    0    0    0 -0.44338858241E+01 -0.24315685923E+02  0.16400853238E+02  0.95336893077E+02  0.90604764054E+02 0.  0.
         13    1    3    3    0    0  0.27138661165E+02 -0.20248478830E+02  0.42381726416E+02  0.54246932842E+02  0.10566000000E+00 0.  1.
         22    1    1    0    0    0  0.44338858241E+01  0.24315685923E+02 -0.16400853238E+02  0.29663106923E+02  0.00000000000E+00 0.  1.
</event>
<event>
 5    1  0.9041167E-005  0.9118800E+02  0.7818608E-02  0.1130116E+00
         25   -1    0    0    0    0  0.00000000000E+00  0.00000000000E+00  0.99999998245E-14  0.12500000000E+03  0.12500000000E+03 0.  0.
        -13    1    3    3    0    0  0.37599985102E+02 -0.11094088390E+01 -0.81030417182E+01  0.38479346626E+02  0.10566000000E+00 0.  1.
         23    2    1    0    0    0 -0.16680619229E+02 -0.20432930221E+02 -0.11560887698E+02  0.96200662861E+02  0.91788701458E+02 0.  0.
         13    1    3    3    0    0 -0.54280604331E+02 -0.19323521382E+02 -0.34578459795E+01  0.57721316235E+02  0.10566000000E+00 0. -1.
         22    1    1    0    0    0  0.16680619229E+02  0.20432930221E+02  0.11560887698E+02  0.28799337139E+02  0.00000000000E+00 0. -1.
</event>
<event>
 5    1  0.9041167E-005  0.9118800E+02  0.7818608E-02  0.1130116E+00
         25   -1    0    0    0    0  0.00000000000E+00  0.00000000000E+00  0.99999998245E-14  0.12500000000E+03  0.12500000000E+03 0.  0.
        -13    1    3    3    0    0 -0.20888473444E+02  0.32737550496E+02 -0.16982673143E+02  0.42385113972E+02  0.10566000000E+00 0.  1.
         23    2    1    0    0    0  0.22108720386E+02  0.16743250415E+01 -0.19477151008E+02  0.95487997478E+02  0.90812991194E+02 0.  0.
         13    1    3    3    0    0  0.42997193830E+02 -0.31063225454E+02 -0.24944778652E+01  0.53102883507E+02  0.10566000000E+00 0. -1.
         22    1    1    0    0    0 -0.22108720386E+02 -0.16743250415E+01  0.19477151008E+02  0.29512002522E+02  0.00000000000E+00 0.  1.
</event>
<event>
 5    1  0.9041167E-005  0.9118800E+02  0.7818608E-02  0.1130116E+00
         25   -1    0    0    0    0  0.00000000000E+00  0.00000000000E+00  0.99999998245E-14  0.12500000000E+03  0.12500000000E+03 0.  0.
        -13    1    3    3    0    0  0.32097530569E+02 -0.17058585324E+02 -0.24631932079E+02  0.43908883427E+02  0.10566000000E+00 0.  1.
         23    2    1    0    0    0  0.16925500859E+02  0.17526229657E+02  0.13135950442E+02  0.97319781443E+02  0.93300296681E+02 0.  0.
         13    1    3    3    0    0 -0.15172029710E+02  0.34584814981E+02  0.37767882521E+02  0.53410898016E+02  0.10566000000E+00 0. -1.
         22    1    1    0    0    0 -0.16925500859E+02 -0.17526229657E+02 -0.13135950442E+02  0.27680218557E+02  0.00000000000E+00 0. -1.
</event>
<event>
 5    1  0.9041167E-005  0.9118800E+02  0.7818608E-02  0.1130116E+00
         25   -1    0    0    0    0  0.00000000000E+00  0.00000000000E+00  0.99999998245E-14  0.12500000000E+03  0.12500000000E+03 0.  0.
        -13    1    3    3    0    0  0.13885850832E+02  0.40977681746E+02 -0.22266797560E+02  0.48660134527E+02  0.10566000000E+00 0.  1.
         23    2    1    0    0    0  0.35496437270E+01 -0.67962432949E+01 -0.26203449379E+02  0.97697808644E+02  0.93805395159E+02 0.  0.
         13    1    3    3    0    0 -0.10336207105E+02 -0.47773925041E+02 -0.39366518191E+01  0.49037674116E+02  0.10566000000E+00 0. -1.
         22    1    1    0    0    0 -0.35496437270E+01  0.67962432949E+01  0.26203449379E+02  0.27302191356E+02  0.00000000000E+00 0.  1.
</event>
<event>
 5    1  0.9041167E-005  0.9118800E+02  0.7818608E-02  0.1130116E+00
         25   -1    0    0    0    0  0.00000000000E+00  0.00000000000E+00  0.99999998245E-14  0.12500000000E+03  0.12500000000E+03 0.  0.
        -13    1    3    3    0    0 -0.49558788612E+02 -0.48088247672E+01 -0.93407228366E+00  0.49800421478E+02  0.10566000000E+00 0. -1.
         23    2    1    0    0    0 -0.12599760894E+02 -0.19266374477E+02 -0.20614458599E+02  0.94098494157E+02  0.88879826390E+02 0.  0.
         13    1    3    3    0    0  0.36959027718E+02 -0.14457549710E+02 -0.19680386315E+02  0.44298072678E+02  0.10566000000E+00 0.  1.
         22    1    1    0    0    0  0.12599760894E+02  0.19266374477E+02  0.20614458599E+02  0.30901505843E+02  0.00000000000E+00 0.  1.
</event>
<event>
 5    1  0.9041167E-005  0.9118800E+02  0.7818608E-02  0.1130116E+00
         25   -1    0    0    0    0  0.00000000000E+00  0.00000000000E+00  0.99999998245E-14  0.12500000000E+03  0.12500000000E+03 0.  0.
        -13    1    3    3    0    0 -0.18302912608E+02 -0.28211124183E+02  0.21790151769E+02  0.40071012163E+02  0.10566000000E+00 0. -1.
         23    2    1    0    0    0 -0.69120776231E+01 -0.64772320964E+01 -0.27924961745E+02  0.95512123828E+02  0.90846193960E+02 0.  0.
         13    1    3    3    0    0  0.11390834985E+02  0.21733892087E+02 -0.49715113514E+02  0.55441111665E+02  0.10566000000E+00 0.  1.
         22    1    1    0    0    0  0.69120776231E+01  0.64772320964E+01  0.27924961745E+02  0.29487876172E+02  0.00000000000E+00 0.  1.
</event>
<event>
 5    1  0.9041167E-005  0.9118800E+02  0.7818608E-02  0.1130116E+00
         25   -1    0    0    0    0  0.00000000000E+00  0.00000000000E+00  0.99999998245E-14  0.12500000000E+03  0.12500000000E+03 0.  0.
        -13    1    3    3    0    0  0.30524721376E+02 -0.19178956733E+02 -0.18326647511E+02  0.40440921966E+02  0.10566000000E+00 0.  1.
         23    2    1    0    0    0  0.16680635150E+02  0.25782350033E+02  0.64662508254E+01  0.93618706815E+02  0.88202475610E+02 0.  0.
         13    1    3    3    0    0 -0.13844086226E+02  0.44961306765E+02  0.24792898337E+02  0.53177784849E+02  0.10566000000E+00 0. -1.
         22    1    1    0    0    0 -0.16680635150E+02 -0.25782350033E+02 -0.64662508254E+01  0.31381293185E+02  0.00000000000E+00 0. -1.
</event>
<event>
 5    1  0.9041167E-005  0.9118800E+02  0.7818608E-02  0.1130116E+00
         25   -1    0    0    0    0  0.00000000000E+00  0.00000000000E+00  0.99999998245E-14  0.12500000000E+03  0.12500000000E+03 0.  0.
        -13    1    3    3    0    0 -0.26069571316E+02  0.23123891726E+02 -0.15794630499E+02  0.38259880211E+02  0.10566000000E+00 0. -1.
         23    2    1    0    0    0  0.27357811201E+02  0.15619016969E+01 -0.18649921697E+01  0.97534247391E+02  0.93587188481E+02 0.  0.
         13    1    3    3    0    0  0.53427382516E+02 -0.21561990029E+02  0.13929638329E+02  0.59274367180E+02  0.10566000000E+00 0.  1.
         22    1    1    0    0    0 -0.27357811201E+02 -0.15619016969E+01  0.18649921697E+01  0.27465752609E+02  0.00000000000E+00 0.  1.
</event>
<event>
 5    1  0.9041167E-005  0.9118800E+02  0.7818608E-02  0.1130116E+00
         25   -1    0    0    0    0  0.00000000000E+00  0.00000000000E+00  0.99999998245E-14  0.12500000000E+03  0.12500000000E+03 0.  0.
        -13    1    3    3    0    0 -0.26956347976E+02  0.48851811541E+02  0.17282679015E+02  0.58411012189E+02  0.10566000000E+00 0.  1.
         23    2    1    0    0    0 -0.34828944277E+01  0.28540059163E+02 -0.38906631745E+01  0.95986162085E+02  0.91496122984E+02 0.  0.
         13    1    3    3    0    0  0.23473453548E+02 -0.20311752378E+02 -0.21173342190E+02  0.37575149895E+02  0.10566000000E+00 0. -1.
         22    1    1    0    0    0  0.34828944277E+01 -0.28540059163E+02  0.38906631745E+01  0.29013837915E+02  0.00000000000E+00 0.  1.
</event>
<event>
 5    1  0.9041167E-005  0.9118800E+02  0.7818608E-02  0.1130116E+00
         25   -1    0    0    0    0  0.00000000000E+00  0.00000000000E+00  0.99999998245E-14  0.12500000000E+03  0.12500000000E+03 0.  0.
        -13    1    3    3    0    0 -0.42303185357E+02  0.31602893421E+02 -0.11786761749E+02  0.54103985809E+02  0.10566000000E+00 0.  1.
         23    2    1    0    0    0 -0.22646784667E+02 -0.48577583004E+01 -0.17570648122E+02  0.95927636029E+02  0.91416131001E+02 0.  0.
         13    1    3    3    0    0  0.19656400690E+02 -0.36460651721E+02 -0.57838863737E+01  0.41823650219E+02  0.10566000000E+00 0. -1.
         22    1    1    0    0    0  0.22646784667E+02  0.48577583004E+01  0.17570648122E+02  0.29072363971E+02  0.00000000000E+00 0.  1.
</event>
<event>
 5    1  0.9041167E-005  0.9118800E+02  0.7818608E-02  0.1130116E+00
         25   -1    0    0    0    0  0.00000000000E+00  0.00000000000E+00  0.99999998245E-14  0.12500000000E+03  0.12500000000E+03 0.  0.
        -13    1    3    3    0    0  0.66297000353E+00  0.31787170766E+02 -0.12784777405E+02  0.34268432293E+02  0.10566000000E+00 0. -1.
         23    2    1    0    0    0 -0.11160066530E+02 -0.18908086871E+02  0.19593852007E+02  0.95572430094E+02  0.90929134625E+02 0.  0.
         13    1    3    3    0    0 -0.11823036533E+02 -0.50695257637E+02  0.32378629413E+02  0.61303997801E+02  0.10566000000E+00 0.  1.
         22    1    1    0    0    0  0.11160066530E+02  0.18908086871E+02 -0.19593852007E+02  0.29427569906E+02  0.00000000000E+00 0.  1.
</event>
<event>
 5    1  0.9041167E-005  0.9118800E+02  0.7818608E-02  0.1130116E+00
         25   -1    0    0    0    0  0.00000000000E+00  0.00000000000E+00  0.99999998245E-14  0.12500000000E+03  0.12500000000E+03 0.  0.
        -13    1    3    3    0    0 -0.25417903213E+02  0.43491809785E+02 -0.21768038210E+02  0.54876825470E+02  0.10566000000E+00 0. -1.
         23    2    1    0    0    0 -0.44705078450E+00  0.11779385453E+02 -0.26962368092E+02  0.95573429198E+02  0.90930508079E+02 0.  0.
         13    1    3    3    0    0  0.24970852429E+02 -0.31712424332E+02 -0.51943298825E+01  0.40696603728E+02  0.10566000000E+00 0.  1.
         22    1    1    0    0    0  0.44705078450E+00 -0.11779385453E+02  0.26962368092E+02  0.29426570802E+02  0.00000000000E+00 0. -1.
</event>
<event>
 5    1  0.9041167E-005  0.9118800E+02  0.7818608E-02  0.1130116E+00
         25   -1    0    0    0    0  0.00000000000E+00  0.00000000000E+00  0.99999998245E-14  0.12500000000E+03  0.12500000000E+03 0.  0.
        -13    1    3    3    0    0  0.41351541874E+02  0.15356405928E+02  0.34720386616E+02  0.56136312928E+02  0.10566000000E+00 0.  1.
         23    2    1    0    0    0  0.53174403409E+01  0.33872241996E+00  0.28907998108E+02  0.95605064054E+02  0.90973985367E+02 0.  0.
         13    1    3    3    0    0 -0.36034101533E+02 -0.15017683509E+02 -0.58123885080E+01  0.39468751126E+02  0.10566000000E+00 0. -1.
         22    1    1    0    0    0 -0.53174403409E+01 -0.33872241996E+00 -0.28907998108E+02  0.29394935946E+02  0.00000000000E+00 0.  1.
</event>
<event>
 5    1  0.9041167E-005  0.9118800E+02  0.7818608E-02  0.1130116E+00
         25   -1    0    0    0    0  0.00000000000E+00  0.00000000000E+00  0.99999998245E-14  0.12500000000E+03  0.12500000000E+03 0.  0.
        -13    1    3    3    0    0  0.22053685911E+02  0.11791373785E+02  0.22198313461E+02  0.33439166296E+02  0.10566000000E+00 0. -1.
         23    2    1    0    0    0 -0.17323420497E+01 -0.36898101890E+01 -0.30999340380E+02  0.93733807200E+02  0.88365444603E+02 0.  0.
         13    1    3    3    0    0 -0.23786027961E+02 -0.15481183974E+02 -0.53197653842E+02  0.60294640904E+02  0.10566000000E+00 0.  1.
         22    1    1    0    0    0  0.17323420497E+01  0.36898101890E+01  0.30999340380E+02  0.31266192800E+02  0.00000000000E+00 0.  1.
</event>
<event>
 5    1  0.9041167E-005  0.9118800E+02  0.7818608E-02  0.1130116E+00
         25   -1    0    0    0    0  0.00000000000E+00  0.00000000000E+00  0.99999998245E-14  0.12500000000E+03  0.12500000000E+03 0.  0.
        -13    1    3    3    0    0  0.31799740279E+02  0.26311813070E+02 -0.26555146060E+01  0.41359375125E+02  0.10566000000E+00 0. -1.
         23    2    1    0    0    0 -0.21888819662E+02  0.19070438552E+02  0.29304989978E+01  0.95821414065E+02  0.91270770328E+02 0.  0.
         13    1    3    3    0    0 -0.53688559942E+02 -0.72413745185E+01  0.55860136038E+01  0.54462038941E+02  0.10566000000E+00 0.  1.
         22    1    1    0    0    0  0.21888819662E+02 -0.19070438552E+02 -0.29304989978E+01  0.29178585935E+02  0.00000000000E+00 0.  1.
</event>
<event>
 5    1  0.9041167E-005  0.9118800E+02  0.7818608E-02  0.1130116E+00
         25   -1    0    0    0    0  0.00000000000E+00  0.00000000000E+00  0.99999998245E-14  0.12500000000E+03  0.12500000000E+03 0.  0.
        -13    1    3    3    0    0 -0.34804977121E+02 -0.31367809364E+02 -0.33110600395E+02  0.57372893593E+02  0.10566000000E+00 0. -1.
         23    2    1    0    0    0 -0.24646636338E+02 -0.16167431816E+02  0.37168294709E+00  0.95521521706E+02  0.90859124069E+02 0.  0.
         13    1    3    3    0    0  0.10158340782E+02  0.15200377549E+02  0.33482283342E+02  0.38148628113E+02  0.10566000000E+00 0.  1.
         22    1    1    0    0    0  0.24646636338E+02  0.16167431816E+02 -0.37168294709E+00  0.29478478294E+02  0.00000000000E+00 0. -1.
</event>
<event>
 5    1  0.9041167E-005  0.9118800E+02  0.7818608E-02  0.1130116E+00
         25   -1    0    0    0    0  0.00000000000E+00  0.00000000000E+00  0.99999998245E-14  0.12500000000E+03  0.12500000000E+03 0.  0.
        -13    1    3    3    0    0 -0.44859685338E+01  0.32374496592E+02 -0.13970671153E+02  0.35544658668E+02  0.10566000000E+00 0.  1.
         23    2    1    0    0    0 -0.21698392839E+02 -0.20985267345E+02  0.42896721247E+01  0.94510608660E+02  0.89457543925E+02 0.  0.
         13    1    3    3    0    0 -0.17212424305E+02 -0.53359763938E+02  0.18260343277E+02  0.58965949993E+02  0.10566000000E+00 0. -1.
         22    1    1    0    0    0  0.21698392839E+02  0.20985267345E+02 -0.42896721247E+01  0.30489391340E+02  0.00000000000E+00 0. -1.
</event>
<event>
 5    1  0.9041167E-005  0.9118800E+02  0.7818608E-02  0.1130116E+00
         25   -1    0    0    0    0  0.00000000000E+00  0.00000000000E+00  0.99999998245E-14  0.12500000000E+03  0.12500000000E+03 0.  0.
        -13    1    3    3    0    0 -0.57195169206E+02  0.20376549389E+02 -0.90970628693E+01  0.61394290145E+02  0.10566000000E+00 0.  1.
         23    2    1    0    0    0 -0.23735830279E+02  0.17247395153E+02 -0.46726949128E+01  0.95289793734E+02  0.90539761616E+02 0.  0.
         13    1    3    3    0    0  0.33459338927E+02 -0.31291542360E+01  0.44243679565E+01  0.33895503589E+02  0.10566000000E+00 0. -1.
         22    1    1    0    0    0  0.23735830279E+02 -0.17247395153E+02  0.46726949128E+01  0.29710206266E+02  0.00000000000E+00 0.  1.
</event>
<event>
 5    1  0.9041167E-005  0.9118800E+02  0.7818608E-02  0.1130116E+00
         25   -1    0    0    0    0  0.00000000000E+00  0.00000000000E+00  0.99999998245E-14  0.12500000000E+03  0.12500000000E+03 0.  0.
        -13    1    3    3    0    0  0.35240090493E+02  0.23936798520E+02  0.21695943801E+02  0.47807524960E+02  0.10566000000E+00 0.  1.
         23    2    1    0    0    0 -0.18557804218E+01  0.29806245202E+02 -0.60841185081E+01  0.94522587511E+02  0.89474280538E+02 0.  0.
         13    1    3    3    0    0 -0.37095870915E+02  0.58694466813E+01 -0.27780062309E+02  0.46715062551E+02  0.10566000000E+00 0. -1.
         22    1    1    0    0    0  0.18557804218E+01 -0.29806245202E+02  0.60841185081E+01  0.30477412489E+02  0.00000000000E+00 0. -1.
</event>
<event>
 5    1  0.9041167E-005  0.9118800E+02  0.7818608E-02  0.1130116E+00
         25   -1    0    0    0    0  0.00000000000E+00  0.00000000000E+00  0.99999998245E-14  0.12500000000E+03  0.12500000000E+03 0.  0.
        -13    1    3    3    0    0  0.15950746675E+02 -0.88274017732E+01 -0.56066698919E+02  0.58956214543E+02  0.10566000000E+00 0.  1.
         23    2    1    0    0    0 -0.17816008040E+01 -0.15763041465E+02 -0.25405699913E+02  0.95048419646E+02  0.90205902863E+02 0.  0.
         13    1    3    3    0    0 -0.17732347479E+02 -0.69356396915E+01  0.30660999006E+02  0.36092205102E+02  0.10566000000E+00 0. -1.
         22    1    1    0    0    0  0.17816008040E+01  0.15763041465E+02  0.25405699913E+02  0.29951580354E+02  0.00000000000E+00 0.  1.
</event>
<event>
 5    1  0.9041167E-005  0.9118800E+02  0.7818608E-02  0.1130116E+00
         25   -1    0    0    0    0  0.00000000000E+00  0.00000000000E+00  0.99999998245E-14  0.12500000000E+03  0.12500000000E+03 0.  0.
        -13    1    3    3    0    0  0.26282124265E+02  0.54145511171E+02 -0.67262394029E+01  0.60561868336E+02  0.10566000000E+00 0. -1.
         23    2    1    0    0    0  0.32953327730E+01  0.29668984176E+02 -0.77611697429E+01  0.94156141683E+02  0.88960864546E+02 0.  0.
         13    1    3    3    0    0 -0.22986791492E+02 -0.24476526995E+02 -0.10349303399E+01  0.33594273347E+02  0.10566000000E+00 0.  1.
         22    1    1    0    0    0 -0.32953327730E+01 -0.29668984176E+02  0.77611697429E+01  0.30843858317E+02  0.00000000000E+00 0. -1.
</event>
<event>
 5    1  0.9041167E-005  0.9118800E+02  0.7818608E-02  0.1130116E+00
         25   -1    0    0    0    0  0.00000000000E+00  0.00000000000E+00  0.99999998245E-14  0.12500000000E+03  0.12500000000E+03 0.  0.
        -13    1    3    3    0    0 -0.83700280200E+00  0.98686840266E+00  0.34797255845E+02  0.34821468397E+02  0.10566000000E+00 0. -1.
         23    2    1    0    0    0 -0.11743441197E+02 -0.12962404625E+02 -0.23475360889E+02  0.95725012149E+02  0.91138647331E+02 0.  0.
         13    1    3    3    0    0 -0.10906438395E+02 -0.13949273028E+02 -0.58272616734E+02  0.60903543752E+02  0.10566000000E+00 0.  1.
         22    1    1    0    0    0  0.11743441197E+02  0.12962404625E+02  0.23475360889E+02  0.29274987851E+02  0.00000000000E+00 0.  1.
</event>
<event>
 5    1  0.9041167E-005  0.9118800E+02  0.7818608E-02  0.1130116E+00
         25   -1    0    0    0    0  0.00000000000E+00  0.00000000000E+00  0.99999998245E-14  0.12500000000E+03  0.12500000000E+03 0.  0.
        -13    1    3    3    0    0 -0.25083857970E+02 -0.29584608310E+02  0.23367890024E+02  0.45282650406E+02  0.10566000000E+00 0. -1.
         23    2    1    0    0    0  0.11073972739E+02 -0.29217239734E+02 -0.75464970240E+01  0.92856111199E+02  0.87115026257E+02 0.  0.
         13    1    3    3    0    0  0.36157830710E+02  0.36736857606E+00 -0.30914387048E+02  0.47573460794E+02  0.10566000000E+00 0.  1.
         22    1    1    0    0    0 -0.11073972739E+02  0.29217239734E+02  0.75464970240E+01  0.32143888801E+02  0.00000000000E+00 0. -1.
</event>
<event>
 5    1  0.9041167E-005  0.9118800E+02  0.7818608E-02  0.1130116E+00
         25   -1    0    0    0    0  0.00000000000E+00  0.00000000000E+00  0.99999998245E-14  0.12500000000E+03  0.12500000000E+03 0.  0.
        -13    1    3    3    0    0 -0.50180095112E+02  0.30061860435E+02 -0.21959379303E+02  0.62481860581E+02  0.10566000000E+00 0. -1.
         23    2    1    0    0    0 -0.23416832469E+02  0.13407783704E+02 -0.11108249589E+02  0.95819357176E+02  0.91267953269E+02 0.  0.
         13    1    3    3    0    0  0.26763262643E+02 -0.16654076731E+02  0.10851129714E+02  0.33337496595E+02  0.10566000000E+00 0.  1.
         22    1    1    0    0    0  0.23416832469E+02 -0.13407783704E+02  0.11108249589E+02  0.29180642824E+02  0.00000000000E+00 0. -1.
</event>
<event>
 5    1  0.9041167E-005  0.9118800E+02  0.7818608E-02  0.1130116E+00
         25   -1    0    0    0    0  0.00000000000E+00  0.00000000000E+00  0.99999998245E-14  0.12500000000E+03  0.12500000000E+03 0.  0.
        -13    1    3    3    0    0 -0.33402369054E+02 -0.33644978858E+02 -0.15825291227E+02  0.49981535263E+02  0.10566000000E+00 0. -1.
         23    2    1    0    0    0 -0.23744518700E+02 -0.94260886346E+01  0.18767602848E+02  0.93300217163E+02  0.87749953224E+02 0.  0.
         13    1    3    3    0    0  0.96578503538E+01  0.24218890223E+02  0.34592894075E+02  0.43318681901E+02  0.10566000000E+00 0.  1.
         22    1    1    0    0    0  0.23744518700E+02  0.94260886346E+01 -0.18767602848E+02  0.31699782837E+02  0.00000000000E+00 0. -1.
</event>
<event>
 5    1  0.9041167E-005  0.9118800E+02  0.7818608E-02  0.1130116E+00
         25   -1    0    0    0    0  0.00000000000E+00  0.00000000000E+00  0.99999998245E-14  0.12500000000E+03  0.12500000000E+03 0.  0.
        -13    1    3    3    0    0  0.22200171997E+02  0.60582454173E+01 -0.37796061715E+02  0.44250462364E+02  0.10566000000E+00 0. -1.
         23    2    1    0    0    0 -0.23607557057E+02  0.51465915056E+01 -0.20800236454E+02  0.93118124414E+02  0.87490177183E+02 0.  0.
         13    1    3    3    0    0 -0.45807729054E+02 -0.91165391169E+00  0.16995825261E+02  0.48867662050E+02  0.10566000000E+00 0.  1.
         22    1    1    0    0    0  0.23607557057E+02 -0.51465915056E+01  0.20800236454E+02  0.31881875586E+02  0.00000000000E+00 0. -1.
</event>
<event>
 5    1  0.9041167E-005  0.9118800E+02  0.7818608E-02  0.1130116E+00
         25   -1    0    0    0    0  0.00000000000E+00  0.00000000000E+00  0.99999998245E-14  0.12500000000E+03  0.12500000000E+03 0.  0.
        -13    1    3    3    0    0  0.17909110122E+02  0.33337810332E+02 -0.41608551877E+02  0.56244364842E+02  0.10566000000E+00 0. -1.
         23    2    1    0    0    0 -0.55278544277E+01  0.26608169788E+02 -0.10279397099E+02  0.95944572301E+02  0.91439286280E+02 0.  0.
         13    1    3    3    0    0 -0.23436964550E+02 -0.67296405444E+01  0.31329154778E+02  0.39700207459E+02  0.10566000000E+00 0.  1.
         22    1    1    0    0    0  0.55278544277E+01 -0.26608169788E+02  0.10279397099E+02  0.29055427699E+02  0.00000000000E+00 0. -1.
</event>
<event>
 5    1  0.9041167E-005  0.9118800E+02  0.7818608E-02  0.1130116E+00
         25   -1    0    0    0    0  0.00000000000E+00  0.00000000000E+00  0.99999998245E-14  0.12500000000E+03  0.12500000000E+03 0.  0.
        -13    1    3    3    0    0 -0.15543682128E+02 -0.44528723781E+02  0.30829559321E+02  0.56346128417E+02  0.10566000000E+00 0.  1.
         23    2    1    0    0    0  0.14165965162E+00 -0.29207372082E+02 -0.18875785712E+01  0.95731354588E+02  0.91147345803E+02 0.  0.
         13    1    3    3    0    0  0.15685341779E+02  0.15321351699E+02 -0.32717137892E+02  0.39385226171E+02  0.10566000000E+00 0. -1.
         22    1    1    0    0    0 -0.14165965162E+00  0.29207372082E+02  0.18875785712E+01  0.29268645412E+02  0.00000000000E+00 0.  1.
</event>
<event>
 5    1  0.9041167E-005  0.9118800E+02  0.7818608E-02  0.1130116E+00
         25   -1    0    0    0    0  0.00000000000E+00  0.00000000000E+00  0.99999998245E-14  0.12500000000E+03  0.12500000000E+03 0.  0.
        -13    1    3    3    0    0 -0.48483537294E+01  0.49026616693E+02  0.25059423636E+02  0.55272973099E+02  0.10566000000E+00 0.  1.
         23    2    1    0    0    0 -0.20241018282E+02  0.21665013074E+02  0.14748212263E+00  0.95350491343E+02  0.90623522531E+02 0.  0.
         13    1    3    3    0    0 -0.15392664552E+02 -0.27361603618E+02 -0.24911941514E+02  0.40077518244E+02  0.10566000000E+00 0. -1.
         22    1    1    0    0    0  0.20241018282E+02 -0.21665013074E+02 -0.14748212263E+00  0.29649508657E+02  0.00000000000E+00 0.  1.
</event>
<event>
 5    1  0.9041167E-005  0.9118800E+02  0.7818608E-02  0.1130116E+00
         25   -1    0    0    0    0  0.00000000000E+00  0.00000000000E+00  0.99999998245E-14  0.12500000000E+03  0.12500000000E+03 0.  0.
        -13    1    3    3    0    0  0.99125251710E+01 -0.24710508943E+02  0.49065793514E+02  0.55824104692E+02  0.10566000000E+00 0.  1.
         23    2    1    0    0    0  0.24284326444E+02 -0.24344118570E+02  0.34414037701E+02  0.76351355511E+02  0.58845890916E+02 0.  0.
         13    1    3    3    0    0  0.14371801273E+02  0.36639037360E+00 -0.14651755813E+02  0.20527250819E+02  0.10566000000E+00 0. -1.
         22    1    1    0    0    0 -0.24284326444E+02  0.24344118570E+02 -0.34414037701E+02  0.48648644489E+02  0.00000000000E+00 0.  1.
</event>
<event>
 5    1  0.9041167E-005  0.9118800E+02  0.7818608E-02  0.1130116E+00
         25   -1    0    0    0    0  0.00000000000E+00  0.00000000000E+00  0.99999998245E-14  0.12500000000E+03  0.12500000000E+03 0.  0.
        -13    1    3    3    0    0 -0.40286554528E+02 -0.67024487612E+00 -0.18836830655E+02  0.44478006442E+02  0.10566000000E+00 0. -1.
         23    2    1    0    0    0  0.14810155560E+02  0.13852719734E+02 -0.10811055501E+02  0.10201919338E+03  0.99397174736E+02 0.  0.
         13    1    3    3    0    0  0.55096710088E+02  0.14522964610E+02  0.80257751537E+01  0.57541186940E+02  0.10566000000E+00 0.  1.
         22    1    1    0    0    0 -0.14810155560E+02 -0.13852719734E+02  0.10811055501E+02  0.22980806618E+02  0.00000000000E+00 0.  1.
</event>
<event>
 5    1  0.9041167E-005  0.9118800E+02  0.7818608E-02  0.1130116E+00
         25   -1    0    0    0    0  0.00000000000E+00  0.00000000000E+00  0.99999998245E-14  0.12500000000E+03  0.12500000000E+03 0.  0.
        -13    1    3    3    0    0  0.12532642753E+02  0.35962753519E+02  0.17623026352E+02  0.41963901116E+02  0.10566000000E+00 0. -1.
         23    2    1    0    0    0 -0.19933262156E+02  0.11072716751E+02 -0.17795834203E+02  0.96075413375E+02  0.91617975004E+02 0.  0.
         13    1    3    3    0    0 -0.32465904909E+02 -0.24890036768E+02 -0.35418860556E+02  0.54111512259E+02  0.10566000000E+00 0.  1.
         22    1    1    0    0    0  0.19933262156E+02 -0.11072716751E+02  0.17795834203E+02  0.28924586625E+02  0.00000000000E+00 0.  1.
</event>
<event>
 5    1  0.9041167E-005  0.9118800E+02  0.7818608E-02  0.1130116E+00
         25   -1    0    0    0    0  0.00000000000E+00  0.00000000000E+00  0.99999998245E-14  0.12500000000E+03  0.12500000000E+03 0.  0.
        -13    1    3    3    0    0 -0.42874439517E+02  0.80322846309E+00  0.64327412160E+01  0.43361896447E+02  0.10566000000E+00 0. -1.
         23    2    1    0    0    0 -0.33929711363E+01 -0.18764801530E+02 -0.22063425984E+02  0.95837956249E+02  0.91293422886E+02 0.  0.
         13    1    3    3    0    0  0.39481468381E+02 -0.19568029993E+02 -0.28496167200E+02  0.52476059803E+02  0.10566000000E+00 0.  1.
         22    1    1    0    0    0  0.33929711363E+01  0.18764801530E+02  0.22063425984E+02  0.29162043751E+02  0.00000000000E+00 0.  1.
</event>
<event>
 5    1  0.9041167E-005  0.9118800E+02  0.7818608E-02  0.1130116E+00
         25   -1    0    0    0    0  0.00000000000E+00  0.00000000000E+00  0.99999998245E-14  0.12500000000E+03  0.12500000000E+03 0.  0.
        -13    1    3    3    0    0  0.11837997771E+02 -0.94389434911E+01  0.34361528964E+02  0.37549403221E+02  0.10566000000E+00 0.  1.
         23    2    1    0    0    0 -0.74974493456E+01 -0.21015899738E+02 -0.19139119613E+02  0.95602964639E+02  0.90971100684E+02 0.  0.
         13    1    3    3    0    0 -0.19335447117E+02 -0.11576956247E+02 -0.53500648577E+02  0.58053561418E+02  0.10566000000E+00 0. -1.
         22    1    1    0    0    0  0.74974493456E+01  0.21015899738E+02  0.19139119613E+02  0.29397035361E+02  0.00000000000E+00 0. -1.
</event>
<event>
 5    1  0.9041167E-005  0.9118800E+02  0.7818608E-02  0.1130116E+00
         25   -1    0    0    0    0  0.00000000000E+00  0.00000000000E+00  0.99999998245E-14  0.12500000000E+03  0.12500000000E+03 0.  0.
        -13    1    3    3    0    0  0.37369909514E+02  0.95264927766E+01  0.67937848311E+01  0.39159045929E+02  0.10566000000E+00 0.  1.
         23    2    1    0    0    0  0.43073124522E+00 -0.22522576294E+02 -0.19959386200E+02  0.94903005635E+02  0.90004174397E+02 0.  0.
         13    1    3    3    0    0 -0.36939178269E+02 -0.32049069070E+02 -0.26753171031E+02  0.55743959706E+02  0.10566000000E+00 0. -1.
         22    1    1    0    0    0 -0.43073124522E+00  0.22522576294E+02  0.19959386200E+02  0.30096994365E+02  0.00000000000E+00 0. -1.
</event>
<event>
 5    1  0.9041167E-005  0.9118800E+02  0.7818608E-02  0.1130116E+00
         25   -1    0    0    0    0  0.00000000000E+00  0.00000000000E+00  0.99999998245E-14  0.12500000000E+03  0.12500000000E+03 0.  0.
        -13    1    3    3    0    0 -0.34799641634E+02 -0.72679768343E+01 -0.17562429432E+02  0.39652094985E+02  0.10566000000E+00 0.  1.
         23    2    1    0    0    0  0.16831558432E+02  0.17147426625E+02 -0.14690093451E+02  0.96837357285E+02  0.92651709759E+02 0.  0.
         13    1    3    3    0    0  0.51631200065E+02  0.24415403460E+02  0.28723359813E+01  0.57185262300E+02  0.10566000000E+00 0. -1.
         22    1    1    0    0    0 -0.16831558432E+02 -0.17147426625E+02  0.14690093451E+02  0.28162642715E+02  0.00000000000E+00 0. -1.
</event>
<event>
 5    1  0.9041167E-005  0.9118800E+02  0.7818608E-02  0.1130116E+00
         25   -1    0    0    0    0  0.00000000000E+00  0.00000000000E+00  0.99999998245E-14  0.12500000000E+03  0.12500000000E+03 0.  0.
        -13    1    3    3    0    0 -0.76711853604E+01 -0.43816827382E+01 -0.53701364677E+02  0.54423285096E+02  0.10566000000E+00 0.  1.
         23    2    1    0    0    0 -0.23851223791E+02  0.53052865826E+00 -0.14585818081E+02  0.97037374479E+02  0.92921168846E+02 0.  0.
         13    1    3    3    0    0 -0.16180038430E+02  0.49122113964E+01  0.39115546596E+02  0.42614089383E+02  0.10566000000E+00 0. -1.
         22    1    1    0    0    0  0.23851223791E+02 -0.53052865826E+00  0.14585818081E+02  0.27962625521E+02  0.00000000000E+00 0.  1.
</event>
<event>
 5    1  0.9041167E-005  0.9118800E+02  0.7818608E-02  0.1130116E+00
         25   -1    0    0    0    0  0.00000000000E+00  0.00000000000E+00  0.99999998245E-14  0.12500000000E+03  0.12500000000E+03 0.  0.
        -13    1    3    3    0    0 -0.18341329919E+02  0.82259552155E+01 -0.10749128247E+01  0.20130507296E+02  0.10566000000E+00 0.  1.
         23    2    1    0    0    0  0.25939130647E+02  0.40166177229E+02 -0.11752832757E+02  0.75762926877E+02  0.57582390704E+02 0.  0.
         13    1    3    3    0    0  0.44280460566E+02  0.31940222014E+02 -0.10677919932E+02  0.55632419580E+02  0.10566000000E+00 0. -1.
         22    1    1    0    0    0 -0.25939130647E+02 -0.40166177229E+02  0.11752832757E+02  0.49237073123E+02  0.00000000000E+00 0. -1.
</event>
<event>
 5    1  0.9041167E-005  0.9118800E+02  0.7818608E-02  0.1130116E+00
         25   -1    0    0    0    0  0.00000000000E+00  0.00000000000E+00  0.99999998245E-14  0.12500000000E+03  0.12500000000E+03 0.  0.
        -13    1    3    3    0    0  0.28311248850E+02 -0.24822328826E+02  0.43535549953E+01  0.37903026594E+02  0.10566000000E+00 0.  1.
         23    2    1    0    0    0  0.67764002866E+01  0.28448453515E+02 -0.18571123554E+01  0.95696707104E+02  0.91099817650E+02 0.  0.
         13    1    3    3    0    0 -0.21534848564E+02  0.53270782342E+02 -0.62106673507E+01  0.57793680510E+02  0.10566000000E+00 0. -1.
         22    1    1    0    0    0 -0.67764002866E+01 -0.28448453515E+02  0.18571123554E+01  0.29303292896E+02  0.00000000000E+00 0. -1.
</event>
<event>
 5    1  0.9041167E-005  0.9118800E+02  0.7818608E-02  0.1130116E+00
         25   -1    0    0    0    0  0.00000000000E+00  0.00000000000E+00  0.99999998245E-14  0.12500000000E+03  0.12500000000E+03 0.  0.
        -13    1    3    3    0    0  0.45708987187E+02  0.50083118376E+01  0.17941632960E+02  0.49358971367E+02  0.10566000000E+00 0. -1.
         23    2    1    0    0    0  0.94861746735E+01  0.27264614027E+02 -0.14696497005E+01  0.96094869690E+02  0.91644516599E+02 0.  0.
         13    1    3    3    0    0 -0.36222812513E+02  0.22256302189E+02 -0.19411282661E+02  0.46735898323E+02  0.10566000000E+00 0.  1.
         22    1    1    0    0    0 -0.94861746735E+01 -0.27264614027E+02  0.14696497005E+01  0.28905130310E+02  0.00000000000E+00 0.  1.
</event>
<event>
 5    1  0.9041167E-005  0.9118800E+02  0.7818608E-02  0.1130116E+00
         25   -1    0    0    0    0  0.00000000000E+00  0.00000000000E+00  0.99999998245E-14  0.12500000000E+03  0.12500000000E+03 0.  0.
        -13    1    3    3    0    0  0.14023399460E+01 -0.30510425611E+02 -0.41100429761E+02  0.51206533947E+02  0.10566000000E+00 0.  1.
         23    2    1    0    0    0  0.89883259755E+01 -0.33625793510E+02 -0.31293655164E+01  0.90053227309E+02  0.82995824155E+02 0.  0.
         13    1    3    3    0    0  0.75859860295E+01 -0.31153678991E+01  0.37971064245E+02  0.38846693361E+02  0.10566000000E+00 0. -1.
         22    1    1    0    0    0 -0.89883259755E+01  0.33625793510E+02  0.31293655164E+01  0.34946772691E+02  0.00000000000E+00 0.  1.
</event>
<event>
 5    1  0.9041167E-005  0.9118800E+02  0.7818608E-02  0.1130116E+00
         25   -1    0    0    0    0  0.00000000000E+00  0.00000000000E+00  0.99999998245E-14  0.12500000000E+03  0.12500000000E+03 0.  0.
        -13    1    3    3    0    0 -0.18448551193E+02 -0.23902931319E+02  0.21752273006E+02  0.37213864510E+02  0.10566000000E+00 0. -1.
         23    2    1    0    0    0  0.77240063046E+01  0.24275489067E+02 -0.62363382834E+01  0.98773075704E+02  0.95227458886E+02 0.  0.
         13    1    3    3    0    0  0.26172557498E+02  0.48178420387E+02 -0.27988611289E+02  0.61559211194E+02  0.10566000000E+00 0.  1.
         22    1    1    0    0    0 -0.77240063046E+01 -0.24275489067E+02  0.62363382834E+01  0.26226924296E+02  0.00000000000E+00 0.  1.
</event>
<event>
 5    1  0.9041167E-005  0.9118800E+02  0.7818608E-02  0.1130116E+00
         25   -1    0    0    0    0  0.00000000000E+00  0.00000000000E+00  0.99999998245E-14  0.12500000000E+03  0.12500000000E+03 0.  0.
        -13    1    3    3    0    0 -0.22515200571E+02  0.20602905615E+02 -0.51369401796E+02  0.59751490203E+02  0.10566000000E+00 0.  1.
         23    2    1    0    0    0 -0.20843933423E+02  0.12538349890E+02 -0.16434965316E+02  0.95643776411E+02  0.91027161346E+02 0.  0.
         13    1    3    3    0    0  0.16712671485E+01 -0.80645557245E+01  0.34934436481E+02  0.35892286207E+02  0.10566000000E+00 0. -1.
         22    1    1    0    0    0  0.20843933423E+02 -0.12538349890E+02  0.16434965316E+02  0.29356223589E+02  0.00000000000E+00 0.  1.
</event>
<event>
 5    1  0.9041167E-005  0.9118800E+02  0.7818608E-02  0.1130116E+00
         25   -1    0    0    0    0  0.00000000000E+00  0.00000000000E+00  0.99999998245E-14  0.12500000000E+03  0.12500000000E+03 0.  0.
        -13    1    3    3    0    0  0.11874539823E+02  0.29547157282E+02 -0.24970859557E+02  0.40467198945E+02  0.10566000000E+00 0. -1.
         23    2    1    0    0    0  0.12963594391E+02  0.58625237117E+01  0.25257807369E+02  0.96010677882E+02  0.91529609801E+02 0.  0.
         13    1    3    3    0    0  0.10890545689E+01 -0.23684633570E+02  0.50228666925E+02  0.55543478936E+02  0.10566000000E+00 0.  1.
         22    1    1    0    0    0 -0.12963594391E+02 -0.58625237117E+01 -0.25257807369E+02  0.28989322118E+02  0.00000000000E+00 0. -1.
</event>
<event>
 5    1  0.9041167E-005  0.9118800E+02  0.7818608E-02  0.1130116E+00
         25   -1    0    0    0    0  0.00000000000E+00  0.00000000000E+00  0.99999998245E-14  0.12500000000E+03  0.12500000000E+03 0.  0.
        -13    1    3    3    0    0 -0.35475069820E+02 -0.48765846969E+01  0.13274906385E+02  0.38190260023E+02  0.10566000000E+00 0.  1.
         23    2    1    0    0    0  0.82255789019E+01 -0.18178669717E+02 -0.21549893658E+02  0.95631273477E+02  0.91009990491E+02 0.  0.
         13    1    3    3    0    0  0.43700648722E+02 -0.13302085020E+02 -0.34824800043E+02  0.57441013454E+02  0.10566000000E+00 0. -1.
         22    1    1    0    0    0 -0.82255789019E+01  0.18178669717E+02  0.21549893658E+02  0.29368726523E+02  0.00000000000E+00 0. -1.
</event>
<event>
 5    1  0.9041167E-005  0.9118800E+02  0.7818608E-02  0.1130116E+00
         25   -1    0    0    0    0  0.00000000000E+00  0.00000000000E+00  0.99999998245E-14  0.12500000000E+03  0.12500000000E+03 0.  0.
        -13    1    3    3    0    0  0.11726167131E+02  0.32406954069E+02  0.32475203053E+02  0.47353602239E+02  0.10566000000E+00 0.  1.
         23    2    1    0    0    0 -0.25101700435E+02  0.14170479879E+02  0.84290205917E+01  0.94967579970E+02  0.90093812176E+02 0.  0.
         13    1    3    3    0    0 -0.36827867566E+02 -0.18236474191E+02 -0.24046182462E+02  0.47613977731E+02  0.10566000000E+00 0. -1.
         22    1    1    0    0    0  0.25101700435E+02 -0.14170479879E+02 -0.84290205917E+01  0.30032420030E+02  0.00000000000E+00 0. -1.
</event>
<event>
 5    1  0.9041167E-005  0.9118800E+02  0.7818608E-02  0.1130116E+00
         25   -1    0    0    0    0  0.00000000000E+00  0.00000000000E+00  0.99999998245E-14  0.12500000000E+03  0.12500000000E+03 0.  0.
        -13    1    3    3    0    0  0.36731111879E+02  0.24085220383E+02 -0.42411748956E+02  0.61057677931E+02  0.10566000000E+00 0. -1.
         23    2    1    0    0    0  0.25060841289E+02  0.93099808440E+01 -0.14904641376E+02  0.94391670350E+02  0.89291195464E+02 0.  0.
         13    1    3    3    0    0 -0.11670270590E+02 -0.14775239539E+02  0.27507107580E+02  0.33333992418E+02  0.10566000000E+00 0.  1.
         22    1    1    0    0    0 -0.25060841289E+02 -0.93099808440E+01  0.14904641376E+02  0.30608329650E+02  0.00000000000E+00 0. -1.
</event>
<event>
 5    1  0.9041167E-005  0.9118800E+02  0.7818608E-02  0.1130116E+00
         25   -1    0    0    0    0  0.00000000000E+00  0.00000000000E+00  0.99999998245E-14  0.12500000000E+03  0.12500000000E+03 0.  0.
        -13    1    3    3    0    0  0.33153849627E+02 -0.67240254593E+01  0.11718364002E+02  0.35801138004E+02  0.10566000000E+00 0. -1.
         23    2    1    0    0    0 -0.22015476917E+02  0.16418492791E+02  0.10372201614E+02  0.95643046893E+02  0.91026159554E+02 0.  0.
         13    1    3    3    0    0 -0.55169326544E+02  0.23142518250E+02 -0.13461623883E+01  0.59841908889E+02  0.10566000000E+00 0.  1.
         22    1    1    0    0    0  0.22015476917E+02 -0.16418492791E+02 -0.10372201614E+02  0.29356953107E+02  0.00000000000E+00 0.  1.
</event>
<event>
 5    1  0.9041167E-005  0.9118800E+02  0.7818608E-02  0.1130116E+00
         25   -1    0    0    0    0  0.00000000000E+00  0.00000000000E+00  0.99999998245E-14  0.12500000000E+03  0.12500000000E+03 0.  0.
        -13    1    3    3    0    0 -0.31631031742E+02 -0.36406934123E+02  0.18142046431E+01  0.48262713598E+02  0.10566000000E+00 0.  1.
         23    2    1    0    0    0 -0.28002270644E+02  0.28606869099E+01  0.18748092826E+02  0.91179862871E+02  0.84675650088E+02 0.  0.
         13    1    3    3    0    0  0.36287610981E+01  0.39267621033E+02  0.16933888183E+02  0.42917149273E+02  0.10566000000E+00 0. -1.
         22    1    1    0    0    0  0.28002270644E+02 -0.28606869099E+01 -0.18748092826E+02  0.33820137129E+02  0.00000000000E+00 0.  1.
</event>
<event>
 5    1  0.9041167E-005  0.9118800E+02  0.7818608E-02  0.1130116E+00
         25   -1    0    0    0    0  0.00000000000E+00  0.00000000000E+00  0.99999998245E-14  0.12500000000E+03  0.12500000000E+03 0.  0.
        -13    1    3    3    0    0  0.14216896418E+02  0.40469169894E+02 -0.63945149546E+00  0.42898647040E+02  0.10566000000E+00 0.  1.
         23    2    1    0    0    0  0.11125369715E+02 -0.17424930187E+02 -0.10667736855E+02  0.10173623734E+03  0.99040695353E+02 0.  0.
         13    1    3    3    0    0 -0.30915267037E+01 -0.57894100080E+02 -0.10028285359E+02  0.58837590304E+02  0.10566000000E+00 0. -1.
         22    1    1    0    0    0 -0.11125369715E+02  0.17424930187E+02  0.10667736855E+02  0.23263762656E+02  0.00000000000E+00 0. -1.
</event>
<event>
 5    1  0.9041167E-005  0.9118800E+02  0.7818608E-02  0.1130116E+00
         25   -1    0    0    0    0  0.00000000000E+00  0.00000000000E+00  0.99999998245E-14  0.12500000000E+03  0.12500000000E+03 0.  0.
        -13    1    3    3    0    0  0.45393112690E+02  0.36869136768E+02 -0.14033341596E+02  0.60139951497E+02  0.10566000000E+00 0.  1.
         23    2    1    0    0    0  0.16189676513E+02  0.19031173096E+02 -0.17439964741E+02  0.94529628405E+02  0.89484116474E+02 0.  0.
         13    1    3    3    0    0 -0.29203436177E+02 -0.17837963672E+02 -0.34066231447E+01  0.34389676907E+02  0.10566000000E+00 0. -1.
         22    1    1    0    0    0 -0.16189676513E+02 -0.19031173096E+02  0.17439964741E+02  0.30470371595E+02  0.00000000000E+00 0.  1.
</event>
<event>
 5    1  0.9041167E-005  0.9118800E+02  0.7818608E-02  0.1130116E+00
         25   -1    0    0    0    0  0.00000000000E+00  0.00000000000E+00  0.99999998245E-14  0.12500000000E+03  0.12500000000E+03 0.  0.
        -13    1    3    3    0    0 -0.10155562569E+00 -0.51427140512E+02  0.30321622306E+02  0.59700695457E+02  0.10566000000E+00 0.  1.
         23    2    1    0    0    0 -0.10386519004E+02 -0.17833457766E+02  0.19860901406E+02  0.96357943552E+02  0.92002640657E+02 0.  0.
         13    1    3    3    0    0 -0.10284963378E+02  0.33593682745E+02 -0.10460720900E+02  0.36657248095E+02  0.10566000000E+00 0. -1.
         22    1    1    0    0    0  0.10386519004E+02  0.17833457766E+02 -0.19860901406E+02  0.28642056448E+02  0.00000000000E+00 0.  1.
</event>
<event>
 5    1  0.9041167E-005  0.9118800E+02  0.7818608E-02  0.1130116E+00
         25   -1    0    0    0    0  0.00000000000E+00  0.00000000000E+00  0.99999998245E-14  0.12500000000E+03  0.12500000000E+03 0.  0.
        -13    1    3    3    0    0 -0.29929676236E+02  0.36804428928E+02  0.14781625554E+01  0.47461011756E+02  0.10566000000E+00 0. -1.
         23    2    1    0    0    0 -0.71285283789E+01  0.53776929757E+01 -0.27614095289E+02  0.95978046978E+02  0.91485035631E+02 0.  0.
         13    1    3    3    0    0  0.22801147857E+02 -0.31426735952E+02 -0.29092257845E+02  0.48517035222E+02  0.10566000000E+00 0.  1.
         22    1    1    0    0    0  0.71285283789E+01 -0.53776929757E+01  0.27614095289E+02  0.29021953022E+02  0.00000000000E+00 0.  1.
</event>
<event>
 5    1  0.9041167E-005  0.9118800E+02  0.7818608E-02  0.1130116E+00
         25   -1    0    0    0    0  0.00000000000E+00  0.00000000000E+00  0.99999998245E-14  0.12500000000E+03  0.12500000000E+03 0.  0.
        -13    1    3    3    0    0  0.14057664911E+02  0.17456622988E+02 -0.40365471339E+02  0.46170705749E+02  0.10566000000E+00 0. -1.
         23    2    1    0    0    0 -0.35700628505E+01 -0.12520193363E+02  0.10833234177E+02  0.10806307131E+03  0.10672754016E+03 0.  0.
         13    1    3    3    0    0 -0.17627727761E+02 -0.29976816351E+02  0.51198705516E+02  0.61892365564E+02  0.10566000000E+00 0.  1.
         22    1    1    0    0    0  0.35700628505E+01  0.12520193363E+02 -0.10833234177E+02  0.16936928687E+02  0.00000000000E+00 0.  1.
</event>
<event>
 5    1  0.9041167E-005  0.9118800E+02  0.7818608E-02  0.1130116E+00
         25   -1    0    0    0    0  0.00000000000E+00  0.00000000000E+00  0.99999998245E-14  0.12500000000E+03  0.12500000000E+03 0.  0.
        -13    1    3    3    0    0 -0.16212358234E+02  0.16122544494E+02  0.49531542387E+02  0.54554210248E+02  0.10566000000E+00 0.  1.
         23    2    1    0    0    0 -0.17549817436E+02  0.20763549118E+02  0.75892522744E+01  0.96773809784E+02  0.92565935667E+02 0.  0.
         13    1    3    3    0    0 -0.13374592022E+01  0.46410046239E+01 -0.41942290113E+02  0.42219599536E+02  0.10566000000E+00 0. -1.
         22    1    1    0    0    0  0.17549817436E+02 -0.20763549118E+02 -0.75892522744E+01  0.28226190216E+02  0.00000000000E+00 0. -1.
</event>
<event>
 5    1  0.9041167E-005  0.9118800E+02  0.7818608E-02  0.1130116E+00
         25   -1    0    0    0    0  0.00000000000E+00  0.00000000000E+00  0.99999998245E-14  0.12500000000E+03  0.12500000000E+03 0.  0.
        -13    1    3    3    0    0 -0.19202231714E+02 -0.90592429884E+01 -0.28533008840E+02  0.35565985770E+02  0.10566000000E+00 0. -1.
         23    2    1    0    0    0  0.82540290426E+00 -0.56607271818E+01  0.28407795363E+02  0.96021940031E+02  0.91544988982E+02 0.  0.
         13    1    3    3    0    0  0.20027634618E+02  0.33985158066E+01  0.56940804204E+02  0.60455954260E+02  0.10566000000E+00 0.  1.
         22    1    1    0    0    0 -0.82540290426E+00  0.56607271818E+01 -0.28407795363E+02  0.28978059969E+02  0.00000000000E+00 0.  1.
</event>
<event>
 5    1  0.9041167E-005  0.9118800E+02  0.7818608E-02  0.1130116E+00
         25   -1    0    0    0    0  0.00000000000E+00  0.00000000000E+00  0.99999998245E-14  0.12500000000E+03  0.12500000000E+03 0.  0.
        -13    1    3    3    0    0 -0.11721855631E+01  0.30441492237E+02 -0.17243076572E+02  0.35005618439E+02  0.10566000000E+00 0. -1.
         23    2    1    0    0    0  0.22315910155E+02 -0.21574521944E+02 -0.90781131811E+01  0.92660055936E+02  0.86833253906E+02 0.  0.
         13    1    3    3    0    0  0.23488095718E+02 -0.52016014182E+02  0.81649633905E+01  0.57654437496E+02  0.10566000000E+00 0.  1.
         22    1    1    0    0    0 -0.22315910155E+02  0.21574521944E+02  0.90781131811E+01  0.32339944064E+02  0.00000000000E+00 0.  1.
</event>
<event>
 5    1  0.9041167E-005  0.9118800E+02  0.7818608E-02  0.1130116E+00
         25   -1    0    0    0    0  0.00000000000E+00  0.00000000000E+00  0.99999998245E-14  0.12500000000E+03  0.12500000000E+03 0.  0.
        -13    1    3    3    0    0  0.55857346112E+02  0.59420507991E+01  0.15414109990E+02  0.58249094699E+02  0.10566000000E+00 0. -1.
         23    2    1    0    0    0  0.20635418968E+02 -0.11479907153E+02  0.13953980856E+02  0.97571504490E+02  0.93636937810E+02 0.  0.
         13    1    3    3    0    0 -0.35221927145E+02 -0.17421957952E+02 -0.14601291336E+01  0.39322409791E+02  0.10566000000E+00 0.  1.
         22    1    1    0    0    0 -0.20635418968E+02  0.11479907153E+02 -0.13953980856E+02  0.27428495510E+02  0.00000000000E+00 0. -1.
</event>
<event>
 5    1  0.9041167E-005  0.9118800E+02  0.7818608E-02  0.1130116E+00
         25   -1    0    0    0    0  0.00000000000E+00  0.00000000000E+00  0.99999998245E-14  0.12500000000E+03  0.12500000000E+03 0.  0.
        -13    1    3    3    0    0 -0.49533467264E+01 -0.20985779960E+02 -0.47483527817E+02  0.52150121595E+02  0.10566000000E+00 0. -1.
         23    2    1    0    0    0  0.15247630966E+02 -0.22531362424E+02 -0.78133554767E+01  0.96694504658E+02  0.92458780894E+02 0.  0.
         13    1    3    3    0    0  0.20200977692E+02 -0.15455824645E+01  0.39670172341E+02  0.44544383063E+02  0.10566000000E+00 0.  1.
         22    1    1    0    0    0 -0.15247630966E+02  0.22531362424E+02  0.78133554767E+01  0.28305495342E+02  0.00000000000E+00 0.  1.
</event>
<event>
 5    1  0.9041167E-005  0.9118800E+02  0.7818608E-02  0.1130116E+00
         25   -1    0    0    0    0  0.00000000000E+00  0.00000000000E+00  0.99999998245E-14  0.12500000000E+03  0.12500000000E+03 0.  0.
        -13    1    3    3    0    0 -0.25189706049E+02 -0.34442757192E+02 -0.49440694535E+01  0.42956720086E+02  0.10566000000E+00 0.  1.
         23    2    1    0    0    0 -0.25685929975E+02  0.14280367666E+02  0.10054981134E+02  0.93938793569E+02  0.88654940033E+02 0.  0.
         13    1    3    3    0    0 -0.49622392585E+00  0.48723124857E+02  0.14999050587E+02  0.50982073483E+02  0.10566000000E+00 0. -1.
         22    1    1    0    0    0  0.25685929975E+02 -0.14280367666E+02 -0.10054981134E+02  0.31061206431E+02  0.00000000000E+00 0. -1.
</event>
<event>
 5    1  0.9041167E-005  0.9118800E+02  0.7818608E-02  0.1130116E+00
         25   -1    0    0    0    0  0.00000000000E+00  0.00000000000E+00  0.99999998245E-14  0.12500000000E+03  0.12500000000E+03 0.  0.
        -13    1    3    3    0    0  0.30962008763E+02 -0.13162732977E+02  0.41948846007E+02  0.53773788888E+02  0.10566000000E+00 0.  1.
         23    2    1    0    0    0  0.40198207074E+01  0.15004704025E+02  0.23332759358E+02  0.96969342486E+02  0.92829605307E+02 0.  0.
         13    1    3    3    0    0 -0.26942188055E+02  0.28167437002E+02 -0.18616086648E+02  0.43195553598E+02  0.10566000000E+00 0. -1.
         22    1    1    0    0    0 -0.40198207074E+01 -0.15004704025E+02 -0.23332759358E+02  0.28030657514E+02  0.00000000000E+00 0. -1.
</event>
<event>
 5    1  0.9041167E-005  0.9118800E+02  0.7818608E-02  0.1130116E+00
         25   -1    0    0    0    0  0.00000000000E+00  0.00000000000E+00  0.99999998245E-14  0.12500000000E+03  0.12500000000E+03 0.  0.
        -13    1    3    3    0    0  0.48690023293E+02  0.31271495600E+02 -0.26078756428E+01  0.57926133867E+02  0.10566000000E+00 0. -1.
         23    2    1    0    0    0  0.25276485287E+02  0.56311083790E+01  0.13033686970E+02  0.96008844692E+02  0.91527106220E+02 0.  0.
         13    1    3    3    0    0 -0.23413538006E+02 -0.25640387221E+02  0.15641562613E+02  0.38082710826E+02  0.10566000000E+00 0.  1.
         22    1    1    0    0    0 -0.25276485287E+02 -0.56311083790E+01 -0.13033686970E+02  0.28991155308E+02  0.00000000000E+00 0. -1.
</event>
<event>
 5    1  0.9041167E-005  0.9118800E+02  0.7818608E-02  0.1130116E+00
         25   -1    0    0    0    0  0.00000000000E+00  0.00000000000E+00  0.99999998245E-14  0.12500000000E+03  0.12500000000E+03 0.  0.
        -13    1    3    3    0    0  0.21086936011E+02 -0.14466377649E+02  0.30664717700E+02  0.39928323634E+02  0.10566000000E+00 0. -1.
         23    2    1    0    0    0  0.12913715598E+02  0.13576653713E+02 -0.19486794832E+02  0.97966229464E+02  0.94162398897E+02 0.  0.
         13    1    3    3    0    0 -0.81732204127E+01  0.28043031361E+02 -0.50151512532E+02  0.58037905830E+02  0.10566000000E+00 0.  1.
         22    1    1    0    0    0 -0.12913715598E+02 -0.13576653713E+02  0.19486794832E+02  0.27033770536E+02  0.00000000000E+00 0.  1.
</event>
<event>
 5    1  0.9041167E-005  0.9118800E+02  0.7818608E-02  0.1130116E+00
         25   -1    0    0    0    0  0.00000000000E+00  0.00000000000E+00  0.99999998245E-14  0.12500000000E+03  0.12500000000E+03 0.  0.
        -13    1    3    3    0    0  0.57643126636E+02 -0.17391016664E+02 -0.96515182552E+01  0.60978196740E+02  0.10566000000E+00 0.  1.
         23    2    1    0    0    0  0.24964512981E+02 -0.10886044206E+02 -0.13647914257E+02  0.94536933339E+02  0.89494320125E+02 0.  0.
         13    1    3    3    0    0 -0.32678613655E+02  0.65049724582E+01 -0.39963960015E+01  0.33558736599E+02  0.10566000000E+00 0. -1.
         22    1    1    0    0    0 -0.24964512981E+02  0.10886044206E+02  0.13647914257E+02  0.30463066661E+02  0.00000000000E+00 0.  1.
</event>
<event>
 5    1  0.9041167E-005  0.9118800E+02  0.7818608E-02  0.1130116E+00
         25   -1    0    0    0    0  0.00000000000E+00  0.00000000000E+00  0.99999998245E-14  0.12500000000E+03  0.12500000000E+03 0.  0.
        -13    1    3    3    0    0  0.17199762041E+01 -0.18792788161E+02  0.33064176925E+02  0.38070699557E+02  0.10566000000E+00 0. -1.
         23    2    1    0    0    0  0.33852863864E+01 -0.16044738624E+02 -0.24387455347E+02  0.95612217169E+02  0.90983813353E+02 0.  0.
         13    1    3    3    0    0  0.16653101823E+01  0.27480495372E+01 -0.57451632272E+02  0.57541517612E+02  0.10566000000E+00 0.  1.
         22    1    1    0    0    0 -0.33852863864E+01  0.16044738624E+02  0.24387455347E+02  0.29387782831E+02  0.00000000000E+00 0.  1.
</event>
<event>
 5    1  0.9041167E-005  0.9118800E+02  0.7818608E-02  0.1130116E+00
         25   -1    0    0    0    0  0.00000000000E+00  0.00000000000E+00  0.99999998245E-14  0.12500000000E+03  0.12500000000E+03 0.  0.
        -13    1    3    3    0    0  0.15869390076E+02 -0.31460710517E+02  0.17364172658E+02  0.39282814356E+02  0.10566000000E+00 0. -1.
         23    2    1    0    0    0  0.30287141843E+02  0.16051631789E+02  0.64298294354E+01  0.90124384583E+02  0.83102925014E+02 0.  0.
         13    1    3    3    0    0  0.14417751767E+02  0.47512342306E+02 -0.10934343222E+02  0.50841570227E+02  0.10566000000E+00 0.  1.
         22    1    1    0    0    0 -0.30287141843E+02 -0.16051631789E+02 -0.64298294354E+01  0.34875615417E+02  0.00000000000E+00 0.  1.
</event>
<event>
 5    1  0.9041167E-005  0.9118800E+02  0.7818608E-02  0.1130116E+00
         25   -1    0    0    0    0  0.00000000000E+00  0.00000000000E+00  0.99999998245E-14  0.12500000000E+03  0.12500000000E+03 0.  0.
        -13    1    3    3    0    0 -0.91069175470E+01 -0.15611895402E+02 -0.43288425804E+02  0.46910192900E+02  0.10566000000E+00 0. -1.
         23    2    1    0    0    0  0.22359038356E+02 -0.23216229882E+02 -0.17332095988E+02  0.88403258650E+02  0.80472446604E+02 0.  0.
         13    1    3    3    0    0  0.31465955903E+02 -0.76043344796E+01  0.25956329816E+02  0.41493065750E+02  0.10566000000E+00 0.  1.
         22    1    1    0    0    0 -0.22359038356E+02  0.23216229882E+02  0.17332095988E+02  0.36596741350E+02  0.00000000000E+00 0. -1.
</event>
<event>
 5    1  0.9041167E-005  0.9118800E+02  0.7818608E-02  0.1130116E+00
         25   -1    0    0    0    0  0.00000000000E+00  0.00000000000E+00  0.99999998245E-14  0.12500000000E+03  0.12500000000E+03 0.  0.
        -13    1    3    3    0    0  0.18402535163E+02  0.41963728871E+02 -0.24882621910E+02  0.52141767120E+02  0.10566000000E+00 0. -1.
         23    2    1    0    0    0 -0.16858257370E+02  0.22768943117E+02 -0.10276610547E+02  0.94863073539E+02  0.89948698627E+02 0.  0.
         13    1    3    3    0    0 -0.35260792533E+02 -0.19194785754E+02  0.14606011363E+02  0.42721306419E+02  0.10566000000E+00 0.  1.
         22    1    1    0    0    0  0.16858257370E+02 -0.22768943117E+02  0.10276610547E+02  0.30136926461E+02  0.00000000000E+00 0. -1.
</event>
<event>
 5    1  0.9041167E-005  0.9118800E+02  0.7818608E-02  0.1130116E+00
         25   -1    0    0    0    0  0.00000000000E+00  0.00000000000E+00  0.99999998245E-14  0.12500000000E+03  0.12500000000E+03 0.  0.
        -13    1    3    3    0    0 -0.36036308529E+02  0.29903516671E+02  0.26340507254E+02  0.53727733324E+02  0.10566000000E+00 0. -1.
         23    2    1    0    0    0  0.40104897960E+01  0.14698921643E+02  0.23929443135E+02  0.96631697713E+02  0.92373829780E+02 0.  0.
         13    1    3    3    0    0  0.40046798325E+02 -0.15204595027E+02 -0.24110641184E+01  0.42903964389E+02  0.10566000000E+00 0.  1.
         22    1    1    0    0    0 -0.40104897960E+01 -0.14698921643E+02 -0.23929443135E+02  0.28368302287E+02  0.00000000000E+00 0. -1.
</event>
<event>
 5    1  0.9041167E-005  0.9118800E+02  0.7818608E-02  0.1130116E+00
         25   -1    0    0    0    0  0.00000000000E+00  0.00000000000E+00  0.99999998245E-14  0.12500000000E+03  0.12500000000E+03 0.  0.
        -13    1    3    3    0    0  0.25873279100E+02 -0.96927276927E+01 -0.22027043765E+02  0.35335214200E+02  0.10566000000E+00 0.  1.
         23    2    1    0    0    0  0.58382382982E+00 -0.41184193377E+02  0.43624221769E+01  0.83581292129E+02  0.72596990519E+02 0.  0.
         13    1    3    3    0    0 -0.25289455271E+02 -0.31491465685E+02  0.26389465941E+02  0.48246077929E+02  0.10566000000E+00 0. -1.
         22    1    1    0    0    0 -0.58382382982E+00  0.41184193377E+02 -0.43624221769E+01  0.41418707871E+02  0.00000000000E+00 0. -1.
</event>
<event>
 5    1  0.9041167E-005  0.9118800E+02  0.7818608E-02  0.1130116E+00
         25   -1    0    0    0    0  0.00000000000E+00  0.00000000000E+00  0.99999998245E-14  0.12500000000E+03  0.12500000000E+03 0.  0.
        -13    1    3    3    0    0 -0.21547217151E+02  0.41956402021E+02  0.13801749241E+02  0.49143887552E+02  0.10566000000E+00 0.  1.
         23    2    1    0    0    0 -0.34424140679E+00  0.32572727707E+01  0.29000514553E+02  0.95815103694E+02  0.91262127542E+02 0.  0.
         13    1    3    3    0    0  0.21202975745E+02 -0.38699129251E+02  0.15198765312E+02  0.46671216143E+02  0.10566000000E+00 0. -1.
         22    1    1    0    0    0  0.34424140679E+00 -0.32572727707E+01 -0.29000514553E+02  0.29184896306E+02  0.00000000000E+00 0.  1.
</event>
<event>
 5    1  0.9041167E-005  0.9118800E+02  0.7818608E-02  0.1130116E+00
         25   -1    0    0    0    0  0.00000000000E+00  0.00000000000E+00  0.99999998245E-14  0.12500000000E+03  0.12500000000E+03 0.  0.
        -13    1    3    3    0    0 -0.42668702378E+02  0.10339257313E+02 -0.51419356003E+01  0.44203722357E+02  0.10566000000E+00 0.  1.
         23    2    1    0    0    0  0.23353019957E+01  0.15324999926E+02 -0.26524207407E+02  0.94277974730E+02  0.89131889256E+02 0.  0.
         13    1    3    3    0    0  0.45004004374E+02  0.49857426130E+01 -0.21382271807E+02  0.50074252373E+02  0.10566000000E+00 0. -1.
         22    1    1    0    0    0 -0.23353019957E+01 -0.15324999926E+02  0.26524207407E+02  0.30722025270E+02  0.00000000000E+00 0. -1.
</event>
<event>
 5    1  0.9041167E-005  0.9118800E+02  0.7818608E-02  0.1130116E+00
         25   -1    0    0    0    0  0.00000000000E+00  0.00000000000E+00  0.99999998245E-14  0.12500000000E+03  0.12500000000E+03 0.  0.
        -13    1    3    3    0    0  0.51234388351E+02  0.30516391021E+02  0.67180557583E+01  0.60011299835E+02  0.10566000000E+00 0. -1.
         23    2    1    0    0    0  0.22742822617E+02  0.20597399812E+02  0.14343864740E+02  0.91129137665E+02  0.84600735318E+02 0.  0.
         13    1    3    3    0    0 -0.28491565734E+02 -0.99189912089E+01  0.76258089817E+01  0.31117837830E+02  0.10566000000E+00 0.  1.
         22    1    1    0    0    0 -0.22742822617E+02 -0.20597399812E+02 -0.14343864740E+02  0.33870862335E+02  0.00000000000E+00 0. -1.
</event>
<event>
 5    1  0.9041167E-005  0.9118800E+02  0.7818608E-02  0.1130116E+00
         25   -1    0    0    0    0  0.00000000000E+00  0.00000000000E+00  0.99999998245E-14  0.12500000000E+03  0.12500000000E+03 0.  0.
        -13    1    3    3    0    0  0.23076492972E+02 -0.14519565849E+02 -0.27921119133E+02  0.39024894337E+02  0.10566000000E+00 0. -1.
         23    2    1    0    0    0 -0.15293736984E+02  0.22986320221E+02 -0.10914679226E+02  0.95311626336E+02  0.90569898884E+02 0.  0.
         13    1    3    3    0    0 -0.38370229956E+02  0.37505886070E+02  0.17006439907E+02  0.56286731999E+02  0.10566000000E+00 0.  1.
         22    1    1    0    0    0  0.15293736984E+02 -0.22986320221E+02  0.10914679226E+02  0.29688373664E+02  0.00000000000E+00 0.  1.
</event>
<event>
 5    1  0.9041167E-005  0.9118800E+02  0.7818608E-02  0.1130116E+00
         25   -1    0    0    0    0  0.00000000000E+00  0.00000000000E+00  0.99999998245E-14  0.12500000000E+03  0.12500000000E+03 0.  0.
        -13    1    3    3    0    0  0.17822256523E+02 -0.12670945585E+02  0.42807886928E+02  0.48069866204E+02  0.10566000000E+00 0.  1.
         23    2    1    0    0    0  0.31344419711E+02 -0.95677288346E+01  0.89907712315E+00  0.92215515534E+02  0.86190944324E+02 0.  0.
         13    1    3    3    0    0  0.13522163187E+02  0.31032167504E+01 -0.41908809805E+02  0.44145649330E+02  0.10566000000E+00 0. -1.
         22    1    1    0    0    0 -0.31344419711E+02  0.95677288346E+01 -0.89907712315E+00  0.32784484466E+02  0.00000000000E+00 0. -1.
</event>
<event>
 5    1  0.9041167E-005  0.9118800E+02  0.7818608E-02  0.1130116E+00
         25   -1    0    0    0    0  0.00000000000E+00  0.00000000000E+00  0.99999998245E-14  0.12500000000E+03  0.12500000000E+03 0.  0.
        -13    1    3    3    0    0 -0.89043361708E+01 -0.23641625641E+02  0.55456056845E+02  0.60939306448E+02  0.10566000000E+00 0. -1.
         23    2    1    0    0    0  0.22464017999E+01 -0.17883976041E+02  0.22719634416E+02  0.95998884365E+02  0.91513502235E+02 0.  0.
         13    1    3    3    0    0  0.11150737971E+02  0.57576496001E+01 -0.32736422429E+02  0.35059577917E+02  0.10566000000E+00 0.  1.
         22    1    1    0    0    0 -0.22464017999E+01  0.17883976041E+02 -0.22719634416E+02  0.29001115635E+02  0.00000000000E+00 0. -1.
</event>
<event>
 5    1  0.9041167E-005  0.9118800E+02  0.7818608E-02  0.1130116E+00
         25   -1    0    0    0    0  0.00000000000E+00  0.00000000000E+00  0.99999998245E-14  0.12500000000E+03  0.12500000000E+03 0.  0.
        -13    1    3    3    0    0  0.37790927789E+01 -0.40952643452E+02  0.13392786055E+02  0.43252496232E+02  0.10566000000E+00 0.  1.
         23    2    1    0    0    0  0.16856247500E+02  0.96511353762E+01  0.21367393996E+02  0.96123659857E+02  0.91683776996E+02 0.  0.
         13    1    3    3    0    0  0.13077154722E+02  0.50603778828E+02  0.79746079409E+01  0.52871163626E+02  0.10566000000E+00 0. -1.
         22    1    1    0    0    0 -0.16856247500E+02 -0.96511353762E+01 -0.21367393996E+02  0.28876340143E+02  0.00000000000E+00 0. -1.
</event>
<event>
 5    1  0.9041167E-005  0.9118800E+02  0.7818608E-02  0.1130116E+00
         25   -1    0    0    0    0  0.00000000000E+00  0.00000000000E+00  0.99999998245E-14  0.12500000000E+03  0.12500000000E+03 0.  0.
        -13    1    3    3    0    0 -0.22267610668E+02 -0.16929556043E+02  0.52006391732E+02  0.59051945757E+02  0.10566000000E+00 0.  1.
         23    2    1    0    0    0  0.37931886938E+00 -0.17880413330E+02  0.22752905106E+02  0.96059582684E+02  0.91596373678E+02 0.  0.
         13    1    3    3    0    0  0.22646929537E+02 -0.95085728768E+00 -0.29253486626E+02  0.37007636926E+02  0.10566000000E+00 0. -1.
         22    1    1    0    0    0 -0.37931886938E+00  0.17880413330E+02 -0.22752905106E+02  0.28940417316E+02  0.00000000000E+00 0. -1.
</event>
<event>
 5    1  0.9041167E-005  0.9118800E+02  0.7818608E-02  0.1130116E+00
         25   -1    0    0    0    0  0.00000000000E+00  0.00000000000E+00  0.99999998245E-14  0.12500000000E+03  0.12500000000E+03 0.  0.
        -13    1    3    3    0    0  0.18701402195E+02  0.59681162131E+01 -0.19062654086E+02  0.27363420839E+02  0.10566000000E+00 0. -1.
         23    2    1    0    0    0 -0.38388884700E+02  0.56780162881E+00 -0.66850706528E+01  0.86029254089E+02  0.76696241905E+02 0.  0.
         13    1    3    3    0    0 -0.57090286895E+02 -0.54003145843E+01  0.12377583433E+02  0.58665833251E+02  0.10566000000E+00 0.  1.
         22    1    1    0    0    0  0.38388884700E+02 -0.56780162881E+00  0.66850706528E+01  0.38970745911E+02  0.00000000000E+00 0.  1.
</event>
<event>
 5    1  0.9041167E-005  0.9118800E+02  0.7818608E-02  0.1130116E+00
         25   -1    0    0    0    0  0.00000000000E+00  0.00000000000E+00  0.99999998245E-14  0.12500000000E+03  0.12500000000E+03 0.  0.
        -13    1    3    3    0    0  0.40437887908E+02  0.36557531234E+02  0.27530042403E+02  0.61070371434E+02  0.10566000000E+00 0. -1.
         23    2    1    0    0    0  0.22901703196E+02  0.10772654243E+02  0.59246170952E+01  0.99006939841E+02  0.95533946638E+02 0.  0.
         13    1    3    3    0    0 -0.17536184712E+02 -0.25784876991E+02 -0.21605425307E+02  0.37936568407E+02  0.10566000000E+00 0.  1.
         22    1    1    0    0    0 -0.22901703196E+02 -0.10772654243E+02 -0.59246170952E+01  0.25993060159E+02  0.00000000000E+00 0. -1.
</event>
<event>
 5    1  0.9041167E-005  0.9118800E+02  0.7818608E-02  0.1130116E+00
         25   -1    0    0    0    0  0.00000000000E+00  0.00000000000E+00  0.99999998245E-14  0.12500000000E+03  0.12500000000E+03 0.  0.
        -13    1    3    3    0    0 -0.57389794028E+02 -0.11538307266E+02  0.11748697511E+02  0.59705645046E+02  0.10566000000E+00 0.  1.
         23    2    1    0    0    0 -0.23638300689E+02 -0.16697898486E+02 -0.70658532482E+00  0.96050244627E+02  0.91583629306E+02 0.  0.
         13    1    3    3    0    0  0.33751493339E+02 -0.51595912205E+01 -0.12455282836E+02  0.36344599581E+02  0.10566000000E+00 0. -1.
         22    1    1    0    0    0  0.23638300689E+02  0.16697898486E+02  0.70658532482E+00  0.28949755373E+02  0.00000000000E+00 0.  1.
</event>
<event>
 5    1  0.9041167E-005  0.9118800E+02  0.7818608E-02  0.1130116E+00
         25   -1    0    0    0    0  0.00000000000E+00  0.00000000000E+00  0.99999998245E-14  0.12500000000E+03  0.12500000000E+03 0.  0.
        -13    1    3    3    0    0  0.34913896171E+02 -0.12483115161E+02 -0.25974327048E+02  0.45271239652E+02  0.10566000000E+00 0. -1.
         23    2    1    0    0    0 -0.14760894304E+02 -0.19797729575E+02 -0.12817526376E+02  0.97176932603E+02  0.93108716836E+02 0.  0.
         13    1    3    3    0    0 -0.49674790475E+02 -0.73146144140E+01  0.13156800673E+02  0.51905692951E+02  0.10566000000E+00 0.  1.
         22    1    1    0    0    0  0.14760894304E+02  0.19797729575E+02  0.12817526376E+02  0.27823067397E+02  0.00000000000E+00 0. -1.
</event>
<event>
 5    1  0.9041167E-005  0.9118800E+02  0.7818608E-02  0.1130116E+00
         25   -1    0    0    0    0  0.00000000000E+00  0.00000000000E+00  0.99999998245E-14  0.12500000000E+03  0.12500000000E+03 0.  0.
        -13    1    3    3    0    0 -0.22968399006E+02 -0.15702595433E+02 -0.21373139775E+02  0.35084770544E+02  0.10566000000E+00 0.  1.
         23    2    1    0    0    0  0.20771517144E+02 -0.86984510080E+01  0.19389762990E+02  0.95283306321E+02  0.90530804593E+02 0.  0.
         13    1    3    3    0    0  0.43739916150E+02  0.70041444251E+01  0.40762902764E+02  0.60198535778E+02  0.10566000000E+00 0. -1.
         22    1    1    0    0    0 -0.20771517144E+02  0.86984510080E+01 -0.19389762990E+02  0.29716693679E+02  0.00000000000E+00 0. -1.
</event>
<event>
 5    1  0.9041167E-005  0.9118800E+02  0.7818608E-02  0.1130116E+00
         25   -1    0    0    0    0  0.00000000000E+00  0.00000000000E+00  0.99999998245E-14  0.12500000000E+03  0.12500000000E+03 0.  0.
        -13    1    3    3    0    0  0.44977403087E+02  0.30708397492E+02  0.10540273462E+02  0.55471443047E+02  0.10566000000E+00 0.  1.
         23    2    1    0    0    0  0.19241740658E+02  0.14829003714E+02 -0.16168802984E+02  0.95818256998E+02  0.91266446460E+02 0.  0.
         13    1    3    3    0    0 -0.25735662429E+02 -0.15879393778E+02 -0.26709076446E+02  0.40346813951E+02  0.10566000000E+00 0. -1.
         22    1    1    0    0    0 -0.19241740658E+02 -0.14829003714E+02  0.16168802984E+02  0.29181743002E+02  0.00000000000E+00 0.  1.
</event>
<event>
 5    1  0.9041167E-005  0.9118800E+02  0.7818608E-02  0.1130116E+00
         25   -1    0    0    0    0  0.00000000000E+00  0.00000000000E+00  0.99999998245E-14  0.12500000000E+03  0.12500000000E+03 0.  0.
        -13    1    3    3    0    0 -0.11322770707E+02 -0.25026336354E+02  0.33174894703E+02  0.43070958317E+02  0.10566000000E+00 0.  1.
         23    2    1    0    0    0  0.95248968030E+01  0.21409910792E+02  0.15274704190E+02  0.97028147588E+02  0.92908755761E+02 0.  0.
         13    1    3    3    0    0  0.20847667510E+02  0.46436247146E+02 -0.17900190513E+02  0.53957189271E+02  0.10566000000E+00 0. -1.
         22    1    1    0    0    0 -0.95248968030E+01 -0.21409910792E+02 -0.15274704190E+02  0.27971852412E+02  0.00000000000E+00 0. -1.
</event>
<event>
 5    1  0.9041167E-005  0.9118800E+02  0.7818608E-02  0.1130116E+00
         25   -1    0    0    0    0  0.00000000000E+00  0.00000000000E+00  0.99999998245E-14  0.12500000000E+03  0.12500000000E+03 0.  0.
        -13    1    3    3    0    0  0.38690369955E+02 -0.32918329540E+02  0.13363854346E+02  0.52527753750E+02  0.10566000000E+00 0. -1.
         23    2    1    0    0    0  0.29302921657E+02  0.68560968060E+01  0.87781768840E+01  0.93651576268E+02  0.88249045700E+02 0.  0.
         13    1    3    3    0    0 -0.93874482977E+01  0.39774426346E+02 -0.45856774623E+01  0.41123822518E+02  0.10566000000E+00 0.  1.
         22    1    1    0    0    0 -0.29302921657E+02 -0.68560968060E+01 -0.87781768840E+01  0.31348423732E+02  0.00000000000E+00 0. -1.
</event>
<event>
 5    1  0.9041167E-005  0.9118800E+02  0.7818608E-02  0.1130116E+00
         25   -1    0    0    0    0  0.00000000000E+00  0.00000000000E+00  0.99999998245E-14  0.12500000000E+03  0.12500000000E+03 0.  0.
        -13    1    3    3    0    0 -0.28972494540E+02  0.85813226403E+01  0.37493636916E+02  0.48154215925E+02  0.10566000000E+00 0. -1.
         23    2    1    0    0    0 -0.20797408088E+02  0.26268338166E+02 -0.11965935581E+01  0.91474045736E+02  0.85108821129E+02 0.  0.
         13    1    3    3    0    0  0.81750864518E+01  0.17687015526E+02 -0.38690230474E+02  0.43319829811E+02  0.10566000000E+00 0.  1.
         22    1    1    0    0    0  0.20797408088E+02 -0.26268338166E+02  0.11965935581E+01  0.33525954264E+02  0.00000000000E+00 0. -1.
</event>
<event>
 5    1  0.9041167E-005  0.9118800E+02  0.7818608E-02  0.1130116E+00
         25   -1    0    0    0    0  0.00000000000E+00  0.00000000000E+00  0.99999998245E-14  0.12500000000E+03  0.12500000000E+03 0.  0.
        -13    1    3    3    0    0 -0.52942899507E+02 -0.21185180977E+02 -0.12141777340E+02  0.58302627918E+02  0.10566000000E+00 0.  1.
         23    2    1    0    0    0 -0.29511686295E+02  0.26402666562E+01  0.34357413310E+01  0.95171909976E+02  0.90376863710E+02 0.  0.
         13    1    3    3    0    0  0.23431213212E+02  0.23825447633E+02  0.15577518670E+02  0.36869282058E+02  0.10566000000E+00 0. -1.
         22    1    1    0    0    0  0.29511686295E+02 -0.26402666562E+01 -0.34357413310E+01  0.29828090024E+02  0.00000000000E+00 0.  1.
</event>
<event>
 5    1  0.9041167E-005  0.9118800E+02  0.7818608E-02  0.1130116E+00
         25   -1    0    0    0    0  0.00000000000E+00  0.00000000000E+00  0.99999998245E-14  0.12500000000E+03  0.12500000000E+03 0.  0.
        -13    1    3    3    0    0  0.34600503052E+01  0.39327849960E+02  0.51399494485E+01  0.39813087985E+02  0.10566000000E+00 0.  1.
         23    2    1    0    0    0  0.21993117973E+02 -0.65406516551E+01 -0.19323163646E+02  0.95002299829E+02  0.90141971119E+02 0.  0.
         13    1    3    3    0    0  0.18533067668E+02 -0.45868501615E+02 -0.24463113094E+02  0.55189211843E+02  0.10566000000E+00 0. -1.
         22    1    1    0    0    0 -0.21993117973E+02  0.65406516551E+01  0.19323163646E+02  0.29997700171E+02  0.00000000000E+00 0. -1.
</event>
<event>
 5    1  0.9041167E-005  0.9118800E+02  0.7818608E-02  0.1130116E+00
         25   -1    0    0    0    0  0.00000000000E+00  0.00000000000E+00  0.99999998245E-14  0.12500000000E+03  0.12500000000E+03 0.  0.
        -13    1    3    3    0    0  0.24465954988E+02  0.33099043692E+02  0.93015772128E+01  0.42197869016E+02  0.10566000000E+00 0.  1.
         23    2    1    0    0    0 -0.80411670134E+01  0.91987977360E+01 -0.26295912122E+02  0.96004254777E+02  0.91520837486E+02 0.  0.
         13    1    3    3    0    0 -0.32507122002E+02 -0.23900245956E+02 -0.35597489335E+02  0.53806385760E+02  0.10566000000E+00 0. -1.
         22    1    1    0    0    0  0.80411670134E+01 -0.91987977360E+01  0.26295912122E+02  0.28995745223E+02  0.00000000000E+00 0. -1.
</event>
<event>
 5    1  0.9041167E-005  0.9118800E+02  0.7818608E-02  0.1130116E+00
         25   -1    0    0    0    0  0.00000000000E+00  0.00000000000E+00  0.99999998245E-14  0.12500000000E+03  0.12500000000E+03 0.  0.
        -13    1    3    3    0    0  0.53918724339E+02 -0.21061325738E+02  0.21987483948E+02  0.61921473583E+02  0.10566000000E+00 0.  1.
         23    2    1    0    0    0  0.23655270998E+02 -0.15689395181E+02  0.10462485985E+02  0.94747849992E+02  0.89788431872E+02 0.  0.
         13    1    3    3    0    0 -0.30263453342E+02  0.53719305567E+01 -0.11524997963E+02  0.32826376409E+02  0.10566000000E+00 0. -1.
         22    1    1    0    0    0 -0.23655270998E+02  0.15689395181E+02 -0.10462485985E+02  0.30252150008E+02  0.00000000000E+00 0.  1.
</event>
<event>
 5    1  0.9041167E-005  0.9118800E+02  0.7818608E-02  0.1130116E+00
         25   -1    0    0    0    0  0.00000000000E+00  0.00000000000E+00  0.99999998245E-14  0.12500000000E+03  0.12500000000E+03 0.  0.
        -13    1    3    3    0    0  0.93431942390E+01 -0.29429028657E+02  0.29319314180E+02  0.42579294901E+02  0.10566000000E+00 0. -1.
         23    2    1    0    0    0  0.71268307665E+00 -0.18619662407E+02 -0.22253861465E+02  0.95975284749E+02  0.91481261399E+02 0.  0.
         13    1    3    3    0    0 -0.86305111623E+01  0.10809366250E+02 -0.51573175645E+02  0.53395989847E+02  0.10566000000E+00 0.  1.
         22    1    1    0    0    0 -0.71268307665E+00  0.18619662407E+02  0.22253861465E+02  0.29024715251E+02  0.00000000000E+00 0.  1.
</event>
<event>
 5    1  0.9041167E-005  0.9118800E+02  0.7818608E-02  0.1130116E+00
         25   -1    0    0    0    0  0.00000000000E+00  0.00000000000E+00  0.99999998245E-14  0.12500000000E+03  0.12500000000E+03 0.  0.
        -13    1    3    3    0    0 -0.13080447251E+02  0.17497753912E+02  0.32511530450E+02  0.39169889820E+02  0.10566000000E+00 0.  1.
         23    2    1    0    0    0 -0.88623402393E+01 -0.26299380328E+02 -0.47700703346E+01  0.96840595689E+02  0.92656078712E+02 0.  0.
         13    1    3    3    0    0  0.42181070121E+01 -0.43797134240E+02 -0.37281600784E+02  0.57670705869E+02  0.10566000000E+00 0. -1.
         22    1    1    0    0    0  0.88623402393E+01  0.26299380328E+02  0.47700703346E+01  0.28159404311E+02  0.00000000000E+00 0. -1.
</event>
<event>
 5    1  0.9041167E-005  0.9118800E+02  0.7818608E-02  0.1130116E+00
         25   -1    0    0    0    0  0.00000000000E+00  0.00000000000E+00  0.99999998245E-14  0.12500000000E+03  0.12500000000E+03 0.  0.
        -13    1    3    3    0    0  0.52560581363E+01  0.17875495877E+02  0.23430369198E+02  0.29935812412E+02  0.10566000000E+00 0. -1.
         23    2    1    0    0    0 -0.12522956056E+02 -0.27682647877E+02 -0.14025018207E+02  0.91535771971E+02  0.85199430706E+02 0.  0.
         13    1    3    3    0    0 -0.17779014193E+02 -0.45558143754E+02 -0.37455387405E+02  0.61599959559E+02  0.10566000000E+00 0.  1.
         22    1    1    0    0    0  0.12522956056E+02  0.27682647877E+02  0.14025018207E+02  0.33464228029E+02  0.00000000000E+00 0.  1.
</event>
<event>
 5    1  0.9041167E-005  0.9118800E+02  0.7818608E-02  0.1130116E+00
         25   -1    0    0    0    0  0.00000000000E+00  0.00000000000E+00  0.99999998245E-14  0.12500000000E+03  0.12500000000E+03 0.  0.
        -13    1    3    3    0    0  0.17274359380E+02  0.49365335979E+02 -0.29034412047E+02  0.59819295677E+02  0.10566000000E+00 0.  1.
         23    2    1    0    0    0  0.16975098264E+02  0.28497997011E+02 -0.53262344720E+01  0.91404485889E+02  0.85006596640E+02 0.  0.
         13    1    3    3    0    0 -0.29926111594E+00 -0.20867338968E+02  0.23708177575E+02  0.31585190213E+02  0.10566000000E+00 0. -1.
         22    1    1    0    0    0 -0.16975098264E+02 -0.28497997011E+02  0.53262344720E+01  0.33595514111E+02  0.00000000000E+00 0.  1.
</event>
<event>
 5    1  0.9041167E-005  0.9118800E+02  0.7818608E-02  0.1130116E+00
         25   -1    0    0    0    0  0.00000000000E+00  0.00000000000E+00  0.99999998245E-14  0.12500000000E+03  0.12500000000E+03 0.  0.
        -13    1    3    3    0    0  0.47218485815E+02 -0.33112312069E+02 -0.30989855416E+01  0.57754874155E+02  0.10566000000E+00 0. -1.
         23    2    1    0    0    0  0.29620767899E+02 -0.11965156027E+00  0.93353105549E+00  0.95364283581E+02  0.90642544621E+02 0.  0.
         13    1    3    3    0    0 -0.17597717916E+02  0.32992660509E+02  0.40325165971E+01  0.37609409427E+02  0.10566000000E+00 0.  1.
         22    1    1    0    0    0 -0.29620767899E+02  0.11965156027E+00 -0.93353105549E+00  0.29635716419E+02  0.00000000000E+00 0. -1.
</event>
<event>
 5    1  0.9041167E-005  0.9118800E+02  0.7818608E-02  0.1130116E+00
         25   -1    0    0    0    0  0.00000000000E+00  0.00000000000E+00  0.99999998245E-14  0.12500000000E+03  0.12500000000E+03 0.  0.
        -13    1    3    3    0    0  0.14900033466E+02  0.39114940630E+02 -0.46403987137E+02  0.62492645679E+02  0.10566000000E+00 0.  1.
         23    2    1    0    0    0  0.74809439693E+01  0.18157909761E+02 -0.21136628457E+02  0.96148114930E+02  0.91717112540E+02 0.  0.
         13    1    3    3    0    0 -0.74190894965E+01 -0.20957030869E+02  0.25267358680E+02  0.33655469251E+02  0.10566000000E+00 0. -1.
         22    1    1    0    0    0 -0.74809439693E+01 -0.18157909761E+02  0.21136628457E+02  0.28851885070E+02  0.00000000000E+00 0.  1.
</event>
<event>
 5    1  0.9041167E-005  0.9118800E+02  0.7818608E-02  0.1130116E+00
         25   -1    0    0    0    0  0.00000000000E+00  0.00000000000E+00  0.99999998245E-14  0.12500000000E+03  0.12500000000E+03 0.  0.
        -13    1    3    3    0    0  0.28971288076E+01 -0.14016909941E+01  0.36872390848E+02  0.37012733806E+02  0.10566000000E+00 0. -1.
         23    2    1    0    0    0  0.14521924958E+02  0.22754405132E+02 -0.14056183742E+02  0.94566045956E+02  0.89534973552E+02 0.  0.
         13    1    3    3    0    0  0.11624796151E+02  0.24156096126E+02 -0.50928574589E+02  0.57553312149E+02  0.10566000000E+00 0.  1.
         22    1    1    0    0    0 -0.14521924958E+02 -0.22754405132E+02  0.14056183742E+02  0.30433954044E+02  0.00000000000E+00 0.  1.
</event>
<event>
 5    1  0.9041167E-005  0.9118800E+02  0.7818608E-02  0.1130116E+00
         25   -1    0    0    0    0  0.00000000000E+00  0.00000000000E+00  0.99999998245E-14  0.12500000000E+03  0.12500000000E+03 0.  0.
        -13    1    3    3    0    0  0.11852257004E+02  0.31168848909E+02  0.16245403696E+02  0.37093091590E+02  0.10566000000E+00 0.  1.
         23    2    1    0    0    0 -0.46397208578E+01 -0.18563931028E+02 -0.17214255478E+02  0.99261368791E+02  0.95866272472E+02 0.  0.
         13    1    3    3    0    0 -0.16491977862E+02 -0.49732779937E+02 -0.33459659174E+02  0.62168277201E+02  0.10566000000E+00 0. -1.
         22    1    1    0    0    0  0.46397208578E+01  0.18563931028E+02  0.17214255478E+02  0.25738631209E+02  0.00000000000E+00 0. -1.
</event>
<event>
 5    1  0.9041167E-005  0.9118800E+02  0.7818608E-02  0.1130116E+00
         25   -1    0    0    0    0  0.00000000000E+00  0.00000000000E+00  0.99999998245E-14  0.12500000000E+03  0.12500000000E+03 0.  0.
        -13    1    3    3    0    0 -0.33551125588E+02 -0.65892758142E+01  0.27730167424E+02  0.44023515686E+02  0.10566000000E+00 0. -1.
         23    2    1    0    0    0  0.18522869176E+02 -0.99098303638E-01  0.21108519739E+02  0.96916622202E+02  0.92758587476E+02 0.  0.
         13    1    3    3    0    0  0.52073994764E+02  0.64901775106E+01 -0.66216476851E+01  0.52893106516E+02  0.10566000000E+00 0.  1.
         22    1    1    0    0    0 -0.18522869176E+02  0.99098303638E-01 -0.21108519739E+02  0.28083377798E+02  0.00000000000E+00 0.  1.
</event>
<event>
 5    1  0.9041167E-005  0.9118800E+02  0.7818608E-02  0.1130116E+00
         25   -1    0    0    0    0  0.00000000000E+00  0.00000000000E+00  0.99999998245E-14  0.12500000000E+03  0.12500000000E+03 0.  0.
        -13    1    3    3    0    0 -0.30682653653E+02  0.43038528633E+02 -0.20797372455E+02  0.56800370132E+02  0.10566000000E+00 0.  1.
         23    2    1    0    0    0  0.80244098366E+00  0.30575971989E+02 -0.56495249985E+01  0.93896123918E+02  0.88594757066E+02 0.  0.
         13    1    3    3    0    0  0.31485094636E+02 -0.12462556644E+02  0.15147847457E+02  0.37095753786E+02  0.10566000000E+00 0. -1.
         22    1    1    0    0    0 -0.80244098366E+00 -0.30575971989E+02  0.56495249985E+01  0.31103876082E+02  0.00000000000E+00 0.  1.
</event>
<event>
 5    1  0.9041167E-005  0.9118800E+02  0.7818608E-02  0.1130116E+00
         25   -1    0    0    0    0  0.00000000000E+00  0.00000000000E+00  0.99999998245E-14  0.12500000000E+03  0.12500000000E+03 0.  0.
        -13    1    3    3    0    0 -0.36254316230E+02  0.11542110782E+02 -0.66022526645E+01  0.38616015731E+02  0.10566000000E+00 0.  1.
         23    2    1    0    0    0  0.16195171133E+02  0.19963740516E+02  0.14160834811E+02  0.95651000938E+02  0.91037081645E+02 0.  0.
         13    1    3    3    0    0  0.52449487363E+02  0.84216297339E+01  0.20763087476E+02  0.57034985207E+02  0.10566000000E+00 0. -1.
         22    1    1    0    0    0 -0.16195171133E+02 -0.19963740516E+02 -0.14160834811E+02  0.29348999062E+02  0.00000000000E+00 0. -1.
</event>
<event>
 5    1  0.9041167E-005  0.9118800E+02  0.7818608E-02  0.1130116E+00
         25   -1    0    0    0    0  0.00000000000E+00  0.00000000000E+00  0.99999998245E-14  0.12500000000E+03  0.12500000000E+03 0.  0.
        -13    1    3    3    0    0  0.79633498515E+01  0.16779661536E+01  0.36053627663E+02  0.36960867725E+02  0.10566000000E+00 0.  1.
         23    2    1    0    0    0 -0.62308544616E+01 -0.15073136410E+02 -0.21183565850E+02  0.98264883568E+02  0.94558029230E+02 0.  0.
         13    1    3    3    0    0 -0.14194204313E+02 -0.16751102563E+02 -0.57237193513E+02  0.61304015843E+02  0.10566000000E+00 0. -1.
         22    1    1    0    0    0  0.62308544616E+01  0.15073136410E+02  0.21183565850E+02  0.26735116432E+02  0.00000000000E+00 0. -1.
</event>
<event>
 5    1  0.9041167E-005  0.9118800E+02  0.7818608E-02  0.1130116E+00
         25   -1    0    0    0    0  0.00000000000E+00  0.00000000000E+00  0.99999998245E-14  0.12500000000E+03  0.12500000000E+03 0.  0.
        -13    1    3    3    0    0 -0.25326487722E+02  0.23527935281E+02 -0.16898731950E+02  0.38478214934E+02  0.10566000000E+00 0.  1.
         23    2    1    0    0    0  0.14783011813E+02 -0.16154119432E+02 -0.20485537145E+02  0.95014165928E+02  0.90158424353E+02 0.  0.
         13    1    3    3    0    0  0.40109499536E+02 -0.39682054713E+02 -0.35868051951E+01  0.56535950994E+02  0.10566000000E+00 0. -1.
         22    1    1    0    0    0 -0.14783011813E+02  0.16154119432E+02  0.20485537145E+02  0.29985834072E+02  0.00000000000E+00 0. -1.
</event>
<event>
 5    1  0.9041167E-005  0.9118800E+02  0.7818608E-02  0.1130116E+00
         25   -1    0    0    0    0  0.00000000000E+00  0.00000000000E+00  0.99999998245E-14  0.12500000000E+03  0.12500000000E+03 0.  0.
        -13    1    3    3    0    0  0.42529522356E+02  0.12829159698E+02 -0.20712439939E+02  0.49013915806E+02  0.10566000000E+00 0. -1.
         23    2    1    0    0    0 -0.43028256385E+01  0.17866571411E+02 -0.22250333574E+02  0.96141621206E+02  0.91708261904E+02 0.  0.
         13    1    3    3    0    0 -0.46832347994E+02  0.50374117131E+01 -0.15378936357E+01  0.47127705400E+02  0.10566000000E+00 0.  1.
         22    1    1    0    0    0  0.43028256385E+01 -0.17866571411E+02  0.22250333574E+02  0.28858378794E+02  0.00000000000E+00 0. -1.
</event>
<event>
 5    1  0.9041167E-005  0.9118800E+02  0.7818608E-02  0.1130116E+00
         25   -1    0    0    0    0  0.00000000000E+00  0.00000000000E+00  0.99999998245E-14  0.12500000000E+03  0.12500000000E+03 0.  0.
        -13    1    3    3    0    0  0.28837325005E+02 -0.21376200068E+02  0.38733910359E+02  0.52809660276E+02  0.10566000000E+00 0. -1.
         23    2    1    0    0    0  0.13953294282E+02  0.15110853137E+02  0.19493703891E+02  0.96662096139E+02  0.92414955687E+02 0.  0.
         13    1    3    3    0    0 -0.14884030723E+02  0.36487053204E+02 -0.19240206468E+02  0.43852435862E+02  0.10566000000E+00 0.  1.
         22    1    1    0    0    0 -0.13953294282E+02 -0.15110853137E+02 -0.19493703891E+02  0.28337903861E+02  0.00000000000E+00 0. -1.
</event>
<event>
 5    1  0.9041167E-005  0.9118800E+02  0.7818608E-02  0.1130116E+00
         25   -1    0    0    0    0  0.00000000000E+00  0.00000000000E+00  0.99999998245E-14  0.12500000000E+03  0.12500000000E+03 0.  0.
        -13    1    3    3    0    0 -0.73599100614E+01  0.11077074269E+02 -0.52299438555E+02  0.53963990657E+02  0.10566000000E+00 0.  1.
         23    2    1    0    0    0  0.14908389021E+02 -0.93551742294E+01 -0.22804516234E+02  0.96193311389E+02  0.91778689505E+02 0.  0.
         13    1    3    3    0    0  0.22268299082E+02 -0.20432248498E+02  0.29494922321E+02  0.42229320732E+02  0.10566000000E+00 0. -1.
         22    1    1    0    0    0 -0.14908389021E+02  0.93551742294E+01  0.22804516234E+02  0.28806688611E+02  0.00000000000E+00 0.  1.
</event>
<event>
 5    1  0.9041167E-005  0.9118800E+02  0.7818608E-02  0.1130116E+00
         25   -1    0    0    0    0  0.00000000000E+00  0.00000000000E+00  0.99999998245E-14  0.12500000000E+03  0.12500000000E+03 0.  0.
        -13    1    3    3    0    0 -0.46094978657E+02  0.24512218011E+02  0.41927019281E+01  0.52375431289E+02  0.10566000000E+00 0. -1.
         23    2    1    0    0    0 -0.19931105371E+02 -0.13090798676E+01 -0.20278918868E+02  0.96536036785E+02  0.92244290860E+02 0.  0.
         13    1    3    3    0    0  0.26163873285E+02 -0.25821297878E+02 -0.24471620796E+02  0.44160605497E+02  0.10566000000E+00 0.  1.
         22    1    1    0    0    0  0.19931105371E+02  0.13090798676E+01  0.20278918868E+02  0.28463963215E+02  0.00000000000E+00 0. -1.
</event>
<event>
 5    1  0.9041167E-005  0.9118800E+02  0.7818608E-02  0.1130116E+00
         25   -1    0    0    0    0  0.00000000000E+00  0.00000000000E+00  0.99999998245E-14  0.12500000000E+03  0.12500000000E+03 0.  0.
        -13    1    3    3    0    0  0.73367870706E+01  0.55391622155E+02  0.18699879489E+02  0.58921616631E+02  0.10566000000E+00 0.  1.
         23    2    1    0    0    0 -0.11648977633E+02  0.18138086505E+02  0.68564385611E+01  0.10237922168E+03  0.99848912966E+02 0.  0.
         13    1    3    3    0    0 -0.18985764704E+02 -0.37253535650E+02 -0.11843440928E+02  0.43457605052E+02  0.10566000000E+00 0. -1.
         22    1    1    0    0    0  0.11648977633E+02 -0.18138086505E+02 -0.68564385611E+01  0.22620778318E+02  0.00000000000E+00 0.  1.
</event>
<event>
 5    1  0.9041167E-005  0.9118800E+02  0.7818608E-02  0.1130116E+00
         25   -1    0    0    0    0  0.00000000000E+00  0.00000000000E+00  0.99999998245E-14  0.12500000000E+03  0.12500000000E+03 0.  0.
        -13    1    3    3    0    0  0.74172917698E+01 -0.34028996088E+02 -0.95674488940E+01  0.36118361457E+02  0.10566000000E+00 0.  1.
         23    2    1    0    0    0  0.27018397332E+01  0.24826496987E+02 -0.15733973156E+02  0.95483685835E+02  0.90807056217E+02 0.  0.
         13    1    3    3    0    0 -0.47154520366E+01  0.58855493075E+02 -0.61665242624E+01  0.59365324378E+02  0.10566000000E+00 0. -1.
         22    1    1    0    0    0 -0.27018397332E+01 -0.24826496987E+02  0.15733973156E+02  0.29516314165E+02  0.00000000000E+00 0. -1.
</event>
<event>
 5    1  0.9041167E-005  0.9118800E+02  0.7818608E-02  0.1130116E+00
         25   -1    0    0    0    0  0.00000000000E+00  0.00000000000E+00  0.99999998245E-14  0.12500000000E+03  0.12500000000E+03 0.  0.
        -13    1    3    3    0    0  0.50630913253E+02 -0.11252680125E+02  0.32879975396E+02  0.61410228243E+02  0.10566000000E+00 0.  1.
         23    2    1    0    0    0  0.19147845953E+02 -0.16217958443E+01  0.21304856040E+02  0.96309110901E+02  0.91936269912E+02 0.  0.
         13    1    3    3    0    0 -0.31483067300E+02  0.96308842812E+01 -0.11575119355E+02  0.34898882658E+02  0.10566000000E+00 0. -1.
         22    1    1    0    0    0 -0.19147845953E+02  0.16217958443E+01 -0.21304856040E+02  0.28690889099E+02  0.00000000000E+00 0.  1.
</event>
<event>
 5    1  0.9041167E-005  0.9118800E+02  0.7818608E-02  0.1130116E+00
         25   -1    0    0    0    0  0.00000000000E+00  0.00000000000E+00  0.99999998245E-14  0.12500000000E+03  0.12500000000E+03 0.  0.
        -13    1    3    3    0    0  0.11042173152E+02 -0.48036235315E+02 -0.18794002024E+02  0.52750688785E+02  0.10566000000E+00 0.  1.
         23    2    1    0    0    0  0.17991254975E+02 -0.19352698356E+02  0.12501996381E+02  0.95767961023E+02  0.91197534263E+02 0.  0.
         13    1    3    3    0    0  0.69490818236E+01  0.28683536958E+02  0.31295998405E+02  0.43017272238E+02  0.10566000000E+00 0. -1.
         22    1    1    0    0    0 -0.17991254975E+02  0.19352698356E+02 -0.12501996381E+02  0.29232038977E+02  0.00000000000E+00 0. -1.
</event>
<event>
 5    1  0.9041167E-005  0.9118800E+02  0.7818608E-02  0.1130116E+00
         25   -1    0    0    0    0  0.00000000000E+00  0.00000000000E+00  0.99999998245E-14  0.12500000000E+03  0.12500000000E+03 0.  0.
        -13    1    3    3    0    0 -0.25601017898E+02  0.30375563273E+02  0.56441627663E+01  0.40124240789E+02  0.10566000000E+00 0.  1.
         23    2    1    0    0    0  0.21457736137E+02  0.85428744353E+01 -0.16588285861E+02  0.96564346824E+02  0.92282645747E+02 0.  0.
         13    1    3    3    0    0  0.47058754035E+02 -0.21832688838E+02 -0.22232448627E+02  0.56440106035E+02  0.10566000000E+00 0. -1.
         22    1    1    0    0    0 -0.21457736137E+02 -0.85428744353E+01  0.16588285861E+02  0.28435653176E+02  0.00000000000E+00 0. -1.
</event>
<event>
 5    1  0.9041167E-005  0.9118800E+02  0.7818608E-02  0.1130116E+00
         25   -1    0    0    0    0  0.00000000000E+00  0.00000000000E+00  0.99999998245E-14  0.12500000000E+03  0.12500000000E+03 0.  0.
        -13    1    3    3    0    0 -0.16892597446E+02  0.26294451647E+02 -0.16097939308E+02  0.35155552191E+02  0.10566000000E+00 0.  1.
         23    2    1    0    0    0  0.11033952444E+02 -0.26141566726E+02 -0.10161766149E+02  0.94860472653E+02  0.89945084153E+02 0.  0.
         13    1    3    3    0    0  0.27926549890E+02 -0.52436018373E+02  0.59361731588E+01  0.59704920462E+02  0.10566000000E+00 0. -1.
         22    1    1    0    0    0 -0.11033952444E+02  0.26141566726E+02  0.10161766149E+02  0.30139527347E+02  0.00000000000E+00 0. -1.
</event>
<event>
 5    1  0.9041167E-005  0.9118800E+02  0.7818608E-02  0.1130116E+00
         25   -1    0    0    0    0  0.00000000000E+00  0.00000000000E+00  0.99999998245E-14  0.12500000000E+03  0.12500000000E+03 0.  0.
        -13    1    3    3    0    0 -0.26131000103E+02 -0.21982054946E+02 -0.20852250388E+02  0.40010841235E+02  0.10566000000E+00 0.  1.
         23    2    1    0    0    0 -0.56810835160E+01 -0.58612614206E+01  0.28251982693E+02  0.95592456386E+02  0.90956660539E+02 0.  0.
         13    1    3    3    0    0  0.20449916587E+02  0.16120793525E+02  0.49104233081E+02  0.55581615151E+02  0.10566000000E+00 0. -1.
         22    1    1    0    0    0  0.56810835160E+01  0.58612614206E+01 -0.28251982693E+02  0.29407543614E+02  0.00000000000E+00 0. -1.
</event>
<event>
 5    1  0.9041167E-005  0.9118800E+02  0.7818608E-02  0.1130116E+00
         25   -1    0    0    0    0  0.00000000000E+00  0.00000000000E+00  0.99999998245E-14  0.12500000000E+03  0.12500000000E+03 0.  0.
        -13    1    3    3    0    0 -0.40732436096E+02  0.16072310117E+02  0.38232654443E+01  0.43955420889E+02  0.10566000000E+00 0. -1.
         23    2    1    0    0    0  0.64022399817E+01 -0.15381896622E+02  0.15983670517E+02  0.10191170981E+03  0.99261913409E+02 0.  0.
         13    1    3    3    0    0  0.47134676077E+02 -0.31454206739E+02  0.12160405073E+02  0.57956288926E+02  0.10566000000E+00 0.  1.
         22    1    1    0    0    0 -0.64022399817E+01  0.15381896622E+02 -0.15983670517E+02  0.23088290185E+02  0.00000000000E+00 0.  1.
</event>
<event>
 5    1  0.9041167E-005  0.9118800E+02  0.7818608E-02  0.1130116E+00
         25   -1    0    0    0    0  0.00000000000E+00  0.00000000000E+00  0.99999998245E-14  0.12500000000E+03  0.12500000000E+03 0.  0.
        -13    1    3    3    0    0  0.40054775354E+02 -0.28226447233E+01 -0.45736381683E+02  0.60861976023E+02  0.10566000000E+00 0.  1.
         23    2    1    0    0    0  0.20903062322E+02 -0.10873952434E+02 -0.18937537258E+02  0.94770690160E+02  0.89820223447E+02 0.  0.
         13    1    3    3    0    0 -0.19151713032E+02 -0.80513077106E+01  0.26798844425E+02  0.33908714138E+02  0.10566000000E+00 0. -1.
         22    1    1    0    0    0 -0.20903062322E+02  0.10873952434E+02  0.18937537258E+02  0.30229309840E+02  0.00000000000E+00 0.  1.
</event>
<event>
 5    1  0.9041167E-005  0.9118800E+02  0.7818608E-02  0.1130116E+00
         25   -1    0    0    0    0  0.00000000000E+00  0.00000000000E+00  0.99999998245E-14  0.12500000000E+03  0.12500000000E+03 0.  0.
        -13    1    3    3    0    0 -0.40871783641E+02 -0.61364080412E+01 -0.32031675548E+02  0.52289555401E+02  0.10566000000E+00 0.  1.
         23    2    1    0    0    0  0.81274026338E+00  0.36735461166E+01 -0.29578481231E+02  0.95183191993E+02  0.90392466491E+02 0.  0.
         13    1    3    3    0    0  0.41684523904E+02  0.98099541577E+01  0.24531943170E+01  0.42893636592E+02  0.10566000000E+00 0. -1.
         22    1    1    0    0    0 -0.81274026338E+00 -0.36735461166E+01  0.29578481231E+02  0.29816808007E+02  0.00000000000E+00 0.  1.
</event>
<event>
 5    1  0.9041167E-005  0.9118800E+02  0.7818608E-02  0.1130116E+00
         25   -1    0    0    0    0  0.00000000000E+00  0.00000000000E+00  0.99999998245E-14  0.12500000000E+03  0.12500000000E+03 0.  0.
        -13    1    3    3    0    0  0.11150954527E+02  0.50494319872E+02 -0.96888366378E+01  0.52610881437E+02  0.10566000000E+00 0.  1.
         23    2    1    0    0    0  0.14638840926E+02  0.18255510504E+02  0.18179614262E+02  0.95367961559E+02  0.90647616570E+02 0.  0.
         13    1    3    3    0    0  0.34878863990E+01 -0.32238809367E+02  0.27868450900E+02  0.42757080122E+02  0.10566000000E+00 0. -1.
         22    1    1    0    0    0 -0.14638840926E+02 -0.18255510504E+02 -0.18179614262E+02  0.29632038441E+02  0.00000000000E+00 0.  1.
</event>
<event>
 5    1  0.9041167E-005  0.9118800E+02  0.7818608E-02  0.1130116E+00
         25   -1    0    0    0    0  0.00000000000E+00  0.00000000000E+00  0.99999998245E-14  0.12500000000E+03  0.12500000000E+03 0.  0.
        -13    1    3    3    0    0  0.16692818960E+02  0.45167437400E+02  0.50197416330E+01  0.48414425291E+02  0.10566000000E+00 0.  1.
         23    2    1    0    0    0  0.96236893284E+01  0.87475504463E+01 -0.25447969202E+02  0.96421438601E+02  0.92088868222E+02 0.  0.
         13    1    3    3    0    0 -0.70691296319E+01 -0.36419886954E+02 -0.30467710835E+02  0.48007013311E+02  0.10566000000E+00 0. -1.
         22    1    1    0    0    0 -0.96236893284E+01 -0.87475504463E+01  0.25447969202E+02  0.28578561399E+02  0.00000000000E+00 0. -1.
</event>
<event>
 5    1  0.9041167E-005  0.9118800E+02  0.7818608E-02  0.1130116E+00
         25   -1    0    0    0    0  0.00000000000E+00  0.00000000000E+00  0.99999998245E-14  0.12500000000E+03  0.12500000000E+03 0.  0.
        -13    1    3    3    0    0 -0.35037653296E+02  0.49108946429E+02  0.49945566614E+00  0.60328984641E+02  0.10566000000E+00 0. -1.
         23    2    1    0    0    0 -0.15070460104E+02  0.19979659089E+02 -0.11268487142E+02  0.97553973921E+02  0.93613532570E+02 0.  0.
         13    1    3    3    0    0  0.19967193193E+02 -0.29129287340E+02 -0.11767942808E+02  0.37224989280E+02  0.10566000000E+00 0.  1.
         22    1    1    0    0    0  0.15070460104E+02 -0.19979659089E+02  0.11268487142E+02  0.27446026079E+02  0.00000000000E+00 0. -1.
</event>
<event>
 5    1  0.9041167E-005  0.9118800E+02  0.7818608E-02  0.1130116E+00
         25   -1    0    0    0    0  0.00000000000E+00  0.00000000000E+00  0.99999998245E-14  0.12500000000E+03  0.12500000000E+03 0.  0.
        -13    1    3    3    0    0 -0.34090648401E+02  0.13312697255E+02 -0.12588100145E+02  0.38702346775E+02  0.10566000000E+00 0. -1.
         23    2    1    0    0    0 -0.15599171211E+01 -0.28126694125E+02 -0.17855535717E+02  0.91647872338E+02  0.85363739869E+02 0.  0.
         13    1    3    3    0    0  0.32530731280E+02 -0.41439391381E+02 -0.52674355723E+01  0.52945525563E+02  0.10566000000E+00 0.  1.
         22    1    1    0    0    0  0.15599171211E+01  0.28126694125E+02  0.17855535717E+02  0.33352127662E+02  0.00000000000E+00 0.  1.
</event>
<event>
 5    1  0.9041167E-005  0.9118800E+02  0.7818608E-02  0.1130116E+00
         25   -1    0    0    0    0  0.00000000000E+00  0.00000000000E+00  0.99999998245E-14  0.12500000000E+03  0.12500000000E+03 0.  0.
        -13    1    3    3    0    0  0.88003600042E+01  0.38131737474E+02  0.43652459722E+02  0.58626138734E+02  0.10566000000E+00 0.  1.
         23    2    1    0    0    0  0.14477262844E+02  0.23203417783E+02  0.99940237254E+01  0.95881788405E+02  0.91353418662E+02 0.  0.
         13    1    3    3    0    0  0.56769028400E+01 -0.14928319691E+02 -0.33658435997E+02  0.37255649671E+02  0.10566000000E+00 0. -1.
         22    1    1    0    0    0 -0.14477262844E+02 -0.23203417783E+02 -0.99940237254E+01  0.29118211595E+02  0.00000000000E+00 0.  1.
</event>
<event>
 5    1  0.9041167E-005  0.9118800E+02  0.7818608E-02  0.1130116E+00
         25   -1    0    0    0    0  0.00000000000E+00  0.00000000000E+00  0.99999998245E-14  0.12500000000E+03  0.12500000000E+03 0.  0.
        -13    1    3    3    0    0  0.19342216316E+01  0.23436985353E+02 -0.50331759218E+02  0.55554753584E+02  0.10566000000E+00 0. -1.
         23    2    1    0    0    0 -0.15822092529E+02  0.20042820387E+02 -0.14635272082E+02  0.95567968980E+02  0.90923001737E+02 0.  0.
         13    1    3    3    0    0 -0.17756314160E+02 -0.33941649660E+01  0.35696487136E+02  0.40013215395E+02  0.10566000000E+00 0.  1.
         22    1    1    0    0    0  0.15822092529E+02 -0.20042820387E+02  0.14635272082E+02  0.29432031020E+02  0.00000000000E+00 0. -1.
</event>
<event>
 5    1  0.9041167E-005  0.9118800E+02  0.7818608E-02  0.1130116E+00
         25   -1    0    0    0    0  0.00000000000E+00  0.00000000000E+00  0.99999998245E-14  0.12500000000E+03  0.12500000000E+03 0.  0.
        -13    1    3    3    0    0  0.21325369769E+02  0.24517146495E+02 -0.37557199881E+02  0.49663027445E+02  0.10566000000E+00 0.  1.
         23    2    1    0    0    0 -0.18435062626E+02  0.18549612413E+01 -0.17078691612E+02  0.99801307129E+02  0.96567731579E+02 0.  0.
         13    1    3    3    0    0 -0.39760432395E+02 -0.22662185254E+02  0.20478508269E+02  0.50138279684E+02  0.10566000000E+00 0. -1.
         22    1    1    0    0    0  0.18435062626E+02 -0.18549612413E+01  0.17078691612E+02  0.25198692871E+02  0.00000000000E+00 0.  1.
</event>
<event>
 5    1  0.9041167E-005  0.9118800E+02  0.7818608E-02  0.1130116E+00
         25   -1    0    0    0    0  0.00000000000E+00  0.00000000000E+00  0.99999998245E-14  0.12500000000E+03  0.12500000000E+03 0.  0.
        -13    1    3    3    0    0  0.14308382376E+02 -0.48900277741E+02  0.40103516424E+01  0.51108326657E+02  0.10566000000E+00 0.  1.
         23    2    1    0    0    0  0.73509397947E+01 -0.13549060776E+02 -0.23814925428E+02  0.96631636689E+02  0.92373747203E+02 0.  0.
         13    1    3    3    0    0 -0.69574425816E+01  0.35351216965E+02 -0.27825277071E+02  0.45523310032E+02  0.10566000000E+00 0. -1.
         22    1    1    0    0    0 -0.73509397947E+01  0.13549060776E+02  0.23814925428E+02  0.28368363311E+02  0.00000000000E+00 0.  1.
</event>
<event>
 5    1  0.9041167E-005  0.9118800E+02  0.7818608E-02  0.1130116E+00
         25   -1    0    0    0    0  0.00000000000E+00  0.00000000000E+00  0.99999998245E-14  0.12500000000E+03  0.12500000000E+03 0.  0.
        -13    1    3    3    0    0 -0.21180341560E+02  0.88424103889E+01  0.47322328382E+02  0.52594762264E+02  0.10566000000E+00 0. -1.
         23    2    1    0    0    0 -0.28531080235E+02 -0.41698478616E+01  0.73876218617E+01  0.95234464101E+02  0.90463340781E+02 0.  0.
         13    1    3    3    0    0 -0.73507386753E+01 -0.13012258250E+02 -0.39934706520E+02  0.42639701837E+02  0.10566000000E+00 0.  1.
         22    1    1    0    0    0  0.28531080235E+02  0.41698478616E+01 -0.73876218617E+01  0.29765535899E+02  0.00000000000E+00 0. -1.
</event>
<event>
 5    1  0.9041167E-005  0.9118800E+02  0.7818608E-02  0.1130116E+00
         25   -1    0    0    0    0  0.00000000000E+00  0.00000000000E+00  0.99999998245E-14  0.12500000000E+03  0.12500000000E+03 0.  0.
        -13    1    3    3    0    0  0.64514150346E+01 -0.43937510048E+02 -0.83726858962E+00  0.44416637962E+02  0.10566000000E+00 0. -1.
         23    2    1    0    0    0 -0.13507399206E+02 -0.64200785077E+00 -0.24024718985E+02  0.97431011450E+02  0.93449199367E+02 0.  0.
         13    1    3    3    0    0 -0.19958814240E+02  0.43295502197E+02 -0.23187450395E+02  0.53014373487E+02  0.10566000000E+00 0.  1.
         22    1    1    0    0    0  0.13507399206E+02  0.64200785077E+00  0.24024718985E+02  0.27568988550E+02  0.00000000000E+00 0.  1.
</event>
<event>
 5    1  0.9041167E-005  0.9118800E+02  0.7818608E-02  0.1130116E+00
         25   -1    0    0    0    0  0.00000000000E+00  0.00000000000E+00  0.99999998245E-14  0.12500000000E+03  0.12500000000E+03 0.  0.
        -13    1    3    3    0    0 -0.20130101625E+02 -0.25784822659E+02 -0.25117668619E+02  0.41243017735E+02  0.10566000000E+00 0.  1.
         23    2    1    0    0    0 -0.28698004694E+02  0.55087958011E+01  0.14440206105E+02  0.92404879859E+02  0.86465137280E+02 0.  0.
         13    1    3    3    0    0 -0.85679030695E+01  0.31293618460E+02  0.39557874724E+02  0.51161862125E+02  0.10566000000E+00 0. -1.
         22    1    1    0    0    0  0.28698004694E+02 -0.55087958011E+01 -0.14440206105E+02  0.32595120141E+02  0.00000000000E+00 0. -1.
</event>
<event>
 5    1  0.9041167E-005  0.9118800E+02  0.7818608E-02  0.1130116E+00
         25   -1    0    0    0    0  0.00000000000E+00  0.00000000000E+00  0.99999998245E-14  0.12500000000E+03  0.12500000000E+03 0.  0.
        -13    1    3    3    0    0 -0.14208891296E+02  0.50843158427E+01  0.38866906426E+02  0.41694009625E+02  0.10566000000E+00 0.  1.
         23    2    1    0    0    0  0.25140016882E+02 -0.12866409111E+02  0.57196894084E+01  0.96185424189E+02  0.91767946731E+02 0.  0.
         13    1    3    3    0    0  0.39348908178E+02 -0.17950724954E+02 -0.33147217017E+02  0.54491414564E+02  0.10566000000E+00 0. -1.
         22    1    1    0    0    0 -0.25140016882E+02  0.12866409111E+02 -0.57196894084E+01  0.28814575811E+02  0.00000000000E+00 0. -1.
</event>
<event>
 5    1  0.9041167E-005  0.9118800E+02  0.7818608E-02  0.1130116E+00
         25   -1    0    0    0    0  0.00000000000E+00  0.00000000000E+00  0.99999998245E-14  0.12500000000E+03  0.12500000000E+03 0.  0.
        -13    1    3    3    0    0  0.14378413819E+02 -0.48737303983E+02  0.12944646740E+02  0.52436996736E+02  0.10566000000E+00 0. -1.
         23    2    1    0    0    0  0.25713603219E+01 -0.20230178347E+02 -0.19197562322E+02  0.96992529408E+02  0.92860822482E+02 0.  0.
         13    1    3    3    0    0 -0.11807053497E+02  0.28507125635E+02 -0.32142209062E+02  0.44555532672E+02  0.10566000000E+00 0.  1.
         22    1    1    0    0    0 -0.25713603219E+01  0.20230178347E+02  0.19197562322E+02  0.28007470592E+02  0.00000000000E+00 0. -1.
</event>
<event>
 5    1  0.9041167E-005  0.9118800E+02  0.7818608E-02  0.1130116E+00
         25   -1    0    0    0    0  0.00000000000E+00  0.00000000000E+00  0.99999998245E-14  0.12500000000E+03  0.12500000000E+03 0.  0.
        -13    1    3    3    0    0  0.99174413084E+01  0.35806025591E+02  0.33662870997E+01  0.37306435954E+02  0.10566000000E+00 0.  1.
         23    2    1    0    0    0  0.17277730493E+02 -0.20092000262E+02 -0.12244941241E+02  0.95808442462E+02  0.91253003323E+02 0.  0.
         13    1    3    3    0    0  0.73602891847E+01 -0.55898025853E+02 -0.15611228341E+02  0.58502006508E+02  0.10566000000E+00 0. -1.
         22    1    1    0    0    0 -0.17277730493E+02  0.20092000262E+02  0.12244941241E+02  0.29191557538E+02  0.00000000000E+00 0. -1.
</event>
<event>
 5    1  0.9041167E-005  0.9118800E+02  0.7818608E-02  0.1130116E+00
         25   -1    0    0    0    0  0.00000000000E+00  0.00000000000E+00  0.99999998245E-14  0.12500000000E+03  0.12500000000E+03 0.  0.
        -13    1    3    3    0    0 -0.80675889368E+01 -0.20905701011E+02 -0.26233914648E+02  0.34501648769E+02  0.10566000000E+00 0.  1.
         23    2    1    0    0    0  0.18114941133E+01  0.27645375465E+00  0.29762977063E+02  0.95180664976E+02  0.90388971916E+02 0.  0.
         13    1    3    3    0    0  0.98790830501E+01  0.21182154766E+02  0.55996891711E+02  0.60679016207E+02  0.10566000000E+00 0. -1.
         22    1    1    0    0    0 -0.18114941133E+01 -0.27645375465E+00 -0.29762977063E+02  0.29819335024E+02  0.00000000000E+00 0. -1.
</event>
<event>
 5    1  0.9041167E-005  0.9118800E+02  0.7818608E-02  0.1130116E+00
         25   -1    0    0    0    0  0.00000000000E+00  0.00000000000E+00  0.99999998245E-14  0.12500000000E+03  0.12500000000E+03 0.  0.
        -13    1    3    3    0    0 -0.15107423012E+02  0.27303065615E+02 -0.18447420730E+02  0.36249277478E+02  0.10566000000E+00 0.  1.
         23    2    1    0    0    0  0.55102163095E+01 -0.27406428208E+02 -0.99395298858E+01  0.95330671641E+02  0.90596180440E+02 0.  0.
         13    1    3    3    0    0  0.20617639321E+02 -0.54709493823E+02  0.85078908442E+01  0.59081394163E+02  0.10566000000E+00 0. -1.
         22    1    1    0    0    0 -0.55102163095E+01  0.27406428208E+02  0.99395298858E+01  0.29669328359E+02  0.00000000000E+00 0. -1.
</event>
<event>
 5    1  0.9041167E-005  0.9118800E+02  0.7818608E-02  0.1130116E+00
         25   -1    0    0    0    0  0.00000000000E+00  0.00000000000E+00  0.99999998245E-14  0.12500000000E+03  0.12500000000E+03 0.  0.
        -13    1    3    3    0    0  0.26801134639E+02  0.16044125399E+02  0.16246255392E+02  0.35208901659E+02  0.10566000000E+00 0.  1.
         23    2    1    0    0    0 -0.17805323411E+02 -0.21563278190E+02  0.14313683988E+02  0.93585257324E+02  0.88155058454E+02 0.  0.
         13    1    3    3    0    0 -0.44606458050E+02 -0.37607403589E+02 -0.19325714038E+01  0.58376355665E+02  0.10566000000E+00 0. -1.
         22    1    1    0    0    0  0.17805323411E+02  0.21563278190E+02 -0.14313683988E+02  0.31414742676E+02  0.00000000000E+00 0. -1.
</event>
<event>
 5    1  0.9041167E-005  0.9118800E+02  0.7818608E-02  0.1130116E+00
         25   -1    0    0    0    0  0.00000000000E+00  0.00000000000E+00  0.99999998245E-14  0.12500000000E+03  0.12500000000E+03 0.  0.
        -13    1    3    3    0    0 -0.54637597415E+02  0.62973897470E+01  0.11229661668E+02  0.56134130741E+02  0.10566000000E+00 0.  1.
         23    2    1    0    0    0 -0.25201113456E+02  0.93312567161E+01 -0.13707472324E+02  0.94832745089E+02  0.89906541877E+02 0.  0.
         13    1    3    3    0    0  0.29436483959E+02  0.30338669691E+01 -0.24937133993E+02  0.38698614348E+02  0.10566000000E+00 0. -1.
         22    1    1    0    0    0  0.25201113456E+02 -0.93312567161E+01  0.13707472324E+02  0.30167254911E+02  0.00000000000E+00 0.  1.
</event>
<event>
 5    1  0.9041167E-005  0.9118800E+02  0.7818608E-02  0.1130116E+00
         25   -1    0    0    0    0  0.00000000000E+00  0.00000000000E+00  0.99999998245E-14  0.12500000000E+03  0.12500000000E+03 0.  0.
        -13    1    3    3    0    0  0.25026156884E+02 -0.43016078209E+01  0.42836391683E+02  0.49797389235E+02  0.10566000000E+00 0. -1.
         23    2    1    0    0    0  0.24330958461E+02  0.15488619014E+02  0.93529444213E+00  0.96142286399E+02  0.91709168569E+02 0.  0.
         13    1    3    3    0    0 -0.69519842284E+00  0.19790226835E+02 -0.41901097241E+02  0.46344897163E+02  0.10566000000E+00 0.  1.
         22    1    1    0    0    0 -0.24330958461E+02 -0.15488619014E+02 -0.93529444213E+00  0.28857713601E+02  0.00000000000E+00 0. -1.
</event>
<event>
 5    1  0.9041167E-005  0.9118800E+02  0.7818608E-02  0.1130116E+00
         25   -1    0    0    0    0  0.00000000000E+00  0.00000000000E+00  0.99999998245E-14  0.12500000000E+03  0.12500000000E+03 0.  0.
        -13    1    3    3    0    0  0.21402727109E+02 -0.33694952189E+02 -0.16539583078E+02  0.43208743365E+02  0.10566000000E+00 0.  1.
         23    2    1    0    0    0 -0.14789827003E+02 -0.15658250542E+02  0.18416523223E+02  0.96661190561E+02  0.92413730799E+02 0.  0.
         13    1    3    3    0    0 -0.36192554112E+02  0.18036701647E+02  0.34956106302E+02  0.53452447196E+02  0.10566000000E+00 0. -1.
         22    1    1    0    0    0  0.14789827003E+02  0.15658250542E+02 -0.18416523223E+02  0.28338809439E+02  0.00000000000E+00 0. -1.
</event>
<event>
 5    1  0.9041167E-005  0.9118800E+02  0.7818608E-02  0.1130116E+00
         25   -1    0    0    0    0  0.00000000000E+00  0.00000000000E+00  0.99999998245E-14  0.12500000000E+03  0.12500000000E+03 0.  0.
        -13    1    3    3    0    0  0.13442377967E+02  0.38834346009E+02 -0.36839573653E+02  0.55190300835E+02  0.10566000000E+00 0.  1.
         23    2    1    0    0    0 -0.30222857350E-01  0.86974997428E+00 -0.28697534406E+02  0.96289272747E+02  0.91909293255E+02 0.  0.
         13    1    3    3    0    0 -0.13472600824E+02 -0.37964596035E+02  0.81420392468E+01  0.41098971912E+02  0.10566000000E+00 0. -1.
         22    1    1    0    0    0  0.30222857350E-01 -0.86974997428E+00  0.28697534406E+02  0.28710727253E+02  0.00000000000E+00 0.  1.
</event>
<event>
 5    1  0.9041167E-005  0.9118800E+02  0.7818608E-02  0.1130116E+00
         25   -1    0    0    0    0  0.00000000000E+00  0.00000000000E+00  0.99999998245E-14  0.12500000000E+03  0.12500000000E+03 0.  0.
        -13    1    3    3    0    0 -0.12759854300E+02 -0.53099771536E+02  0.28044118806E+02  0.61391232131E+02  0.10566000000E+00 0.  1.
         23    2    1    0    0    0  0.23628367378E+01 -0.25362548786E+02  0.13518125792E+02  0.96162843356E+02  0.91737183514E+02 0.  0.
         13    1    3    3    0    0  0.15122691038E+02  0.27737222750E+02 -0.14525993014E+02  0.34771611225E+02  0.10566000000E+00 0. -1.
         22    1    1    0    0    0 -0.23628367378E+01  0.25362548786E+02 -0.13518125792E+02  0.28837156644E+02  0.00000000000E+00 0.  1.
</event>
<event>
 5    1  0.9041167E-005  0.9118800E+02  0.7818608E-02  0.1130116E+00
         25   -1    0    0    0    0  0.00000000000E+00  0.00000000000E+00  0.99999998245E-14  0.12500000000E+03  0.12500000000E+03 0.  0.
        -13    1    3    3    0    0 -0.41548007336E+02 -0.26273767181E+02  0.25108908979E+02  0.55199784688E+02  0.10566000000E+00 0.  1.
         23    2    1    0    0    0 -0.13036451007E+02  0.57945959333E+00  0.27625985835E+02  0.94447096347E+02  0.89368753413E+02 0.  0.
         13    1    3    3    0    0  0.28511556329E+02  0.26853226774E+02  0.25170768562E+01  0.39247311658E+02  0.10566000000E+00 0. -1.
         22    1    1    0    0    0  0.13036451007E+02 -0.57945959333E+00 -0.27625985835E+02  0.30552903653E+02  0.00000000000E+00 0. -1.
</event>
<event>
 5    1  0.9041167E-005  0.9118800E+02  0.7818608E-02  0.1130116E+00
         25   -1    0    0    0    0  0.00000000000E+00  0.00000000000E+00  0.99999998245E-14  0.12500000000E+03  0.12500000000E+03 0.  0.
        -13    1    3    3    0    0 -0.34987856552E+02  0.26832547244E+02 -0.19349858456E+02  0.48151468140E+02  0.10566000000E+00 0.  1.
         23    2    1    0    0    0 -0.11738270149E+02  0.16681887154E+02  0.20942660994E+02  0.95765304951E+02  0.91193893643E+02 0.  0.
         13    1    3    3    0    0  0.23249586403E+02 -0.10150660091E+02  0.40292519450E+02  0.47613836811E+02  0.10566000000E+00 0. -1.
         22    1    1    0    0    0  0.11738270149E+02 -0.16681887154E+02 -0.20942660994E+02  0.29234695049E+02  0.00000000000E+00 0. -1.
</event>
<event>
 5    1  0.9041167E-005  0.9118800E+02  0.7818608E-02  0.1130116E+00
         25   -1    0    0    0    0  0.00000000000E+00  0.00000000000E+00  0.99999998245E-14  0.12500000000E+03  0.12500000000E+03 0.  0.
        -13    1    3    3    0    0 -0.99120663099E+01  0.22519264715E+02  0.24663304730E+02  0.34837567453E+02  0.10566000000E+00 0.  1.
         23    2    1    0    0    0  0.43812155784E+01 -0.30226395151E+02  0.85751623278E+00  0.94445698374E+02  0.89366798048E+02 0.  0.
         13    1    3    3    0    0  0.14293281888E+02 -0.52745659866E+02 -0.23805788497E+02  0.59608130920E+02  0.10566000000E+00 0. -1.
         22    1    1    0    0    0 -0.43812155784E+01  0.30226395151E+02 -0.85751623278E+00  0.30554301626E+02  0.00000000000E+00 0. -1.
</event>
<event>
 5    1  0.9041167E-005  0.9118800E+02  0.7818608E-02  0.1130116E+00
         25   -1    0    0    0    0  0.00000000000E+00  0.00000000000E+00  0.99999998245E-14  0.12500000000E+03  0.12500000000E+03 0.  0.
        -13    1    3    3    0    0  0.27722916523E+02 -0.15125078325E+02  0.19477753184E+02  0.37104206338E+02  0.10566000000E+00 0.  1.
         23    2    1    0    0    0  0.27680602771E+01  0.28516125238E+02  0.24063081029E+02  0.87585251238E+02  0.79191620829E+02 0.  0.
         13    1    3    3    0    0 -0.24954856246E+02  0.43641203563E+02  0.45853278454E+01  0.50481044900E+02  0.10566000000E+00 0. -1.
         22    1    1    0    0    0 -0.27680602771E+01 -0.28516125238E+02 -0.24063081029E+02  0.37414748762E+02  0.00000000000E+00 0. -1.
</event>
<event>
 5    1  0.9041167E-005  0.9118800E+02  0.7818608E-02  0.1130116E+00
         25   -1    0    0    0    0  0.00000000000E+00  0.00000000000E+00  0.99999998245E-14  0.12500000000E+03  0.12500000000E+03 0.  0.
        -13    1    3    3    0    0 -0.26882225661E+02  0.34087665419E+02  0.43885597352E+02  0.61729893967E+02  0.10566000000E+00 0. -1.
         23    2    1    0    0    0 -0.18263748822E+02  0.12221372426E+02  0.19151324631E+02  0.95850391081E+02  0.91310447213E+02 0.  0.
         13    1    3    3    0    0  0.86184768392E+01 -0.21866292992E+02 -0.24734272721E+02  0.34120497114E+02  0.10566000000E+00 0.  1.
         22    1    1    0    0    0  0.18263748822E+02 -0.12221372426E+02 -0.19151324631E+02  0.29149608919E+02  0.00000000000E+00 0. -1.
</event>
<event>
 5    1  0.9041167E-005  0.9118800E+02  0.7818608E-02  0.1130116E+00
         25   -1    0    0    0    0  0.00000000000E+00  0.00000000000E+00  0.99999998245E-14  0.12500000000E+03  0.12500000000E+03 0.  0.
        -13    1    3    3    0    0 -0.12063157750E+02  0.32233195382E+02 -0.19004798117E+02  0.39315291872E+02  0.10566000000E+00 0.  1.
         23    2    1    0    0    0  0.27769192475E+02  0.12357759354E+02  0.10637757640E+02  0.92797451117E+02  0.87030815113E+02 0.  0.
         13    1    3    3    0    0  0.39832350225E+02 -0.19875436027E+02  0.29642555757E+02  0.53482159246E+02  0.10566000000E+00 0. -1.
         22    1    1    0    0    0 -0.27769192475E+02 -0.12357759354E+02 -0.10637757640E+02  0.32202548883E+02  0.00000000000E+00 0. -1.
</event>
<event>
 5    1  0.9041167E-005  0.9118800E+02  0.7818608E-02  0.1130116E+00
         25   -1    0    0    0    0  0.00000000000E+00  0.00000000000E+00  0.99999998245E-14  0.12500000000E+03  0.12500000000E+03 0.  0.
        -13    1    3    3    0    0  0.20049643931E+02 -0.57855077498E+02 -0.83290250943E+01  0.61794676446E+02  0.10566000000E+00 0. -1.
         23    2    1    0    0    0  0.54871763741E+01 -0.30609519027E+02 -0.87644550578E+01  0.92691062660E+02  0.86877877880E+02 0.  0.
         13    1    3    3    0    0 -0.14562467557E+02  0.27245558471E+02 -0.43542996353E+00  0.30896386213E+02  0.10566000000E+00 0.  1.
         22    1    1    0    0    0 -0.54871763741E+01  0.30609519027E+02  0.87644550578E+01  0.32308937340E+02  0.00000000000E+00 0. -1.
</event>
<event>
 5    1  0.9041167E-005  0.9118800E+02  0.7818608E-02  0.1130116E+00
         25   -1    0    0    0    0  0.00000000000E+00  0.00000000000E+00  0.99999998245E-14  0.12500000000E+03  0.12500000000E+03 0.  0.
        -13    1    3    3    0    0  0.27839641298E+02  0.35354984290E+02  0.50150964287E+01  0.45278945416E+02  0.10566000000E+00 0.  1.
         23    2    1    0    0    0  0.22266569831E+02 -0.15714575794E+02  0.75684265537E+01  0.96715214250E+02  0.92486775068E+02 0.  0.
         13    1    3    3    0    0 -0.55730714674E+01 -0.51069560084E+02  0.25533301249E+01  0.51436268834E+02  0.10566000000E+00 0. -1.
         22    1    1    0    0    0 -0.22266569831E+02  0.15714575794E+02 -0.75684265537E+01  0.28284785750E+02  0.00000000000E+00 0.  1.
</event>
<event>
 5    1  0.9041167E-005  0.9118800E+02  0.7818608E-02  0.1130116E+00
         25   -1    0    0    0    0  0.00000000000E+00  0.00000000000E+00  0.99999998245E-14  0.12500000000E+03  0.12500000000E+03 0.  0.
        -13    1    3    3    0    0 -0.52416911363E+02 -0.28579243124E+02  0.13551732700E+02  0.61220636697E+02  0.10566000000E+00 0.  1.
         23    2    1    0    0    0 -0.21376637174E+02 -0.15785021776E+02  0.14341741017E+02  0.94803757440E+02  0.89866230365E+02 0.  0.
         13    1    3    3    0    0  0.31040274189E+02  0.12794221348E+02  0.79000831742E+00  0.33583120743E+02  0.10566000000E+00 0. -1.
         22    1    1    0    0    0  0.21376637174E+02  0.15785021776E+02 -0.14341741017E+02  0.30196242560E+02  0.00000000000E+00 0.  1.
</event>
<event>
 5    1  0.9041167E-005  0.9118800E+02  0.7818608E-02  0.1130116E+00
         25   -1    0    0    0    0  0.00000000000E+00  0.00000000000E+00  0.99999998245E-14  0.12500000000E+03  0.12500000000E+03 0.  0.
        -13    1    3    3    0    0  0.66207366236E+01  0.11473847045E+02  0.46128003798E+02  0.47992574612E+02  0.10566000000E+00 0.  1.
         23    2    1    0    0    0  0.29316097860E+02 -0.87790822096E+01  0.28676091149E+02  0.83061663340E+02  0.71696693334E+02 0.  0.
         13    1    3    3    0    0  0.22695361237E+02 -0.20252929255E+02 -0.17451912649E+02  0.35069088728E+02  0.10566000000E+00 0. -1.
         22    1    1    0    0    0 -0.29316097860E+02  0.87790822096E+01 -0.28676091149E+02  0.41938336660E+02  0.00000000000E+00 0.  1.
</event>
<event>
 5    1  0.9041167E-005  0.9118800E+02  0.7818608E-02  0.1130116E+00
         25   -1    0    0    0    0  0.00000000000E+00  0.00000000000E+00  0.99999998245E-14  0.12500000000E+03  0.12500000000E+03 0.  0.
        -13    1    3    3    0    0 -0.85486814872E+01  0.26264865354E+01  0.46688080993E+02  0.47537000931E+02  0.10566000000E+00 0.  1.
         23    2    1    0    0    0 -0.29040735443E+02  0.48162357964E+00  0.30490747834E+01  0.95795665846E+02  0.91235500007E+02 0.  0.
         13    1    3    3    0    0 -0.20492053955E+02 -0.21448629558E+01 -0.43639006209E+02  0.48258664915E+02  0.10566000000E+00 0. -1.
         22    1    1    0    0    0  0.29040735443E+02 -0.48162357964E+00 -0.30490747834E+01  0.29204334154E+02  0.00000000000E+00 0. -1.
</event>
<event>
 5    1  0.9041167E-005  0.9118800E+02  0.7818608E-02  0.1130116E+00
         25   -1    0    0    0    0  0.00000000000E+00  0.00000000000E+00  0.99999998245E-14  0.12500000000E+03  0.12500000000E+03 0.  0.
        -13    1    3    3    0    0  0.18927248511E+02  0.33448710686E+02  0.34783962553E+02  0.51836205471E+02  0.10566000000E+00 0.  1.
         23    2    1    0    0    0  0.16185792812E+02 -0.87256993598E+01 -0.61000289045E-01  0.10661192127E+03  0.10501419103E+03 0.  0.
         13    1    3    3    0    0 -0.27414556988E+01 -0.42174410045E+02 -0.34844962842E+02  0.54775715801E+02  0.10566000000E+00 0. -1.
         22    1    1    0    0    0 -0.16185792812E+02  0.87256993598E+01  0.61000289045E-01  0.18388078728E+02  0.00000000000E+00 0. -1.
</event>
<event>
 5    1  0.9041167E-005  0.9118800E+02  0.7818608E-02  0.1130116E+00
         25   -1    0    0    0    0  0.00000000000E+00  0.00000000000E+00  0.99999998245E-14  0.12500000000E+03  0.12500000000E+03 0.  0.
        -13    1    3    3    0    0  0.26144894236E+02 -0.19966516936E+02  0.46094329123E+02  0.56629635656E+02  0.10566000000E+00 0.  1.
         23    2    1    0    0    0  0.27740240402E+02 -0.19200783461E+01  0.13119263007E+02  0.94253899431E+02  0.89098119271E+02 0.  0.
         13    1    3    3    0    0  0.15953461652E+01  0.18046438590E+02 -0.32975066116E+02  0.37624263775E+02  0.10566000000E+00 0. -1.
         22    1    1    0    0    0 -0.27740240402E+02  0.19200783461E+01 -0.13119263007E+02  0.30746100569E+02  0.00000000000E+00 0.  1.
</event>
<event>
 5    1  0.9041167E-005  0.9118800E+02  0.7818608E-02  0.1130116E+00
         25   -1    0    0    0    0  0.00000000000E+00  0.00000000000E+00  0.99999998245E-14  0.12500000000E+03  0.12500000000E+03 0.  0.
        -13    1    3    3    0    0 -0.50913577417E+02 -0.51877642628E+01  0.24184573212E+01  0.51234415809E+02  0.10566000000E+00 0.  1.
         23    2    1    0    0    0 -0.12592114565E+02 -0.16842422946E+02 -0.19002310424E+02  0.96657163844E+02  0.92408284050E+02 0.  0.
         13    1    3    3    0    0  0.38321462853E+02 -0.11654658683E+02 -0.21420767745E+02  0.45422748035E+02  0.10566000000E+00 0. -1.
         22    1    1    0    0    0  0.12592114565E+02  0.16842422946E+02  0.19002310424E+02  0.28342836156E+02  0.00000000000E+00 0. -1.
</event>
<event>
 5    1  0.9041167E-005  0.9118800E+02  0.7818608E-02  0.1130116E+00
         25   -1    0    0    0    0  0.00000000000E+00  0.00000000000E+00  0.99999998245E-14  0.12500000000E+03  0.12500000000E+03 0.  0.
        -13    1    3    3    0    0 -0.24173844280E+02 -0.33958099540E+02 -0.33742414035E+01  0.41820137981E+02  0.10566000000E+00 0.  1.
         23    2    1    0    0    0 -0.22068464276E+02  0.19583053832E+02 -0.23598273516E+00  0.95494597093E+02  0.90822074812E+02 0.  0.
         13    1    3    3    0    0  0.21053800047E+01  0.53541153372E+02  0.31382586683E+01  0.53674459112E+02  0.10566000000E+00 0. -1.
         22    1    1    0    0    0  0.22068464276E+02 -0.19583053832E+02  0.23598273516E+00  0.29505402907E+02  0.00000000000E+00 0. -1.
</event>
<event>
 5    1  0.9041167E-005  0.9118800E+02  0.7818608E-02  0.1130116E+00
         25   -1    0    0    0    0  0.00000000000E+00  0.00000000000E+00  0.99999998245E-14  0.12500000000E+03  0.12500000000E+03 0.  0.
        -13    1    3    3    0    0  0.13293297138E+02 -0.42655536053E+02 -0.63383048261E+01  0.45126397783E+02  0.10566000000E+00 0.  1.
         23    2    1    0    0    0  0.29955202728E+02 -0.25824277947E+02  0.20111566513E+02  0.80630161037E+02  0.67324143213E+02 0.  0.
         13    1    3    3    0    0  0.16661905589E+02  0.16831258106E+02  0.26449871340E+02  0.35503763254E+02  0.10566000000E+00 0. -1.
         22    1    1    0    0    0 -0.29955202728E+02  0.25824277947E+02 -0.20111566513E+02  0.44369838963E+02  0.00000000000E+00 0.  1.
</event>
<event>
 5    1  0.9041167E-005  0.9118800E+02  0.7818608E-02  0.1130116E+00
         25   -1    0    0    0    0  0.00000000000E+00  0.00000000000E+00  0.99999998245E-14  0.12500000000E+03  0.12500000000E+03 0.  0.
        -13    1    3    3    0    0 -0.48106192580E+02  0.37445635116E+00 -0.30696006356E+02  0.57066644832E+02  0.10566000000E+00 0.  1.
         23    2    1    0    0    0 -0.27968695483E+02  0.25198365764E+01  0.33891736706E+01  0.96714243840E+02  0.92485463506E+02 0.  0.
         13    1    3    3    0    0  0.20137497097E+02  0.21453802253E+01  0.34085180026E+02  0.39647599008E+02  0.10566000000E+00 0. -1.
         22    1    1    0    0    0  0.27968695483E+02 -0.25198365764E+01 -0.33891736706E+01  0.28285756160E+02  0.00000000000E+00 0.  1.
</event>
<event>
 5    1  0.9041167E-005  0.9118800E+02  0.7818608E-02  0.1130116E+00
         25   -1    0    0    0    0  0.00000000000E+00  0.00000000000E+00  0.99999998245E-14  0.12500000000E+03  0.12500000000E+03 0.  0.
        -13    1    3    3    0    0  0.30043313227E+02 -0.51500226340E+02  0.16488005462E+02  0.61860645574E+02  0.10566000000E+00 0. -1.
         23    2    1    0    0    0  0.88413878458E+01 -0.27658800157E+02  0.82878059962E+01  0.94802862827E+02  0.89864985989E+02 0.  0.
         13    1    3    3    0    0 -0.21201925381E+02  0.23841426182E+02 -0.82001994660E+01  0.32942217253E+02  0.10566000000E+00 0.  1.
         22    1    1    0    0    0 -0.88413878458E+01  0.27658800157E+02 -0.82878059962E+01  0.30197137173E+02  0.00000000000E+00 0. -1.
</event>
<event>
 5    1  0.9041167E-005  0.9118800E+02  0.7818608E-02  0.1130116E+00
         25   -1    0    0    0    0  0.00000000000E+00  0.00000000000E+00  0.99999998245E-14  0.12500000000E+03  0.12500000000E+03 0.  0.
        -13    1    3    3    0    0 -0.25817661015E+01 -0.91883204344E+01 -0.30547346403E+02  0.32003785478E+02  0.10566000000E+00 0. -1.
         23    2    1    0    0    0 -0.30497584937E+02  0.67907647002E+01  0.17015979164E+02  0.89422468901E+02  0.82040339012E+02 0.  0.
         13    1    3    3    0    0 -0.27915818835E+02  0.15979085135E+02  0.47563325568E+02  0.57418683423E+02  0.10566000000E+00 0.  1.
         22    1    1    0    0    0  0.30497584937E+02 -0.67907647002E+01 -0.17015979164E+02  0.35577531099E+02  0.00000000000E+00 0.  1.
</event>
<event>
 5    1  0.9041167E-005  0.9118800E+02  0.7818608E-02  0.1130116E+00
         25   -1    0    0    0    0  0.00000000000E+00  0.00000000000E+00  0.99999998245E-14  0.12500000000E+03  0.12500000000E+03 0.  0.
        -13    1    3    3    0    0  0.22177754159E+02 -0.34804492867E+02 -0.24974093625E+01  0.41345540519E+02  0.10566000000E+00 0. -1.
         23    2    1    0    0    0 -0.12428399285E+02 -0.86615711384E+01  0.27169630508E+02  0.93892496961E+02  0.88589639576E+02 0.  0.
         13    1    3    3    0    0 -0.34606153443E+02  0.26142921728E+02  0.29667039871E+02  0.52546956442E+02  0.10566000000E+00 0.  1.
         22    1    1    0    0    0  0.12428399285E+02  0.86615711384E+01 -0.27169630508E+02  0.31107503039E+02  0.00000000000E+00 0.  1.
</event>
<event>
 5    1  0.9041167E-005  0.9118800E+02  0.7818608E-02  0.1130116E+00
         25   -1    0    0    0    0  0.00000000000E+00  0.00000000000E+00  0.99999998245E-14  0.12500000000E+03  0.12500000000E+03 0.  0.
        -13    1    3    3    0    0  0.24627734099E+02 -0.34349695117E+02  0.31066131491E+02  0.52455147805E+02  0.10566000000E+00 0.  1.
         23    2    1    0    0    0 -0.87776688828E+01 -0.25630312203E+02  0.15722838307E+01  0.97862711059E+02  0.94024878435E+02 0.  0.
         13    1    3    3    0    0 -0.33405402982E+02  0.87193829135E+01 -0.29493847660E+02  0.45407563253E+02  0.10566000000E+00 0. -1.
         22    1    1    0    0    0  0.87776688828E+01  0.25630312203E+02 -0.15722838307E+01  0.27137288941E+02  0.00000000000E+00 0.  1.
</event>
<event>
 5    1  0.9041167E-005  0.9118800E+02  0.7818608E-02  0.1130116E+00
         25   -1    0    0    0    0  0.00000000000E+00  0.00000000000E+00  0.99999998245E-14  0.12500000000E+03  0.12500000000E+03 0.  0.
        -13    1    3    3    0    0  0.30636428072E+02 -0.40416417172E+02  0.99751738016E+01  0.51687452621E+02  0.10566000000E+00 0.  1.
         23    2    1    0    0    0  0.15745515828E+02 -0.11586675961E+02 -0.20832522876E+02  0.96431374938E+02  0.92102354664E+02 0.  0.
         13    1    3    3    0    0 -0.14890912244E+02  0.28829741211E+02 -0.30807696678E+02  0.44743922318E+02  0.10566000000E+00 0. -1.
         22    1    1    0    0    0 -0.15745515828E+02  0.11586675961E+02  0.20832522876E+02  0.28568625062E+02  0.00000000000E+00 0.  1.
</event>
<event>
 5    1  0.9041167E-005  0.9118800E+02  0.7818608E-02  0.1130116E+00
         25   -1    0    0    0    0  0.00000000000E+00  0.00000000000E+00  0.99999998245E-14  0.12500000000E+03  0.12500000000E+03 0.  0.
        -13    1    3    3    0    0 -0.28952494338E+02 -0.27535248331E+02  0.39602674649E+02  0.56256731441E+02  0.10566000000E+00 0.  1.
         23    2    1    0    0    0 -0.23069410121E+02  0.44184885908E+01  0.13711370362E+02  0.97802161815E+02  0.93944347641E+02 0.  0.
         13    1    3    3    0    0  0.58830842173E+01  0.31953736922E+02 -0.25891304287E+02  0.41545430373E+02  0.10566000000E+00 0. -1.
         22    1    1    0    0    0  0.23069410121E+02 -0.44184885908E+01 -0.13711370362E+02  0.27197838185E+02  0.00000000000E+00 0.  1.
</event>
<event>
 5    1  0.9041167E-005  0.9118800E+02  0.7818608E-02  0.1130116E+00
         25   -1    0    0    0    0  0.00000000000E+00  0.00000000000E+00  0.99999998245E-14  0.12500000000E+03  0.12500000000E+03 0.  0.
        -13    1    3    3    0    0  0.32010454388E+02 -0.35909004473E+02  0.39341894962E+02  0.62144361414E+02  0.10566000000E+00 0. -1.
         23    2    1    0    0    0  0.11230932685E+02 -0.17037359043E+02  0.21243889771E+02  0.95543111082E+02  0.90888820932E+02 0.  0.
         13    1    3    3    0    0 -0.20779521703E+02  0.18871645430E+02 -0.18098005190E+02  0.33398749667E+02  0.10566000000E+00 0.  1.
         22    1    1    0    0    0 -0.11230932685E+02  0.17037359043E+02 -0.21243889771E+02  0.29456888918E+02  0.00000000000E+00 0. -1.
</event>
<event>
 5    1  0.9041167E-005  0.9118800E+02  0.7818608E-02  0.1130116E+00
         25   -1    0    0    0    0  0.00000000000E+00  0.00000000000E+00  0.99999998245E-14  0.12500000000E+03  0.12500000000E+03 0.  0.
        -13    1    3    3    0    0  0.87946907248E+01  0.43259024500E+02 -0.31886353846E+02  0.54455858374E+02  0.10566000000E+00 0.  1.
         23    2    1    0    0    0  0.20949053570E+02  0.22296839327E+02 -0.12449321643E+00  0.94405435320E+02  0.89310463160E+02 0.  0.
         13    1    3    3    0    0  0.12154362845E+02 -0.20962185173E+02  0.31761860630E+02  0.39949576945E+02  0.10566000000E+00 0. -1.
         22    1    1    0    0    0 -0.20949053570E+02 -0.22296839327E+02  0.12449321643E+00  0.30594564680E+02  0.00000000000E+00 0.  1.
</event>
<event>
 5    1  0.9041167E-005  0.9118800E+02  0.7818608E-02  0.1130116E+00
         25   -1    0    0    0    0  0.00000000000E+00  0.00000000000E+00  0.99999998245E-14  0.12500000000E+03  0.12500000000E+03 0.  0.
        -13    1    3    3    0    0 -0.30277963473E+02  0.45352751517E+02  0.17285158310E+01  0.54558464726E+02  0.10566000000E+00 0.  1.
         23    2    1    0    0    0 -0.24835259243E+02  0.21912065677E+02  0.21338555382E+02  0.85601235175E+02  0.75995452455E+02 0.  0.
         13    1    3    3    0    0  0.54427042301E+01 -0.23440685840E+02  0.19610039551E+02  0.31042770450E+02  0.10566000000E+00 0. -1.
         22    1    1    0    0    0  0.24835259243E+02 -0.21912065677E+02 -0.21338555382E+02  0.39398764825E+02  0.00000000000E+00 0.  1.
</event>
<event>
 5    1  0.9041167E-005  0.9118800E+02  0.7818608E-02  0.1130116E+00
         25   -1    0    0    0    0  0.00000000000E+00  0.00000000000E+00  0.99999998245E-14  0.12500000000E+03  0.12500000000E+03 0.  0.
        -13    1    3    3    0    0  0.19270849245E+02  0.26973025906E+02  0.21983525166E+02  0.39776831195E+02  0.10566000000E+00 0.  1.
         23    2    1    0    0    0 -0.22953481580E+02 -0.69633855035E+01  0.19638962041E+02  0.93999356711E+02  0.88740290611E+02 0.  0.
         13    1    3    3    0    0 -0.42224330825E+02 -0.33936411410E+02 -0.23445631256E+01  0.54222525516E+02  0.10566000000E+00 0. -1.
         22    1    1    0    0    0  0.22953481580E+02  0.69633855035E+01 -0.19638962041E+02  0.31000643289E+02  0.00000000000E+00 0. -1.
</event>
<event>
 5    1  0.9041167E-005  0.9118800E+02  0.7818608E-02  0.1130116E+00
         25   -1    0    0    0    0  0.00000000000E+00  0.00000000000E+00  0.99999998245E-14  0.12500000000E+03  0.12500000000E+03 0.  0.
        -13    1    3    3    0    0  0.38510247013E+02 -0.95468485698E+01 -0.28602673205E+02  0.48911200365E+02  0.10566000000E+00 0. -1.
         23    2    1    0    0    0 -0.71531010501E+01 -0.21977632815E+02 -0.10992242409E+02  0.99406786213E+02  0.96055695059E+02 0.  0.
         13    1    3    3    0    0 -0.45663348063E+02 -0.12430784245E+02  0.17610430796E+02  0.50495585848E+02  0.10566000000E+00 0.  1.
         22    1    1    0    0    0  0.71531010501E+01  0.21977632815E+02  0.10992242409E+02  0.25593213787E+02  0.00000000000E+00 0. -1.
</event>
<event>
 5    1  0.9041167E-005  0.9118800E+02  0.7818608E-02  0.1130116E+00
         25   -1    0    0    0    0  0.00000000000E+00  0.00000000000E+00  0.99999998245E-14  0.12500000000E+03  0.12500000000E+03 0.  0.
        -13    1    3    3    0    0  0.34243459444E+02 -0.43953497134E+02 -0.15960383756E+02  0.57959204953E+02  0.10566000000E+00 0.  1.
         23    2    1    0    0    0  0.66043467924E+01 -0.25700485763E+02  0.61213770776E+01  0.97767599769E+02  0.93898348986E+02 0.  0.
         13    1    3    3    0    0 -0.27639112652E+02  0.18253011371E+02  0.22081760834E+02  0.39808394816E+02  0.10566000000E+00 0. -1.
         22    1    1    0    0    0 -0.66043467924E+01  0.25700485763E+02 -0.61213770776E+01  0.27232400231E+02  0.00000000000E+00 0.  1.
</event>
<event>
 5    1  0.9041167E-005  0.9118800E+02  0.7818608E-02  0.1130116E+00
         25   -1    0    0    0    0  0.00000000000E+00  0.00000000000E+00  0.99999998245E-14  0.12500000000E+03  0.12500000000E+03 0.  0.
        -13    1    3    3    0    0  0.32558616529E+02 -0.75284830573E+01  0.98460054501E+01  0.34838147982E+02  0.10566000000E+00 0. -1.
         23    2    1    0    0    0 -0.19616428796E+02  0.59888676066E+01 -0.19919454210E+02  0.96408821816E+02  0.92071740801E+02 0.  0.
         13    1    3    3    0    0 -0.52175045325E+02  0.13517350664E+02 -0.29765459660E+02  0.61570673835E+02  0.10566000000E+00 0.  1.
         22    1    1    0    0    0  0.19616428796E+02 -0.59888676066E+01  0.19919454210E+02  0.28591178184E+02  0.00000000000E+00 0.  1.
</event>
<event>
 5    1  0.9041167E-005  0.9118800E+02  0.7818608E-02  0.1130116E+00
         25   -1    0    0    0    0  0.00000000000E+00  0.00000000000E+00  0.99999998245E-14  0.12500000000E+03  0.12500000000E+03 0.  0.
        -13    1    3    3    0    0  0.49013577932E+02 -0.32744415077E+02  0.15550977641E+02  0.60962050573E+02  0.10566000000E+00 0.  1.
         23    2    1    0    0    0  0.22593690944E+02 -0.10103643877E+02  0.15577112167E+02  0.95756113228E+02  0.91181293624E+02 0.  0.
         13    1    3    3    0    0 -0.26419886988E+02  0.22640771200E+02  0.26134526085E-01  0.34794062655E+02  0.10566000000E+00 0. -1.
         22    1    1    0    0    0 -0.22593690944E+02  0.10103643877E+02 -0.15577112167E+02  0.29243886772E+02  0.00000000000E+00 0.  1.
</event>
<event>
 5    1  0.9041167E-005  0.9118800E+02  0.7818608E-02  0.1130116E+00
         25   -1    0    0    0    0  0.00000000000E+00  0.00000000000E+00  0.99999998245E-14  0.12500000000E+03  0.12500000000E+03 0.  0.
        -13    1    3    3    0    0  0.11578095829E+02 -0.26901331718E+02 -0.25694893286E+02  0.38961168569E+02  0.10566000000E+00 0. -1.
         23    2    1    0    0    0  0.87655835350E+01  0.26784493394E+02 -0.62205571228E+01  0.96139302295E+02  0.91705101133E+02 0.  0.
         13    1    3    3    0    0 -0.28125122937E+01  0.53685825113E+02  0.19474336163E+02  0.57178133726E+02  0.10566000000E+00 0.  1.
         22    1    1    0    0    0 -0.87655835350E+01 -0.26784493394E+02  0.62205571228E+01  0.28860697705E+02  0.00000000000E+00 0.  1.
</event>
<event>
 5    1  0.9041167E-005  0.9118800E+02  0.7818608E-02  0.1130116E+00
         25   -1    0    0    0    0  0.00000000000E+00  0.00000000000E+00  0.99999998245E-14  0.12500000000E+03  0.12500000000E+03 0.  0.
        -13    1    3    3    0    0 -0.12335664421E+02 -0.22960634626E+02 -0.35135990652E+02  0.43748238391E+02  0.10566000000E+00 0.  1.
         23    2    1    0    0    0  0.16388116479E+02 -0.23923270134E+02  0.73898522367E+01  0.95075041659E+02  0.90242785943E+02 0.  0.
         13    1    3    3    0    0  0.28723780900E+02 -0.96263550822E+00  0.42525842889E+02  0.51326803268E+02  0.10566000000E+00 0. -1.
         22    1    1    0    0    0 -0.16388116479E+02  0.23923270134E+02 -0.73898522367E+01  0.29924958341E+02  0.00000000000E+00 0.  1.
</event>
<event>
 5    1  0.9041167E-005  0.9118800E+02  0.7818608E-02  0.1130116E+00
         25   -1    0    0    0    0  0.00000000000E+00  0.00000000000E+00  0.99999998245E-14  0.12500000000E+03  0.12500000000E+03 0.  0.
        -13    1    3    3    0    0 -0.34176656488E+02 -0.14177260854E+02  0.35078170199E+02  0.50985564257E+02  0.10566000000E+00 0.  1.
         23    2    1    0    0    0 -0.21177997915E+02  0.14957647247E+02 -0.88135708112E+00  0.99057455846E+02  0.95600020720E+02 0.  0.
         13    1    3    3    0    0  0.12998658573E+02  0.29134908101E+02 -0.35959527280E+02  0.48071891590E+02  0.10566000000E+00 0. -1.
         22    1    1    0    0    0  0.21177997915E+02 -0.14957647247E+02  0.88135708112E+00  0.25942544154E+02  0.00000000000E+00 0. -1.
</event>
<event>
 5    1  0.9041167E-005  0.9118800E+02  0.7818608E-02  0.1130116E+00
         25   -1    0    0    0    0  0.00000000000E+00  0.00000000000E+00  0.99999998245E-14  0.12500000000E+03  0.12500000000E+03 0.  0.
        -13    1    3    3    0    0 -0.15347318856E+02  0.38202886457E+02  0.27308883811E+02  0.49404321964E+02  0.10566000000E+00 0.  1.
         23    2    1    0    0    0  0.21518349491E+02  0.13326441511E+02  0.15114901415E+02  0.95519605618E+02  0.90856487961E+02 0.  0.
         13    1    3    3    0    0  0.36865668347E+02 -0.24876444946E+02 -0.12193982396E+02  0.46115283654E+02  0.10566000000E+00 0. -1.
         22    1    1    0    0    0 -0.21518349491E+02 -0.13326441511E+02 -0.15114901415E+02  0.29480394382E+02  0.00000000000E+00 0.  1.
</event>
<event>
 5    1  0.9041167E-005  0.9118800E+02  0.7818608E-02  0.1130116E+00
         25   -1    0    0    0    0  0.00000000000E+00  0.00000000000E+00  0.99999998245E-14  0.12500000000E+03  0.12500000000E+03 0.  0.
        -13    1    3    3    0    0 -0.70921117103E+01 -0.42594528082E+02 -0.44196069618E+02  0.61789122058E+02  0.10566000000E+00 0.  1.
         23    2    1    0    0    0 -0.42602139517E+01 -0.15707282243E+02 -0.25819118565E+02  0.94479596630E+02  0.89414199977E+02 0.  0.
         13    1    3    3    0    0  0.28318977586E+01  0.26887245839E+02  0.18376951053E+02  0.32690474572E+02  0.10566000000E+00 0. -1.
         22    1    1    0    0    0  0.42602139517E+01  0.15707282243E+02  0.25819118565E+02  0.30520403370E+02  0.00000000000E+00 0.  1.
</event>
<event>
 5    1  0.9041167E-005  0.9118800E+02  0.7818608E-02  0.1130116E+00
         25   -1    0    0    0    0  0.00000000000E+00  0.00000000000E+00  0.99999998245E-14  0.12500000000E+03  0.12500000000E+03 0.  0.
        -13    1    3    3    0    0  0.18542347025E+02 -0.49638564645E+01 -0.38032458372E+02  0.42602083964E+02  0.10566000000E+00 0.  1.
         23    2    1    0    0    0 -0.48264261593E+01 -0.22804819935E+02  0.10570117411E+02  0.99405438394E+02  0.96053941087E+02 0.  0.
         13    1    3    3    0    0 -0.23368773184E+02 -0.17840963471E+02  0.48602575783E+02  0.56803354430E+02  0.10566000000E+00 0. -1.
         22    1    1    0    0    0  0.48264261593E+01  0.22804819935E+02 -0.10570117411E+02  0.25594561606E+02  0.00000000000E+00 0. -1.
</event>
<event>
 5    1  0.9041167E-005  0.9118800E+02  0.7818608E-02  0.1130116E+00
         25   -1    0    0    0    0  0.00000000000E+00  0.00000000000E+00  0.99999998245E-14  0.12500000000E+03  0.12500000000E+03 0.  0.
        -13    1    3    3    0    0  0.29446045009E+02  0.32910853877E+02 -0.42612856061E+02  0.61368237185E+02  0.10566000000E+00 0.  1.
         23    2    1    0    0    0  0.19048564285E+02  0.13295439106E+02 -0.12996661546E+02  0.98381778540E+02  0.94712431260E+02 0.  0.
         13    1    3    3    0    0 -0.10397480724E+02 -0.19615414771E+02  0.29616194515E+02  0.37013541355E+02  0.10566000000E+00 0. -1.
         22    1    1    0    0    0 -0.19048564285E+02 -0.13295439106E+02  0.12996661546E+02  0.26618221460E+02  0.00000000000E+00 0.  1.
</event>
<event>
 5    1  0.9041167E-005  0.9118800E+02  0.7818608E-02  0.1130116E+00
         25   -1    0    0    0    0  0.00000000000E+00  0.00000000000E+00  0.99999998245E-14  0.12500000000E+03  0.12500000000E+03 0.  0.
        -13    1    3    3    0    0  0.16289188111E+00  0.31815546161E+02 -0.46346535070E+02  0.56216260888E+02  0.10566000000E+00 0.  1.
         23    2    1    0    0    0 -0.39459255889E+01 -0.27089915279E+01 -0.29973247865E+02  0.94647000948E+02  0.89647923774E+02 0.  0.
         13    1    3    3    0    0 -0.41088174700E+01 -0.34524537689E+02  0.16373287204E+02  0.38430740060E+02  0.10566000000E+00 0. -1.
         22    1    1    0    0    0  0.39459255889E+01  0.27089915279E+01  0.29973247865E+02  0.30352999052E+02  0.00000000000E+00 0.  1.
</event>
<event>
 5    1  0.9041167E-005  0.9118800E+02  0.7818608E-02  0.1130116E+00
         25   -1    0    0    0    0  0.00000000000E+00  0.00000000000E+00  0.99999998245E-14  0.12500000000E+03  0.12500000000E+03 0.  0.
        -13    1    3    3    0    0 -0.83216200077E+01 -0.26208771167E+02  0.16782748788E+02  0.32215227247E+02  0.10566000000E+00 0.  1.
         23    2    1    0    0    0 -0.42778472499E+01  0.17571000480E+01 -0.34191299010E+02  0.90497357990E+02  0.83662055303E+02 0.  0.
         13    1    3    3    0    0  0.40437727578E+01  0.27965871215E+02 -0.50974047798E+02  0.58282130743E+02  0.10566000000E+00 0. -1.
         22    1    1    0    0    0  0.42778472499E+01 -0.17571000480E+01  0.34191299010E+02  0.34502642010E+02  0.00000000000E+00 0. -1.
</event>
<event>
 5    1  0.9041167E-005  0.9118800E+02  0.7818608E-02  0.1130116E+00
         25   -1    0    0    0    0  0.00000000000E+00  0.00000000000E+00  0.99999998245E-14  0.12500000000E+03  0.12500000000E+03 0.  0.
        -13    1    3    3    0    0 -0.40832101688E+02 -0.30742388412E+02  0.12629819198E+02  0.52648632181E+02  0.10566000000E+00 0. -1.
         23    2    1    0    0    0 -0.37714249257E+01 -0.26875630221E+02 -0.98060824478E+01  0.96143763261E+02  0.91711181517E+02 0.  0.
         13    1    3    3    0    0  0.37060676762E+02  0.38667581904E+01 -0.22435901646E+02  0.43495131080E+02  0.10566000000E+00 0.  1.
         22    1    1    0    0    0  0.37714249257E+01  0.26875630221E+02  0.98060824478E+01  0.28856236739E+02  0.00000000000E+00 0. -1.
</event>
<event>
 5    1  0.9041167E-005  0.9118800E+02  0.7818608E-02  0.1130116E+00
         25   -1    0    0    0    0  0.00000000000E+00  0.00000000000E+00  0.99999998245E-14  0.12500000000E+03  0.12500000000E+03 0.  0.
        -13    1    3    3    0    0  0.40233552674E+02  0.16721651032E+02 -0.43715019475E+01  0.43788966274E+02  0.10566000000E+00 0.  1.
         23    2    1    0    0    0  0.21697497684E+01  0.28617959394E+01  0.28695692073E+02  0.96080448939E+02  0.91624845073E+02 0.  0.
         13    1    3    3    0    0 -0.38063802906E+02 -0.13859855093E+02  0.33067194020E+02  0.52291482665E+02  0.10566000000E+00 0. -1.
         22    1    1    0    0    0 -0.21697497684E+01 -0.28617959394E+01 -0.28695692073E+02  0.28919551061E+02  0.00000000000E+00 0. -1.
</event>
<event>
 5    1  0.9041167E-005  0.9118800E+02  0.7818608E-02  0.1130116E+00
         25   -1    0    0    0    0  0.00000000000E+00  0.00000000000E+00  0.99999998245E-14  0.12500000000E+03  0.12500000000E+03 0.  0.
        -13    1    3    3    0    0 -0.90118332170E+01  0.36595516829E+02  0.96275483699E+01  0.38899175333E+02  0.10566000000E+00 0. -1.
         23    2    1    0    0    0  0.22883681150E+02 -0.11446651764E+02 -0.61492636898E+01  0.98684564539E+02  0.95111204045E+02 0.  0.
         13    1    3    3    0    0  0.31895514367E+02 -0.48042168592E+02 -0.15776812060E+02  0.59785389207E+02  0.10566000000E+00 0.  1.
         22    1    1    0    0    0 -0.22883681150E+02  0.11446651764E+02  0.61492636898E+01  0.26315435461E+02  0.00000000000E+00 0.  1.
</event>
<event>
 5    1  0.9041167E-005  0.9118800E+02  0.7818608E-02  0.1130116E+00
         25   -1    0    0    0    0  0.00000000000E+00  0.00000000000E+00  0.99999998245E-14  0.12500000000E+03  0.12500000000E+03 0.  0.
        -13    1    3    3    0    0  0.28545364616E+01 -0.42801578262E+02 -0.41530771438E+02  0.59707115325E+02  0.10566000000E+00 0. -1.
         23    2    1    0    0    0  0.13305572402E+01 -0.28414151933E+02 -0.92391439589E+01  0.95091870775E+02  0.90266093822E+02 0.  0.
         13    1    3    3    0    0 -0.15239792214E+01  0.14387426329E+02  0.32291627479E+02  0.35384755451E+02  0.10566000000E+00 0.  1.
         22    1    1    0    0    0 -0.13305572402E+01  0.28414151933E+02  0.92391439589E+01  0.29908129225E+02  0.00000000000E+00 0. -1.
</event>
<event>
 5    1  0.9041167E-005  0.9118800E+02  0.7818608E-02  0.1130116E+00
         25   -1    0    0    0    0  0.00000000000E+00  0.00000000000E+00  0.99999998245E-14  0.12500000000E+03  0.12500000000E+03 0.  0.
        -13    1    3    3    0    0  0.19744239603E+02  0.30773878804E+02 -0.13575339140E+01  0.36588532035E+02  0.10566000000E+00 0.  1.
         23    2    1    0    0    0 -0.28258767409E+02  0.11309949791E+01  0.11527900748E+02  0.94459378186E+02  0.89385930361E+02 0.  0.
         13    1    3    3    0    0 -0.48003007013E+02 -0.29642883825E+02  0.12885434662E+02  0.57870846150E+02  0.10566000000E+00 0. -1.
         22    1    1    0    0    0  0.28258767409E+02 -0.11309949791E+01 -0.11527900748E+02  0.30540621814E+02  0.00000000000E+00 0. -1.
</event>
<event>
 5    1  0.9041167E-005  0.9118800E+02  0.7818608E-02  0.1130116E+00
         25   -1    0    0    0    0  0.00000000000E+00  0.00000000000E+00  0.99999998245E-14  0.12500000000E+03  0.12500000000E+03 0.  0.
        -13    1    3    3    0    0 -0.12226729455E+02  0.29501507741E+02  0.50617492449E+02  0.59849591293E+02  0.10566000000E+00 0.  1.
         23    2    1    0    0    0 -0.67026181709E+01  0.14785844880E+01  0.27678862223E+02  0.96482799640E+02  0.92172121110E+02 0.  0.
         13    1    3    3    0    0  0.55241112843E+01 -0.28022923253E+02 -0.22938630226E+02  0.36633208347E+02  0.10566000000E+00 0. -1.
         22    1    1    0    0    0  0.67026181709E+01 -0.14785844880E+01 -0.27678862223E+02  0.28517200360E+02  0.00000000000E+00 0.  1.
</event>
<event>
 5    1  0.9041167E-005  0.9118800E+02  0.7818608E-02  0.1130116E+00
         25   -1    0    0    0    0  0.00000000000E+00  0.00000000000E+00  0.99999998245E-14  0.12500000000E+03  0.12500000000E+03 0.  0.
        -13    1    3    3    0    0 -0.11933590835E+02 -0.40222471804E+02  0.22717731743E+02  0.47711259969E+02  0.10566000000E+00 0. -1.
         23    2    1    0    0    0  0.10125131669E+02  0.28715527502E+01  0.26713972709E+02  0.96287625587E+02  0.91907053031E+02 0.  0.
         13    1    3    3    0    0  0.22058722505E+02  0.43094024554E+02  0.39962409656E+01  0.48576365618E+02  0.10566000000E+00 0.  1.
         22    1    1    0    0    0 -0.10125131669E+02 -0.28715527502E+01 -0.26713972709E+02  0.28712374413E+02  0.00000000000E+00 0. -1.
</event>
<event>
 5    1  0.9041167E-005  0.9118800E+02  0.7818608E-02  0.1130116E+00
         25   -1    0    0    0    0  0.00000000000E+00  0.00000000000E+00  0.99999998245E-14  0.12500000000E+03  0.12500000000E+03 0.  0.
        -13    1    3    3    0    0  0.34885716115E+02  0.14719005508E+02  0.80229127853E+01  0.38704529523E+02  0.10566000000E+00 0. -1.
         23    2    1    0    0    0 -0.71043003661E+01 -0.24422869775E+01 -0.27608856706E+02  0.96387331162E+02  0.92042559670E+02 0.  0.
         13    1    3    3    0    0 -0.41990016481E+02 -0.17161292486E+02 -0.35631769492E+02  0.57682801640E+02  0.10566000000E+00 0.  1.
         22    1    1    0    0    0  0.71043003661E+01  0.24422869775E+01  0.27608856706E+02  0.28612668838E+02  0.00000000000E+00 0.  1.
</event>
<event>
 5    1  0.9041167E-005  0.9118800E+02  0.7818608E-02  0.1130116E+00
         25   -1    0    0    0    0  0.00000000000E+00  0.00000000000E+00  0.99999998245E-14  0.12500000000E+03  0.12500000000E+03 0.  0.
        -13    1    3    3    0    0  0.78542222458E+01 -0.32111933793E+01 -0.33326194443E+02  0.34389634631E+02  0.10566000000E+00 0.  1.
         23    2    1    0    0    0 -0.54559876895E+01  0.18187771308E+02  0.22451019275E+02  0.95595730016E+02  0.90961159316E+02 0.  0.
         13    1    3    3    0    0 -0.13310209935E+02  0.21398964687E+02  0.55777213717E+02  0.61206095385E+02  0.10566000000E+00 0. -1.
         22    1    1    0    0    0  0.54559876895E+01 -0.18187771308E+02 -0.22451019275E+02  0.29404269984E+02  0.00000000000E+00 0. -1.
</event>
<event>
 5    1  0.9041167E-005  0.9118800E+02  0.7818608E-02  0.1130116E+00
         25   -1    0    0    0    0  0.00000000000E+00  0.00000000000E+00  0.99999998245E-14  0.12500000000E+03  0.12500000000E+03 0.  0.
        -13    1    3    3    0    0  0.49588653248E+01 -0.75898393387E+01  0.35329810614E+02  0.36474685586E+02  0.10566000000E+00 0. -1.
         23    2    1    0    0    0 -0.98295734028E+01 -0.23880331065E+02 -0.17568562417E+02  0.93766282475E+02  0.88411371546E+02 0.  0.
         13    1    3    3    0    0 -0.14788438728E+02 -0.16290491726E+02 -0.52898373031E+02  0.57291596889E+02  0.10566000000E+00 0.  1.
         22    1    1    0    0    0  0.98295734028E+01  0.23880331065E+02  0.17568562417E+02  0.31233717525E+02  0.00000000000E+00 0.  1.
</event>
<event>
 5    1  0.9041167E-005  0.9118800E+02  0.7818608E-02  0.1130116E+00
         25   -1    0    0    0    0  0.00000000000E+00  0.00000000000E+00  0.99999998245E-14  0.12500000000E+03  0.12500000000E+03 0.  0.
        -13    1    3    3    0    0 -0.29712230118E+02 -0.94311426095E+01  0.28226698273E+02  0.42053783765E+02  0.10566000000E+00 0.  1.
         23    2    1    0    0    0  0.41793628039E+01  0.27383523485E+02  0.13297220482E+02  0.94273130579E+02  0.89125095482E+02 0.  0.
         13    1    3    3    0    0  0.33891592922E+02  0.36814666094E+02 -0.14929477791E+02  0.52219346813E+02  0.10566000000E+00 0. -1.
         22    1    1    0    0    0 -0.41793628039E+01 -0.27383523485E+02 -0.13297220482E+02  0.30726869421E+02  0.00000000000E+00 0. -1.
</event>
<event>
 5    1  0.9041167E-005  0.9118800E+02  0.7818608E-02  0.1130116E+00
         25   -1    0    0    0    0  0.00000000000E+00  0.00000000000E+00  0.99999998245E-14  0.12500000000E+03  0.12500000000E+03 0.  0.
        -13    1    3    3    0    0 -0.17465022917E+02  0.54449267869E+02  0.23117671200E+02  0.61678097269E+02  0.10566000000E+00 0.  1.
         23    2    1    0    0    0 -0.31678042517E+01  0.28805799993E+02  0.69359663582E+01  0.95202068422E+02  0.90418566154E+02 0.  0.
         13    1    3    3    0    0  0.14297218666E+02 -0.25643467875E+02 -0.16181704842E+02  0.33523971153E+02  0.10566000000E+00 0. -1.
         22    1    1    0    0    0  0.31678042517E+01 -0.28805799993E+02 -0.69359663582E+01  0.29797931578E+02  0.00000000000E+00 0.  1.
</event>
<event>
 5    1  0.9041167E-005  0.9118800E+02  0.7818608E-02  0.1130116E+00
         25   -1    0    0    0    0  0.00000000000E+00  0.00000000000E+00  0.99999998245E-14  0.12500000000E+03  0.12500000000E+03 0.  0.
        -13    1    3    3    0    0 -0.34187151098E+02  0.51507679318E+02  0.28972239510E+01  0.61888669396E+02  0.10566000000E+00 0.  1.
         23    2    1    0    0    0 -0.10610188195E+02  0.26973113366E+02  0.23503457233E+01  0.95919954209E+02  0.91405626480E+02 0.  0.
         13    1    3    3    0    0  0.23576962903E+02 -0.24534565952E+02 -0.54687822770E+00  0.34031284813E+02  0.10566000000E+00 0. -1.
         22    1    1    0    0    0  0.10610188195E+02 -0.26973113366E+02 -0.23503457233E+01  0.29080045791E+02  0.00000000000E+00 0.  1.
</event>
<event>
 5    1  0.9041167E-005  0.9118800E+02  0.7818608E-02  0.1130116E+00
         25   -1    0    0    0    0  0.00000000000E+00  0.00000000000E+00  0.99999998245E-14  0.12500000000E+03  0.12500000000E+03 0.  0.
        -13    1    3    3    0    0  0.23839540477E+02  0.43926651236E+02  0.15120504269E+02  0.52216043438E+02  0.10566000000E+00 0. -1.
         23    2    1    0    0    0 -0.86491668269E+01  0.16605289295E+02  0.22949819986E+02  0.95381796868E+02  0.90666692986E+02 0.  0.
         13    1    3    3    0    0 -0.32488707304E+02 -0.27321361941E+02  0.78293157174E+01  0.43165753430E+02  0.10566000000E+00 0.  1.
         22    1    1    0    0    0  0.86491668269E+01 -0.16605289295E+02 -0.22949819986E+02  0.29618203132E+02  0.00000000000E+00 0. -1.
</event>
<event>
 5    1  0.9041167E-005  0.9118800E+02  0.7818608E-02  0.1130116E+00
         25   -1    0    0    0    0  0.00000000000E+00  0.00000000000E+00  0.99999998245E-14  0.12500000000E+03  0.12500000000E+03 0.  0.
        -13    1    3    3    0    0 -0.16511937810E+02 -0.35101700253E+02  0.30005269108E+02  0.49041826935E+02  0.10566000000E+00 0.  1.
         23    2    1    0    0    0 -0.57467308882E+01 -0.27776034309E+02 -0.12871115572E+02  0.93851988605E+02  0.88532463826E+02 0.  0.
         13    1    3    3    0    0  0.10765206922E+02  0.73256659446E+01 -0.42876384680E+02  0.44810161669E+02  0.10566000000E+00 0. -1.
         22    1    1    0    0    0  0.57467308882E+01  0.27776034309E+02  0.12871115572E+02  0.31148011395E+02  0.00000000000E+00 0. -1.
</event>
<event>
 5    1  0.9041167E-005  0.9118800E+02  0.7818608E-02  0.1130116E+00
         25   -1    0    0    0    0  0.00000000000E+00  0.00000000000E+00  0.99999998245E-14  0.12500000000E+03  0.12500000000E+03 0.  0.
        -13    1    3    3    0    0  0.13180420149E+02 -0.42043597267E+02  0.41499708007E+02  0.60527881799E+02  0.10566000000E+00 0. -1.
         23    2    1    0    0    0  0.14840381344E+02 -0.13754742571E+02  0.22983073901E+02  0.94378903553E+02  0.89273321258E+02 0.  0.
         13    1    3    3    0    0  0.16599611954E+01  0.28288854696E+02 -0.18516634105E+02  0.33851021754E+02  0.10566000000E+00 0.  1.
         22    1    1    0    0    0 -0.14840381344E+02  0.13754742571E+02 -0.22983073901E+02  0.30621096447E+02  0.00000000000E+00 0. -1.
</event>
<event>
 5    1  0.9041167E-005  0.9118800E+02  0.7818608E-02  0.1130116E+00
         25   -1    0    0    0    0  0.00000000000E+00  0.00000000000E+00  0.99999998245E-14  0.12500000000E+03  0.12500000000E+03 0.  0.
        -13    1    3    3    0    0 -0.71226108038E+01 -0.45147840719E+02  0.26506167313E+02  0.52836040502E+02  0.10566000000E+00 0.  1.
         23    2    1    0    0    0  0.18430968531E+02 -0.16185070802E+02  0.22582132849E+02  0.91659186545E+02  0.85380305904E+02 0.  0.
         13    1    3    3    0    0  0.25553579335E+02  0.28962769917E+02 -0.39240344648E+01  0.38823146043E+02  0.10566000000E+00 0. -1.
         22    1    1    0    0    0 -0.18430968531E+02  0.16185070802E+02 -0.22582132849E+02  0.33340813455E+02  0.00000000000E+00 0.  1.
</event>
<event>
 5    1  0.9041167E-005  0.9118800E+02  0.7818608E-02  0.1130116E+00
         25   -1    0    0    0    0  0.00000000000E+00  0.00000000000E+00  0.99999998245E-14  0.12500000000E+03  0.12500000000E+03 0.  0.
        -13    1    3    3    0    0  0.85255389294E+01 -0.52137443179E+02  0.30721746182E+02  0.61113293544E+02  0.10566000000E+00 0.  1.
         23    2    1    0    0    0  0.61347736158E+01 -0.25986200407E+02  0.50718450764E+01  0.97822037026E+02  0.93970789380E+02 0.  0.
         13    1    3    3    0    0 -0.23907653137E+01  0.26151242772E+02 -0.25649901105E+02  0.36708743482E+02  0.10566000000E+00 0. -1.
         22    1    1    0    0    0 -0.61347736158E+01  0.25986200407E+02 -0.50718450764E+01  0.27177962974E+02  0.00000000000E+00 0.  1.
</event>
<event>
 5    1  0.9041167E-005  0.9118800E+02  0.7818608E-02  0.1130116E+00
         25   -1    0    0    0    0  0.00000000000E+00  0.00000000000E+00  0.99999998245E-14  0.12500000000E+03  0.12500000000E+03 0.  0.
        -13    1    3    3    0    0  0.59221001598E+01  0.15156306719E+02 -0.40010420545E+02  0.43192937153E+02  0.10566000000E+00 0. -1.
         23    2    1    0    0    0  0.17611744545E+02 -0.22653850604E+02 -0.53288905117E+01  0.95814942741E+02  0.91261907088E+02 0.  0.
         13    1    3    3    0    0  0.11689644385E+02 -0.37810157323E+02  0.34681530034E+02  0.52622005588E+02  0.10566000000E+00 0.  1.
         22    1    1    0    0    0 -0.17611744545E+02  0.22653850604E+02  0.53288905117E+01  0.29185057259E+02  0.00000000000E+00 0.  1.
</event>
<event>
 5    1  0.9041167E-005  0.9118800E+02  0.7818608E-02  0.1130116E+00
         25   -1    0    0    0    0  0.00000000000E+00  0.00000000000E+00  0.99999998245E-14  0.12500000000E+03  0.12500000000E+03 0.  0.
        -13    1    3    3    0    0 -0.15436519400E+02 -0.45146407068E+02  0.40275603780E+02  0.62438927170E+02  0.10566000000E+00 0.  1.
         23    2    1    0    0    0 -0.54951845884E+01 -0.21354533601E+02  0.19786543634E+02  0.95373652471E+02  0.90655463805E+02 0.  0.
         13    1    3    3    0    0  0.99413348120E+01  0.23791873467E+02 -0.20489060146E+02  0.32934725300E+02  0.10566000000E+00 0. -1.
         22    1    1    0    0    0  0.54951845884E+01  0.21354533601E+02 -0.19786543634E+02  0.29626347529E+02  0.00000000000E+00 0.  1.
</event>
<event>
 5    1  0.9041167E-005  0.9118800E+02  0.7818608E-02  0.1130116E+00
         25   -1    0    0    0    0  0.00000000000E+00  0.00000000000E+00  0.99999998245E-14  0.12500000000E+03  0.12500000000E+03 0.  0.
        -13    1    3    3    0    0 -0.49838958490E+02 -0.90857948106E+01 -0.10749356168E+02  0.51788350744E+02  0.10566000000E+00 0.  1.
         23    2    1    0    0    0 -0.20520957162E+02  0.19672659788E+02  0.56616132978E+01  0.96014191557E+02  0.91534408226E+02 0.  0.
         13    1    3    3    0    0  0.29318001328E+02  0.28758454598E+02  0.16410969466E+02  0.44225840813E+02  0.10566000000E+00 0. -1.
         22    1    1    0    0    0  0.20520957162E+02 -0.19672659788E+02 -0.56616132978E+01  0.28985808443E+02  0.00000000000E+00 0. -1.
</event>
<event>
 5    1  0.9041167E-005  0.9118800E+02  0.7818608E-02  0.1130116E+00
         25   -1    0    0    0    0  0.00000000000E+00  0.00000000000E+00  0.99999998245E-14  0.12500000000E+03  0.12500000000E+03 0.  0.
        -13    1    3    3    0    0 -0.30984891993E+02 -0.10294974081E+02  0.14317972553E+02  0.35652005907E+02  0.10566000000E+00 0.  1.
         23    2    1    0    0    0  0.19216278923E+02 -0.10409309622E+02 -0.19113440188E+02  0.95966524523E+02  0.91469290643E+02 0.  0.
         13    1    3    3    0    0  0.50201170916E+02 -0.11433554028E+00 -0.33431412741E+02  0.60314518616E+02  0.10566000000E+00 0. -1.
         22    1    1    0    0    0 -0.19216278923E+02  0.10409309622E+02  0.19113440188E+02  0.29033475477E+02  0.00000000000E+00 0. -1.
</event>
<event>
 5    1  0.9041167E-005  0.9118800E+02  0.7818608E-02  0.1130116E+00
         25   -1    0    0    0    0  0.00000000000E+00  0.00000000000E+00  0.99999998245E-14  0.12500000000E+03  0.12500000000E+03 0.  0.
        -13    1    3    3    0    0  0.12030428899E+02  0.23236916832E+01 -0.33793057576E+02  0.35945968716E+02  0.10566000000E+00 0. -1.
         23    2    1    0    0    0  0.93456684603E+01  0.13543785649E+02  0.24564626734E+02  0.95433185236E+02  0.90737513241E+02 0.  0.
         13    1    3    3    0    0 -0.26847604388E+01  0.11220093966E+02  0.58357684311E+02  0.59487216520E+02  0.10566000000E+00 0.  1.
         22    1    1    0    0    0 -0.93456684603E+01 -0.13543785649E+02 -0.24564626734E+02  0.29566814764E+02  0.00000000000E+00 0.  1.
</event>
<event>
 5    1  0.9041167E-005  0.9118800E+02  0.7818608E-02  0.1130116E+00
         25   -1    0    0    0    0  0.00000000000E+00  0.00000000000E+00  0.99999998245E-14  0.12500000000E+03  0.12500000000E+03 0.  0.
        -13    1    3    3    0    0  0.13578674571E+02  0.29193794311E+02 -0.85457711803E+01  0.33312150913E+02  0.10566000000E+00 0.  1.
         23    2    1    0    0    0 -0.15718110280E+02 -0.22622913920E+02  0.10053082307E+02  0.95675612728E+02  0.91070869009E+02 0.  0.
         13    1    3    3    0    0 -0.29296784851E+02 -0.51816708231E+02  0.18598853487E+02  0.62363461815E+02  0.10566000000E+00 0. -1.
         22    1    1    0    0    0  0.15718110280E+02  0.22622913920E+02 -0.10053082307E+02  0.29324387272E+02  0.00000000000E+00 0. -1.
</event>
<event>
 5    1  0.9041167E-005  0.9118800E+02  0.7818608E-02  0.1130116E+00
         25   -1    0    0    0    0  0.00000000000E+00  0.00000000000E+00  0.99999998245E-14  0.12500000000E+03  0.12500000000E+03 0.  0.
        -13    1    3    3    0    0 -0.18701084995E+02  0.38281379573E+02 -0.11189708809E+02  0.44050145848E+02  0.10566000000E+00 0. -1.
         23    2    1    0    0    0  0.25072422858E+02  0.10958275108E+02 -0.10603696936E+02  0.95654666980E+02  0.91042115228E+02 0.  0.
         13    1    3    3    0    0  0.43773507853E+02 -0.27323104465E+02  0.58601187279E+00  0.51604521132E+02  0.10566000000E+00 0.  1.
         22    1    1    0    0    0 -0.25072422858E+02 -0.10958275108E+02  0.10603696936E+02  0.29345333020E+02  0.00000000000E+00 0.  1.
</event>
<event>
 5    1  0.9041167E-005  0.9118800E+02  0.7818608E-02  0.1130116E+00
         25   -1    0    0    0    0  0.00000000000E+00  0.00000000000E+00  0.99999998245E-14  0.12500000000E+03  0.12500000000E+03 0.  0.
        -13    1    3    3    0    0  0.20121292735E+02  0.86577195105E+01  0.29815213556E+02  0.36997035717E+02  0.10566000000E+00 0. -1.
         23    2    1    0    0    0  0.12021527308E+02 -0.15807566249E+02 -0.22301629888E+02  0.95137666448E+02  0.90329489161E+02 0.  0.
         13    1    3    3    0    0 -0.80997654273E+01 -0.24465285759E+02 -0.52116843443E+02  0.58140630731E+02  0.10566000000E+00 0.  1.
         22    1    1    0    0    0 -0.12021527308E+02  0.15807566249E+02  0.22301629888E+02  0.29862333552E+02  0.00000000000E+00 0.  1.
</event>
<event>
 5    1  0.9041167E-005  0.9118800E+02  0.7818608E-02  0.1130116E+00
         25   -1    0    0    0    0  0.00000000000E+00  0.00000000000E+00  0.99999998245E-14  0.12500000000E+03  0.12500000000E+03 0.  0.
        -13    1    3    3    0    0  0.43218714036E+02 -0.26812480595E+02  0.21912288105E+02  0.55379832905E+02  0.10566000000E+00 0. -1.
         23    2    1    0    0    0  0.24348099524E+02 -0.50540399090E+01 -0.98472082380E+01  0.98254144622E+02  0.94543831927E+02 0.  0.
         13    1    3    3    0    0 -0.18870614512E+02  0.21758440686E+02 -0.31759496343E+02  0.42874311716E+02  0.10566000000E+00 0.  1.
         22    1    1    0    0    0 -0.24348099524E+02  0.50540399090E+01  0.98472082380E+01  0.26745855378E+02  0.00000000000E+00 0. -1.
</event>
<event>
 5    1  0.9041167E-005  0.9118800E+02  0.7818608E-02  0.1130116E+00
         25   -1    0    0    0    0  0.00000000000E+00  0.00000000000E+00  0.99999998245E-14  0.12500000000E+03  0.12500000000E+03 0.  0.
        -13    1    3    3    0    0 -0.26209431501E+02  0.25845990215E+02 -0.12044192286E+02  0.38730133510E+02  0.10566000000E+00 0.  1.
         23    2    1    0    0    0  0.38370112617E+01 -0.21460254279E+02 -0.20099365432E+02  0.95347855729E+02  0.90619887068E+02 0.  0.
         13    1    3    3    0    0  0.30046442763E+02 -0.47306244494E+02 -0.80551731457E+01  0.56617722219E+02  0.10566000000E+00 0. -1.
         22    1    1    0    0    0 -0.38370112617E+01  0.21460254279E+02  0.20099365432E+02  0.29652144271E+02  0.00000000000E+00 0. -1.
</event>
<event>
 5    1  0.9041167E-005  0.9118800E+02  0.7818608E-02  0.1130116E+00
         25   -1    0    0    0    0  0.00000000000E+00  0.00000000000E+00  0.99999998245E-14  0.12500000000E+03  0.12500000000E+03 0.  0.
        -13    1    3    3    0    0 -0.49591978679E+01 -0.27515457400E+02  0.28592741228E+02  0.39990624581E+02  0.10566000000E+00 0.  1.
         23    2    1    0    0    0 -0.15961444775E+01  0.26111438608E+02  0.11935651168E+02  0.96245614732E+02  0.91849897566E+02 0.  0.
         13    1    3    3    0    0  0.33630533904E+01  0.53626896008E+02 -0.16657090060E+02  0.56254990151E+02  0.10566000000E+00 0. -1.
         22    1    1    0    0    0  0.15961444775E+01 -0.26111438608E+02 -0.11935651168E+02  0.28754385268E+02  0.00000000000E+00 0. -1.
</event>
<event>
 5    1  0.9041167E-005  0.9118800E+02  0.7818608E-02  0.1130116E+00
         25   -1    0    0    0    0  0.00000000000E+00  0.00000000000E+00  0.99999998245E-14  0.12500000000E+03  0.12500000000E+03 0.  0.
        -13    1    3    3    0    0 -0.21455881703E+02 -0.24881016597E+02  0.11901837644E+02  0.34944023093E+02  0.10566000000E+00 0.  1.
         23    2    1    0    0    0  0.20898232704E+02  0.18964511524E+02  0.55883023641E+01  0.96231650190E+02  0.91830891031E+02 0.  0.
         13    1    3    3    0    0  0.42354114407E+02  0.43845528121E+02 -0.63135352794E+01  0.61287627097E+02  0.10566000000E+00 0. -1.
         22    1    1    0    0    0 -0.20898232704E+02 -0.18964511524E+02 -0.55883023641E+01  0.28768349810E+02  0.00000000000E+00 0. -1.
</event>
<event>
 5    1  0.9041167E-005  0.9118800E+02  0.7818608E-02  0.1130116E+00
         25   -1    0    0    0    0  0.00000000000E+00  0.00000000000E+00  0.99999998245E-14  0.12500000000E+03  0.12500000000E+03 0.  0.
        -13    1    3    3    0    0  0.26232511893E+02  0.34979028489E+02  0.25365134887E+01  0.43796371756E+02  0.10566000000E+00 0. -1.
         23    2    1    0    0    0  0.22715977730E+02 -0.16912538181E+02  0.64507519322E+01  0.95954143283E+02  0.91452369136E+02 0.  0.
         13    1    3    3    0    0 -0.35165341627E+01 -0.51891566670E+02  0.39142384434E+01  0.52157771527E+02  0.10566000000E+00 0.  1.
         22    1    1    0    0    0 -0.22715977730E+02  0.16912538181E+02 -0.64507519322E+01  0.29045856717E+02  0.00000000000E+00 0.  1.
</event>
<event>
 5    1  0.9041167E-005  0.9118800E+02  0.7818608E-02  0.1130116E+00
         25   -1    0    0    0    0  0.00000000000E+00  0.00000000000E+00  0.99999998245E-14  0.12500000000E+03  0.12500000000E+03 0.  0.
        -13    1    3    3    0    0  0.11179996906E+02 -0.22285412960E+02 -0.31257061956E+02  0.39983084521E+02  0.10566000000E+00 0. -1.
         23    2    1    0    0    0 -0.27899258052E+02 -0.11913934165E+02  0.49555956880E+01  0.94261288970E+02  0.89108485805E+02 0.  0.
         13    1    3    3    0    0 -0.39079254959E+02  0.10371478795E+02  0.36212657644E+02  0.54278204449E+02  0.10566000000E+00 0.  1.
         22    1    1    0    0    0  0.27899258052E+02  0.11913934165E+02 -0.49555956880E+01  0.30738711030E+02  0.00000000000E+00 0.  1.
</event>
<event>
 5    1  0.9041167E-005  0.9118800E+02  0.7818608E-02  0.1130116E+00
         25   -1    0    0    0    0  0.00000000000E+00  0.00000000000E+00  0.99999998245E-14  0.12500000000E+03  0.12500000000E+03 0.  0.
        -13    1    3    3    0    0 -0.16564633995E+02  0.39544747611E+02  0.34178014937E+02  0.54829937371E+02  0.10566000000E+00 0. -1.
         23    2    1    0    0    0 -0.28045811028E+01 -0.62571013088E-01  0.27582648345E+02  0.97275063931E+02  0.93240366703E+02 0.  0.
         13    1    3    3    0    0  0.13760052892E+02 -0.39607318625E+02 -0.65953665917E+01  0.42445126561E+02  0.10566000000E+00 0.  1.
         22    1    1    0    0    0  0.28045811028E+01  0.62571013088E-01 -0.27582648345E+02  0.27724936069E+02  0.00000000000E+00 0. -1.
</event>
<event>
 5    1  0.9041167E-005  0.9118800E+02  0.7818608E-02  0.1130116E+00
         25   -1    0    0    0    0  0.00000000000E+00  0.00000000000E+00  0.99999998245E-14  0.12500000000E+03  0.12500000000E+03 0.  0.
        -13    1    3    3    0    0  0.18888455417E+02  0.57029192658E+02  0.39015900854E+01  0.60202459522E+02  0.10566000000E+00 0.  1.
         23    2    1    0    0    0  0.19638289591E+02  0.21411444393E+02  0.16180202481E+01  0.95901368441E+02  0.91380206338E+02 0.  0.
         13    1    3    3    0    0  0.74983417441E+00 -0.35617748265E+02 -0.22835698373E+01  0.35698908919E+02  0.10566000000E+00 0. -1.
         22    1    1    0    0    0 -0.19638289591E+02 -0.21411444393E+02 -0.16180202481E+01  0.29098631559E+02  0.00000000000E+00 0. -1.
</event>
<event>
 5    1  0.9041167E-005  0.9118800E+02  0.7818608E-02  0.1130116E+00
         25   -1    0    0    0    0  0.00000000000E+00  0.00000000000E+00  0.99999998245E-14  0.12500000000E+03  0.12500000000E+03 0.  0.
        -13    1    3    3    0    0 -0.13126369150E+02 -0.78407422088E+01  0.24579660961E+02  0.28947360889E+02  0.10566000000E+00 0. -1.
         23    2    1    0    0    0 -0.17656764221E+02  0.21367613158E+02 -0.25653720651E+02  0.87231632309E+02  0.78631470018E+02 0.  0.
         13    1    3    3    0    0 -0.45303950709E+01  0.29208355366E+02 -0.50233381612E+02  0.58284271420E+02  0.10566000000E+00 0.  1.
         22    1    1    0    0    0  0.17656764221E+02 -0.21367613158E+02  0.25653720651E+02  0.37768367691E+02  0.00000000000E+00 0.  1.
</event>
<event>
 5    1  0.9041167E-005  0.9118800E+02  0.7818608E-02  0.1130116E+00
         25   -1    0    0    0    0  0.00000000000E+00  0.00000000000E+00  0.99999998245E-14  0.12500000000E+03  0.12500000000E+03 0.  0.
        -13    1    3    3    0    0 -0.48550347626E+02  0.18085674277E+02 -0.32095010006E+02  0.60945292681E+02  0.10566000000E+00 0.  1.
         23    2    1    0    0    0 -0.16027574942E+02  0.14324336404E+02 -0.19348601101E+02  0.96078759769E+02  0.91622540579E+02 0.  0.
         13    1    3    3    0    0  0.32522772684E+02 -0.37613378730E+01  0.12746408904E+02  0.35133467088E+02  0.10566000000E+00 0. -1.
         22    1    1    0    0    0  0.16027574942E+02 -0.14324336404E+02  0.19348601101E+02  0.28921240231E+02  0.00000000000E+00 0.  1.
</event>
<event>
 5    1  0.9041167E-005  0.9118800E+02  0.7818608E-02  0.1130116E+00
         25   -1    0    0    0    0  0.00000000000E+00  0.00000000000E+00  0.99999998245E-14  0.12500000000E+03  0.12500000000E+03 0.  0.
        -13    1    3    3    0    0  0.10452135393E+02  0.36568089402E+02 -0.31318539953E+02  0.49267985605E+02  0.10566000000E+00 0. -1.
         23    2    1    0    0    0 -0.10618693264E+02 -0.42948438721E+01 -0.27270474254E+02  0.95421610988E+02  0.90721567155E+02 0.  0.
         13    1    3    3    0    0 -0.21070828657E+02 -0.40862933274E+02  0.40480656992E+01  0.46153625383E+02  0.10566000000E+00 0.  1.
         22    1    1    0    0    0  0.10618693264E+02  0.42948438721E+01  0.27270474254E+02  0.29578389012E+02  0.00000000000E+00 0. -1.
</event>
<event>
 5    1  0.9041167E-005  0.9118800E+02  0.7818608E-02  0.1130116E+00
         25   -1    0    0    0    0  0.00000000000E+00  0.00000000000E+00  0.99999998245E-14  0.12500000000E+03  0.12500000000E+03 0.  0.
        -13    1    3    3    0    0 -0.22817100636E+02  0.23224652540E+02  0.52343417033E+02  0.61642915552E+02  0.10566000000E+00 0. -1.
         23    2    1    0    0    0 -0.15193884956E+02  0.13920640759E+02  0.19461559091E+02  0.96655853136E+02  0.92406511048E+02 0.  0.
         13    1    3    3    0    0  0.76232156801E+01 -0.93040117812E+01 -0.32881857942E+02  0.35012937584E+02  0.10566000000E+00 0.  1.
         22    1    1    0    0    0  0.15193884956E+02 -0.13920640759E+02 -0.19461559091E+02  0.28344146864E+02  0.00000000000E+00 0. -1.
</event>
<event>
 5    1  0.9041167E-005  0.9118800E+02  0.7818608E-02  0.1130116E+00
         25   -1    0    0    0    0  0.00000000000E+00  0.00000000000E+00  0.99999998245E-14  0.12500000000E+03  0.12500000000E+03 0.  0.
        -13    1    3    3    0    0  0.13328342861E+02 -0.25024897811E+02 -0.25133068829E+02  0.37888950192E+02  0.10566000000E+00 0.  1.
         23    2    1    0    0    0 -0.27737078495E+01  0.27905540663E+02 -0.97001485737E+01  0.95326686445E+02  0.90590681703E+02 0.  0.
         13    1    3    3    0    0 -0.16102050711E+02  0.52930438475E+02  0.15432920255E+02  0.57437736253E+02  0.10566000000E+00 0. -1.
         22    1    1    0    0    0  0.27737078495E+01 -0.27905540663E+02  0.97001485737E+01  0.29673313555E+02  0.00000000000E+00 0. -1.
</event>
<event>
 5    1  0.9041167E-005  0.9118800E+02  0.7818608E-02  0.1130116E+00
         25   -1    0    0    0    0  0.00000000000E+00  0.00000000000E+00  0.99999998245E-14  0.12500000000E+03  0.12500000000E+03 0.  0.
        -13    1    3    3    0    0  0.27784683311E+02  0.17292876869E+02 -0.49577387620E+02  0.59405056555E+02  0.10566000000E+00 0.  1.
         23    2    1    0    0    0  0.28070512596E+02  0.12645594462E+02 -0.22532647248E+02  0.86847871243E+02  0.78019022108E+02 0.  0.
         13    1    3    3    0    0  0.28582928528E+00 -0.46472824061E+01  0.27044740372E+02  0.27442814688E+02  0.10566000000E+00 0. -1.
         22    1    1    0    0    0 -0.28070512596E+02 -0.12645594462E+02  0.22532647248E+02  0.38152128757E+02  0.00000000000E+00 0.  1.
</event>
<event>
 5    1  0.9041167E-005  0.9118800E+02  0.7818608E-02  0.1130116E+00
         25   -1    0    0    0    0  0.00000000000E+00  0.00000000000E+00  0.99999998245E-14  0.12500000000E+03  0.12500000000E+03 0.  0.
        -13    1    3    3    0    0  0.24718183877E+02  0.24585064524E+02 -0.39642025930E+01  0.35087605761E+02  0.10566000000E+00 0. -1.
         23    2    1    0    0    0 -0.14967672686E+02 -0.16564723411E+02  0.17991348627E+02  0.96327540866E+02  0.91961324570E+02 0.  0.
         13    1    3    3    0    0 -0.39685856563E+02 -0.41149787936E+02  0.21955551220E+02  0.61239935105E+02  0.10566000000E+00 0.  1.
         22    1    1    0    0    0  0.14967672686E+02  0.16564723411E+02 -0.17991348627E+02  0.28672459134E+02  0.00000000000E+00 0.  1.
</event>
<event>
 5    1  0.9041167E-005  0.9118800E+02  0.7818608E-02  0.1130116E+00
         25   -1    0    0    0    0  0.00000000000E+00  0.00000000000E+00  0.99999998245E-14  0.12500000000E+03  0.12500000000E+03 0.  0.
        -13    1    3    3    0    0 -0.25009274925E+02 -0.16833897661E+02 -0.50676542764E+02  0.58965812920E+02  0.10566000000E+00 0.  1.
         23    2    1    0    0    0 -0.16854668674E+02  0.61058336652E+01 -0.23295259730E+02  0.95605609604E+02  0.90974734960E+02 0.  0.
         13    1    3    3    0    0  0.81546062513E+01  0.22939731326E+02  0.27381283034E+02  0.36639796684E+02  0.10566000000E+00 0. -1.
         22    1    1    0    0    0  0.16854668674E+02 -0.61058336652E+01  0.23295259730E+02  0.29394390396E+02  0.00000000000E+00 0.  1.
</event>
<event>
 5    1  0.9041167E-005  0.9118800E+02  0.7818608E-02  0.1130116E+00
         25   -1    0    0    0    0  0.00000000000E+00  0.00000000000E+00  0.99999998245E-14  0.12500000000E+03  0.12500000000E+03 0.  0.
        -13    1    3    3    0    0  0.75726687678E+01  0.23162580149E+02  0.36425258559E+02  0.43825347193E+02  0.10566000000E+00 0. -1.
         23    2    1    0    0    0 -0.30254933515E+02  0.81941657698E+01  0.20680791216E+02  0.87447363875E+02  0.78973672630E+02 0.  0.
         13    1    3    3    0    0 -0.37827602282E+02 -0.14968414379E+02 -0.15744467343E+02  0.43622016682E+02  0.10566000000E+00 0.  1.
         22    1    1    0    0    0  0.30254933515E+02 -0.81941657698E+01 -0.20680791216E+02  0.37552636125E+02  0.00000000000E+00 0.  1.
</event>
<event>
 5    1  0.9041167E-005  0.9118800E+02  0.7818608E-02  0.1130116E+00
         25   -1    0    0    0    0  0.00000000000E+00  0.00000000000E+00  0.99999998245E-14  0.12500000000E+03  0.12500000000E+03 0.  0.
        -13    1    3    3    0    0 -0.34186275341E+02 -0.28764715775E+02  0.20834368383E+02  0.49296981300E+02  0.10566000000E+00 0. -1.
         23    2    1    0    0    0 -0.27235651813E+02  0.12000980946E+02  0.85320440065E+00  0.95225308884E+02  0.90450689444E+02 0.  0.
         13    1    3    3    0    0  0.69506235283E+01  0.40765696720E+02 -0.19981163983E+02  0.45928327584E+02  0.10566000000E+00 0.  1.
         22    1    1    0    0    0  0.27235651813E+02 -0.12000980946E+02 -0.85320440065E+00  0.29774691116E+02  0.00000000000E+00 0. -1.
</event>
<event>
 5    1  0.9041167E-005  0.9118800E+02  0.7818608E-02  0.1130116E+00
         25   -1    0    0    0    0  0.00000000000E+00  0.00000000000E+00  0.99999998245E-14  0.12500000000E+03  0.12500000000E+03 0.  0.
        -13    1    3    3    0    0  0.10256063099E+02  0.34932609419E+02 -0.50711034610E+02  0.62426710841E+02  0.10566000000E+00 0.  1.
         23    2    1    0    0    0  0.50036342718E+01  0.18800011215E+02 -0.23521114030E+02  0.94475917985E+02  0.89409057127E+02 0.  0.
         13    1    3    3    0    0 -0.52524288276E+01 -0.16132598204E+02  0.27189920580E+02  0.32049207144E+02  0.10566000000E+00 0. -1.
         22    1    1    0    0    0 -0.50036342718E+01 -0.18800011215E+02  0.23521114030E+02  0.30524082015E+02  0.00000000000E+00 0.  1.
</event>
<event>
 5    1  0.9041167E-005  0.9118800E+02  0.7818608E-02  0.1130116E+00
         25   -1    0    0    0    0  0.00000000000E+00  0.00000000000E+00  0.99999998245E-14  0.12500000000E+03  0.12500000000E+03 0.  0.
        -13    1    3    3    0    0  0.27860783311E+02  0.21578983826E+02 -0.39903712104E+02  0.53237141108E+02  0.10566000000E+00 0. -1.
         23    2    1    0    0    0  0.29102320283E+02  0.66791921954E+00 -0.29168385820E+01  0.95744246562E+02  0.91165024217E+02 0.  0.
         13    1    3    3    0    0  0.12415369720E+01 -0.20911064606E+02  0.36986873522E+02  0.42507105453E+02  0.10566000000E+00 0.  1.
         22    1    1    0    0    0 -0.29102320283E+02 -0.66791921954E+00  0.29168385820E+01  0.29255753438E+02  0.00000000000E+00 0. -1.
</event>
<event>
 5    1  0.9041167E-005  0.9118800E+02  0.7818608E-02  0.1130116E+00
         25   -1    0    0    0    0  0.00000000000E+00  0.00000000000E+00  0.99999998245E-14  0.12500000000E+03  0.12500000000E+03 0.  0.
        -13    1    3    3    0    0  0.34134685674E+02  0.28295239621E+02  0.43344669394E+02  0.62004587574E+02  0.10566000000E+00 0. -1.
         23    2    1    0    0    0  0.14735273981E+02  0.17600866194E+02  0.16937056418E+02  0.96473123722E+02  0.92158998098E+02 0.  0.
         13    1    3    3    0    0 -0.19399411694E+02 -0.10694373427E+02 -0.26407612976E+02  0.34468536148E+02  0.10566000000E+00 0.  1.
         22    1    1    0    0    0 -0.14735273981E+02 -0.17600866194E+02 -0.16937056418E+02  0.28526876278E+02  0.00000000000E+00 0. -1.
</event>
<event>
 5    1  0.9041167E-005  0.9118800E+02  0.7818608E-02  0.1130116E+00
         25   -1    0    0    0    0  0.00000000000E+00  0.00000000000E+00  0.99999998245E-14  0.12500000000E+03  0.12500000000E+03 0.  0.
        -13    1    3    3    0    0 -0.99430109003E+00 -0.76495879609E+01  0.44512471723E+02  0.45176057083E+02  0.10566000000E+00 0. -1.
         23    2    1    0    0    0  0.29413354728E+02 -0.25494187577E+01  0.53891428318E+01  0.94988538309E+02  0.90122885979E+02 0.  0.
         13    1    3    3    0    0  0.30407655818E+02  0.51001692032E+01 -0.39123328892E+02  0.49812481226E+02  0.10566000000E+00 0.  1.
         22    1    1    0    0    0 -0.29413354728E+02  0.25494187577E+01 -0.53891428318E+01  0.30011461691E+02  0.00000000000E+00 0.  1.
</event>
<event>
 5    1  0.9041167E-005  0.9118800E+02  0.7818608E-02  0.1130116E+00
         25   -1    0    0    0    0  0.00000000000E+00  0.00000000000E+00  0.99999998245E-14  0.12500000000E+03  0.12500000000E+03 0.  0.
        -13    1    3    3    0    0 -0.32544575843E+02 -0.42630021650E+02 -0.56353837124E+01  0.53928071320E+02  0.10566000000E+00 0.  1.
         23    2    1    0    0    0  0.71789418603E+01 -0.20755045566E+02 -0.12402013855E+02  0.99778598961E+02  0.96538333010E+02 0.  0.
         13    1    3    3    0    0  0.39723517703E+02  0.21874976084E+02 -0.67666301429E+01  0.45850527641E+02  0.10566000000E+00 0. -1.
         22    1    1    0    0    0 -0.71789418603E+01  0.20755045566E+02  0.12402013855E+02  0.25221401039E+02  0.00000000000E+00 0. -1.
</event>
<event>
 5    1  0.9041167E-005  0.9118800E+02  0.7818608E-02  0.1130116E+00
         25   -1    0    0    0    0  0.00000000000E+00  0.00000000000E+00  0.99999998245E-14  0.12500000000E+03  0.12500000000E+03 0.  0.
        -13    1    3    3    0    0  0.39399511679E+02  0.27775713667E+02 -0.54955142959E+01  0.48518281417E+02  0.10566000000E+00 0.  1.
         23    2    1    0    0    0 -0.16370028187E+01  0.24910833545E+02  0.16411236674E+02  0.95124289209E+02  0.90310975535E+02 0.  0.
         13    1    3    3    0    0 -0.41036514497E+02 -0.28648801225E+01  0.21906750970E+02  0.46606007792E+02  0.10566000000E+00 0. -1.
         22    1    1    0    0    0  0.16370028187E+01 -0.24910833545E+02 -0.16411236674E+02  0.29875710791E+02  0.00000000000E+00 0.  1.
</event>
<event>
 5    1  0.9041167E-005  0.9118800E+02  0.7818608E-02  0.1130116E+00
         25   -1    0    0    0    0  0.00000000000E+00  0.00000000000E+00  0.99999998245E-14  0.12500000000E+03  0.12500000000E+03 0.  0.
        -13    1    3    3    0    0  0.23454445364E+02 -0.54312797912E+02  0.84792422394E+01  0.59765372394E+02  0.10566000000E+00 0.  1.
         23    2    1    0    0    0 -0.16327424044E+01 -0.28780941352E+02  0.51726305674E+01  0.95712382483E+02  0.91121323633E+02 0.  0.
         13    1    3    3    0    0 -0.25087187768E+02  0.25531856561E+02 -0.33066116719E+01  0.35947010089E+02  0.10566000000E+00 0. -1.
         22    1    1    0    0    0  0.16327424044E+01  0.28780941352E+02 -0.51726305674E+01  0.29287617517E+02  0.00000000000E+00 0.  1.
</event>
<event>
 5    1  0.9041167E-005  0.9118800E+02  0.7818608E-02  0.1130116E+00
         25   -1    0    0    0    0  0.00000000000E+00  0.00000000000E+00  0.99999998245E-14  0.12500000000E+03  0.12500000000E+03 0.  0.
        -13    1    3    3    0    0 -0.16031976625E+02  0.84963339791E+01 -0.33668930318E+02  0.38246829913E+02  0.10566000000E+00 0.  1.
         23    2    1    0    0    0  0.45443495809E+01  0.27552215948E+02  0.14159157280E+02  0.93690936589E+02  0.88304779867E+02 0.  0.
         13    1    3    3    0    0  0.20576326206E+02  0.19055881969E+02  0.47828087598E+02  0.55444106676E+02  0.10566000000E+00 0. -1.
         22    1    1    0    0    0 -0.45443495809E+01 -0.27552215948E+02 -0.14159157280E+02  0.31309063411E+02  0.00000000000E+00 0.  1.
</event>
<event>
 5    1  0.9041167E-005  0.9118800E+02  0.7818608E-02  0.1130116E+00
         25   -1    0    0    0    0  0.00000000000E+00  0.00000000000E+00  0.99999998245E-14  0.12500000000E+03  0.12500000000E+03 0.  0.
        -13    1    3    3    0    0  0.16288918722E+02 -0.32520329938E+02  0.24789386715E+02  0.44016196907E+02  0.10566000000E+00 0. -1.
         23    2    1    0    0    0 -0.46441224123E+01  0.11519775508E+02  0.29486842078E+02  0.93003954049E+02  0.87326906005E+02 0.  0.
         13    1    3    3    0    0 -0.20933041134E+02  0.44040105447E+02  0.46974553632E+01  0.48987757142E+02  0.10566000000E+00 0.  1.
         22    1    1    0    0    0  0.46441224123E+01 -0.11519775508E+02 -0.29486842078E+02  0.31996045951E+02  0.00000000000E+00 0.  1.
</event>
<event>
 5    1  0.9041167E-005  0.9118800E+02  0.7818608E-02  0.1130116E+00
         25   -1    0    0    0    0  0.00000000000E+00  0.00000000000E+00  0.99999998245E-14  0.12500000000E+03  0.12500000000E+03 0.  0.
        -13    1    3    3    0    0 -0.58561500686E+02  0.60735175755E+01 -0.34048669144E+01  0.58974072787E+02  0.10566000000E+00 0.  1.
         23    2    1    0    0    0 -0.44296458147E+02 -0.66012832746E+01  0.52118960238E+01  0.79912119085E+02  0.65977494429E+02 0.  0.
         13    1    3    3    0    0  0.14265042538E+02 -0.12674800850E+02  0.86167629381E+01  0.20938046298E+02  0.10566000000E+00 0. -1.
         22    1    1    0    0    0  0.44296458147E+02  0.66012832746E+01 -0.52118960238E+01  0.45087880915E+02  0.00000000000E+00 0.  1.
</event>
<event>
 5    1  0.9041167E-005  0.9118800E+02  0.7818608E-02  0.1130116E+00
         25   -1    0    0    0    0  0.00000000000E+00  0.00000000000E+00  0.99999998245E-14  0.12500000000E+03  0.12500000000E+03 0.  0.
        -13    1    3    3    0    0  0.54849473015E+01 -0.34884534757E+02 -0.11760213590E+02  0.37220010745E+02  0.10566000000E+00 0. -1.
         23    2    1    0    0    0 -0.95932149004E+01  0.21109431515E+02  0.10772648552E+02  0.99432680472E+02  0.96089386084E+02 0.  0.
         13    1    3    3    0    0 -0.15078162202E+02  0.55993966272E+02  0.22532862142E+02  0.62212669727E+02  0.10566000000E+00 0.  1.
         22    1    1    0    0    0  0.95932149004E+01 -0.21109431515E+02 -0.10772648552E+02  0.25567319528E+02  0.00000000000E+00 0.  1.
</event>
<event>
 5    1  0.9041167E-005  0.9118800E+02  0.7818608E-02  0.1130116E+00
         25   -1    0    0    0    0  0.00000000000E+00  0.00000000000E+00  0.99999998245E-14  0.12500000000E+03  0.12500000000E+03 0.  0.
        -13    1    3    3    0    0 -0.17051570442E+02 -0.28856643199E+02  0.47555930205E+01  0.33853932419E+02  0.10566000000E+00 0. -1.
         23    2    1    0    0    0  0.41143824623E+01  0.28500550065E+02 -0.50235479156E+01  0.95769099728E+02  0.91199095017E+02 0.  0.
         13    1    3    3    0    0  0.21165952904E+02  0.57357193264E+02 -0.97791409361E+01  0.61915167309E+02  0.10566000000E+00 0.  1.
         22    1    1    0    0    0 -0.41143824623E+01 -0.28500550065E+02  0.50235479156E+01  0.29230900272E+02  0.00000000000E+00 0.  1.
</event>
<event>
 5    1  0.9041167E-005  0.9118800E+02  0.7818608E-02  0.1130116E+00
         25   -1    0    0    0    0  0.00000000000E+00  0.00000000000E+00  0.99999998245E-14  0.12500000000E+03  0.12500000000E+03 0.  0.
        -13    1    3    3    0    0 -0.15690017118E+02  0.27509638562E+02 -0.20680556241E+02  0.37823979450E+02  0.10566000000E+00 0. -1.
         23    2    1    0    0    0 -0.11223533410E+02 -0.15372561056E+02  0.20204931877E+02  0.97241711008E+02  0.93195642344E+02 0.  0.
         13    1    3    3    0    0  0.44664837077E+01 -0.42882199618E+02  0.40885488118E+02  0.59417731558E+02  0.10566000000E+00 0.  1.
         22    1    1    0    0    0  0.11223533410E+02  0.15372561056E+02 -0.20204931877E+02  0.27758288992E+02  0.00000000000E+00 0.  1.
</event>
<event>
 5    1  0.9041167E-005  0.9118800E+02  0.7818608E-02  0.1130116E+00
         25   -1    0    0    0    0  0.00000000000E+00  0.00000000000E+00  0.99999998245E-14  0.12500000000E+03  0.12500000000E+03 0.  0.
        -13    1    3    3    0    0 -0.29662067509E+02 -0.46979963932E+01 -0.17616970537E+02  0.34817786173E+02  0.10566000000E+00 0.  1.
         23    2    1    0    0    0  0.22233874391E+02 -0.10951906399E+02  0.14614020490E+02  0.96227460677E+02  0.91825188098E+02 0.  0.
         13    1    3    3    0    0  0.51895941900E+02 -0.62539100057E+01  0.32230991028E+02  0.61409674504E+02  0.10566000000E+00 0. -1.
         22    1    1    0    0    0 -0.22233874391E+02  0.10951906399E+02 -0.14614020490E+02  0.28772539323E+02  0.00000000000E+00 0. -1.
</event>
<event>
 5    1  0.9041167E-005  0.9118800E+02  0.7818608E-02  0.1130116E+00
         25   -1    0    0    0    0  0.00000000000E+00  0.00000000000E+00  0.99999998245E-14  0.12500000000E+03  0.12500000000E+03 0.  0.
        -13    1    3    3    0    0  0.30474909427E+02  0.34587460573E+02  0.13405054070E+01  0.46117465804E+02  0.10566000000E+00 0.  1.
         23    2    1    0    0    0  0.14985262196E+02  0.42043230954E+01 -0.29208881137E+02  0.91903275796E+02  0.85736917072E+02 0.  0.
         13    1    3    3    0    0 -0.15489647231E+02 -0.30383137477E+02 -0.30549386544E+02  0.45785809991E+02  0.10566000000E+00 0. -1.
         22    1    1    0    0    0 -0.14985262196E+02 -0.42043230954E+01  0.29208881137E+02  0.33096724204E+02  0.00000000000E+00 0. -1.
</event>
<event>
 5    1  0.9041167E-005  0.9118800E+02  0.7818608E-02  0.1130116E+00
         25   -1    0    0    0    0  0.00000000000E+00  0.00000000000E+00  0.99999998245E-14  0.12500000000E+03  0.12500000000E+03 0.  0.
        -13    1    3    3    0    0  0.36181634312E+02 -0.21195060312E+02  0.22354368149E+02  0.47519155953E+02  0.10566000000E+00 0.  1.
         23    2    1    0    0    0 -0.11788718780E+02 -0.22210130544E+02  0.13994197346E+02  0.96223249860E+02  0.91819455808E+02 0.  0.
         13    1    3    3    0    0 -0.47970353092E+02 -0.10150702326E+01 -0.83601708033E+01  0.48704093907E+02  0.10566000000E+00 0. -1.
         22    1    1    0    0    0  0.11788718780E+02  0.22210130544E+02 -0.13994197346E+02  0.28776750140E+02  0.00000000000E+00 0. -1.
</event>
<event>
 5    1  0.9041167E-005  0.9118800E+02  0.7818608E-02  0.1130116E+00
         25   -1    0    0    0    0  0.00000000000E+00  0.00000000000E+00  0.99999998245E-14  0.12500000000E+03  0.12500000000E+03 0.  0.
        -13    1    3    3    0    0 -0.37751234903E+02 -0.16194840363E+01 -0.78902003896E+01  0.38601099614E+02  0.10566000000E+00 0. -1.
         23    2    1    0    0    0  0.15720835158E+02 -0.89172521115E+01 -0.24030915876E+02  0.94930963416E+02  0.90042994474E+02 0.  0.
         13    1    3    3    0    0  0.53472070061E+02 -0.72977680751E+01 -0.16140715486E+02  0.56329863801E+02  0.10566000000E+00 0.  1.
         22    1    1    0    0    0 -0.15720835158E+02  0.89172521115E+01  0.24030915876E+02  0.30069036584E+02  0.00000000000E+00 0.  1.
</event>
<event>
 5    1  0.9041167E-005  0.9118800E+02  0.7818608E-02  0.1130116E+00
         25   -1    0    0    0    0  0.00000000000E+00  0.00000000000E+00  0.99999998245E-14  0.12500000000E+03  0.12500000000E+03 0.  0.
        -13    1    3    3    0    0  0.55385657524E+02  0.16296197760E+02 -0.87577046698E+01  0.58393883891E+02  0.10566000000E+00 0.  1.
         23    2    1    0    0    0  0.25165035998E+02 -0.69074410664E+01 -0.11262850013E+02  0.96577410933E+02  0.92300339833E+02 0.  0.
         13    1    3    3    0    0 -0.30220621526E+02 -0.23203638826E+02 -0.25051453428E+01  0.38183527042E+02  0.10566000000E+00 0. -1.
         22    1    1    0    0    0 -0.25165035998E+02  0.69074410664E+01  0.11262850013E+02  0.28422589067E+02  0.00000000000E+00 0.  1.
</event>
<event>
 5    1  0.9041167E-005  0.9118800E+02  0.7818608E-02  0.1130116E+00
         25   -1    0    0    0    0  0.00000000000E+00  0.00000000000E+00  0.99999998245E-14  0.12500000000E+03  0.12500000000E+03 0.  0.
        -13    1    3    3    0    0 -0.29839366678E+02 -0.16448689074E+02  0.55170474293E+01  0.34516606907E+02  0.10566000000E+00 0. -1.
         23    2    1    0    0    0  0.18570674906E+02  0.16947492561E+02 -0.13674188906E+02  0.96380585037E+02  0.92033397521E+02 0.  0.
         13    1    3    3    0    0  0.48410041584E+02  0.33396181635E+02 -0.19191236336E+02  0.61863978130E+02  0.10566000000E+00 0.  1.
         22    1    1    0    0    0 -0.18570674906E+02 -0.16947492561E+02  0.13674188906E+02  0.28619414963E+02  0.00000000000E+00 0.  1.
</event>
<event>
 5    1  0.9041167E-005  0.9118800E+02  0.7818608E-02  0.1130116E+00
         25   -1    0    0    0    0  0.00000000000E+00  0.00000000000E+00  0.99999998245E-14  0.12500000000E+03  0.12500000000E+03 0.  0.
        -13    1    3    3    0    0 -0.13184679888E+02  0.13108564224E+02  0.38976642027E+02  0.43184025142E+02  0.10566000000E+00 0.  1.
         23    2    1    0    0    0 -0.14329922332E+02  0.21886405969E+02 -0.12914974031E+02  0.95825387844E+02  0.91276212459E+02 0.  0.
         13    1    3    3    0    0 -0.11452424438E+01  0.87778417444E+01 -0.51891616058E+02  0.52641362701E+02  0.10566000000E+00 0. -1.
         22    1    1    0    0    0  0.14329922332E+02 -0.21886405969E+02  0.12914974031E+02  0.29174612156E+02  0.00000000000E+00 0.  1.
</event>
<event>
 5    1  0.9041167E-005  0.9118800E+02  0.7818608E-02  0.1130116E+00
         25   -1    0    0    0    0  0.00000000000E+00  0.00000000000E+00  0.99999998245E-14  0.12500000000E+03  0.12500000000E+03 0.  0.
        -13    1    3    3    0    0  0.28688035321E+02  0.34402906932E+02 -0.12839384119E+02  0.46598544232E+02  0.10566000000E+00 0.  1.
         23    2    1    0    0    0  0.14567912195E+02  0.40392138467E+02  0.15930091551E+02  0.79201345735E+02  0.64616843267E+02 0.  0.
         13    1    3    3    0    0 -0.14120123127E+02  0.59892315354E+01  0.28769475670E+02  0.32602801503E+02  0.10566000000E+00 0. -1.
         22    1    1    0    0    0 -0.14567912195E+02 -0.40392138467E+02 -0.15930091551E+02  0.45798654265E+02  0.00000000000E+00 0.  1.
</event>
<event>
 5    1  0.9041167E-005  0.9118800E+02  0.7818608E-02  0.1130116E+00
         25   -1    0    0    0    0  0.00000000000E+00  0.00000000000E+00  0.99999998245E-14  0.12500000000E+03  0.12500000000E+03 0.  0.
        -13    1    3    3    0    0  0.22389615447E+02 -0.29140667159E+02  0.23156868763E+02  0.43436448949E+02  0.10566000000E+00 0. -1.
         23    2    1    0    0    0  0.81280331493E+01 -0.67766579918E+01 -0.24686684142E+02  0.98140729899E+02  0.94393762902E+02 0.  0.
         13    1    3    3    0    0 -0.14261582298E+02  0.22364009167E+02 -0.47843552905E+02  0.54704280950E+02  0.10566000000E+00 0.  1.
         22    1    1    0    0    0 -0.81280331493E+01  0.67766579918E+01  0.24686684142E+02  0.26859270101E+02  0.00000000000E+00 0.  1.
</event>
<event>
 5    1  0.9041167E-005  0.9118800E+02  0.7818608E-02  0.1130116E+00
         25   -1    0    0    0    0  0.00000000000E+00  0.00000000000E+00  0.99999998245E-14  0.12500000000E+03  0.12500000000E+03 0.  0.
        -13    1    3    3    0    0 -0.29174126051E+02 -0.18274073016E+02  0.10488560389E+02  0.35987392772E+02  0.10566000000E+00 0.  1.
         23    2    1    0    0    0  0.28197962962E+02 -0.23978179236E+00  0.19046933930E+01  0.96736764739E+02  0.92515896929E+02 0.  0.
         13    1    3    3    0    0  0.57372089013E+02  0.18034291224E+02 -0.85838669963E+01  0.60749371967E+02  0.10566000000E+00 0. -1.
         22    1    1    0    0    0 -0.28197962962E+02  0.23978179236E+00 -0.19046933930E+01  0.28263235261E+02  0.00000000000E+00 0. -1.
</event>
<event>
 5    1  0.9041167E-005  0.9118800E+02  0.7818608E-02  0.1130116E+00
         25   -1    0    0    0    0  0.00000000000E+00  0.00000000000E+00  0.99999998245E-14  0.12500000000E+03  0.12500000000E+03 0.  0.
        -13    1    3    3    0    0  0.52407244276E+02 -0.13307341950E+02  0.16960205748E+02  0.56668018719E+02  0.10566000000E+00 0. -1.
         23    2    1    0    0    0  0.14922315430E+02 -0.23034402811E+02  0.61752407268E+01  0.96868295311E+02  0.92693440048E+02 0.  0.
         13    1    3    3    0    0 -0.37484928846E+02 -0.97270608605E+01 -0.10784965021E+02  0.40200276593E+02  0.10566000000E+00 0.  1.
         22    1    1    0    0    0 -0.14922315430E+02  0.23034402811E+02 -0.61752407268E+01  0.28131704689E+02  0.00000000000E+00 0. -1.
</event>
<event>
 5    1  0.9041167E-005  0.9118800E+02  0.7818608E-02  0.1130116E+00
         25   -1    0    0    0    0  0.00000000000E+00  0.00000000000E+00  0.99999998245E-14  0.12500000000E+03  0.12500000000E+03 0.  0.
        -13    1    3    3    0    0 -0.50900478558E+01  0.37656034033E+02 -0.48336610584E+02  0.61484344130E+02  0.10566000000E+00 0.  1.
         23    2    1    0    0    0 -0.82253480010E+01  0.12918150355E+02 -0.25261796438E+02  0.95458616864E+02  0.90772541090E+02 0.  0.
         13    1    3    3    0    0 -0.31353001452E+01 -0.24737883678E+02  0.23074814146E+02  0.33974272734E+02  0.10566000000E+00 0. -1.
         22    1    1    0    0    0  0.82253480010E+01 -0.12918150355E+02  0.25261796438E+02  0.29541383136E+02  0.00000000000E+00 0.  1.
</event>
<event>
 5    1  0.9041167E-005  0.9118800E+02  0.7818608E-02  0.1130116E+00
         25   -1    0    0    0    0  0.00000000000E+00  0.00000000000E+00  0.99999998245E-14  0.12500000000E+03  0.12500000000E+03 0.  0.
        -13    1    3    3    0    0 -0.14879936044E+02 -0.46598050511E+02  0.19112511672E+01  0.48953598981E+02  0.10566000000E+00 0.  1.
         23    2    1    0    0    0  0.23136697629E+01 -0.97592512707E+01  0.26637842406E+02  0.96536502302E+02  0.92244921679E+02 0.  0.
         13    1    3    3    0    0  0.17193605807E+02  0.36838799241E+02  0.24726591239E+02  0.47582903321E+02  0.10566000000E+00 0. -1.
         22    1    1    0    0    0 -0.23136697629E+01  0.97592512707E+01 -0.26637842406E+02  0.28463497698E+02  0.00000000000E+00 0. -1.
</event>
<event>
 5    1  0.9041167E-005  0.9118800E+02  0.7818608E-02  0.1130116E+00
         25   -1    0    0    0    0  0.00000000000E+00  0.00000000000E+00  0.99999998245E-14  0.12500000000E+03  0.12500000000E+03 0.  0.
        -13    1    3    3    0    0 -0.19799012253E+02  0.26572630392E+02 -0.51082816249E+01  0.33529260017E+02  0.10566000000E+00 0.  1.
         23    2    1    0    0    0 -0.40751522514E+02  0.97836610023E+01  0.26817851197E+02  0.75244560572E+02  0.56445904573E+02 0.  0.
         13    1    3    3    0    0 -0.20952510261E+02 -0.16788969389E+02  0.31926132822E+02  0.41715300555E+02  0.10566000000E+00 0. -1.
         22    1    1    0    0    0  0.40751522514E+02 -0.97836610023E+01 -0.26817851197E+02  0.49755439428E+02  0.00000000000E+00 0. -1.
</event>
<event>
 5    1  0.9041167E-005  0.9118800E+02  0.7818608E-02  0.1130116E+00
         25   -1    0    0    0    0  0.00000000000E+00  0.00000000000E+00  0.99999998245E-14  0.12500000000E+03  0.12500000000E+03 0.  0.
        -13    1    3    3    0    0  0.25034215259E+02  0.26234689141E+01  0.34067712015E+02  0.42358171452E+02  0.10566000000E+00 0.  1.
         23    2    1    0    0    0  0.74131847420E+01  0.24350303685E+02 -0.12469339255E+02  0.96656093794E+02  0.92406836589E+02 0.  0.
         13    1    3    3    0    0 -0.17621030517E+02  0.21726834771E+02 -0.46537051270E+02  0.54297922342E+02  0.10566000000E+00 0. -1.
         22    1    1    0    0    0 -0.74131847420E+01 -0.24350303685E+02  0.12469339255E+02  0.28343906206E+02  0.00000000000E+00 0.  1.
</event>
<event>
 5    1  0.9041167E-005  0.9118800E+02  0.7818608E-02  0.1130116E+00
         25   -1    0    0    0    0  0.00000000000E+00  0.00000000000E+00  0.99999998245E-14  0.12500000000E+03  0.12500000000E+03 0.  0.
        -13    1    3    3    0    0 -0.57596636563E+02  0.34611062657E+01 -0.10203571936E+02  0.58595868832E+02  0.10566000000E+00 0. -1.
         23    2    1    0    0    0 -0.27919070760E+02 -0.20196757398E+01  0.10400648943E+02  0.95138199977E+02  0.90330227467E+02 0.  0.
         13    1    3    3    0    0  0.29677565803E+02 -0.54807820055E+01  0.20604220879E+02  0.36542331144E+02  0.10566000000E+00 0.  1.
         22    1    1    0    0    0  0.27919070760E+02  0.20196757398E+01 -0.10400648943E+02  0.29861800023E+02  0.00000000000E+00 0. -1.
</event>
<event>
 5    1  0.9041167E-005  0.9118800E+02  0.7818608E-02  0.1130116E+00
         25   -1    0    0    0    0  0.00000000000E+00  0.00000000000E+00  0.99999998245E-14  0.12500000000E+03  0.12500000000E+03 0.  0.
        -13    1    3    3    0    0 -0.20543962525E+02 -0.38639545266E+02 -0.24322139362E+02  0.50066420701E+02  0.10566000000E+00 0.  1.
         23    2    1    0    0    0  0.12540940576E+02 -0.24911616430E+02  0.53757445362E+01  0.96596435910E+02  0.92326101279E+02 0.  0.
         13    1    3    3    0    0  0.33084903101E+02  0.13727928836E+02  0.29697883898E+02  0.46530015209E+02  0.10566000000E+00 0. -1.
         22    1    1    0    0    0 -0.12540940576E+02  0.24911616430E+02 -0.53757445362E+01  0.28403564090E+02  0.00000000000E+00 0. -1.
</event>
<event>
 5    1  0.9041167E-005  0.9118800E+02  0.7818608E-02  0.1130116E+00
         25   -1    0    0    0    0  0.00000000000E+00  0.00000000000E+00  0.99999998245E-14  0.12500000000E+03  0.12500000000E+03 0.  0.
        -13    1    3    3    0    0 -0.39681469030E+02  0.32249378161E+01  0.64798192195E+01  0.40336316508E+02  0.10566000000E+00 0.  1.
         23    2    1    0    0    0  0.94936269520E+01 -0.23113964079E+02  0.13562552555E+02  0.96568905755E+02  0.92288820768E+02 0.  0.
         13    1    3    3    0    0  0.49175095982E+02 -0.26338901895E+02  0.70827333358E+01  0.56232589247E+02  0.10566000000E+00 0. -1.
         22    1    1    0    0    0 -0.94936269520E+01  0.23113964079E+02 -0.13562552555E+02  0.28431094245E+02  0.00000000000E+00 0. -1.
</event>
<event>
 5    1  0.9041167E-005  0.9118800E+02  0.7818608E-02  0.1130116E+00
         25   -1    0    0    0    0  0.00000000000E+00  0.00000000000E+00  0.99999998245E-14  0.12500000000E+03  0.12500000000E+03 0.  0.
        -13    1    3    3    0    0  0.36549248387E+01 -0.15369237203E+02 -0.36077289068E+02  0.39384690913E+02  0.10566000000E+00 0. -1.
         23    2    1    0    0    0 -0.23108052511E+02 -0.17561639591E+02  0.11308979531E+02  0.93850581161E+02  0.88530476619E+02 0.  0.
         13    1    3    3    0    0 -0.26762977349E+02 -0.21924023877E+01  0.47386268599E+02  0.54465890249E+02  0.10566000000E+00 0.  1.
         22    1    1    0    0    0  0.23108052511E+02  0.17561639591E+02 -0.11308979531E+02  0.31149418839E+02  0.00000000000E+00 0.  1.
</event>
<event>
 5    1  0.9041167E-005  0.9118800E+02  0.7818608E-02  0.1130116E+00
         25   -1    0    0    0    0  0.00000000000E+00  0.00000000000E+00  0.99999998245E-14  0.12500000000E+03  0.12500000000E+03 0.  0.
        -13    1    3    3    0    0  0.39898669466E+02 -0.37112048581E+02  0.15807259088E+02  0.56737012426E+02  0.10566000000E+00 0.  1.
         23    2    1    0    0    0  0.35801638856E+01 -0.28805376293E+02  0.89954225036E+01  0.94611105600E+02  0.89597859349E+02 0.  0.
         13    1    3    3    0    0 -0.36318505580E+02  0.83066722883E+01 -0.68118365848E+01  0.37874093174E+02  0.10566000000E+00 0. -1.
         22    1    1    0    0    0 -0.35801638856E+01  0.28805376293E+02 -0.89954225036E+01  0.30388894400E+02  0.00000000000E+00 0.  1.
</event>
<event>
 5    1  0.9041167E-005  0.9118800E+02  0.7818608E-02  0.1130116E+00
         25   -1    0    0    0    0  0.00000000000E+00  0.00000000000E+00  0.99999998245E-14  0.12500000000E+03  0.12500000000E+03 0.  0.
        -13    1    3    3    0    0  0.52842412138E+02  0.78925946882E+01  0.13620660095E+02  0.55137529115E+02  0.10566000000E+00 0.  1.
         23    2    1    0    0    0  0.20005496114E+02 -0.17407125245E+02  0.96502813252E+01  0.96780223003E+02  0.92574595602E+02 0.  0.
         13    1    3    3    0    0 -0.32836916024E+02 -0.25299719933E+02 -0.39703787698E+01  0.41642693888E+02  0.10566000000E+00 0. -1.
         22    1    1    0    0    0 -0.20005496114E+02  0.17407125245E+02 -0.96502813252E+01  0.28219776997E+02  0.00000000000E+00 0. -1.
</event>
<event>
 5    1  0.9041167E-005  0.9118800E+02  0.7818608E-02  0.1130116E+00
         25   -1    0    0    0    0  0.00000000000E+00  0.00000000000E+00  0.99999998245E-14  0.12500000000E+03  0.12500000000E+03 0.  0.
        -13    1    3    3    0    0 -0.83503025719E+01  0.14386255600E+02 -0.28091096381E+02  0.32646787945E+02  0.10566000000E+00 0.  1.
         23    2    1    0    0    0  0.47124242600E+01 -0.70968103577E+01  0.28864205954E+02  0.94904916598E+02  0.90006828349E+02 0.  0.
         13    1    3    3    0    0  0.13062726832E+02 -0.21483065958E+02  0.56955302335E+02  0.62258128652E+02  0.10566000000E+00 0. -1.
         22    1    1    0    0    0 -0.47124242600E+01  0.70968103577E+01 -0.28864205954E+02  0.30095083402E+02  0.00000000000E+00 0. -1.
</event>
<event>
 5    1  0.9041167E-005  0.9118800E+02  0.7818608E-02  0.1130116E+00
         25   -1    0    0    0    0  0.00000000000E+00  0.00000000000E+00  0.99999998245E-14  0.12500000000E+03  0.12500000000E+03 0.  0.
        -13    1    3    3    0    0 -0.32486964419E+02 -0.28957206039E+02 -0.25901944378E+01  0.43596363495E+02  0.10566000000E+00 0. -1.
         23    2    1    0    0    0 -0.22931252631E+02  0.11447028924E+02 -0.23627776401E+02  0.90141017857E+02  0.83127940334E+02 0.  0.
         13    1    3    3    0    0  0.95557117880E+01  0.40404234963E+02 -0.21037581963E+02  0.46544654361E+02  0.10566000000E+00 0.  1.
         22    1    1    0    0    0  0.22931252631E+02 -0.11447028924E+02  0.23627776401E+02  0.34858982143E+02  0.00000000000E+00 0. -1.
</event>
<event>
 5    1  0.9041167E-005  0.9118800E+02  0.7818608E-02  0.1130116E+00
         25   -1    0    0    0    0  0.00000000000E+00  0.00000000000E+00  0.99999998245E-14  0.12500000000E+03  0.12500000000E+03 0.  0.
        -13    1    3    3    0    0 -0.13647288337E+02 -0.24875940386E+02 -0.26189604483E+02  0.38613047485E+02  0.10566000000E+00 0. -1.
         23    2    1    0    0    0  0.17040649731E+02  0.21030219353E+02 -0.97990961662E+01  0.96213264253E+02  0.91805860724E+02 0.  0.
         13    1    3    3    0    0  0.30687938068E+02  0.45906159739E+02  0.16390508316E+02  0.57600216768E+02  0.10566000000E+00 0.  1.
         22    1    1    0    0    0 -0.17040649731E+02 -0.21030219353E+02  0.97990961662E+01  0.28786735747E+02  0.00000000000E+00 0.  1.
</event>
<event>
 5    1  0.9041167E-005  0.9118800E+02  0.7818608E-02  0.1130116E+00
         25   -1    0    0    0    0  0.00000000000E+00  0.00000000000E+00  0.99999998245E-14  0.12500000000E+03  0.12500000000E+03 0.  0.
        -13    1    3    3    0    0 -0.28456616545E+02  0.38322735181E+02 -0.24018697239E+02  0.53435194750E+02  0.10566000000E+00 0.  1.
         23    2    1    0    0    0  0.23092961696E+01  0.29994726244E+02  0.23818613907E+01  0.94822363994E+02  0.89892107542E+02 0.  0.
         13    1    3    3    0    0  0.30765912714E+02 -0.83280089373E+01  0.26400558629E+02  0.41387169243E+02  0.10566000000E+00 0. -1.
         22    1    1    0    0    0 -0.23092961696E+01 -0.29994726244E+02 -0.23818613907E+01  0.30177636006E+02  0.00000000000E+00 0.  1.
</event>
<event>
 5    1  0.9041167E-005  0.9118800E+02  0.7818608E-02  0.1130116E+00
         25   -1    0    0    0    0  0.00000000000E+00  0.00000000000E+00  0.99999998245E-14  0.12500000000E+03  0.12500000000E+03 0.  0.
        -13    1    3    3    0    0 -0.39115192496E+02 -0.16024058850E+02 -0.28569763196E+02  0.51019714612E+02  0.10566000000E+00 0.  1.
         23    2    1    0    0    0 -0.75394284777E+01 -0.22295342365E+02 -0.33981364976E+02  0.83664078109E+02  0.72739394603E+02 0.  0.
         13    1    3    3    0    0  0.31575764018E+02 -0.62712835154E+01 -0.54116017796E+01  0.32644363497E+02  0.10566000000E+00 0. -1.
         22    1    1    0    0    0  0.75394284777E+01  0.22295342365E+02  0.33981364976E+02  0.41335921891E+02  0.00000000000E+00 0.  1.
</event>
<event>
 5    1  0.9041167E-005  0.9118800E+02  0.7818608E-02  0.1130116E+00
         25   -1    0    0    0    0  0.00000000000E+00  0.00000000000E+00  0.99999998245E-14  0.12500000000E+03  0.12500000000E+03 0.  0.
        -13    1    3    3    0    0  0.18653936727E+02  0.42534980742E+02  0.37279591993E+02  0.59556469718E+02  0.10566000000E+00 0. -1.
         23    2    1    0    0    0  0.18766641748E+02  0.21222312696E+02  0.83961204888E+01  0.95452271866E+02  0.90763803173E+02 0.  0.
         13    1    3    3    0    0  0.11270502115E+00 -0.21312668046E+02 -0.28883471504E+02  0.35895802147E+02  0.10566000000E+00 0.  1.
         22    1    1    0    0    0 -0.18766641748E+02 -0.21222312696E+02 -0.83961204888E+01  0.29547728134E+02  0.00000000000E+00 0. -1.
</event>
<event>
 5    1  0.9041167E-005  0.9118800E+02  0.7818608E-02  0.1130116E+00
         25   -1    0    0    0    0  0.00000000000E+00  0.00000000000E+00  0.99999998245E-14  0.12500000000E+03  0.12500000000E+03 0.  0.
        -13    1    3    3    0    0  0.39702617734E+02  0.93358047056E+01 -0.18816208815E+02  0.44916767278E+02  0.10566000000E+00 0.  1.
         23    2    1    0    0    0  0.18080564075E+02 -0.20679217607E+02  0.13822491785E+02  0.94249420863E+02  0.89091835854E+02 0.  0.
         13    1    3    3    0    0 -0.21622053660E+02 -0.30015022312E+02  0.32638700601E+02  0.49332653586E+02  0.10566000000E+00 0. -1.
         22    1    1    0    0    0 -0.18080564075E+02  0.20679217607E+02 -0.13822491785E+02  0.30750579137E+02  0.00000000000E+00 0. -1.
</event>
<event>
 5    1  0.9041167E-005  0.9118800E+02  0.7818608E-02  0.1130116E+00
         25   -1    0    0    0    0  0.00000000000E+00  0.00000000000E+00  0.99999998245E-14  0.12500000000E+03  0.12500000000E+03 0.  0.
        -13    1    3    3    0    0  0.31181252324E+02 -0.12880334134E+02  0.91889670049E+01  0.34966008959E+02  0.10566000000E+00 0. -1.
         23    2    1    0    0    0 -0.19689279569E+02 -0.48680672260E+01 -0.21924344388E+02  0.95132916358E+02  0.90322915638E+02 0.  0.
         13    1    3    3    0    0 -0.50870531893E+02  0.80122669080E+01 -0.31113311393E+02  0.60166907399E+02  0.10566000000E+00 0.  1.
         22    1    1    0    0    0  0.19689279569E+02  0.48680672260E+01  0.21924344388E+02  0.29867083642E+02  0.00000000000E+00 0.  1.
</event>
<event>
 5    1  0.9041167E-005  0.9118800E+02  0.7818608E-02  0.1130116E+00
         25   -1    0    0    0    0  0.00000000000E+00  0.00000000000E+00  0.99999998245E-14  0.12500000000E+03  0.12500000000E+03 0.  0.
        -13    1    3    3    0    0 -0.25599600780E+02  0.12050715953E+02  0.24655455666E+02  0.37529481387E+02  0.10566000000E+00 0.  1.
         23    2    1    0    0    0  0.13075991814E+02  0.22082991029E+02 -0.16180414533E+02  0.94661149179E+02  0.89667649098E+02 0.  0.
         13    1    3    3    0    0  0.38675592593E+02  0.10032275076E+02 -0.40835870199E+02  0.57131667791E+02  0.10566000000E+00 0. -1.
         22    1    1    0    0    0 -0.13075991814E+02 -0.22082991029E+02  0.16180414533E+02  0.30338850821E+02  0.00000000000E+00 0. -1.
</event>
<event>
 5    1  0.9041167E-005  0.9118800E+02  0.7818608E-02  0.1130116E+00
         25   -1    0    0    0    0  0.00000000000E+00  0.00000000000E+00  0.99999998245E-14  0.12500000000E+03  0.12500000000E+03 0.  0.
        -13    1    3    3    0    0  0.21443163886E+02  0.50936930771E+02  0.26338863916E+02  0.61221949579E+02  0.10566000000E+00 0. -1.
         23    2    1    0    0    0  0.17017978292E+02  0.26129574626E+02  0.68610834770E+01  0.93071318196E+02  0.87423278072E+02 0.  0.
         13    1    3    3    0    0 -0.44251855940E+01 -0.24807356145E+02 -0.19477780439E+02  0.31849368617E+02  0.10566000000E+00 0.  1.
         22    1    1    0    0    0 -0.17017978292E+02 -0.26129574626E+02 -0.68610834770E+01  0.31928681804E+02  0.00000000000E+00 0. -1.
</event>
<event>
 5    1  0.9041167E-005  0.9118800E+02  0.7818608E-02  0.1130116E+00
         25   -1    0    0    0    0  0.00000000000E+00  0.00000000000E+00  0.99999998245E-14  0.12500000000E+03  0.12500000000E+03 0.  0.
        -13    1    3    3    0    0  0.18653754453E+02  0.16163829953E+01 -0.52671487427E+02  0.55900554568E+02  0.10566000000E+00 0.  1.
         23    2    1    0    0    0  0.25745271681E+02  0.80914931756E+00 -0.13116031525E+02  0.96094913605E+02  0.91644576497E+02 0.  0.
         13    1    3    3    0    0  0.70915172278E+01 -0.80723367777E+00  0.39555455902E+02  0.40194359037E+02  0.10566000000E+00 0. -1.
         22    1    1    0    0    0 -0.25745271681E+02 -0.80914931756E+00  0.13116031525E+02  0.28905086395E+02  0.00000000000E+00 0.  1.
</event>
<event>
 5    1  0.9041167E-005  0.9118800E+02  0.7818608E-02  0.1130116E+00
         25   -1    0    0    0    0  0.00000000000E+00  0.00000000000E+00  0.99999998245E-14  0.12500000000E+03  0.12500000000E+03 0.  0.
        -13    1    3    3    0    0 -0.24083730313E+02  0.14072997982E+02 -0.14192882625E+02  0.31297354828E+02  0.10566000000E+00 0. -1.
         23    2    1    0    0    0  0.23098043522E+02 -0.48391157781E+01  0.21232319224E+02  0.93254952580E+02  0.87685450019E+02 0.  0.
         13    1    3    3    0    0  0.47181773835E+02 -0.18912113760E+02  0.35425201849E+02  0.61957597752E+02  0.10566000000E+00 0.  1.
         22    1    1    0    0    0 -0.23098043522E+02  0.48391157781E+01 -0.21232319224E+02  0.31745047420E+02  0.00000000000E+00 0.  1.
</event>
<event>
 5    1  0.9041167E-005  0.9118800E+02  0.7818608E-02  0.1130116E+00
         25   -1    0    0    0    0  0.00000000000E+00  0.00000000000E+00  0.99999998245E-14  0.12500000000E+03  0.12500000000E+03 0.  0.
        -13    1    3    3    0    0 -0.87591828893E+01 -0.24718978967E+02 -0.52785718577E+02  0.58941449387E+02  0.10566000000E+00 0. -1.
         23    2    1    0    0    0 -0.13098360370E+02  0.19749127358E+00 -0.26612896675E+02  0.95337695359E+02  0.90605870889E+02 0.  0.
         13    1    3    3    0    0 -0.43391774805E+01  0.24916470241E+02  0.26172821902E+02  0.36396245972E+02  0.10566000000E+00 0.  1.
         22    1    1    0    0    0  0.13098360370E+02 -0.19749127358E+00  0.26612896675E+02  0.29662304641E+02  0.00000000000E+00 0. -1.
</event>
<event>
 5    1  0.9041167E-005  0.9118800E+02  0.7818608E-02  0.1130116E+00
         25   -1    0    0    0    0  0.00000000000E+00  0.00000000000E+00  0.99999998245E-14  0.12500000000E+03  0.12500000000E+03 0.  0.
        -13    1    3    3    0    0 -0.38504791157E+01 -0.25198327642E+02  0.73692174810E+01  0.26534853225E+02  0.10566000000E+00 0.  1.
         23    2    1    0    0    0  0.17150990080E+02  0.31506380337E+02 -0.64244915836E+01  0.88557133006E+02  0.80711109839E+02 0.  0.
         13    1    3    3    0    0  0.21001469195E+02  0.56704707979E+02 -0.13793709065E+02  0.62022279780E+02  0.10566000000E+00 0. -1.
         22    1    1    0    0    0 -0.17150990080E+02 -0.31506380337E+02  0.64244915836E+01  0.36442866994E+02  0.00000000000E+00 0. -1.
</event>
<event>
 5    1  0.9041167E-005  0.9118800E+02  0.7818608E-02  0.1130116E+00
         25   -1    0    0    0    0  0.00000000000E+00  0.00000000000E+00  0.99999998245E-14  0.12500000000E+03  0.12500000000E+03 0.  0.
        -13    1    3    3    0    0  0.13189958000E+02 -0.42624747923E+02  0.46407979355E+01  0.44859695686E+02  0.10566000000E+00 0.  1.
         23    2    1    0    0    0  0.60248365273E+01 -0.36831523127E+01 -0.27968040800E+02  0.96154279826E+02  0.91725514207E+02 0.  0.
         13    1    3    3    0    0 -0.71651214729E+01  0.38941595610E+02 -0.32608838736E+02  0.51294584140E+02  0.10566000000E+00 0. -1.
         22    1    1    0    0    0 -0.60248365273E+01  0.36831523127E+01  0.27968040800E+02  0.28845720174E+02  0.00000000000E+00 0. -1.
</event>
<event>
 5    1  0.9041167E-005  0.9118800E+02  0.7818608E-02  0.1130116E+00
         25   -1    0    0    0    0  0.00000000000E+00  0.00000000000E+00  0.99999998245E-14  0.12500000000E+03  0.12500000000E+03 0.  0.
        -13    1    3    3    0    0  0.78172759314E+01  0.32779789304E+02  0.65526594749E+01  0.34330349548E+02  0.10566000000E+00 0. -1.
         23    2    1    0    0    0 -0.14361985586E+02 -0.19933930349E+02 -0.15861866451E+02  0.95755735324E+02  0.91180775555E+02 0.  0.
         13    1    3    3    0    0 -0.22179261518E+02 -0.52713719654E+02 -0.22414525926E+02  0.61425385776E+02  0.10566000000E+00 0.  1.
         22    1    1    0    0    0  0.14361985586E+02  0.19933930349E+02  0.15861866451E+02  0.29244264676E+02  0.00000000000E+00 0.  1.
</event>
<event>
 5    1  0.9041167E-005  0.9118800E+02  0.7818608E-02  0.1130116E+00
         25   -1    0    0    0    0  0.00000000000E+00  0.00000000000E+00  0.99999998245E-14  0.12500000000E+03  0.12500000000E+03 0.  0.
        -13    1    3    3    0    0 -0.14751492954E+02  0.30656196249E+02  0.36918109164E+02  0.50203255484E+02  0.10566000000E+00 0.  1.
         23    2    1    0    0    0  0.16807462750E+02  0.78512122960E+00  0.24283454069E+02  0.95456923638E+02  0.90770209372E+02 0.  0.
         13    1    3    3    0    0  0.31558955704E+02 -0.29871075020E+02 -0.12634655095E+02  0.45253668154E+02  0.10566000000E+00 0. -1.
         22    1    1    0    0    0 -0.16807462750E+02 -0.78512122960E+00 -0.24283454069E+02  0.29543076362E+02  0.00000000000E+00 0.  1.
</event>
<event>
 5    1  0.9041167E-005  0.9118800E+02  0.7818608E-02  0.1130116E+00
         25   -1    0    0    0    0  0.00000000000E+00  0.00000000000E+00  0.99999998245E-14  0.12500000000E+03  0.12500000000E+03 0.  0.
        -13    1    3    3    0    0 -0.27418856887E+02 -0.61553354599E+01  0.52979826343E+02  0.59971285053E+02  0.10566000000E+00 0.  1.
         23    2    1    0    0    0 -0.89537786578E+01  0.92166568111E+01  0.25296797180E+02  0.96626687493E+02  0.92367049716E+02 0.  0.
         13    1    3    3    0    0  0.18465078229E+02  0.15371992271E+02 -0.27683029162E+02  0.36655402440E+02  0.10566000000E+00 0. -1.
         22    1    1    0    0    0  0.89537786578E+01 -0.92166568111E+01 -0.25296797180E+02  0.28373312507E+02  0.00000000000E+00 0.  1.
</event>
<event>
 5    1  0.9041167E-005  0.9118800E+02  0.7818608E-02  0.1130116E+00
         25   -1    0    0    0    0  0.00000000000E+00  0.00000000000E+00  0.99999998245E-14  0.12500000000E+03  0.12500000000E+03 0.  0.
        -13    1    3    3    0    0  0.28440845720E+02 -0.22782046833E+02 -0.17424199346E+01  0.36482195033E+02  0.10566000000E+00 0. -1.
         23    2    1    0    0    0 -0.63563004061E+00  0.28745106062E+02  0.41911298963E+01  0.95944007195E+02  0.91438513761E+02 0.  0.
         13    1    3    3    0    0 -0.29076475760E+02  0.51527152895E+02  0.59335498309E+01  0.59461812163E+02  0.10566000000E+00 0.  1.
         22    1    1    0    0    0  0.63563004061E+00 -0.28745106062E+02 -0.41911298963E+01  0.29055992805E+02  0.00000000000E+00 0.  1.
</event>
<event>
 5    1  0.9041167E-005  0.9118800E+02  0.7818608E-02  0.1130116E+00
         25   -1    0    0    0    0  0.00000000000E+00  0.00000000000E+00  0.99999998245E-14  0.12500000000E+03  0.12500000000E+03 0.  0.
        -13    1    3    3    0    0 -0.30791842932E+02 -0.16799782696E+02 -0.55777117003E+01  0.35517493178E+02  0.10566000000E+00 0. -1.
         23    2    1    0    0    0  0.11513266207E+02  0.12177928094E+02  0.24762804082E+02  0.95099269283E+02  0.90276338654E+02 0.  0.
         13    1    3    3    0    0  0.42305109140E+02  0.28977710790E+02  0.30340515782E+02  0.59581776105E+02  0.10566000000E+00 0.  1.
         22    1    1    0    0    0 -0.11513266207E+02 -0.12177928094E+02 -0.24762804082E+02  0.29900730717E+02  0.00000000000E+00 0.  1.
</event>
<event>
 5    1  0.9041167E-005  0.9118800E+02  0.7818608E-02  0.1130116E+00
         25   -1    0    0    0    0  0.00000000000E+00  0.00000000000E+00  0.99999998245E-14  0.12500000000E+03  0.12500000000E+03 0.  0.
        -13    1    3    3    0    0 -0.49583381880E+02 -0.10170507181E+02 -0.33484164020E+01  0.50726462831E+02  0.10566000000E+00 0. -1.
         23    2    1    0    0    0 -0.12238419306E+02 -0.15244920747E+01 -0.26684089751E+02  0.95603680008E+02  0.90972083642E+02 0.  0.
         13    1    3    3    0    0  0.37344962574E+02  0.86460151064E+01 -0.23335673349E+02  0.44877217177E+02  0.10566000000E+00 0.  1.
         22    1    1    0    0    0  0.12238419306E+02  0.15244920747E+01  0.26684089751E+02  0.29396319992E+02  0.00000000000E+00 0. -1.
</event>
<event>
 5    1  0.9041167E-005  0.9118800E+02  0.7818608E-02  0.1130116E+00
         25   -1    0    0    0    0  0.00000000000E+00  0.00000000000E+00  0.99999998245E-14  0.12500000000E+03  0.12500000000E+03 0.  0.
        -13    1    3    3    0    0  0.57299451735E+00  0.23823407932E+02  0.55723043210E+02  0.60604882615E+02  0.10566000000E+00 0. -1.
         23    2    1    0    0    0  0.11028344745E+02  0.10046264539E+02  0.23835499525E+02  0.96880916504E+02  0.92710458558E+02 0.  0.
         13    1    3    3    0    0  0.10455350228E+02 -0.13777143392E+02 -0.31887543685E+02  0.36276033889E+02  0.10566000000E+00 0.  1.
         22    1    1    0    0    0 -0.11028344745E+02 -0.10046264539E+02 -0.23835499525E+02  0.28119083496E+02  0.00000000000E+00 0. -1.
</event>
<event>
 5    1  0.9041167E-005  0.9118800E+02  0.7818608E-02  0.1130116E+00
         25   -1    0    0    0    0  0.00000000000E+00  0.00000000000E+00  0.99999998245E-14  0.12500000000E+03  0.12500000000E+03 0.  0.
        -13    1    3    3    0    0 -0.33406346388E+02  0.11611316867E+02  0.10948760032E+02  0.37022873587E+02  0.10566000000E+00 0.  1.
         23    2    1    0    0    0  0.10840527739E+02  0.56134836813E+01 -0.26837094329E+02  0.95516820512E+02  0.90852656141E+02 0.  0.
         13    1    3    3    0    0  0.44246874128E+02 -0.59978331857E+01 -0.37785854361E+02  0.58493946924E+02  0.10566000000E+00 0. -1.
         22    1    1    0    0    0 -0.10840527739E+02 -0.56134836813E+01  0.26837094329E+02  0.29483179488E+02  0.00000000000E+00 0. -1.
</event>
<event>
 5    1  0.9041167E-005  0.9118800E+02  0.7818608E-02  0.1130116E+00
         25   -1    0    0    0    0  0.00000000000E+00  0.00000000000E+00  0.99999998245E-14  0.12500000000E+03  0.12500000000E+03 0.  0.
        -13    1    3    3    0    0 -0.35600687587E+02  0.25750990789E+02 -0.16601533922E+02  0.46969613325E+02  0.10566000000E+00 0.  1.
         23    2    1    0    0    0  0.12231673717E+00  0.29878062773E+02  0.11883448966E+02  0.92845218773E+02  0.87099395482E+02 0.  0.
         13    1    3    3    0    0  0.35723004324E+02  0.41270719833E+01  0.28484982888E+02  0.45875605448E+02  0.10566000000E+00 0. -1.
         22    1    1    0    0    0 -0.12231673717E+00 -0.29878062773E+02 -0.11883448966E+02  0.32154781227E+02  0.00000000000E+00 0.  1.
</event>
<event>
 5    1  0.9041167E-005  0.9118800E+02  0.7818608E-02  0.1130116E+00
         25   -1    0    0    0    0  0.00000000000E+00  0.00000000000E+00  0.99999998245E-14  0.12500000000E+03  0.12500000000E+03 0.  0.
        -13    1    3    3    0    0  0.43134982591E+02 -0.20794602720E+02  0.38549112684E+01  0.48040750726E+02  0.10566000000E+00 0. -1.
         23    2    1    0    0    0  0.19669887913E+02  0.20947740345E+02 -0.15041865957E+01  0.96225447121E+02  0.91822447039E+02 0.  0.
         13    1    3    3    0    0 -0.23465094677E+02  0.41742343065E+02 -0.53590978641E+01  0.48184696395E+02  0.10566000000E+00 0.  1.
         22    1    1    0    0    0 -0.19669887913E+02 -0.20947740345E+02  0.15041865957E+01  0.28774552879E+02  0.00000000000E+00 0.  1.
</event>
<event>
 5    1  0.9041167E-005  0.9118800E+02  0.7818608E-02  0.1130116E+00
         25   -1    0    0    0    0  0.00000000000E+00  0.00000000000E+00  0.99999998245E-14  0.12500000000E+03  0.12500000000E+03 0.  0.
        -13    1    3    3    0    0  0.22557396700E+02  0.56397766470E+02 -0.92262068927E+01  0.61438410350E+02  0.10566000000E+00 0. -1.
         23    2    1    0    0    0  0.94619787751E+01  0.29550718800E+02  0.32329118340E+01  0.93803433797E+02  0.88463882174E+02 0.  0.
         13    1    3    3    0    0 -0.13095417925E+02 -0.26847047670E+02  0.12459118727E+02  0.32365023447E+02  0.10566000000E+00 0.  1.
         22    1    1    0    0    0 -0.94619787751E+01 -0.29550718800E+02 -0.32329118340E+01  0.31196566203E+02  0.00000000000E+00 0. -1.
</event>
<event>
 5    1  0.9041167E-005  0.9118800E+02  0.7818608E-02  0.1130116E+00
         25   -1    0    0    0    0  0.00000000000E+00  0.00000000000E+00  0.99999998245E-14  0.12500000000E+03  0.12500000000E+03 0.  0.
        -13    1    3    3    0    0 -0.59855128297E+01 -0.17768425892E+02  0.31639523168E+02  0.36777899789E+02  0.10566000000E+00 0.  1.
         23    2    1    0    0    0  0.30488892486E+02  0.58145810658E+01 -0.49491919054E+01  0.93569498596E+02  0.88132710437E+02 0.  0.
         13    1    3    3    0    0  0.36474405316E+02  0.23583006958E+02 -0.36588715073E+02  0.56791598807E+02  0.10566000000E+00 0. -1.
         22    1    1    0    0    0 -0.30488892486E+02 -0.58145810658E+01  0.49491919054E+01  0.31430501404E+02  0.00000000000E+00 0. -1.
</event>
<event>
 5    1  0.9041167E-005  0.9118800E+02  0.7818608E-02  0.1130116E+00
         25   -1    0    0    0    0  0.00000000000E+00  0.00000000000E+00  0.99999998245E-14  0.12500000000E+03  0.12500000000E+03 0.  0.
        -13    1    3    3    0    0  0.27762756598E+02  0.12321756607E+02 -0.40397987246E+02  0.50543099206E+02  0.10566000000E+00 0.  1.
         23    2    1    0    0    0  0.26077966544E+02 -0.11409073291E+02 -0.10598936584E+01  0.96515782142E+02  0.92216839761E+02 0.  0.
         13    1    3    3    0    0 -0.16847900541E+01 -0.23730829898E+02  0.39338093588E+02  0.45972682936E+02  0.10566000000E+00 0. -1.
         22    1    1    0    0    0 -0.26077966544E+02  0.11409073291E+02  0.10598936584E+01  0.28484217858E+02  0.00000000000E+00 0. -1.
</event>
<event>
 5    1  0.9041167E-005  0.9118800E+02  0.7818608E-02  0.1130116E+00
         25   -1    0    0    0    0  0.00000000000E+00  0.00000000000E+00  0.99999998245E-14  0.12500000000E+03  0.12500000000E+03 0.  0.
        -13    1    3    3    0    0 -0.55441734543E+02 -0.13701959367E+02 -0.12045932484E+02  0.58366473880E+02  0.10566000000E+00 0.  1.
         23    2    1    0    0    0 -0.31271425720E+02 -0.24291922815E+00  0.82259372025E+01  0.92663841924E+02  0.86838703819E+02 0.  0.
         13    1    3    3    0    0  0.24170308824E+02  0.13459040139E+02  0.20271869687E+02  0.34297368044E+02  0.10566000000E+00 0. -1.
         22    1    1    0    0    0  0.31271425720E+02  0.24291922815E+00 -0.82259372025E+01  0.32336158076E+02  0.00000000000E+00 0.  1.
</event>
<event>
 5    1  0.9041167E-005  0.9118800E+02  0.7818608E-02  0.1130116E+00
         25   -1    0    0    0    0  0.00000000000E+00  0.00000000000E+00  0.99999998245E-14  0.12500000000E+03  0.12500000000E+03 0.  0.
        -13    1    3    3    0    0 -0.24228282372E+02 -0.33044742165E+02  0.39611174938E+02  0.56991411594E+02  0.10566000000E+00 0. -1.
         23    2    1    0    0    0 -0.94955621261E+01  0.13155973245E+01  0.26841719150E+02  0.96497817920E+02  0.92192486028E+02 0.  0.
         13    1    3    3    0    0  0.14732720246E+02  0.34360339489E+02 -0.12769455789E+02  0.39506406326E+02  0.10566000000E+00 0.  1.
         22    1    1    0    0    0  0.94955621261E+01 -0.13155973245E+01 -0.26841719150E+02  0.28502182080E+02  0.00000000000E+00 0. -1.
</event>
<event>
 5    1  0.9041167E-005  0.9118800E+02  0.7818608E-02  0.1130116E+00
         25   -1    0    0    0    0  0.00000000000E+00  0.00000000000E+00  0.99999998245E-14  0.12500000000E+03  0.12500000000E+03 0.  0.
        -13    1    3    3    0    0 -0.40568668602E+02  0.41795520868E+01 -0.75173532424E+00  0.40790462093E+02  0.10566000000E+00 0.  1.
         23    2    1    0    0    0 -0.68693081171E+01 -0.13572203524E+02  0.31058918075E+02  0.90416065949E+02  0.83540508061E+02 0.  0.
         13    1    3    3    0    0  0.33699360484E+02 -0.17751755611E+02  0.31810653399E+02  0.49625603855E+02  0.10566000000E+00 0. -1.
         22    1    1    0    0    0  0.68693081171E+01  0.13572203524E+02 -0.31058918075E+02  0.34583934051E+02  0.00000000000E+00 0. -1.
</event>
<event>
 5    1  0.9041167E-005  0.9118800E+02  0.7818608E-02  0.1130116E+00
         25   -1    0    0    0    0  0.00000000000E+00  0.00000000000E+00  0.99999998245E-14  0.12500000000E+03  0.12500000000E+03 0.  0.
        -13    1    3    3    0    0 -0.48894484358E+02  0.17232730423E+02 -0.24986779655E+02  0.57549873327E+02  0.10566000000E+00 0. -1.
         23    2    1    0    0    0 -0.29017311962E+02  0.76284014455E+00  0.32302843059E+01  0.95793475810E+02  0.91232499431E+02 0.  0.
         13    1    3    3    0    0  0.19877172396E+02 -0.16469890279E+02  0.28217063961E+02  0.38243602482E+02  0.10566000000E+00 0.  1.
         22    1    1    0    0    0  0.29017311962E+02 -0.76284014455E+00 -0.32302843059E+01  0.29206524190E+02  0.00000000000E+00 0. -1.
</event>
<event>
 5    1  0.9041167E-005  0.9118800E+02  0.7818608E-02  0.1130116E+00
         25   -1    0    0    0    0  0.00000000000E+00  0.00000000000E+00  0.99999998245E-14  0.12500000000E+03  0.12500000000E+03 0.  0.
        -13    1    3    3    0    0  0.22387734689E+01  0.95646160677E+01  0.57378151848E+02  0.58213035144E+02  0.10566000000E+00 0.  1.
         23    2    1    0    0    0 -0.91945050484E+01  0.16405241984E+02  0.21772329773E+02  0.96230133275E+02  0.91828826186E+02 0.  0.
         13    1    3    3    0    0 -0.11433278517E+02  0.68406259164E+01 -0.35605822075E+02  0.38017098130E+02  0.10566000000E+00 0. -1.
         22    1    1    0    0    0  0.91945050484E+01 -0.16405241984E+02 -0.21772329773E+02  0.28769866725E+02  0.00000000000E+00 0.  1.
</event>
<event>
 5    1  0.9041167E-005  0.9118800E+02  0.7818608E-02  0.1130116E+00
         25   -1    0    0    0    0  0.00000000000E+00  0.00000000000E+00  0.99999998245E-14  0.12500000000E+03  0.12500000000E+03 0.  0.
        -13    1    3    3    0    0 -0.23459332130E+02  0.49623890776E+02  0.21603401108E+02  0.58988040340E+02  0.10566000000E+00 0. -1.
         23    2    1    0    0    0 -0.11154118794E+02  0.27904317218E+02 -0.39254414973E+01  0.94693657818E+02  0.89712955890E+02 0.  0.
         13    1    3    3    0    0  0.12305213336E+02 -0.21719573557E+02 -0.25528842605E+02  0.35705617479E+02  0.10566000000E+00 0.  1.
         22    1    1    0    0    0  0.11154118794E+02 -0.27904317218E+02  0.39254414973E+01  0.30306342182E+02  0.00000000000E+00 0. -1.
</event>
<event>
 5    1  0.9041167E-005  0.9118800E+02  0.7818608E-02  0.1130116E+00
         25   -1    0    0    0    0  0.00000000000E+00  0.00000000000E+00  0.99999998245E-14  0.12500000000E+03  0.12500000000E+03 0.  0.
        -13    1    3    3    0    0  0.12652457709E+01 -0.66075342459E+01  0.34941114854E+02  0.35583044093E+02  0.10566000000E+00 0.  1.
         23    2    1    0    0    0 -0.31308689326E+02 -0.98495712096E-01 -0.10594394563E+02  0.91947240284E+02  0.85800991084E+02 0.  0.
         13    1    3    3    0    0 -0.32573935097E+02  0.65090385338E+01 -0.45535509417E+02  0.56364196190E+02  0.10566000000E+00 0. -1.
         22    1    1    0    0    0  0.31308689326E+02  0.98495712096E-01  0.10594394563E+02  0.33052759716E+02  0.00000000000E+00 0. -1.
</event>
<event>
 5    1  0.9041167E-005  0.9118800E+02  0.7818608E-02  0.1130116E+00
         25   -1    0    0    0    0  0.00000000000E+00  0.00000000000E+00  0.99999998245E-14  0.12500000000E+03  0.12500000000E+03 0.  0.
        -13    1    3    3    0    0  0.22972590892E+02  0.87068097144E+01 -0.23118106321E+02  0.33734351507E+02  0.10566000000E+00 0.  1.
         23    2    1    0    0    0 -0.16104388867E+02  0.18118485861E+02  0.20647932529E+02  0.93157135990E+02  0.87545896519E+02 0.  0.
         13    1    3    3    0    0 -0.39076979759E+02  0.94116761462E+01  0.43766038850E+02  0.59422784482E+02  0.10566000000E+00 0. -1.
         22    1    1    0    0    0  0.16104388867E+02 -0.18118485861E+02 -0.20647932529E+02  0.31842864010E+02  0.00000000000E+00 0. -1.
</event>
<event>
 5    1  0.9041167E-005  0.9118800E+02  0.7818608E-02  0.1130116E+00
         25   -1    0    0    0    0  0.00000000000E+00  0.00000000000E+00  0.99999998245E-14  0.12500000000E+03  0.12500000000E+03 0.  0.
        -13    1    3    3    0    0 -0.20187785258E+02  0.18062394643E+02 -0.48422302276E+02  0.55484477970E+02  0.10566000000E+00 0.  1.
         23    2    1    0    0    0  0.85628611218E+01  0.19263012670E+02 -0.19495938402E+02  0.96286277464E+02  0.91905219471E+02 0.  0.
         13    1    3    3    0    0  0.28750646380E+02  0.12006180266E+01  0.28926363875E+02  0.40801799494E+02  0.10566000000E+00 0. -1.
         22    1    1    0    0    0 -0.85628611218E+01 -0.19263012670E+02  0.19495938402E+02  0.28713722536E+02  0.00000000000E+00 0.  1.
</event>
<event>
 5    1  0.9041167E-005  0.9118800E+02  0.7818608E-02  0.1130116E+00
         25   -1    0    0    0    0  0.00000000000E+00  0.00000000000E+00  0.99999998245E-14  0.12500000000E+03  0.12500000000E+03 0.  0.
        -13    1    3    3    0    0 -0.41055534323E+02 -0.13327932713E+02  0.18158212754E+02  0.46828650882E+02  0.10566000000E+00 0. -1.
         23    2    1    0    0    0 -0.15851554805E+02  0.23904234154E+02 -0.23004138614E+01  0.96225426082E+02  0.91822418398E+02 0.  0.
         13    1    3    3    0    0  0.25203979518E+02  0.37232166867E+02 -0.20458626615E+02  0.49396775200E+02  0.10566000000E+00 0.  1.
         22    1    1    0    0    0  0.15851554805E+02 -0.23904234154E+02  0.23004138614E+01  0.28774573918E+02  0.00000000000E+00 0. -1.
</event>
<event>
 5    1  0.9041167E-005  0.9118800E+02  0.7818608E-02  0.1130116E+00
         25   -1    0    0    0    0  0.00000000000E+00  0.00000000000E+00  0.99999998245E-14  0.12500000000E+03  0.12500000000E+03 0.  0.
        -13    1    3    3    0    0 -0.31667514670E+02  0.94631048491E+01  0.33287888268E+00  0.33053045414E+02  0.10566000000E+00 0.  1.
         23    2    1    0    0    0 -0.18551472735E+02 -0.12044001223E+02 -0.39235306723E+02  0.79959746895E+02  0.66067667764E+02 0.  0.
         13    1    3    3    0    0  0.13116041935E+02 -0.21507106072E+02 -0.39568185605E+02  0.46906701481E+02  0.10566000000E+00 0. -1.
         22    1    1    0    0    0  0.18551472735E+02  0.12044001223E+02  0.39235306723E+02  0.45040253105E+02  0.00000000000E+00 0. -1.
</event>
<event>
 5    1  0.9041167E-005  0.9118800E+02  0.7818608E-02  0.1130116E+00
         25   -1    0    0    0    0  0.00000000000E+00  0.00000000000E+00  0.99999998245E-14  0.12500000000E+03  0.12500000000E+03 0.  0.
        -13    1    3    3    0    0 -0.33192455125E+02  0.75903284800E+01 -0.13629503197E+02  0.36675968769E+02  0.10566000000E+00 0. -1.
         23    2    1    0    0    0  0.17146642249E+02 -0.19369777329E+02 -0.17270204948E+02  0.93896051808E+02  0.88594655324E+02 0.  0.
         13    1    3    3    0    0  0.50339097374E+02 -0.26960105809E+02 -0.36407017504E+01  0.57220083039E+02  0.10566000000E+00 0.  1.
         22    1    1    0    0    0 -0.17146642249E+02  0.19369777329E+02  0.17270204948E+02  0.31103948192E+02  0.00000000000E+00 0. -1.
</event>
<event>
 5    1  0.9041167E-005  0.9118800E+02  0.7818608E-02  0.1130116E+00
         25   -1    0    0    0    0  0.00000000000E+00  0.00000000000E+00  0.99999998245E-14  0.12500000000E+03  0.12500000000E+03 0.  0.
        -13    1    3    3    0    0  0.15342229629E+02 -0.54989867928E+02 -0.73019747454E+01  0.57555187290E+02  0.10566000000E+00 0.  1.
         23    2    1    0    0    0  0.20204823286E+02 -0.26377345366E+02  0.86403180650E+01  0.90668464514E+02  0.83917317214E+02 0.  0.
         13    1    3    3    0    0  0.48625936565E+01  0.28612522562E+02  0.15942292810E+02  0.33113277224E+02  0.10566000000E+00 0. -1.
         22    1    1    0    0    0 -0.20204823286E+02  0.26377345366E+02 -0.86403180650E+01  0.34331535486E+02  0.00000000000E+00 0.  1.
</event>
<event>
 5    1  0.9041167E-005  0.9118800E+02  0.7818608E-02  0.1130116E+00
         25   -1    0    0    0    0  0.00000000000E+00  0.00000000000E+00  0.99999998245E-14  0.12500000000E+03  0.12500000000E+03 0.  0.
        -13    1    3    3    0    0  0.28027868401E+02  0.41223070476E+02  0.21229081059E+01  0.49894096338E+02  0.10566000000E+00 0.  1.
         23    2    1    0    0    0 -0.79570229599E+01  0.21711192745E+02  0.19871894346E+02  0.94510948036E+02  0.89458018137E+02 0.  0.
         13    1    3    3    0    0 -0.35984891361E+02 -0.19511877730E+02  0.17748986240E+02  0.44616851698E+02  0.10566000000E+00 0. -1.
         22    1    1    0    0    0  0.79570229599E+01 -0.21711192745E+02 -0.19871894346E+02  0.30489051964E+02  0.00000000000E+00 0. -1.
</event>
<event>
 5    1  0.9041167E-005  0.9118800E+02  0.7818608E-02  0.1130116E+00
         25   -1    0    0    0    0  0.00000000000E+00  0.00000000000E+00  0.99999998245E-14  0.12500000000E+03  0.12500000000E+03 0.  0.
        -13    1    3    3    0    0  0.16094158371E+02  0.34098729295E+02 -0.37102452973E+01  0.37888287865E+02  0.10566000000E+00 0. -1.
         23    2    1    0    0    0  0.90880267191E+00 -0.17991837293E+02 -0.23275817686E+02  0.95567096296E+02  0.90921801973E+02 0.  0.
         13    1    3    3    0    0 -0.15185355699E+02 -0.52090566587E+02 -0.19565572389E+02  0.57678808431E+02  0.10566000000E+00 0.  1.
         22    1    1    0    0    0 -0.90880267191E+00  0.17991837293E+02  0.23275817686E+02  0.29432903704E+02  0.00000000000E+00 0.  1.
</event>
<event>
 5    1  0.9041167E-005  0.9118800E+02  0.7818608E-02  0.1130116E+00
         25   -1    0    0    0    0  0.00000000000E+00  0.00000000000E+00  0.99999998245E-14  0.12500000000E+03  0.12500000000E+03 0.  0.
        -13    1    3    3    0    0  0.12546607516E+02  0.21297209282E+02 -0.19804073713E+02  0.31673348150E+02  0.10566000000E+00 0. -1.
         23    2    1    0    0    0 -0.17979741945E+02 -0.24200080285E+02  0.89523506175E+01  0.93550682237E+02  0.88106018859E+02 0.  0.
         13    1    3    3    0    0 -0.30526349461E+02 -0.45497289567E+02  0.28756424331E+02  0.61877334087E+02  0.10566000000E+00 0.  1.
         22    1    1    0    0    0  0.17979741945E+02  0.24200080285E+02 -0.89523506175E+01  0.31449317763E+02  0.00000000000E+00 0.  1.
</event>
<event>
 5    1  0.9041167E-005  0.9118800E+02  0.7818608E-02  0.1130116E+00
         25   -1    0    0    0    0  0.00000000000E+00  0.00000000000E+00  0.99999998245E-14  0.12500000000E+03  0.12500000000E+03 0.  0.
        -13    1    3    3    0    0  0.17622690360E+01 -0.26696398192E+02  0.52082652846E+02  0.58552687044E+02  0.10566000000E+00 0. -1.
         23    2    1    0    0    0 -0.18480514956E+01  0.16239332454E+01  0.30648389911E+02  0.94253028480E+02  0.89096897364E+02 0.  0.
         13    1    3    3    0    0 -0.36103205316E+01  0.28320331437E+02 -0.21434262935E+02  0.35700341436E+02  0.10566000000E+00 0.  1.
         22    1    1    0    0    0  0.18480514956E+01 -0.16239332454E+01 -0.30648389911E+02  0.30746971520E+02  0.00000000000E+00 0. -1.
</event>
<event>
 5    1  0.9041167E-005  0.9118800E+02  0.7818608E-02  0.1130116E+00
         25   -1    0    0    0    0  0.00000000000E+00  0.00000000000E+00  0.99999998245E-14  0.12500000000E+03  0.12500000000E+03 0.  0.
        -13    1    3    3    0    0 -0.90206039416E+01  0.52816676498E+02  0.26845741166E+02  0.59930606492E+02  0.10566000000E+00 0. -1.
         23    2    1    0    0    0 -0.15788390411E+02  0.19000996934E+02  0.95187827666E+01  0.98525136797E+02  0.94901444664E+02 0.  0.
         13    1    3    3    0    0 -0.67677864693E+01 -0.33815679564E+02 -0.17326958400E+02  0.38594530305E+02  0.10566000000E+00 0.  1.
         22    1    1    0    0    0  0.15788390411E+02 -0.19000996934E+02 -0.95187827666E+01  0.26474863203E+02  0.00000000000E+00 0. -1.
</event>
<event>
 5    1  0.9041167E-005  0.9118800E+02  0.7818608E-02  0.1130116E+00
         25   -1    0    0    0    0  0.00000000000E+00  0.00000000000E+00  0.99999998245E-14  0.12500000000E+03  0.12500000000E+03 0.  0.
        -13    1    3    3    0    0  0.31646554637E+02 -0.11300189159E+02 -0.17202591023E+02  0.37751013196E+02  0.10566000000E+00 0. -1.
         23    2    1    0    0    0 -0.16017964142E+02  0.20197771734E+02 -0.15525456319E+02  0.94907393729E+02  0.90010268482E+02 0.  0.
         13    1    3    3    0    0 -0.47664518779E+02  0.31497960893E+02  0.16771347034E+01  0.57156380533E+02  0.10566000000E+00 0.  1.
         22    1    1    0    0    0  0.16017964142E+02 -0.20197771734E+02  0.15525456319E+02  0.30092606271E+02  0.00000000000E+00 0.  1.
</event>
<event>
 5    1  0.9041167E-005  0.9118800E+02  0.7818608E-02  0.1130116E+00
         25   -1    0    0    0    0  0.00000000000E+00  0.00000000000E+00  0.99999998245E-14  0.12500000000E+03  0.12500000000E+03 0.  0.
        -13    1    3    3    0    0  0.37387472688E+02 -0.21891293497E+01 -0.40662572790E+01  0.37671753525E+02  0.10566000000E+00 0.  1.
         23    2    1    0    0    0  0.15038975490E+02  0.36703161637E+02 -0.12700821049E+02  0.83351426036E+02  0.72200114328E+02 0.  0.
         13    1    3    3    0    0 -0.22348497198E+02  0.38892290986E+02 -0.86345637703E+01  0.45679672511E+02  0.10566000000E+00 0. -1.
         22    1    1    0    0    0 -0.15038975490E+02 -0.36703161637E+02  0.12700821049E+02  0.41648573964E+02  0.00000000000E+00 0. -1.
</event>
<event>
 5    1  0.9041167E-005  0.9118800E+02  0.7818608E-02  0.1130116E+00
         25   -1    0    0    0    0  0.00000000000E+00  0.00000000000E+00  0.99999998245E-14  0.12500000000E+03  0.12500000000E+03 0.  0.
        -13    1    3    3    0    0  0.26286471343E+02  0.13272732348E+02 -0.31833150524E+02  0.43364785667E+02  0.10566000000E+00 0. -1.
         23    2    1    0    0    0  0.21690659724E+02 -0.11174167313E+02  0.14974419766E+02  0.96371692650E+02  0.92021319066E+02 0.  0.
         13    1    3    3    0    0 -0.45958116193E+01 -0.24446899661E+02  0.46807570290E+02  0.53006906983E+02  0.10566000000E+00 0.  1.
         22    1    1    0    0    0 -0.21690659724E+02  0.11174167313E+02 -0.14974419766E+02  0.28628307350E+02  0.00000000000E+00 0.  1.
</event>
<event>
 5    1  0.9041167E-005  0.9118800E+02  0.7818608E-02  0.1130116E+00
         25   -1    0    0    0    0  0.00000000000E+00  0.00000000000E+00  0.99999998245E-14  0.12500000000E+03  0.12500000000E+03 0.  0.
        -13    1    3    3    0    0  0.30452010042E+02  0.38505061894E+00 -0.54500830838E+02  0.62432562863E+02  0.10566000000E+00 0. -1.
         23    2    1    0    0    0  0.11063224611E+02  0.13896249960E+01 -0.23078333237E+02  0.99369247740E+02  0.96006832751E+02 0.  0.
         13    1    3    3    0    0 -0.19388785431E+02  0.10045743771E+01  0.31422497601E+02  0.36936684877E+02  0.10566000000E+00 0.  1.
         22    1    1    0    0    0 -0.11063224611E+02 -0.13896249960E+01  0.23078333237E+02  0.25630752260E+02  0.00000000000E+00 0. -1.
</event>
<event>
 5    1  0.9041167E-005  0.9118800E+02  0.7818608E-02  0.1130116E+00
         25   -1    0    0    0    0  0.00000000000E+00  0.00000000000E+00  0.99999998245E-14  0.12500000000E+03  0.12500000000E+03 0.  0.
        -13    1    3    3    0    0 -0.41989331235E+02 -0.26720015495E+02 -0.18734369610E+02  0.53179422095E+02  0.10566000000E+00 0. -1.
         23    2    1    0    0    0 -0.79333030685E+01 -0.29454800319E+02  0.40241251939E+01  0.94231247296E+02  0.89066333841E+02 0.  0.
         13    1    3    3    0    0  0.34056028167E+02 -0.27347848243E+01  0.22758494804E+02  0.41051825201E+02  0.10566000000E+00 0.  1.
         22    1    1    0    0    0  0.79333030685E+01  0.29454800319E+02 -0.40241251939E+01  0.30768752704E+02  0.00000000000E+00 0.  1.
</event>
<event>
 5    1  0.9041167E-005  0.9118800E+02  0.7818608E-02  0.1130116E+00
         25   -1    0    0    0    0  0.00000000000E+00  0.00000000000E+00  0.99999998245E-14  0.12500000000E+03  0.12500000000E+03 0.  0.
        -13    1    3    3    0    0  0.99387199464E+01 -0.53120765531E+02  0.33036089196E+00  0.54043632254E+02  0.10566000000E+00 0.  1.
         23    2    1    0    0    0  0.26923842117E+02 -0.19709995307E+02  0.21075031975E+01  0.91566203340E+02  0.85244066275E+02 0.  0.
         13    1    3    3    0    0  0.16985122171E+02  0.33410770225E+02  0.17771423055E+01  0.37522571087E+02  0.10566000000E+00 0. -1.
         22    1    1    0    0    0 -0.26923842117E+02  0.19709995307E+02 -0.21075031975E+01  0.33433796660E+02  0.00000000000E+00 0.  1.
</event>
<event>
 5    1  0.9041167E-005  0.9118800E+02  0.7818608E-02  0.1130116E+00
         25   -1    0    0    0    0  0.00000000000E+00  0.00000000000E+00  0.99999998245E-14  0.12500000000E+03  0.12500000000E+03 0.  0.
        -13    1    3    3    0    0 -0.27891349538E+02 -0.12432182963E+02 -0.31735486995E+02  0.44041331168E+02  0.10566000000E+00 0. -1.
         23    2    1    0    0    0 -0.10139739068E+02 -0.22978425900E+02  0.15425958649E+02  0.95524882266E+02  0.90863747262E+02 0.  0.
         13    1    3    3    0    0  0.17751610470E+02 -0.10546242937E+02  0.47161445644E+02  0.51483551098E+02  0.10566000000E+00 0.  1.
         22    1    1    0    0    0  0.10139739068E+02  0.22978425900E+02 -0.15425958649E+02  0.29475117734E+02  0.00000000000E+00 0.  1.
</event>
<event>
 5    1  0.9041167E-005  0.9118800E+02  0.7818608E-02  0.1130116E+00
         25   -1    0    0    0    0  0.00000000000E+00  0.00000000000E+00  0.99999998245E-14  0.12500000000E+03  0.12500000000E+03 0.  0.
        -13    1    3    3    0    0 -0.27470554110E+02  0.33845235139E+02  0.22888837223E+02  0.49234554107E+02  0.10566000000E+00 0.  1.
         23    2    1    0    0    0 -0.38553576670E+00  0.27948772700E+02 -0.12661527404E+02  0.94314550526E+02  0.89183168992E+02 0.  0.
         13    1    3    3    0    0  0.27085018343E+02 -0.58964624386E+01 -0.35550364627E+02  0.45079996418E+02  0.10566000000E+00 0. -1.
         22    1    1    0    0    0  0.38553576670E+00 -0.27948772700E+02  0.12661527404E+02  0.30685449474E+02  0.00000000000E+00 0. -1.
</event>
<event>
 5    1  0.9041167E-005  0.9118800E+02  0.7818608E-02  0.1130116E+00
         25   -1    0    0    0    0  0.00000000000E+00  0.00000000000E+00  0.99999998245E-14  0.12500000000E+03  0.12500000000E+03 0.  0.
        -13    1    3    3    0    0 -0.16487400869E+02 -0.22040220725E+02 -0.21445108222E+02  0.34892829460E+02  0.10566000000E+00 0. -1.
         23    2    1    0    0    0  0.90151992882E+01  0.26426109410E+02  0.64335110537E+01  0.96346847622E+02  0.91987563863E+02 0.  0.
         13    1    3    3    0    0  0.25502600157E+02  0.48466330135E+02  0.27878619275E+02  0.61454018162E+02  0.10566000000E+00 0.  1.
         22    1    1    0    0    0 -0.90151992882E+01 -0.26426109410E+02 -0.64335110537E+01  0.28653152378E+02  0.00000000000E+00 0.  1.
</event>
<event>
 5    1  0.9041167E-005  0.9118800E+02  0.7818608E-02  0.1130116E+00
         25   -1    0    0    0    0  0.00000000000E+00  0.00000000000E+00  0.99999998245E-14  0.12500000000E+03  0.12500000000E+03 0.  0.
        -13    1    3    3    0    0  0.30157639075E+02  0.23087577803E+02 -0.12245241737E+02  0.39905846096E+02  0.10566000000E+00 0.  1.
         23    2    1    0    0    0 -0.24583856166E+02  0.13715394886E+02 -0.86054568091E+01  0.95563085628E+02  0.90916287908E+02 0.  0.
         13    1    3    3    0    0 -0.54741495242E+02 -0.93721829175E+01  0.36397849276E+01  0.55657239532E+02  0.10566000000E+00 0. -1.
         22    1    1    0    0    0  0.24583856166E+02 -0.13715394886E+02  0.86054568091E+01  0.29436914372E+02  0.00000000000E+00 0. -1.
</event>
<event>
 5    1  0.9041167E-005  0.9118800E+02  0.7818608E-02  0.1130116E+00
         25   -1    0    0    0    0  0.00000000000E+00  0.00000000000E+00  0.99999998245E-14  0.12500000000E+03  0.12500000000E+03 0.  0.
        -13    1    3    3    0    0  0.26037465183E+02  0.14790314664E+01 -0.20887077603E+02  0.33412846363E+02  0.10566000000E+00 0. -1.
         23    2    1    0    0    0 -0.25889739461E+02 -0.17657708810E+02  0.26471238240E+01  0.93550348900E+02  0.88105545938E+02 0.  0.
         13    1    3    3    0    0 -0.51927204644E+02 -0.19136740277E+02  0.23534201427E+02  0.60137502537E+02  0.10566000000E+00 0.  1.
         22    1    1    0    0    0  0.25889739461E+02  0.17657708810E+02 -0.26471238240E+01  0.31449651100E+02  0.00000000000E+00 0.  1.
</event>
<event>
 5    1  0.9041167E-005  0.9118800E+02  0.7818608E-02  0.1130116E+00
         25   -1    0    0    0    0  0.00000000000E+00  0.00000000000E+00  0.99999998245E-14  0.12500000000E+03  0.12500000000E+03 0.  0.
        -13    1    3    3    0    0  0.25379412059E+02 -0.20147131217E+02  0.39257722767E+02  0.50903844782E+02  0.10566000000E+00 0.  1.
         23    2    1    0    0    0  0.23230372763E+02 -0.15821471295E+02 -0.58681142934E+01  0.96287564750E+02  0.91906970287E+02 0.  0.
         13    1    3    3    0    0 -0.21490392956E+01  0.43256599225E+01 -0.45125837060E+02  0.45383719967E+02  0.10566000000E+00 0. -1.
         22    1    1    0    0    0 -0.23230372763E+02  0.15821471295E+02  0.58681142934E+01  0.28712435250E+02  0.00000000000E+00 0.  1.
</event>
<event>
 5    1  0.9041167E-005  0.9118800E+02  0.7818608E-02  0.1130116E+00
         25   -1    0    0    0    0  0.00000000000E+00  0.00000000000E+00  0.99999998245E-14  0.12500000000E+03  0.12500000000E+03 0.  0.
        -13    1    3    3    0    0  0.44766349659E+02  0.91552206874E+01 -0.36969735080E+02  0.58775986623E+02  0.10566000000E+00 0. -1.
         23    2    1    0    0    0  0.16564340176E+02 -0.81066776688E+01 -0.24983899778E+02  0.93946967356E+02  0.88666464004E+02 0.  0.
         13    1    3    3    0    0 -0.28202009483E+02 -0.17261898356E+02  0.11985835302E+02  0.35170980732E+02  0.10566000000E+00 0.  1.
         22    1    1    0    0    0 -0.16564340176E+02  0.81066776688E+01  0.24983899778E+02  0.31053032644E+02  0.00000000000E+00 0. -1.
</event>
<event>
 5    1  0.9041167E-005  0.9118800E+02  0.7818608E-02  0.1130116E+00
         25   -1    0    0    0    0  0.00000000000E+00  0.00000000000E+00  0.99999998245E-14  0.12500000000E+03  0.12500000000E+03 0.  0.
        -13    1    3    3    0    0  0.10692941742E+02 -0.26486573102E+02 -0.20605439485E+02  0.35220347219E+02  0.10566000000E+00 0. -1.
         23    2    1    0    0    0 -0.11657571346E+01  0.27744570024E+02  0.57027514282E+01  0.96651428090E+02  0.92400525012E+02 0.  0.
         13    1    3    3    0    0 -0.11858698877E+02  0.54231143126E+02  0.26308190913E+02  0.61431080871E+02  0.10566000000E+00 0.  1.
         22    1    1    0    0    0  0.11657571346E+01 -0.27744570024E+02 -0.57027514282E+01  0.28348571910E+02  0.00000000000E+00 0.  1.
</event>
<event>
 5    1  0.9041167E-005  0.9118800E+02  0.7818608E-02  0.1130116E+00
         25   -1    0    0    0    0  0.00000000000E+00  0.00000000000E+00  0.99999998245E-14  0.12500000000E+03  0.12500000000E+03 0.  0.
        -13    1    3    3    0    0 -0.17170787607E+02 -0.11023522783E+02 -0.34512154808E+02  0.40093066671E+02  0.10566000000E+00 0.  1.
         23    2    1    0    0    0 -0.17841409186E+02 -0.63964964919E+01  0.21521982005E+02  0.96322016136E+02  0.91953814679E+02 0.  0.
         13    1    3    3    0    0 -0.67062157914E+00  0.46270262909E+01  0.56034136812E+02  0.56228949465E+02  0.10566000000E+00 0. -1.
         22    1    1    0    0    0  0.17841409186E+02  0.63964964919E+01 -0.21521982005E+02  0.28677983864E+02  0.00000000000E+00 0. -1.
</event>
<event>
 5    1  0.9041167E-005  0.9118800E+02  0.7818608E-02  0.1130116E+00
         25   -1    0    0    0    0  0.00000000000E+00  0.00000000000E+00  0.99999998245E-14  0.12500000000E+03  0.12500000000E+03 0.  0.
        -13    1    3    3    0    0  0.31526412530E+02 -0.31463514795E+02  0.45732622373E+01  0.44774918669E+02  0.10566000000E+00 0.  1.
         23    2    1    0    0    0 -0.17183340834E+02 -0.25831187727E+02  0.29401797001E+01  0.93836525895E+02  0.88510629157E+02 0.  0.
         13    1    3    3    0    0 -0.48709753364E+02  0.56323270683E+01 -0.16330825373E+01  0.49061607226E+02  0.10566000000E+00 0. -1.
         22    1    1    0    0    0  0.17183340834E+02  0.25831187727E+02 -0.29401797001E+01  0.31163474105E+02  0.00000000000E+00 0. -1.
</event>
<event>
 5    1  0.9041167E-005  0.9118800E+02  0.7818608E-02  0.1130116E+00
         25   -1    0    0    0    0  0.00000000000E+00  0.00000000000E+00  0.99999998245E-14  0.12500000000E+03  0.12500000000E+03 0.  0.
        -13    1    3    3    0    0 -0.19250197708E+02 -0.21110245718E+02  0.49253819483E+02  0.56939990198E+02  0.10566000000E+00 0. -1.
         23    2    1    0    0    0 -0.24246424370E+02 -0.11287379198E+02  0.12189393389E+02  0.95608243756E+02  0.90978354234E+02 0.  0.
         13    1    3    3    0    0 -0.49962266618E+01  0.98228665200E+01 -0.37064426094E+02  0.38668253558E+02  0.10566000000E+00 0.  1.
         22    1    1    0    0    0  0.24246424370E+02  0.11287379198E+02 -0.12189393389E+02  0.29391756244E+02  0.00000000000E+00 0. -1.
</event>
<event>
 5    1  0.9041167E-005  0.9118800E+02  0.7818608E-02  0.1130116E+00
         25   -1    0    0    0    0  0.00000000000E+00  0.00000000000E+00  0.99999998245E-14  0.12500000000E+03  0.12500000000E+03 0.  0.
        -13    1    3    3    0    0 -0.34448858736E+02  0.23983988516E+01  0.36625534592E+02  0.50338028701E+02  0.10566000000E+00 0. -1.
         23    2    1    0    0    0 -0.24860073316E+02  0.12913053714E+02 -0.69152200447E+01  0.96145356184E+02  0.91713352604E+02 0.  0.
         13    1    3    3    0    0  0.95887854199E+01  0.10514654862E+02 -0.43540754637E+02  0.45807327483E+02  0.10566000000E+00 0.  1.
         22    1    1    0    0    0  0.24860073316E+02 -0.12913053714E+02  0.69152200447E+01  0.28854643816E+02  0.00000000000E+00 0. -1.
</event>
<event>
 5    1  0.9041167E-005  0.9118800E+02  0.7818608E-02  0.1130116E+00
         25   -1    0    0    0    0  0.00000000000E+00  0.00000000000E+00  0.99999998245E-14  0.12500000000E+03  0.12500000000E+03 0.  0.
        -13    1    3    3    0    0  0.15508613717E+02 -0.53639880185E+02  0.23648189532E+02  0.60638287227E+02  0.10566000000E+00 0.  1.
         23    2    1    0    0    0  0.13509048162E+02 -0.19079000450E+02  0.17498202065E+02  0.95799148712E+02  0.91240271690E+02 0.  0.
         13    1    3    3    0    0 -0.19995655541E+01  0.34560879735E+02 -0.61499874669E+01  0.35160861485E+02  0.10566000000E+00 0. -1.
         22    1    1    0    0    0 -0.13509048162E+02  0.19079000450E+02 -0.17498202065E+02  0.29200851288E+02  0.00000000000E+00 0.  1.
</event>
<event>
 5    1  0.9041167E-005  0.9118800E+02  0.7818608E-02  0.1130116E+00
         25   -1    0    0    0    0  0.00000000000E+00  0.00000000000E+00  0.99999998245E-14  0.12500000000E+03  0.12500000000E+03 0.  0.
        -13    1    3    3    0    0 -0.59394176257E+01 -0.26696796926E+02 -0.27391966836E+02  0.38708224694E+02  0.10566000000E+00 0. -1.
         23    2    1    0    0    0 -0.19057618953E+02  0.84978191057E+01  0.17871752134E+02  0.97526279938E+02  0.93576546124E+02 0.  0.
         13    1    3    3    0    0 -0.13118201327E+02  0.35194616031E+02  0.45263718970E+02  0.58818055244E+02  0.10566000000E+00 0.  1.
         22    1    1    0    0    0  0.19057618953E+02 -0.84978191057E+01 -0.17871752134E+02  0.27473720062E+02  0.00000000000E+00 0.  1.
</event>
<event>
 5    1  0.9041167E-005  0.9118800E+02  0.7818608E-02  0.1130116E+00
         25   -1    0    0    0    0  0.00000000000E+00  0.00000000000E+00  0.99999998245E-14  0.12500000000E+03  0.12500000000E+03 0.  0.
        -13    1    3    3    0    0  0.46577945547E+02 -0.29044360156E+02 -0.25155091375E+02  0.60381037208E+02  0.10566000000E+00 0. -1.
         23    2    1    0    0    0  0.14337265922E+02 -0.20956458387E+02 -0.16462670516E+02  0.94738640765E+02  0.89775610224E+02 0.  0.
         13    1    3    3    0    0 -0.32240679625E+02  0.80879017685E+01  0.86924208591E+01  0.34357603556E+02  0.10566000000E+00 0.  1.
         22    1    1    0    0    0 -0.14337265922E+02  0.20956458387E+02  0.16462670516E+02  0.30261359235E+02  0.00000000000E+00 0. -1.
</event>
<event>
 5    1  0.9041167E-005  0.9118800E+02  0.7818608E-02  0.1130116E+00
         25   -1    0    0    0    0  0.00000000000E+00  0.00000000000E+00  0.99999998245E-14  0.12500000000E+03  0.12500000000E+03 0.  0.
        -13    1    3    3    0    0  0.11083755782E+02  0.41412912632E+02  0.89988762636E+01  0.43804907407E+02  0.10566000000E+00 0. -1.
         23    2    1    0    0    0  0.34485213103E+01 -0.95990726797E+01  0.25154593901E+02  0.97856159265E+02  0.94016167844E+02 0.  0.
         13    1    3    3    0    0 -0.76352344713E+01 -0.51011985312E+02  0.16155717638E+02  0.54051251857E+02  0.10566000000E+00 0.  1.
         22    1    1    0    0    0 -0.34485213103E+01  0.95990726797E+01 -0.25154593901E+02  0.27143840735E+02  0.00000000000E+00 0. -1.
</event>
<event>
 5    1  0.9041167E-005  0.9118800E+02  0.7818608E-02  0.1130116E+00
         25   -1    0    0    0    0  0.00000000000E+00  0.00000000000E+00  0.99999998245E-14  0.12500000000E+03  0.12500000000E+03 0.  0.
        -13    1    3    3    0    0  0.28114622612E+02  0.16464190215E+02 -0.19265191329E+02  0.37850499667E+02  0.10566000000E+00 0.  1.
         23    2    1    0    0    0 -0.20818030146E+02  0.11913479679E+02  0.14030917581E+02  0.97211728636E+02  0.93155419376E+02 0.  0.
         13    1    3    3    0    0 -0.48932652757E+02 -0.45507105365E+01  0.33296108910E+02  0.59361228970E+02  0.10566000000E+00 0. -1.
         22    1    1    0    0    0  0.20818030146E+02 -0.11913479679E+02 -0.14030917581E+02  0.27788271364E+02  0.00000000000E+00 0. -1.
</event>
<event>
 5    1  0.9041167E-005  0.9118800E+02  0.7818608E-02  0.1130116E+00
         25   -1    0    0    0    0  0.00000000000E+00  0.00000000000E+00  0.99999998245E-14  0.12500000000E+03  0.12500000000E+03 0.  0.
        -13    1    3    3    0    0  0.36106624214E+01 -0.23765788255E+02  0.26834777236E+02  0.36027295317E+02  0.10566000000E+00 0.  1.
         23    2    1    0    0    0  0.22629222221E+01  0.28331929735E+02 -0.35557901948E+01  0.96356279861E+02  0.92000380246E+02 0.  0.
         13    1    3    3    0    0 -0.13477401993E+01  0.52097717989E+02 -0.30390567431E+02  0.60328984544E+02  0.10566000000E+00 0. -1.
         22    1    1    0    0    0 -0.22629222221E+01 -0.28331929735E+02  0.35557901948E+01  0.28643720139E+02  0.00000000000E+00 0. -1.
</event>
<event>
 5    1  0.9041167E-005  0.9118800E+02  0.7818608E-02  0.1130116E+00
         25   -1    0    0    0    0  0.00000000000E+00  0.00000000000E+00  0.99999998245E-14  0.12500000000E+03  0.12500000000E+03 0.  0.
        -13    1    3    3    0    0 -0.30997213451E+02  0.94674174329E+00 -0.15157443621E+02  0.34517862373E+02  0.10566000000E+00 0.  1.
         23    2    1    0    0    0  0.98351704388E+01  0.22463308880E+02  0.20655992661E+02  0.92937547564E+02  0.87231799770E+02 0.  0.
         13    1    3    3    0    0  0.40832383890E+02  0.21516567137E+02  0.35813436282E+02  0.58419685191E+02  0.10566000000E+00 0. -1.
         22    1    1    0    0    0 -0.98351704388E+01 -0.22463308880E+02 -0.20655992661E+02  0.32062452436E+02  0.00000000000E+00 0. -1.
</event>
<event>
 5    1  0.9041167E-005  0.9118800E+02  0.7818608E-02  0.1130116E+00
         25   -1    0    0    0    0  0.00000000000E+00  0.00000000000E+00  0.99999998245E-14  0.12500000000E+03  0.12500000000E+03 0.  0.
        -13    1    3    3    0    0  0.23520584883E+01  0.32157997750E+02 -0.35153643481E+02  0.47701769489E+02  0.10566000000E+00 0.  1.
         23    2    1    0    0    0  0.32550648399E+01 -0.11523516953E+02 -0.31211587141E+02  0.91570221928E+02  0.85249958839E+02 0.  0.
         13    1    3    3    0    0  0.90300635167E+00 -0.43681514702E+02  0.39420563403E+01  0.43868452439E+02  0.10566000000E+00 0. -1.
         22    1    1    0    0    0 -0.32550648399E+01  0.11523516953E+02  0.31211587141E+02  0.33429778072E+02  0.00000000000E+00 0. -1.
</event>
<event>
 5    1  0.9041167E-005  0.9118800E+02  0.7818608E-02  0.1130116E+00
         25   -1    0    0    0    0  0.00000000000E+00  0.00000000000E+00  0.99999998245E-14  0.12500000000E+03  0.12500000000E+03 0.  0.
        -13    1    3    3    0    0  0.10999079776E+01 -0.57245994500E+02 -0.34552124645E+01  0.57360817123E+02  0.10566000000E+00 0.  1.
         23    2    1    0    0    0 -0.36525899403E+01 -0.21999571413E+02 -0.18545726891E+02  0.95995404820E+02  0.91508749336E+02 0.  0.
         13    1    3    3    0    0 -0.47524979179E+01  0.35246423087E+02 -0.15090514426E+02  0.38634587697E+02  0.10566000000E+00 0. -1.
         22    1    1    0    0    0  0.36525899403E+01  0.21999571413E+02  0.18545726891E+02  0.29004595180E+02  0.00000000000E+00 0.  1.
</event>
<event>
 5    1  0.9041167E-005  0.9118800E+02  0.7818608E-02  0.1130116E+00
         25   -1    0    0    0    0  0.00000000000E+00  0.00000000000E+00  0.99999998245E-14  0.12500000000E+03  0.12500000000E+03 0.  0.
        -13    1    3    3    0    0 -0.96423542099E+01  0.31830874908E+02  0.23638157229E+02  0.40803838464E+02  0.10566000000E+00 0. -1.
         23    2    1    0    0    0  0.22071027980E+02  0.15152934574E+02 -0.15659293948E+02  0.93984597548E+02  0.88719498348E+02 0.  0.
         13    1    3    3    0    0  0.31713382190E+02 -0.16677940334E+02 -0.39297451177E+02  0.53180759084E+02  0.10566000000E+00 0.  1.
         22    1    1    0    0    0 -0.22071027980E+02 -0.15152934574E+02  0.15659293948E+02  0.31015402452E+02  0.00000000000E+00 0.  1.
</event>
<event>
 5    1  0.9041167E-005  0.9118800E+02  0.7818608E-02  0.1130116E+00
         25   -1    0    0    0    0  0.00000000000E+00  0.00000000000E+00  0.99999998245E-14  0.12500000000E+03  0.12500000000E+03 0.  0.
        -13    1    3    3    0    0  0.47528972579E+02 -0.91782466497E+01 -0.14093531383E+01  0.48427687187E+02  0.10566000000E+00 0. -1.
         23    2    1    0    0    0  0.84562736192E+01 -0.25069675072E+02  0.16023094872E+02  0.94068838673E+02  0.88838109324E+02 0.  0.
         13    1    3    3    0    0 -0.39072698960E+02 -0.15891428422E+02  0.17432448010E+02  0.45641151486E+02  0.10566000000E+00 0.  1.
         22    1    1    0    0    0 -0.84562736192E+01  0.25069675072E+02 -0.16023094872E+02  0.30931161327E+02  0.00000000000E+00 0.  1.
</event>
<event>
 5    1  0.9041167E-005  0.9118800E+02  0.7818608E-02  0.1130116E+00
         25   -1    0    0    0    0  0.00000000000E+00  0.00000000000E+00  0.99999998245E-14  0.12500000000E+03  0.12500000000E+03 0.  0.
        -13    1    3    3    0    0  0.28280611127E+02  0.20698957795E+01 -0.20144687293E+02  0.34783574061E+02  0.10566000000E+00 0. -1.
         23    2    1    0    0    0 -0.22260256092E+02  0.17675333239E+02  0.90104969012E+01  0.95181793132E+02  0.90390532044E+02 0.  0.
         13    1    3    3    0    0 -0.50540867219E+02  0.15605437460E+02  0.29155184194E+02  0.60398219072E+02  0.10566000000E+00 0.  1.
         22    1    1    0    0    0  0.22260256092E+02 -0.17675333239E+02 -0.90104969012E+01  0.29818206868E+02  0.00000000000E+00 0.  1.
</event>
<event>
 5    1  0.9041167E-005  0.9118800E+02  0.7818608E-02  0.1130116E+00
         25   -1    0    0    0    0  0.00000000000E+00  0.00000000000E+00  0.99999998245E-14  0.12500000000E+03  0.12500000000E+03 0.  0.
        -13    1    3    3    0    0  0.39370157088E+02 -0.13793322780E+02 -0.17137507062E+02  0.45099560251E+02  0.10566000000E+00 0. -1.
         23    2    1    0    0    0  0.58981539019E+01 -0.21758567246E+02  0.19378722741E+02  0.95271926347E+02  0.90515090382E+02 0.  0.
         13    1    3    3    0    0 -0.33472003186E+02 -0.79652444657E+01  0.36516229803E+02  0.50172366097E+02  0.10566000000E+00 0.  1.
         22    1    1    0    0    0 -0.58981539019E+01  0.21758567246E+02 -0.19378722741E+02  0.29728073653E+02  0.00000000000E+00 0.  1.
</event>
<event>
 5    1  0.9041167E-005  0.9118800E+02  0.7818608E-02  0.1130116E+00
         25   -1    0    0    0    0  0.00000000000E+00  0.00000000000E+00  0.99999998245E-14  0.12500000000E+03  0.12500000000E+03 0.  0.
        -13    1    3    3    0    0  0.23421875730E+02 -0.43061223728E+02  0.15076669956E+02  0.51285186874E+02  0.10566000000E+00 0.  1.
         23    2    1    0    0    0 -0.14454317050E+02 -0.21079484667E+02  0.15553028485E+02  0.95080630852E+02  0.90250527494E+02 0.  0.
         13    1    3    3    0    0 -0.37876192780E+02  0.21981739062E+02  0.47635852933E+00  0.43795443977E+02  0.10566000000E+00 0. -1.
         22    1    1    0    0    0  0.14454317050E+02  0.21079484667E+02 -0.15553028485E+02  0.29919369148E+02  0.00000000000E+00 0.  1.
</event>
<event>
 5    1  0.9041167E-005  0.9118800E+02  0.7818608E-02  0.1130116E+00
         25   -1    0    0    0    0  0.00000000000E+00  0.00000000000E+00  0.99999998245E-14  0.12500000000E+03  0.12500000000E+03 0.  0.
        -13    1    3    3    0    0 -0.29028929287E+02 -0.42410041772E+02 -0.29494017759E+02  0.59255367911E+02  0.10566000000E+00 0.  1.
         23    2    1    0    0    0 -0.24741518339E+02 -0.11696516411E+02 -0.10117022755E+02  0.95822862113E+02  0.91272753482E+02 0.  0.
         13    1    3    3    0    0  0.42874109484E+01  0.30713525361E+02  0.19376995004E+02  0.36567494201E+02  0.10566000000E+00 0. -1.
         22    1    1    0    0    0  0.24741518339E+02  0.11696516411E+02  0.10117022755E+02  0.29177137887E+02  0.00000000000E+00 0.  1.
</event>
<event>
 5    1  0.9041167E-005  0.9118800E+02  0.7818608E-02  0.1130116E+00
         25   -1    0    0    0    0  0.00000000000E+00  0.00000000000E+00  0.99999998245E-14  0.12500000000E+03  0.12500000000E+03 0.  0.
        -13    1    3    3    0    0 -0.31431950004E+02 -0.15500992038E+01 -0.11001833132E+02  0.33337993114E+02  0.10566000000E+00 0. -1.
         23    2    1    0    0    0  0.26643950943E+02  0.33415271052E+01  0.11467848728E+02  0.95801070573E+02  0.91242904619E+02 0.  0.
         13    1    3    3    0    0  0.58075900947E+02  0.48916263090E+01  0.22469681860E+02  0.62463077459E+02  0.10566000000E+00 0.  1.
         22    1    1    0    0    0 -0.26643950943E+02 -0.33415271052E+01 -0.11467848728E+02  0.29198929427E+02  0.00000000000E+00 0.  1.
</event>
<event>
 5    1  0.9041167E-005  0.9118800E+02  0.7818608E-02  0.1130116E+00
         25   -1    0    0    0    0  0.00000000000E+00  0.00000000000E+00  0.99999998245E-14  0.12500000000E+03  0.12500000000E+03 0.  0.
        -13    1    3    3    0    0 -0.38690148035E+02 -0.17095417876E+02  0.33736399142E+02  0.54104867234E+02  0.10566000000E+00 0. -1.
         23    2    1    0    0    0 -0.51406108001E+01  0.59546422262E+01  0.28843757101E+02  0.95102743150E+02  0.90281148572E+02 0.  0.
         13    1    3    3    0    0  0.33549537235E+02  0.23050060103E+02 -0.48926420408E+01  0.40997875916E+02  0.10566000000E+00 0.  1.
         22    1    1    0    0    0  0.51406108001E+01 -0.59546422262E+01 -0.28843757101E+02  0.29897256850E+02  0.00000000000E+00 0. -1.
</event>
<event>
 5    1  0.9041167E-005  0.9118800E+02  0.7818608E-02  0.1130116E+00
         25   -1    0    0    0    0  0.00000000000E+00  0.00000000000E+00  0.99999998245E-14  0.12500000000E+03  0.12500000000E+03 0.  0.
        -13    1    3    3    0    0 -0.39070911584E+02 -0.15720967328E+02 -0.25358442846E+02  0.49160418360E+02  0.10566000000E+00 0.  1.
         23    2    1    0    0    0 -0.19836715659E+02  0.21625135050E+02 -0.12606402509E+02  0.93061572701E+02  0.87409342609E+02 0.  0.
         13    1    3    3    0    0  0.19234195925E+02  0.37346102378E+02  0.12752040337E+02  0.43901154341E+02  0.10566000000E+00 0. -1.
         22    1    1    0    0    0  0.19836715659E+02 -0.21625135050E+02  0.12606402509E+02  0.31938427299E+02  0.00000000000E+00 0.  1.
</event>
<event>
 5    1  0.9041167E-005  0.9118800E+02  0.7818608E-02  0.1130116E+00
         25   -1    0    0    0    0  0.00000000000E+00  0.00000000000E+00  0.99999998245E-14  0.12500000000E+03  0.12500000000E+03 0.  0.
        -13    1    3    3    0    0 -0.49471685544E+01 -0.27441987214E+02 -0.25440203281E+02  0.37745890452E+02  0.10566000000E+00 0. -1.
         23    2    1    0    0    0 -0.15736519053E+02  0.24618198154E+02 -0.24208492704E+01  0.95681844815E+02  0.91079422504E+02 0.  0.
         13    1    3    3    0    0 -0.10789350498E+02  0.52060185369E+02  0.23019354011E+02  0.57935954363E+02  0.10566000000E+00 0.  1.
         22    1    1    0    0    0  0.15736519053E+02 -0.24618198154E+02  0.24208492704E+01  0.29318155185E+02  0.00000000000E+00 0.  1.
</event>
<event>
 5    1  0.9041167E-005  0.9118800E+02  0.7818608E-02  0.1130116E+00
         25   -1    0    0    0    0  0.00000000000E+00  0.00000000000E+00  0.99999998245E-14  0.12500000000E+03  0.12500000000E+03 0.  0.
        -13    1    3    3    0    0  0.29606537867E+02 -0.18448560396E+02 -0.20158983908E+02  0.40290101283E+02  0.10566000000E+00 0.  1.
         23    2    1    0    0    0 -0.20983712762E+02  0.40692858251E+01 -0.20090629942E+02  0.95665571424E+02  0.91057085700E+02 0.  0.
         13    1    3    3    0    0 -0.50590250629E+02  0.22517846221E+02  0.68353966201E-01  0.55375470142E+02  0.10566000000E+00 0. -1.
         22    1    1    0    0    0  0.20983712762E+02 -0.40692858251E+01  0.20090629942E+02  0.29334428576E+02  0.00000000000E+00 0. -1.
</event>
<event>
 5    1  0.9041167E-005  0.9118800E+02  0.7818608E-02  0.1130116E+00
         25   -1    0    0    0    0  0.00000000000E+00  0.00000000000E+00  0.99999998245E-14  0.12500000000E+03  0.12500000000E+03 0.  0.
        -13    1    3    3    0    0 -0.30692246239E+02  0.40706293605E+01 -0.50223385567E+02  0.58999861224E+02  0.10566000000E+00 0.  1.
         23    2    1    0    0    0 -0.20117429618E+02 -0.10723686194E+02 -0.18190219623E+02  0.95835080834E+02  0.91289485750E+02 0.  0.
         13    1    3    3    0    0  0.10574816621E+02 -0.14794315554E+02  0.32033165944E+02  0.36835219610E+02  0.10566000000E+00 0. -1.
         22    1    1    0    0    0  0.20117429618E+02  0.10723686194E+02  0.18190219623E+02  0.29164919166E+02  0.00000000000E+00 0.  1.
</event>
<event>
 5    1  0.9041167E-005  0.9118800E+02  0.7818608E-02  0.1130116E+00
         25   -1    0    0    0    0  0.00000000000E+00  0.00000000000E+00  0.99999998245E-14  0.12500000000E+03  0.12500000000E+03 0.  0.
        -13    1    3    3    0    0 -0.20151258705E+02 -0.27596197265E+02  0.14047023903E+02  0.36945275414E+02  0.10566000000E+00 0.  1.
         23    2    1    0    0    0  0.29063857120E+02 -0.33297217561E+01 -0.55728073181E+01  0.95219956026E+02  0.90443291662E+02 0.  0.
         13    1    3    3    0    0  0.49215115825E+02  0.24266475509E+02 -0.19619831221E+02  0.58274680612E+02  0.10566000000E+00 0. -1.
         22    1    1    0    0    0 -0.29063857120E+02  0.33297217561E+01  0.55728073181E+01  0.29780043974E+02  0.00000000000E+00 0. -1.
</event>
<event>
 5    1  0.9041167E-005  0.9118800E+02  0.7818608E-02  0.1130116E+00
         25   -1    0    0    0    0  0.00000000000E+00  0.00000000000E+00  0.99999998245E-14  0.12500000000E+03  0.12500000000E+03 0.  0.
        -13    1    3    3    0    0 -0.86983271619E+01  0.18778646929E+02 -0.57196880094E+02  0.60825921550E+02  0.10566000000E+00 0.  1.
         23    2    1    0    0    0  0.50378761767E+01  0.38756235171E+01 -0.27465923812E+02  0.96808199333E+02  0.92612363284E+02 0.  0.
         13    1    3    3    0    0  0.13736203339E+02 -0.14903023412E+02  0.29730956281E+02  0.35982277783E+02  0.10566000000E+00 0. -1.
         22    1    1    0    0    0 -0.50378761767E+01 -0.38756235171E+01  0.27465923812E+02  0.28191800667E+02  0.00000000000E+00 0.  1.
</event>
<event>
 5    1  0.9041167E-005  0.9118800E+02  0.7818608E-02  0.1130116E+00
         25   -1    0    0    0    0  0.00000000000E+00  0.00000000000E+00  0.99999998245E-14  0.12500000000E+03  0.12500000000E+03 0.  0.
        -13    1    3    3    0    0 -0.99383184762E+01 -0.51441094540E+02  0.22709318250E+02  0.57102370187E+02  0.10566000000E+00 0. -1.
         23    2    1    0    0    0 -0.14930452653E+02 -0.13397044706E+02  0.21647035872E+02  0.95487402938E+02  0.90812172833E+02 0.  0.
         13    1    3    3    0    0 -0.49921341771E+01  0.38044049834E+02 -0.10622823777E+01  0.38385032751E+02  0.10566000000E+00 0.  1.
         22    1    1    0    0    0  0.14930452653E+02  0.13397044706E+02 -0.21647035872E+02  0.29512597062E+02  0.00000000000E+00 0. -1.
</event>
<event>
 5    1  0.9041167E-005  0.9118800E+02  0.7818608E-02  0.1130116E+00
         25   -1    0    0    0    0  0.00000000000E+00  0.00000000000E+00  0.99999998245E-14  0.12500000000E+03  0.12500000000E+03 0.  0.
        -13    1    3    3    0    0 -0.44280578867E+02  0.20379949225E+02  0.11744858960E+02  0.50140451446E+02  0.10566000000E+00 0.  1.
         23    2    1    0    0    0 -0.72899482356E+01  0.51789086273E+01 -0.21223213491E+02  0.10196981913E+03  0.99335063212E+02 0.  0.
         13    1    3    3    0    0  0.36990630631E+02 -0.15201040597E+02 -0.32968072451E+02  0.51829367688E+02  0.10566000000E+00 0. -1.
         22    1    1    0    0    0  0.72899482356E+01 -0.51789086273E+01  0.21223213491E+02  0.23030180867E+02  0.00000000000E+00 0. -1.
</event>
<event>
 5    1  0.9041167E-005  0.9118800E+02  0.7818608E-02  0.1130116E+00
         25   -1    0    0    0    0  0.00000000000E+00  0.00000000000E+00  0.99999998245E-14  0.12500000000E+03  0.12500000000E+03 0.  0.
        -13    1    3    3    0    0  0.83926013234E+01 -0.21681823428E+02  0.41255271582E+02  0.47355525776E+02  0.10566000000E+00 0.  1.
         23    2    1    0    0    0  0.15750774418E+02 -0.25268339001E+02 -0.54131531772E+01  0.94736522375E+02  0.89772660615E+02 0.  0.
         13    1    3    3    0    0  0.73581730944E+01 -0.35865155724E+01 -0.46668424759E+02  0.47380996600E+02  0.10566000000E+00 0. -1.
         22    1    1    0    0    0 -0.15750774418E+02  0.25268339001E+02  0.54131531772E+01  0.30263477625E+02  0.00000000000E+00 0. -1.
</event>
<event>
 5    1  0.9041167E-005  0.9118800E+02  0.7818608E-02  0.1130116E+00
         25   -1    0    0    0    0  0.00000000000E+00  0.00000000000E+00  0.99999998245E-14  0.12500000000E+03  0.12500000000E+03 0.  0.
        -13    1    3    3    0    0  0.38427240189E+02  0.12110672799E+02 -0.33221609238E+02  0.52220758981E+02  0.10566000000E+00 0. -1.
         23    2    1    0    0    0  0.19169537698E+02  0.27183789954E+02 -0.22814912769E+01  0.91658812045E+02  0.85379757620E+02 0.  0.
         13    1    3    3    0    0 -0.19257702491E+02  0.15073117155E+02  0.30940117961E+02  0.39438053064E+02  0.10566000000E+00 0.  1.
         22    1    1    0    0    0 -0.19169537698E+02 -0.27183789954E+02  0.22814912769E+01  0.33341187955E+02  0.00000000000E+00 0. -1.
</event>
<event>
 5    1  0.9041167E-005  0.9118800E+02  0.7818608E-02  0.1130116E+00
         25   -1    0    0    0    0  0.00000000000E+00  0.00000000000E+00  0.99999998245E-14  0.12500000000E+03  0.12500000000E+03 0.  0.
        -13    1    3    3    0    0  0.41261898084E+02 -0.28395029317E+02 -0.13412172816E+02  0.51852863634E+02  0.10566000000E+00 0.  1.
         23    2    1    0    0    0 -0.14233389291E+01 -0.29110761964E+02 -0.70296442181E+01  0.95018701602E+02  0.90164712612E+02 0.  0.
         13    1    3    3    0    0 -0.42685237013E+02 -0.71573264673E+00  0.63825285976E+01  0.43165837967E+02  0.10566000000E+00 0. -1.
         22    1    1    0    0    0  0.14233389291E+01  0.29110761964E+02  0.70296442181E+01  0.29981298398E+02  0.00000000000E+00 0.  1.
</event>
<event>
 5    1  0.9041167E-005  0.9118800E+02  0.7818608E-02  0.1130116E+00
         25   -1    0    0    0    0  0.00000000000E+00  0.00000000000E+00  0.99999998245E-14  0.12500000000E+03  0.12500000000E+03 0.  0.
        -13    1    3    3    0    0 -0.13294238305E+02  0.23076221533E+02 -0.45898284901E+02  0.53065172130E+02  0.10566000000E+00 0. -1.
         23    2    1    0    0    0 -0.13881362333E+02 -0.10965594707E+02 -0.28890262361E+02  0.91123994527E+02  0.84593135843E+02 0.  0.
         13    1    3    3    0    0 -0.58712402794E+00 -0.34041816240E+02  0.17008022540E+02  0.38058822397E+02  0.10566000000E+00 0.  1.
         22    1    1    0    0    0  0.13881362333E+02  0.10965594707E+02  0.28890262361E+02  0.33876005473E+02  0.00000000000E+00 0. -1.
</event>
<event>
 5    1  0.9041167E-005  0.9118800E+02  0.7818608E-02  0.1130116E+00
         25   -1    0    0    0    0  0.00000000000E+00  0.00000000000E+00  0.99999998245E-14  0.12500000000E+03  0.12500000000E+03 0.  0.
        -13    1    3    3    0    0 -0.25918876044E+02 -0.35234998411E+02  0.94528231654E+01  0.44751092481E+02  0.10566000000E+00 0.  1.
         23    2    1    0    0    0  0.22203554827E+02 -0.17264641770E+02  0.66166028302E+00  0.96866328061E+02  0.92690787112E+02 0.  0.
         13    1    3    3    0    0  0.48122430871E+02  0.17970356641E+02 -0.87911628824E+01  0.52115235581E+02  0.10566000000E+00 0. -1.
         22    1    1    0    0    0 -0.22203554827E+02  0.17264641770E+02 -0.66166028302E+00  0.28133671939E+02  0.00000000000E+00 0. -1.
</event>
<event>
 5    1  0.9041167E-005  0.9118800E+02  0.7818608E-02  0.1130116E+00
         25   -1    0    0    0    0  0.00000000000E+00  0.00000000000E+00  0.99999998245E-14  0.12500000000E+03  0.12500000000E+03 0.  0.
        -13    1    3    3    0    0  0.18030909442E+02 -0.35307157233E+02  0.59774241997E+01  0.40093014495E+02  0.10566000000E+00 0. -1.
         23    2    1    0    0    0 -0.86936675319E+01  0.12676721428E+02  0.22770263654E+02  0.97527030955E+02  0.93577549330E+02 0.  0.
         13    1    3    3    0    0 -0.26724576974E+02  0.47983878661E+02  0.16792839454E+02  0.57434016460E+02  0.10566000000E+00 0.  1.
         22    1    1    0    0    0  0.86936675319E+01 -0.12676721428E+02 -0.22770263654E+02  0.27472969045E+02  0.00000000000E+00 0.  1.
</event>
<event>
 5    1  0.9041167E-005  0.9118800E+02  0.7818608E-02  0.1130116E+00
         25   -1    0    0    0    0  0.00000000000E+00  0.00000000000E+00  0.99999998245E-14  0.12500000000E+03  0.12500000000E+03 0.  0.
        -13    1    3    3    0    0 -0.49281525791E+02 -0.29170811137E+02 -0.20942189263E+02  0.60976974850E+02  0.10566000000E+00 0.  1.
         23    2    1    0    0    0 -0.31390308306E+02 -0.73554631692E+01 -0.12421995317E+02  0.90449164097E+02  0.83590017491E+02 0.  0.
         13    1    3    3    0    0  0.17891217485E+02  0.21815347968E+02  0.85201939461E+01  0.29472189247E+02  0.10566000000E+00 0. -1.
         22    1    1    0    0    0  0.31390308306E+02  0.73554631692E+01  0.12421995317E+02  0.34550835903E+02  0.00000000000E+00 0.  1.
</event>
<event>
 5    1  0.9041167E-005  0.9118800E+02  0.7818608E-02  0.1130116E+00
         25   -1    0    0    0    0  0.00000000000E+00  0.00000000000E+00  0.99999998245E-14  0.12500000000E+03  0.12500000000E+03 0.  0.
        -13    1    3    3    0    0  0.26389742357E+02  0.11952392579E+02  0.36559062130E+02  0.46646054259E+02  0.10566000000E+00 0. -1.
         23    2    1    0    0    0  0.22228275271E+02  0.12923856987E+02 -0.12860974548E+02  0.96250617967E+02  0.91856706298E+02 0.  0.
         13    1    3    3    0    0 -0.41614670860E+01  0.97146440757E+00 -0.49420036678E+02  0.49604563708E+02  0.10566000000E+00 0.  1.
         22    1    1    0    0    0 -0.22228275271E+02 -0.12923856987E+02  0.12860974548E+02  0.28749382033E+02  0.00000000000E+00 0. -1.
</event>
<event>
 5    1  0.9041167E-005  0.9118800E+02  0.7818608E-02  0.1130116E+00
         25   -1    0    0    0    0  0.00000000000E+00  0.00000000000E+00  0.99999998245E-14  0.12500000000E+03  0.12500000000E+03 0.  0.
        -13    1    3    3    0    0  0.22403769158E+02 -0.28266589813E+02 -0.21320885863E+02  0.41898929702E+02  0.10566000000E+00 0.  1.
         23    2    1    0    0    0 -0.51356005955E+01  0.14954400286E+02 -0.27255026738E+02  0.93490557545E+02  0.88020675901E+02 0.  0.
         13    1    3    3    0    0 -0.27539369754E+02  0.43220990098E+02 -0.59341408749E+01  0.51591627843E+02  0.10566000000E+00 0. -1.
         22    1    1    0    0    0  0.51356005955E+01 -0.14954400286E+02  0.27255026738E+02  0.31509442455E+02  0.00000000000E+00 0. -1.
</event>
<event>
 5    1  0.9041167E-005  0.9118800E+02  0.7818608E-02  0.1130116E+00
         25   -1    0    0    0    0  0.00000000000E+00  0.00000000000E+00  0.99999998245E-14  0.12500000000E+03  0.12500000000E+03 0.  0.
        -13    1    3    3    0    0  0.30594543155E+02 -0.23452795240E+02 -0.37018974156E+02  0.53446003471E+02  0.10566000000E+00 0.  1.
         23    2    1    0    0    0  0.19229123712E+02 -0.22716128231E+02  0.30309267746E+01  0.95083980919E+02  0.90255167330E+02 0.  0.
         13    1    3    3    0    0 -0.11365419443E+02  0.73666700878E+00  0.40049900930E+02  0.41637977448E+02  0.10566000000E+00 0. -1.
         22    1    1    0    0    0 -0.19229123712E+02  0.22716128231E+02 -0.30309267746E+01  0.29916019081E+02  0.00000000000E+00 0.  1.
</event>
<event>
 5    1  0.9041167E-005  0.9118800E+02  0.7818608E-02  0.1130116E+00
         25   -1    0    0    0    0  0.00000000000E+00  0.00000000000E+00  0.99999998245E-14  0.12500000000E+03  0.12500000000E+03 0.  0.
        -13    1    3    3    0    0  0.18975404648E+02 -0.18600020555E+02  0.15149218657E+02  0.30586545018E+02  0.10566000000E+00 0. -1.
         23    2    1    0    0    0  0.16638884359E+02  0.28057389779E+02  0.31079919583E+02  0.79944134730E+02  0.66038122948E+02 0.  0.
         13    1    3    3    0    0 -0.23365202888E+01  0.46657410334E+02  0.15930700927E+02  0.49357589712E+02  0.10566000000E+00 0.  1.
         22    1    1    0    0    0 -0.16638884359E+02 -0.28057389779E+02 -0.31079919583E+02  0.45055865270E+02  0.00000000000E+00 0.  1.
</event>
<event>
 5    1  0.9041167E-005  0.9118800E+02  0.7818608E-02  0.1130116E+00
         25   -1    0    0    0    0  0.00000000000E+00  0.00000000000E+00  0.99999998245E-14  0.12500000000E+03  0.12500000000E+03 0.  0.
        -13    1    3    3    0    0 -0.28669638953E+02 -0.30734690241E+02  0.43763446849E+02  0.60678001170E+02  0.10566000000E+00 0. -1.
         23    2    1    0    0    0 -0.19378575120E+02 -0.16993878656E+02  0.11877363714E+02  0.96620555780E+02  0.92358751318E+02 0.  0.
         13    1    3    3    0    0  0.92910638329E+01  0.13740811585E+02 -0.31886083134E+02  0.35942554609E+02  0.10566000000E+00 0.  1.
         22    1    1    0    0    0  0.19378575120E+02  0.16993878656E+02 -0.11877363714E+02  0.28379444220E+02  0.00000000000E+00 0. -1.
</event>
<event>
 5    1  0.9041167E-005  0.9118800E+02  0.7818608E-02  0.1130116E+00
         25   -1    0    0    0    0  0.00000000000E+00  0.00000000000E+00  0.99999998245E-14  0.12500000000E+03  0.12500000000E+03 0.  0.
        -13    1    3    3    0    0 -0.51052115380E+00  0.11160717019E+02  0.47577263641E+02  0.48871560399E+02  0.10566000000E+00 0. -1.
         23    2    1    0    0    0  0.76759444109E+00 -0.22764068492E+02  0.30669101851E+02  0.86798091358E+02  0.77939225294E+02 0.  0.
         13    1    3    3    0    0  0.12781155949E+01 -0.33924785511E+02 -0.16908161790E+02  0.37926530959E+02  0.10566000000E+00 0.  1.
         22    1    1    0    0    0 -0.76759444109E+00  0.22764068492E+02 -0.30669101851E+02  0.38201908642E+02  0.00000000000E+00 0. -1.
</event>
<event>
 5    1  0.9041167E-005  0.9118800E+02  0.7818608E-02  0.1130116E+00
         25   -1    0    0    0    0  0.00000000000E+00  0.00000000000E+00  0.99999998245E-14  0.12500000000E+03  0.12500000000E+03 0.  0.
        -13    1    3    3    0    0 -0.21766169263E+02 -0.18622226551E+02  0.17901362852E+02  0.33779037909E+02  0.10566000000E+00 0. -1.
         23    2    1    0    0    0  0.17002216380E+02  0.17370410638E+02 -0.15340909715E+02  0.96257174139E+02  0.91865627602E+02 0.  0.
         13    1    3    3    0    0  0.38768385643E+02  0.35992637189E+02 -0.33242272567E+02  0.62478136229E+02  0.10566000000E+00 0.  1.
         22    1    1    0    0    0 -0.17002216380E+02 -0.17370410638E+02  0.15340909715E+02  0.28742825861E+02  0.00000000000E+00 0.  1.
</event>
<event>
 5    1  0.9041167E-005  0.9118800E+02  0.7818608E-02  0.1130116E+00
         25   -1    0    0    0    0  0.00000000000E+00  0.00000000000E+00  0.99999998245E-14  0.12500000000E+03  0.12500000000E+03 0.  0.
        -13    1    3    3    0    0 -0.34687261660E+02  0.12606299449E+02 -0.31560357216E+02  0.48561221349E+02  0.10566000000E+00 0.  1.
         23    2    1    0    0    0 -0.59957030227E+01 -0.22288983390E+02 -0.18002907194E+02  0.95727967226E+02  0.91142700237E+02 0.  0.
         13    1    3    3    0    0  0.28691558637E+02 -0.34895282840E+02  0.13557450023E+02  0.47166745877E+02  0.10566000000E+00 0. -1.
         22    1    1    0    0    0  0.59957030227E+01  0.22288983390E+02  0.18002907194E+02  0.29272032774E+02  0.00000000000E+00 0.  1.
</event>
<event>
 5    1  0.9041167E-005  0.9118800E+02  0.7818608E-02  0.1130116E+00
         25   -1    0    0    0    0  0.00000000000E+00  0.00000000000E+00  0.99999998245E-14  0.12500000000E+03  0.12500000000E+03 0.  0.
        -13    1    3    3    0    0  0.28942157606E+02 -0.17743397788E+02  0.30940443363E+02  0.45932546756E+02  0.10566000000E+00 0. -1.
         23    2    1    0    0    0  0.25376469456E+02  0.63561945483E+01 -0.12705531160E+02  0.95917411854E+02  0.91402149666E+02 0.  0.
         13    1    3    3    0    0 -0.35656881502E+01  0.24099592336E+02 -0.43645974523E+02  0.49984865098E+02  0.10566000000E+00 0.  1.
         22    1    1    0    0    0 -0.25376469456E+02 -0.63561945483E+01  0.12705531160E+02  0.29082588146E+02  0.00000000000E+00 0.  1.
</event>
<event>
 5    1  0.9041167E-005  0.9118800E+02  0.7818608E-02  0.1130116E+00
         25   -1    0    0    0    0  0.00000000000E+00  0.00000000000E+00  0.99999998245E-14  0.12500000000E+03  0.12500000000E+03 0.  0.
        -13    1    3    3    0    0 -0.14625340381E+01  0.30658882593E+02  0.24809429749E+02  0.39466758876E+02  0.10566000000E+00 0.  1.
         23    2    1    0    0    0  0.25961911380E+02  0.35370120372E+02 -0.56950581531E+01  0.80756357010E+02  0.67558043581E+02 0.  0.
         13    1    3    3    0    0  0.27424445418E+02  0.47112377792E+01 -0.30504487902E+02  0.41289598134E+02  0.10566000000E+00 0. -1.
         22    1    1    0    0    0 -0.25961911380E+02 -0.35370120372E+02  0.56950581531E+01  0.44243642990E+02  0.00000000000E+00 0.  1.
</event>
<event>
 5    1  0.9041167E-005  0.9118800E+02  0.7818608E-02  0.1130116E+00
         25   -1    0    0    0    0  0.00000000000E+00  0.00000000000E+00  0.99999998245E-14  0.12500000000E+03  0.12500000000E+03 0.  0.
        -13    1    3    3    0    0 -0.26606329721E+02 -0.12844043686E+02  0.18661248001E+02  0.34944521465E+02  0.10566000000E+00 0. -1.
         23    2    1    0    0    0  0.15532809316E+02  0.11288808456E+02 -0.20192287960E+02  0.97135437297E+02  0.93052992022E+02 0.  0.
         13    1    3    3    0    0  0.42139139037E+02  0.24132852142E+02 -0.38853535960E+02  0.62190915832E+02  0.10566000000E+00 0.  1.
         22    1    1    0    0    0 -0.15532809316E+02 -0.11288808456E+02  0.20192287960E+02  0.27864562703E+02  0.00000000000E+00 0.  1.
</event>
<event>
 5    1  0.9041167E-005  0.9118800E+02  0.7818608E-02  0.1130116E+00
         25   -1    0    0    0    0  0.00000000000E+00  0.00000000000E+00  0.99999998245E-14  0.12500000000E+03  0.12500000000E+03 0.  0.
        -13    1    3    3    0    0 -0.32709856029E+02 -0.25755305048E+02 -0.17035497838E+02  0.44983216538E+02  0.10566000000E+00 0.  1.
         23    2    1    0    0    0 -0.98599501722E+01  0.18591721597E+02 -0.21305607283E+02  0.95053386986E+02  0.90212785936E+02 0.  0.
         13    1    3    3    0    0  0.22849905857E+02  0.44347026645E+02 -0.42701094454E+01  0.50070170447E+02  0.10566000000E+00 0. -1.
         22    1    1    0    0    0  0.98599501722E+01 -0.18591721597E+02  0.21305607283E+02  0.29946613014E+02  0.00000000000E+00 0.  1.
</event>
<event>
 5    1  0.9041167E-005  0.9118800E+02  0.7818608E-02  0.1130116E+00
         25   -1    0    0    0    0  0.00000000000E+00  0.00000000000E+00  0.99999998245E-14  0.12500000000E+03  0.12500000000E+03 0.  0.
        -13    1    3    3    0    0  0.19022201599E+02  0.42781198241E+02  0.12045341013E+02  0.48344353143E+02  0.10566000000E+00 0.  1.
         23    2    1    0    0    0 -0.21600731073E+02  0.17254456460E+02  0.27136821439E+01  0.97221016553E+02  0.93167881473E+02 0.  0.
         13    1    3    3    0    0 -0.40622932672E+02 -0.25526741781E+02 -0.93316588687E+01  0.48876663410E+02  0.10566000000E+00 0. -1.
         22    1    1    0    0    0  0.21600731073E+02 -0.17254456460E+02 -0.27136821439E+01  0.27778983447E+02  0.00000000000E+00 0. -1.
</event>
<event>
 5    1  0.9041167E-005  0.9118800E+02  0.7818608E-02  0.1130116E+00
         25   -1    0    0    0    0  0.00000000000E+00  0.00000000000E+00  0.99999998245E-14  0.12500000000E+03  0.12500000000E+03 0.  0.
        -13    1    3    3    0    0 -0.25030271421E+02 -0.19204185149E+02  0.20852127371E+02  0.37817160055E+02  0.10566000000E+00 0.  1.
         23    2    1    0    0    0 -0.38883122493E+02  0.14687124783E+02 -0.57021604588E+01  0.83046174393E+02  0.71669683955E+02 0.  0.
         13    1    3    3    0    0 -0.13852851072E+02  0.33891309933E+02 -0.26554287830E+02  0.45229014338E+02  0.10566000000E+00 0. -1.
         22    1    1    0    0    0  0.38883122493E+02 -0.14687124783E+02  0.57021604588E+01  0.41953825607E+02  0.00000000000E+00 0.  1.
</event>
<event>
 4    1  0.9041167E-005  0.9118800E+02  0.7818608E-02  0.1130116E+00
         25   -1    0    0    0    0  0.00000000000E+00  0.00000000000E+00  0.99999998245E-14  0.12500000000E+03  0.12500000000E+03 0.  0.
        -13    1    1    0    0    0 -0.28784777105E+01  0.97998778319E+00  0.24460083701E+01  0.39038610333E+01  0.10566000000E+00 0. -1.
         13    1    1    0    0    0  0.27222984823E+02  0.53880184920E+02 -0.76596002943E+01  0.60851013717E+02  0.10566000000E+00 0.  1.
         22    1    1    0    0    0 -0.24344507113E+02 -0.54860172703E+02  0.52135919242E+01  0.60245125250E+02  0.00000000000E+00 0.  1.
</event>
<event>
 5    1  0.9041167E-005  0.9118800E+02  0.7818608E-02  0.1130116E+00
         25   -1    0    0    0    0  0.00000000000E+00  0.00000000000E+00  0.99999998245E-14  0.12500000000E+03  0.12500000000E+03 0.  0.
        -13    1    3    3    0    0  0.24280572917E+02 -0.12182333471E+02 -0.23466536233E+02  0.35897701274E+02  0.10566000000E+00 0. -1.
         23    2    1    0    0    0 -0.22873436665E+02 -0.12609389028E+02  0.13297159864E+02  0.95691208538E+02  0.91092272638E+02 0.  0.
         13    1    3    3    0    0 -0.47154009582E+02 -0.42705555674E+00  0.36763696097E+02  0.59793507263E+02  0.10566000000E+00 0.  1.
         22    1    1    0    0    0  0.22873436665E+02  0.12609389028E+02 -0.13297159864E+02  0.29308791462E+02  0.00000000000E+00 0.  1.
</event>
<event>
 5    1  0.9041167E-005  0.9118800E+02  0.7818608E-02  0.1130116E+00
         25   -1    0    0    0    0  0.00000000000E+00  0.00000000000E+00  0.99999998245E-14  0.12500000000E+03  0.12500000000E+03 0.  0.
        -13    1    3    3    0    0  0.32351919887E+02  0.42661157790E+01  0.39260964552E+02  0.51051747921E+02  0.10566000000E+00 0.  1.
         23    2    1    0    0    0  0.16398248848E+02 -0.21827739039E+02  0.45372315658E+01  0.97324392923E+02  0.93306474752E+02 0.  0.
         13    1    3    3    0    0 -0.15953671039E+02 -0.26093854818E+02 -0.34723732986E+02  0.46272645001E+02  0.10566000000E+00 0. -1.
         22    1    1    0    0    0 -0.16398248848E+02  0.21827739039E+02 -0.45372315658E+01  0.27675607077E+02  0.00000000000E+00 0. -1.
</event>
<event>
 5    1  0.9041167E-005  0.9118800E+02  0.7818608E-02  0.1130116E+00
         25   -1    0    0    0    0  0.00000000000E+00  0.00000000000E+00  0.99999998245E-14  0.12500000000E+03  0.12500000000E+03 0.  0.
        -13    1    3    3    0    0 -0.13959898537E+02  0.33517316771E+02  0.17461210889E+01  0.36350369923E+02  0.10566000000E+00 0. -1.
         23    2    1    0    0    0  0.20649682859E+02 -0.10943269862E+02 -0.17406246371E+02  0.95859959331E+02  0.91323544789E+02 0.  0.
         13    1    3    3    0    0  0.34609581396E+02 -0.44460586633E+02 -0.19152367460E+02  0.59509589408E+02  0.10566000000E+00 0.  1.
         22    1    1    0    0    0 -0.20649682859E+02  0.10943269862E+02  0.17406246371E+02  0.29140040669E+02  0.00000000000E+00 0.  1.
</event>
<event>
 5    1  0.9041167E-005  0.9118800E+02  0.7818608E-02  0.1130116E+00
         25   -1    0    0    0    0  0.00000000000E+00  0.00000000000E+00  0.99999998245E-14  0.12500000000E+03  0.12500000000E+03 0.  0.
        -13    1    3    3    0    0 -0.25315829787E+02 -0.55290737833E+02  0.12997580106E+02  0.62184444844E+02  0.10566000000E+00 0.  1.
         23    2    1    0    0    0 -0.11254413961E+02 -0.28051915302E+02  0.21622305218E+01  0.94697408914E+02  0.89718182263E+02 0.  0.
         13    1    3    3    0    0  0.14061415826E+02  0.27238822532E+02 -0.10835349584E+02  0.32512964070E+02  0.10566000000E+00 0. -1.
         22    1    1    0    0    0  0.11254413961E+02  0.28051915302E+02 -0.21622305218E+01  0.30302591086E+02  0.00000000000E+00 0.  1.
</event>
<event>
 5    1  0.9041167E-005  0.9118800E+02  0.7818608E-02  0.1130116E+00
         25   -1    0    0    0    0  0.00000000000E+00  0.00000000000E+00  0.99999998245E-14  0.12500000000E+03  0.12500000000E+03 0.  0.
        -13    1    3    3    0    0  0.49166636214E+02  0.28275040183E+02 -0.23419353320E+02  0.61362148658E+02  0.10566000000E+00 0.  1.
         23    2    1    0    0    0  0.24694993735E+02  0.15705616371E+02 -0.30867052469E+01  0.95571495953E+02  0.90927850454E+02 0.  0.
         13    1    3    3    0    0 -0.24471642479E+02 -0.12569423812E+02  0.20332648073E+02  0.34209347295E+02  0.10566000000E+00 0. -1.
         22    1    1    0    0    0 -0.24694993735E+02 -0.15705616371E+02  0.30867052469E+01  0.29428504047E+02  0.00000000000E+00 0.  1.
</event>
<event>
 5    1  0.9041167E-005  0.9118800E+02  0.7818608E-02  0.1130116E+00
         25   -1    0    0    0    0  0.00000000000E+00  0.00000000000E+00  0.99999998245E-14  0.12500000000E+03  0.12500000000E+03 0.  0.
        -13    1    3    3    0    0  0.14039889148E+02  0.84943641642E+01  0.48010604695E+02  0.50737580126E+02  0.10566000000E+00 0.  1.
         23    2    1    0    0    0 -0.20299340506E+02 -0.18375298132E+01  0.21802838662E+02  0.95153668324E+02  0.90351630207E+02 0.  0.
         13    1    3    3    0    0 -0.34339229653E+02 -0.10331893977E+02 -0.26207766033E+02  0.44416088198E+02  0.10566000000E+00 0. -1.
         22    1    1    0    0    0  0.20299340506E+02  0.18375298132E+01 -0.21802838662E+02  0.29846331676E+02  0.00000000000E+00 0. -1.
</event>
<event>
 5    1  0.9041167E-005  0.9118800E+02  0.7818608E-02  0.1130116E+00
         25   -1    0    0    0    0  0.00000000000E+00  0.00000000000E+00  0.99999998245E-14  0.12500000000E+03  0.12500000000E+03 0.  0.
        -13    1    3    3    0    0  0.43401571264E+02  0.20434757926E+02  0.87715102738E+01  0.48767061385E+02  0.10566000000E+00 0.  1.
         23    2    1    0    0    0 -0.17134750507E+01  0.95408907589E+01  0.25199388292E+02  0.98000485865E+02  0.94207863081E+02 0.  0.
         13    1    3    3    0    0 -0.45115046314E+02 -0.10893867167E+02  0.16427878019E+02  0.49233424480E+02  0.10566000000E+00 0. -1.
         22    1    1    0    0    0  0.17134750507E+01 -0.95408907589E+01 -0.25199388292E+02  0.26999514135E+02  0.00000000000E+00 0. -1.
</event>
<event>
 5    1  0.9041167E-005  0.9118800E+02  0.7818608E-02  0.1130116E+00
         25   -1    0    0    0    0  0.00000000000E+00  0.00000000000E+00  0.99999998245E-14  0.12500000000E+03  0.12500000000E+03 0.  0.
        -13    1    3    3    0    0 -0.33271928493E+02  0.43370091414E+01 -0.19170142225E+02  0.38643710884E+02  0.10566000000E+00 0.  1.
         23    2    1    0    0    0  0.14302075815E+02  0.25415123618E+02  0.39266261104E+01  0.95573884495E+02  0.90931133963E+02 0.  0.
         13    1    3    3    0    0  0.47574004308E+02  0.21078114476E+02  0.23096768335E+02  0.56930173611E+02  0.10566000000E+00 0. -1.
         22    1    1    0    0    0 -0.14302075815E+02 -0.25415123618E+02 -0.39266261104E+01  0.29426115505E+02  0.00000000000E+00 0. -1.
</event>
<event>
 5    1  0.9041167E-005  0.9118800E+02  0.7818608E-02  0.1130116E+00
         25   -1    0    0    0    0  0.00000000000E+00  0.00000000000E+00  0.99999998245E-14  0.12500000000E+03  0.12500000000E+03 0.  0.
        -13    1    3    3    0    0  0.31755210269E+01 -0.52562830963E+02  0.37970633825E+01  0.52795492109E+02  0.10566000000E+00 0.  1.
         23    2    1    0    0    0  0.24521218367E+01 -0.18827864638E+02  0.25717190799E+02  0.93033215818E+02  0.87368781350E+02 0.  0.
         13    1    3    3    0    0 -0.72339919017E+00  0.33734966325E+02  0.21920127416E+02  0.40237723709E+02  0.10566000000E+00 0. -1.
         22    1    1    0    0    0 -0.24521218367E+01  0.18827864638E+02 -0.25717190799E+02  0.31966784182E+02  0.00000000000E+00 0.  1.
</event>
<event>
 5    1  0.9041167E-005  0.9118800E+02  0.7818608E-02  0.1130116E+00
         25   -1    0    0    0    0  0.00000000000E+00  0.00000000000E+00  0.99999998245E-14  0.12500000000E+03  0.12500000000E+03 0.  0.
        -13    1    3    3    0    0 -0.15909768232E+02 -0.32300374995E+02  0.35952449532E+02  0.50882460057E+02  0.10566000000E+00 0. -1.
         23    2    1    0    0    0 -0.27872507230E+02 -0.44895307257E+01  0.15262787315E+01  0.96727008079E+02  0.92502713580E+02 0.  0.
         13    1    3    3    0    0 -0.11962738998E+02  0.27810844270E+02 -0.34426170800E+02  0.45844548022E+02  0.10566000000E+00 0.  1.
         22    1    1    0    0    0  0.27872507230E+02  0.44895307257E+01 -0.15262787315E+01  0.28272991921E+02  0.00000000000E+00 0.  1.
</event>
<event>
 5    1  0.9041167E-005  0.9118800E+02  0.7818608E-02  0.1130116E+00
         25   -1    0    0    0    0  0.00000000000E+00  0.00000000000E+00  0.99999998245E-14  0.12500000000E+03  0.12500000000E+03 0.  0.
        -13    1    3    3    0    0  0.17361416542E+02  0.12421146006E+02 -0.52616851783E+02  0.56782461271E+02  0.10566000000E+00 0.  1.
         23    2    1    0    0    0  0.16870346435E+02  0.19302979361E+02 -0.14442261170E+02  0.95575647692E+02  0.90933557738E+02 0.  0.
         13    1    3    3    0    0 -0.49107010776E+00  0.68818333554E+01  0.38174590613E+02  0.38793186421E+02  0.10566000000E+00 0. -1.
         22    1    1    0    0    0 -0.16870346435E+02 -0.19302979361E+02  0.14442261170E+02  0.29424352308E+02  0.00000000000E+00 0.  1.
</event>
<event>
 5    1  0.9041167E-005  0.9118800E+02  0.7818608E-02  0.1130116E+00
         25   -1    0    0    0    0  0.00000000000E+00  0.00000000000E+00  0.99999998245E-14  0.12500000000E+03  0.12500000000E+03 0.  0.
        -13    1    3    3    0    0 -0.45648511705E+02 -0.16880445817E+02 -0.29785060630E+02  0.57060468564E+02  0.10566000000E+00 0. -1.
         23    2    1    0    0    0 -0.18050590401E+02 -0.19861741597E+02  0.51884252650E+00  0.98156345430E+02  0.94414439349E+02 0.  0.
         13    1    3    3    0    0  0.27597921305E+02 -0.29812957799E+01  0.30303903157E+02  0.41095876867E+02  0.10566000000E+00 0.  1.
         22    1    1    0    0    0  0.18050590401E+02  0.19861741597E+02 -0.51884252650E+00  0.26843654570E+02  0.00000000000E+00 0. -1.
</event>
<event>
 5    1  0.9041167E-005  0.9118800E+02  0.7818608E-02  0.1130116E+00
         25   -1    0    0    0    0  0.00000000000E+00  0.00000000000E+00  0.99999998245E-14  0.12500000000E+03  0.12500000000E+03 0.  0.
        -13    1    3    3    0    0  0.14600690514E+02 -0.19407894678E+02  0.28127484399E+02  0.37161984365E+02  0.10566000000E+00 0.  1.
         23    2    1    0    0    0 -0.96151849923E+01  0.25451160858E+02 -0.41195709755E+01  0.97483019125E+02  0.93518740267E+02 0.  0.
         13    1    3    3    0    0 -0.24215875506E+02  0.44859055536E+02 -0.32247055374E+02  0.60321034760E+02  0.10566000000E+00 0. -1.
         22    1    1    0    0    0  0.96151849923E+01 -0.25451160858E+02  0.41195709755E+01  0.27516980875E+02  0.00000000000E+00 0. -1.
</event>
<event>
 5    1  0.9041167E-005  0.9118800E+02  0.7818608E-02  0.1130116E+00
         25   -1    0    0    0    0  0.00000000000E+00  0.00000000000E+00  0.99999998245E-14  0.12500000000E+03  0.12500000000E+03 0.  0.
        -13    1    3    3    0    0 -0.35600459831E+02  0.37825678200E+02  0.11910941139E+01  0.51957718779E+02  0.10566000000E+00 0.  1.
         23    2    1    0    0    0 -0.26655135799E+02 -0.44417683022E+01  0.10245769863E+02  0.96100149305E+02  0.91651717530E+02 0.  0.
         13    1    3    3    0    0  0.89453240318E+01 -0.42267446502E+02  0.90546757487E+01  0.44142430526E+02  0.10566000000E+00 0. -1.
         22    1    1    0    0    0  0.26655135799E+02  0.44417683022E+01 -0.10245769863E+02  0.28899850695E+02  0.00000000000E+00 0.  1.
</event>
<event>
 5    1  0.9041167E-005  0.9118800E+02  0.7818608E-02  0.1130116E+00
         25   -1    0    0    0    0  0.00000000000E+00  0.00000000000E+00  0.99999998245E-14  0.12500000000E+03  0.12500000000E+03 0.  0.
        -13    1    3    3    0    0  0.39239504375E+02 -0.24680425026E+02  0.14545968413E+02  0.48584549439E+02  0.10566000000E+00 0.  1.
         23    2    1    0    0    0  0.21110154017E+02  0.13194740256E+02  0.22642365740E+02  0.91348603308E+02  0.84924382994E+02 0.  0.
         13    1    3    3    0    0 -0.18129350358E+02  0.37875165282E+02  0.80963973264E+01  0.42764053868E+02  0.10566000000E+00 0. -1.
         22    1    1    0    0    0 -0.21110154017E+02 -0.13194740256E+02 -0.22642365740E+02  0.33651396692E+02  0.00000000000E+00 0.  1.
</event>
<event>
 5    1  0.9041167E-005  0.9118800E+02  0.7818608E-02  0.1130116E+00
         25   -1    0    0    0    0  0.00000000000E+00  0.00000000000E+00  0.99999998245E-14  0.12500000000E+03  0.12500000000E+03 0.  0.
        -13    1    3    3    0    0  0.42527329617E+02 -0.39853861601E+01 -0.25273564261E+02  0.49630850100E+02  0.10566000000E+00 0.  1.
         23    2    1    0    0    0  0.26876385016E+01 -0.25386390418E+02 -0.12197703656E+02  0.96707312010E+02  0.92476094222E+02 0.  0.
         13    1    3    3    0    0 -0.39839691115E+02 -0.21401004258E+02  0.13075860605E+02  0.47076461910E+02  0.10566000000E+00 0. -1.
         22    1    1    0    0    0 -0.26876385016E+01  0.25386390418E+02  0.12197703656E+02  0.28292687990E+02  0.00000000000E+00 0. -1.
</event>
<event>
 5    1  0.9041167E-005  0.9118800E+02  0.7818608E-02  0.1130116E+00
         25   -1    0    0    0    0  0.00000000000E+00  0.00000000000E+00  0.99999998245E-14  0.12500000000E+03  0.12500000000E+03 0.  0.
        -13    1    3    3    0    0  0.38863997683E+02  0.16427920026E+02  0.43778889563E+02  0.60802049371E+02  0.10566000000E+00 0.  1.
         23    2    1    0    0    0  0.20351284784E+02 -0.24212381499E+01  0.20447267829E+02  0.96049560484E+02  0.91582695532E+02 0.  0.
         13    1    3    3    0    0 -0.18512712900E+02 -0.18849158176E+02 -0.23331621735E+02  0.35247511113E+02  0.10566000000E+00 0. -1.
         22    1    1    0    0    0 -0.20351284784E+02  0.24212381499E+01 -0.20447267829E+02  0.28950439516E+02  0.00000000000E+00 0.  1.
</event>
<event>
 5    1  0.9041167E-005  0.9118800E+02  0.7818608E-02  0.1130116E+00
         25   -1    0    0    0    0  0.00000000000E+00  0.00000000000E+00  0.99999998245E-14  0.12500000000E+03  0.12500000000E+03 0.  0.
        -13    1    3    3    0    0  0.34177318094E+01  0.17090183431E+02  0.38278767732E+02  0.42059844074E+02  0.10566000000E+00 0.  1.
         23    2    1    0    0    0 -0.26547588981E+02 -0.10298098474E+02  0.20831812726E+01  0.96448906201E+02  0.92126144770E+02 0.  0.
         13    1    3    3    0    0 -0.29965320791E+02 -0.27388281905E+02 -0.36195586460E+02  0.54389062127E+02  0.10566000000E+00 0. -1.
         22    1    1    0    0    0  0.26547588981E+02  0.10298098474E+02 -0.20831812726E+01  0.28551093799E+02  0.00000000000E+00 0. -1.
</event>
<event>
 5    1  0.9041167E-005  0.9118800E+02  0.7818608E-02  0.1130116E+00
         25   -1    0    0    0    0  0.00000000000E+00  0.00000000000E+00  0.99999998245E-14  0.12500000000E+03  0.12500000000E+03 0.  0.
        -13    1    3    3    0    0  0.19057082077E+02  0.26290822356E+02  0.38372035024E+02  0.50267324908E+02  0.10566000000E+00 0.  1.
         23    2    1    0    0    0  0.12634640170E+02 -0.15708375768E+02  0.51716985362E+01  0.10418813638E+03  0.10208836415E+03 0.  0.
         13    1    3    3    0    0 -0.64224419071E+01 -0.41999198124E+02 -0.33200336488E+02  0.53920811475E+02  0.10566000000E+00 0. -1.
         22    1    1    0    0    0 -0.12634640170E+02  0.15708375768E+02 -0.51716985362E+01  0.20811863618E+02  0.00000000000E+00 0.  1.
</event>
<event>
 5    1  0.9041167E-005  0.9118800E+02  0.7818608E-02  0.1130116E+00
         25   -1    0    0    0    0  0.00000000000E+00  0.00000000000E+00  0.99999998245E-14  0.12500000000E+03  0.12500000000E+03 0.  0.
        -13    1    3    3    0    0 -0.48404060324E+02 -0.55089398036E+00  0.84517249473E+01  0.49139590542E+02  0.10566000000E+00 0. -1.
         23    2    1    0    0    0 -0.15702666186E+02 -0.24589314371E+02  0.17846659452E+02  0.90798956738E+02  0.84111468805E+02 0.  0.
         13    1    3    3    0    0  0.32701394138E+02 -0.24038420391E+02  0.93949345043E+01  0.41659366196E+02  0.10566000000E+00 0.  1.
         22    1    1    0    0    0  0.15702666186E+02  0.24589314371E+02 -0.17846659452E+02  0.34201043262E+02  0.00000000000E+00 0.  1.
</event>
<event>
 5    1  0.9041167E-005  0.9118800E+02  0.7818608E-02  0.1130116E+00
         25   -1    0    0    0    0  0.00000000000E+00  0.00000000000E+00  0.99999998245E-14  0.12500000000E+03  0.12500000000E+03 0.  0.
        -13    1    3    3    0    0 -0.18956414813E+02 -0.46893540300E+02 -0.24028036334E+02  0.55997388140E+02  0.10566000000E+00 0.  1.
         23    2    1    0    0    0  0.10758198132E+02 -0.26189508665E+02 -0.12915049656E+02  0.93880429007E+02  0.88572610054E+02 0.  0.
         13    1    3    3    0    0  0.29714612944E+02  0.20704031635E+02  0.11112986678E+02  0.37883040867E+02  0.10566000000E+00 0. -1.
         22    1    1    0    0    0 -0.10758198132E+02  0.26189508665E+02  0.12915049656E+02  0.31119570993E+02  0.00000000000E+00 0.  1.
</event>
<event>
 5    1  0.9041167E-005  0.9118800E+02  0.7818608E-02  0.1130116E+00
         25   -1    0    0    0    0  0.00000000000E+00  0.00000000000E+00  0.99999998245E-14  0.12500000000E+03  0.12500000000E+03 0.  0.
        -13    1    3    3    0    0  0.83076519557E+00 -0.10677915988E+02  0.58049073933E+02  0.59028926885E+02  0.10566000000E+00 0.  1.
         23    2    1    0    0    0  0.46679900033E+01  0.86139202948E+01  0.31101586773E+02  0.92391742560E+02  0.86446143002E+02 0.  0.
         13    1    3    3    0    0  0.38372248078E+01  0.19291836283E+02 -0.26947487161E+02  0.33362815674E+02  0.10566000000E+00 0. -1.
         22    1    1    0    0    0 -0.46679900033E+01 -0.86139202948E+01 -0.31101586773E+02  0.32608257440E+02  0.00000000000E+00 0.  1.
</event>
<event>
 5    1  0.9041167E-005  0.9118800E+02  0.7818608E-02  0.1130116E+00
         25   -1    0    0    0    0  0.00000000000E+00  0.00000000000E+00  0.99999998245E-14  0.12500000000E+03  0.12500000000E+03 0.  0.
        -13    1    3    3    0    0 -0.33892771563E+02 -0.25565556797E+02  0.36075319384E+02  0.55711376677E+02  0.10566000000E+00 0.  1.
         23    2    1    0    0    0 -0.32630912024E+01 -0.27086189590E+02  0.10075712605E+02  0.95916853416E+02  0.91401385952E+02 0.  0.
         13    1    3    3    0    0  0.30629680361E+02 -0.15206327938E+01 -0.25999606779E+02  0.40205476739E+02  0.10566000000E+00 0. -1.
         22    1    1    0    0    0  0.32630912024E+01  0.27086189590E+02 -0.10075712605E+02  0.29083146584E+02  0.00000000000E+00 0.  1.
</event>
<event>
 5    1  0.9041167E-005  0.9118800E+02  0.7818608E-02  0.1130116E+00
         25   -1    0    0    0    0  0.00000000000E+00  0.00000000000E+00  0.99999998245E-14  0.12500000000E+03  0.12500000000E+03 0.  0.
        -13    1    3    3    0    0  0.91518144971E+01 -0.57824959652E+02  0.58704874432E+01  0.58838384191E+02  0.10566000000E+00 0. -1.
         23    2    1    0    0    0  0.11193489359E+02 -0.25520831079E+02 -0.10634378637E+02  0.95172210407E+02  0.90377279235E+02 0.  0.
         13    1    3    3    0    0  0.20416748622E+01  0.32304128574E+02 -0.16504866080E+02  0.36333826216E+02  0.10566000000E+00 0.  1.
         22    1    1    0    0    0 -0.11193489359E+02  0.25520831079E+02  0.10634378637E+02  0.29827789593E+02  0.00000000000E+00 0. -1.
</event>
<event>
 5    1  0.9041167E-005  0.9118800E+02  0.7818608E-02  0.1130116E+00
         25   -1    0    0    0    0  0.00000000000E+00  0.00000000000E+00  0.99999998245E-14  0.12500000000E+03  0.12500000000E+03 0.  0.
        -13    1    3    3    0    0  0.17700553863E+02  0.38330582940E+02 -0.29803075102E+02  0.51679566999E+02  0.10566000000E+00 0. -1.
         23    2    1    0    0    0  0.14053979552E+02 -0.55280846570E+01 -0.24787065300E+02  0.95974620289E+02  0.91480353476E+02 0.  0.
         13    1    3    3    0    0 -0.36465743112E+01 -0.43858667597E+02  0.50160098025E+01  0.44295053290E+02  0.10566000000E+00 0.  1.
         22    1    1    0    0    0 -0.14053979552E+02  0.55280846570E+01  0.24787065300E+02  0.29025379711E+02  0.00000000000E+00 0.  1.
</event>
<event>
 5    1  0.9041167E-005  0.9118800E+02  0.7818608E-02  0.1130116E+00
         25   -1    0    0    0    0  0.00000000000E+00  0.00000000000E+00  0.99999998245E-14  0.12500000000E+03  0.12500000000E+03 0.  0.
        -13    1    3    3    0    0 -0.22558337521E+02  0.17976874148E+02 -0.21256911584E+02  0.35831746398E+02  0.10566000000E+00 0.  1.
         23    2    1    0    0    0 -0.96214445420E+01 -0.14295185000E+02  0.25576507665E+02  0.94160378511E+02  0.88966817566E+02 0.  0.
         13    1    3    3    0    0  0.12936892979E+02 -0.32272059148E+02  0.46833419249E+02  0.58328632113E+02  0.10566000000E+00 0. -1.
         22    1    1    0    0    0  0.96214445420E+01  0.14295185000E+02 -0.25576507665E+02  0.30839621489E+02  0.00000000000E+00 0. -1.
</event>
<event>
 5    1  0.9041167E-005  0.9118800E+02  0.7818608E-02  0.1130116E+00
         25   -1    0    0    0    0  0.00000000000E+00  0.00000000000E+00  0.99999998245E-14  0.12500000000E+03  0.12500000000E+03 0.  0.
        -13    1    3    3    0    0  0.12300408106E+02 -0.55353460560E+01  0.51837205257E+02  0.53563486709E+02  0.10566000000E+00 0.  1.
         23    2    1    0    0    0  0.10513662821E+02  0.20136194635E+02  0.18337478111E+02  0.95806395499E+02  0.91250199314E+02 0.  0.
         13    1    3    3    0    0 -0.17867452850E+01  0.25671540691E+02 -0.33499727146E+02  0.42242908790E+02  0.10566000000E+00 0. -1.
         22    1    1    0    0    0 -0.10513662821E+02 -0.20136194635E+02 -0.18337478111E+02  0.29193604501E+02  0.00000000000E+00 0.  1.
</event>
<event>
 5    1  0.9041167E-005  0.9118800E+02  0.7818608E-02  0.1130116E+00
         25   -1    0    0    0    0  0.00000000000E+00  0.00000000000E+00  0.99999998245E-14  0.12500000000E+03  0.12500000000E+03 0.  0.
        -13    1    3    3    0    0 -0.74271507604E+01 -0.41717509357E+02 -0.41439470312E+02  0.59268490947E+02  0.10566000000E+00 0.  1.
         23    2    1    0    0    0 -0.11471850607E+02 -0.91792110866E+01 -0.25131372337E+02  0.95889054497E+02  0.91363360404E+02 0.  0.
         13    1    3    3    0    0 -0.40446998461E+01  0.32538298270E+02  0.16308097975E+02  0.36620563550E+02  0.10566000000E+00 0. -1.
         22    1    1    0    0    0  0.11471850607E+02  0.91792110866E+01  0.25131372337E+02  0.29110945503E+02  0.00000000000E+00 0. -1.
</event>
<event>
 5    1  0.9041167E-005  0.9118800E+02  0.7818608E-02  0.1130116E+00
         25   -1    0    0    0    0  0.00000000000E+00  0.00000000000E+00  0.99999998245E-14  0.12500000000E+03  0.12500000000E+03 0.  0.
        -13    1    3    3    0    0 -0.28018920904E+01  0.55652256798E+02  0.21975963627E+02  0.59899736455E+02  0.10566000000E+00 0. -1.
         23    2    1    0    0    0  0.11328355343E+02  0.21982963694E+02  0.78065999616E+01  0.99066906654E+02  0.95612377145E+02 0.  0.
         13    1    3    3    0    0  0.14130247434E+02 -0.33669293104E+02 -0.14169363665E+02  0.39167170199E+02  0.10566000000E+00 0.  1.
         22    1    1    0    0    0 -0.11328355343E+02 -0.21982963694E+02 -0.78065999616E+01  0.25933093346E+02  0.00000000000E+00 0. -1.
</event>
<event>
 5    1  0.9041167E-005  0.9118800E+02  0.7818608E-02  0.1130116E+00
         25   -1    0    0    0    0  0.00000000000E+00  0.00000000000E+00  0.99999998245E-14  0.12500000000E+03  0.12500000000E+03 0.  0.
        -13    1    3    3    0    0 -0.90393006853E+00  0.20704820588E+01 -0.37530353289E+02  0.37598438366E+02  0.10566000000E+00 0. -1.
         23    2    1    0    0    0  0.21494995899E+02  0.17968763643E+02  0.12225384788E+02  0.94432511573E+02  0.89348351374E+02 0.  0.
         13    1    3    3    0    0  0.22398925967E+02  0.15898281584E+02  0.49755738076E+02  0.56834073207E+02  0.10566000000E+00 0.  1.
         22    1    1    0    0    0 -0.21494995899E+02 -0.17968763643E+02 -0.12225384788E+02  0.30567488427E+02  0.00000000000E+00 0.  1.
</event>
<event>
 5    1  0.9041167E-005  0.9118800E+02  0.7818608E-02  0.1130116E+00
         25   -1    0    0    0    0  0.00000000000E+00  0.00000000000E+00  0.99999998245E-14  0.12500000000E+03  0.12500000000E+03 0.  0.
        -13    1    3    3    0    0  0.30607570837E+02  0.90286563156E+01  0.49354426350E+02  0.58772532630E+02  0.10566000000E+00 0. -1.
         23    2    1    0    0    0  0.91040510565E+01 -0.10123542717E+02  0.25197297086E+02  0.96359580254E+02  0.92004864346E+02 0.  0.
         13    1    3    3    0    0 -0.21503519780E+02 -0.19152199033E+02 -0.24157129264E+02  0.37587047623E+02  0.10566000000E+00 0.  1.
         22    1    1    0    0    0 -0.91040510565E+01  0.10123542717E+02 -0.25197297086E+02  0.28640419746E+02  0.00000000000E+00 0. -1.
</event>
<event>
 5    1  0.9041167E-005  0.9118800E+02  0.7818608E-02  0.1130116E+00
         25   -1    0    0    0    0  0.00000000000E+00  0.00000000000E+00  0.99999998245E-14  0.12500000000E+03  0.12500000000E+03 0.  0.
        -13    1    3    3    0    0  0.76881806341E+01 -0.21277793332E+02  0.28403930237E+02  0.36313179804E+02  0.10566000000E+00 0. -1.
         23    2    1    0    0    0 -0.21894816890E+02  0.16525254887E+02 -0.78498952402E+01  0.96467774167E+02  0.92151741935E+02 0.  0.
         13    1    3    3    0    0 -0.29582997524E+02  0.37803048219E+02 -0.36253825477E+02  0.60154594362E+02  0.10566000000E+00 0.  1.
         22    1    1    0    0    0  0.21894816890E+02 -0.16525254887E+02  0.78498952402E+01  0.28532225833E+02  0.00000000000E+00 0.  1.
</event>
<event>
 5    1  0.9041167E-005  0.9118800E+02  0.7818608E-02  0.1130116E+00
         25   -1    0    0    0    0  0.00000000000E+00  0.00000000000E+00  0.99999998245E-14  0.12500000000E+03  0.12500000000E+03 0.  0.
        -13    1    3    3    0    0  0.23098836116E+02 -0.29310279383E+02 -0.47713019451E+02  0.60573856544E+02  0.10566000000E+00 0. -1.
         23    2    1    0    0    0  0.37018917475E+00 -0.15130264449E+02 -0.25373550168E+02  0.95455474442E+02  0.90768213657E+02 0.  0.
         13    1    3    3    0    0 -0.22728646941E+02  0.14180014934E+02  0.22339469283E+02  0.34881617898E+02  0.10566000000E+00 0.  1.
         22    1    1    0    0    0 -0.37018917475E+00  0.15130264449E+02  0.25373550168E+02  0.29544525558E+02  0.00000000000E+00 0. -1.
</event>
<event>
 5    1  0.9041167E-005  0.9118800E+02  0.7818608E-02  0.1130116E+00
         25   -1    0    0    0    0  0.00000000000E+00  0.00000000000E+00  0.99999998245E-14  0.12500000000E+03  0.12500000000E+03 0.  0.
        -13    1    3    3    0    0  0.86611231631E+01 -0.28788517686E+02  0.18983592506E+02  0.35555333685E+02  0.10566000000E+00 0.  1.
         23    2    1    0    0    0  0.68889143990E+01  0.23234138124E+02 -0.13839427061E+02  0.97092795601E+02  0.92995692913E+02 0.  0.
         13    1    3    3    0    0 -0.17722087641E+01  0.52022655810E+02 -0.32823019568E+02  0.61537461916E+02  0.10566000000E+00 0. -1.
         22    1    1    0    0    0 -0.68889143990E+01 -0.23234138124E+02  0.13839427061E+02  0.27907204399E+02  0.00000000000E+00 0. -1.
</event>
<event>
 5    1  0.9041167E-005  0.9118800E+02  0.7818608E-02  0.1130116E+00
         25   -1    0    0    0    0  0.00000000000E+00  0.00000000000E+00  0.99999998245E-14  0.12500000000E+03  0.12500000000E+03 0.  0.
        -13    1    3    3    0    0 -0.48749108397E+02 -0.81952481169E+01  0.28584578430E+02  0.57102775320E+02  0.10566000000E+00 0.  1.
         23    2    1    0    0    0 -0.25325594295E+02  0.12219318381E+02  0.42669310235E+01  0.96558759372E+02  0.92275077042E+02 0.  0.
         13    1    3    3    0    0  0.23423514102E+02  0.20414566498E+02 -0.24317647406E+02  0.39455984053E+02  0.10566000000E+00 0. -1.
         22    1    1    0    0    0  0.25325594295E+02 -0.12219318381E+02 -0.42669310235E+01  0.28441240628E+02  0.00000000000E+00 0.  1.
</event>
<event>
 5    1  0.9041167E-005  0.9118800E+02  0.7818608E-02  0.1130116E+00
         25   -1    0    0    0    0  0.00000000000E+00  0.00000000000E+00  0.99999998245E-14  0.12500000000E+03  0.12500000000E+03 0.  0.
        -13    1    3    3    0    0  0.40618944305E+02 -0.13272008897E+02  0.14356392054E+02  0.45079507689E+02  0.10566000000E+00 0.  1.
         23    2    1    0    0    0 -0.54492924536E+01 -0.19077790929E+02 -0.15099340398E+02  0.10006715068E+03  0.96911236031E+02 0.  0.
         13    1    3    3    0    0 -0.46068236758E+02 -0.58057820315E+01 -0.29455732451E+02  0.54987642987E+02  0.10566000000E+00 0. -1.
         22    1    1    0    0    0  0.54492924536E+01  0.19077790929E+02  0.15099340398E+02  0.24932849324E+02  0.00000000000E+00 0. -1.
</event>
<event>
 5    1  0.9041167E-005  0.9118800E+02  0.7818608E-02  0.1130116E+00
         25   -1    0    0    0    0  0.00000000000E+00  0.00000000000E+00  0.99999998245E-14  0.12500000000E+03  0.12500000000E+03 0.  0.
        -13    1    3    3    0    0 -0.36294224741E+02 -0.49241008477E+02  0.10937802697E+02  0.62141727987E+02  0.10566000000E+00 0. -1.
         23    2    1    0    0    0 -0.20509462522E+02 -0.20719749874E+02  0.30006005631E+01  0.95692156484E+02  0.91093573435E+02 0.  0.
         13    1    3    3    0    0  0.15784762219E+02  0.28521258602E+02 -0.79372021343E+01  0.33550428497E+02  0.10566000000E+00 0.  1.
         22    1    1    0    0    0  0.20509462522E+02  0.20719749874E+02 -0.30006005631E+01  0.29307843516E+02  0.00000000000E+00 0. -1.
</event>
<event>
 5    1  0.9041167E-005  0.9118800E+02  0.7818608E-02  0.1130116E+00
         25   -1    0    0    0    0  0.00000000000E+00  0.00000000000E+00  0.99999998245E-14  0.12500000000E+03  0.12500000000E+03 0.  0.
        -13    1    3    3    0    0 -0.14563297453E+02 -0.35748455573E+02 -0.47412182919E+02  0.61138923460E+02  0.10566000000E+00 0. -1.
         23    2    1    0    0    0  0.14442551673E+01 -0.20564651980E+02 -0.20688214678E+02  0.95793955924E+02  0.91233157245E+02 0.  0.
         13    1    3    3    0    0  0.16007552621E+02  0.15183803593E+02  0.26723968242E+02  0.34655032464E+02  0.10566000000E+00 0.  1.
         22    1    1    0    0    0 -0.14442551673E+01  0.20564651980E+02  0.20688214678E+02  0.29206044076E+02  0.00000000000E+00 0. -1.
</event>
<event>
 5    1  0.9041167E-005  0.9118800E+02  0.7818608E-02  0.1130116E+00
         25   -1    0    0    0    0  0.00000000000E+00  0.00000000000E+00  0.99999998245E-14  0.12500000000E+03  0.12500000000E+03 0.  0.
        -13    1    3    3    0    0  0.21770252682E+02 -0.19869243640E+01 -0.18010564006E+02  0.28324606795E+02  0.10566000000E+00 0. -1.
         23    2    1    0    0    0 -0.27968920344E+02 -0.34606943047E+01  0.19576095712E+02  0.90685856654E+02  0.83943219878E+02 0.  0.
         13    1    3    3    0    0 -0.49739173026E+02 -0.14737699407E+01  0.37586659718E+02  0.62361249858E+02  0.10566000000E+00 0.  1.
         22    1    1    0    0    0  0.27968920344E+02  0.34606943047E+01 -0.19576095712E+02  0.34314143346E+02  0.00000000000E+00 0.  1.
</event>
<event>
 5    1  0.9041167E-005  0.9118800E+02  0.7818608E-02  0.1130116E+00
         25   -1    0    0    0    0  0.00000000000E+00  0.00000000000E+00  0.99999998245E-14  0.12500000000E+03  0.12500000000E+03 0.  0.
        -13    1    3    3    0    0  0.20595940907E+02  0.34787904813E+02  0.21586213989E+02  0.45829759999E+02  0.10566000000E+00 0.  1.
         23    2    1    0    0    0  0.50477729510E+01 -0.16015432656E+02  0.19867123974E+02  0.98986989603E+02  0.95507839473E+02 0.  0.
         13    1    3    3    0    0 -0.15548167956E+02 -0.50803337469E+02 -0.17190900154E+01  0.53157229605E+02  0.10566000000E+00 0. -1.
         22    1    1    0    0    0 -0.50477729510E+01  0.16015432656E+02 -0.19867123974E+02  0.26013010397E+02  0.00000000000E+00 0. -1.
</event>
<event>
 5    1  0.9041167E-005  0.9118800E+02  0.7818608E-02  0.1130116E+00
         25   -1    0    0    0    0  0.00000000000E+00  0.00000000000E+00  0.99999998245E-14  0.12500000000E+03  0.12500000000E+03 0.  0.
        -13    1    3    3    0    0 -0.12299144232E+02  0.14203609069E+02 -0.32694009169E+02  0.37708365902E+02  0.10566000000E+00 0.  1.
         23    2    1    0    0    0 -0.54634442464E+01  0.11706020103E+02  0.25531169250E+02  0.96386703564E+02  0.92041707345E+02 0.  0.
         13    1    3    3    0    0  0.68356999853E+01 -0.24975889668E+01  0.58225178418E+02  0.58678337662E+02  0.10566000000E+00 0. -1.
         22    1    1    0    0    0  0.54634442464E+01 -0.11706020103E+02 -0.25531169250E+02  0.28613296436E+02  0.00000000000E+00 0. -1.
</event>
<event>
 5    1  0.9041167E-005  0.9118800E+02  0.7818608E-02  0.1130116E+00
         25   -1    0    0    0    0  0.00000000000E+00  0.00000000000E+00  0.99999998245E-14  0.12500000000E+03  0.12500000000E+03 0.  0.
        -13    1    3    3    0    0  0.10021274147E+02 -0.12773009980E+02  0.56356146977E+02  0.58648121757E+02  0.10566000000E+00 0. -1.
         23    2    1    0    0    0  0.13949057467E+02  0.64695560957E+01  0.24125210960E+02  0.96391309640E+02  0.92047962552E+02 0.  0.
         13    1    3    3    0    0  0.39277833193E+01  0.19242566076E+02 -0.32230936017E+02  0.37743187883E+02  0.10566000000E+00 0.  1.
         22    1    1    0    0    0 -0.13949057467E+02 -0.64695560957E+01 -0.24125210960E+02  0.28608690360E+02  0.00000000000E+00 0. -1.
</event>
<event>
 5    1  0.9041167E-005  0.9118800E+02  0.7818608E-02  0.1130116E+00
         25   -1    0    0    0    0  0.00000000000E+00  0.00000000000E+00  0.99999998245E-14  0.12500000000E+03  0.12500000000E+03 0.  0.
        -13    1    3    3    0    0  0.31280016690E+02 -0.38053185245E+02  0.23842452258E+02  0.54726209855E+02  0.10566000000E+00 0.  1.
         23    2    1    0    0    0 -0.23723883425E+01 -0.15169540713E+02  0.25252029872E+02  0.95446519586E+02  0.90755880782E+02 0.  0.
         13    1    3    3    0    0 -0.33652405032E+02  0.22883644532E+02  0.14095776148E+01  0.40720309731E+02  0.10566000000E+00 0. -1.
         22    1    1    0    0    0  0.23723883425E+01  0.15169540713E+02 -0.25252029872E+02  0.29553480414E+02  0.00000000000E+00 0.  1.
</event>
<event>
 5    1  0.9041167E-005  0.9118800E+02  0.7818608E-02  0.1130116E+00
         25   -1    0    0    0    0  0.00000000000E+00  0.00000000000E+00  0.99999998245E-14  0.12500000000E+03  0.12500000000E+03 0.  0.
        -13    1    3    3    0    0  0.27644397948E+02  0.14069881760E+02 -0.38663847882E+02  0.49568927845E+02  0.10566000000E+00 0. -1.
         23    2    1    0    0    0  0.30336878122E+02 -0.95949235929E+00  0.35326589428E+01  0.94443061688E+02  0.89363109961E+02 0.  0.
         13    1    3    3    0    0  0.26924801746E+01 -0.15029374119E+02  0.42196506825E+02  0.44874133843E+02  0.10566000000E+00 0.  1.
         22    1    1    0    0    0 -0.30336878122E+02  0.95949235929E+00 -0.35326589428E+01  0.30556938312E+02  0.00000000000E+00 0. -1.
</event>
<event>
 5    1  0.9041167E-005  0.9118800E+02  0.7818608E-02  0.1130116E+00
         25   -1    0    0    0    0  0.00000000000E+00  0.00000000000E+00  0.99999998245E-14  0.12500000000E+03  0.12500000000E+03 0.  0.
        -13    1    3    3    0    0 -0.45456505674E+02 -0.17892489957E+02  0.32111366626E+02  0.58460124320E+02  0.10566000000E+00 0. -1.
         23    2    1    0    0    0 -0.29711700745E+02 -0.11237218626E+02  0.18934590335E+01  0.93177909705E+02  0.87575552674E+02 0.  0.
         13    1    3    3    0    0  0.15744804929E+02  0.66552713305E+01 -0.30217907592E+02  0.34717785385E+02  0.10566000000E+00 0.  1.
         22    1    1    0    0    0  0.29711700745E+02  0.11237218626E+02 -0.18934590335E+01  0.31822090295E+02  0.00000000000E+00 0. -1.
</event>
<event>
 5    1  0.9041167E-005  0.9118800E+02  0.7818608E-02  0.1130116E+00
         25   -1    0    0    0    0  0.00000000000E+00  0.00000000000E+00  0.99999998245E-14  0.12500000000E+03  0.12500000000E+03 0.  0.
        -13    1    3    3    0    0 -0.27581467712E+02 -0.11021894553E+02 -0.34043549877E+02  0.45179574732E+02  0.10566000000E+00 0.  1.
         23    2    1    0    0    0  0.17320398230E+02 -0.19943568026E+02 -0.12739814074E+02  0.95673476798E+02  0.91067937275E+02 0.  0.
         13    1    3    3    0    0  0.44901865942E+02 -0.89216734733E+01  0.21303735803E+02  0.50493902066E+02  0.10566000000E+00 0. -1.
         22    1    1    0    0    0 -0.17320398230E+02  0.19943568026E+02  0.12739814074E+02  0.29326523202E+02  0.00000000000E+00 0. -1.
</event>
<event>
 5    1  0.9041167E-005  0.9118800E+02  0.7818608E-02  0.1130116E+00
         25   -1    0    0    0    0  0.00000000000E+00  0.00000000000E+00  0.99999998245E-14  0.12500000000E+03  0.12500000000E+03 0.  0.
        -13    1    3    3    0    0 -0.26998406586E+02 -0.26358020960E+02  0.12665681546E+02  0.39800626630E+02  0.10566000000E+00 0. -1.
         23    2    1    0    0    0  0.10245307615E+02  0.18881055271E+02  0.15568423665E+02  0.98470084966E+02  0.94828905095E+02 0.  0.
         13    1    3    3    0    0  0.37243714201E+02  0.45239076231E+02  0.29027421194E+01  0.58669458337E+02  0.10566000000E+00 0.  1.
         22    1    1    0    0    0 -0.10245307615E+02 -0.18881055271E+02 -0.15568423665E+02  0.26529915034E+02  0.00000000000E+00 0.  1.
</event>
<event>
 5    1  0.9041167E-005  0.9118800E+02  0.7818608E-02  0.1130116E+00
         25   -1    0    0    0    0  0.00000000000E+00  0.00000000000E+00  0.99999998245E-14  0.12500000000E+03  0.12500000000E+03 0.  0.
        -13    1    3    3    0    0  0.30719818522E+02 -0.49515826495E+01 -0.19337348329E+02  0.36635633272E+02  0.10566000000E+00 0. -1.
         23    2    1    0    0    0  0.89262570477E+01  0.87775385621E+01  0.30110897283E+02  0.92390348311E+02  0.86444126913E+02 0.  0.
         13    1    3    3    0    0 -0.21793561474E+02  0.13729121212E+02  0.49448245612E+02  0.55754715040E+02  0.10566000000E+00 0.  1.
         22    1    1    0    0    0 -0.89262570477E+01 -0.87775385621E+01 -0.30110897283E+02  0.32609651689E+02  0.00000000000E+00 0.  1.
</event>
<event>
 5    1  0.9041167E-005  0.9118800E+02  0.7818608E-02  0.1130116E+00
         25   -1    0    0    0    0  0.00000000000E+00  0.00000000000E+00  0.99999998245E-14  0.12500000000E+03  0.12500000000E+03 0.  0.
        -13    1    3    3    0    0  0.29748343446E+02  0.29911810499E+02  0.30854382854E+02  0.52265518753E+02  0.10566000000E+00 0.  1.
         23    2    1    0    0    0  0.28867151867E+02  0.13827580713E+01 -0.22935772199E+01  0.96008881131E+02  0.91527155985E+02 0.  0.
         13    1    3    3    0    0 -0.88119157903E+00 -0.28529052428E+02 -0.33147960074E+02  0.43743362378E+02  0.10566000000E+00 0. -1.
         22    1    1    0    0    0 -0.28867151867E+02 -0.13827580713E+01  0.22935772199E+01  0.28991118869E+02  0.00000000000E+00 0.  1.
</event>
<event>
 4    1  0.9041167E-005  0.9118800E+02  0.7818608E-02  0.1130116E+00
         25   -1    0    0    0    0  0.00000000000E+00  0.00000000000E+00  0.99999998245E-14  0.12500000000E+03  0.12500000000E+03 0.  0.
        -13    1    1    0    0    0  0.13641417249E+02 -0.49412403888E+01 -0.28042309517E+01  0.14777651925E+02  0.10566000000E+00 0.  1.
         13    1    1    0    0    0 -0.60590891541E+01  0.55174986860E+02  0.15937394562E+02  0.57749488706E+02  0.10566000000E+00 0. -1.
         22    1    1    0    0    0 -0.75823280953E+01 -0.50233746471E+02 -0.13133163610E+02  0.52472859369E+02  0.00000000000E+00 0. -1.
</event>
<event>
 5    1  0.9041167E-005  0.9118800E+02  0.7818608E-02  0.1130116E+00
         25   -1    0    0    0    0  0.00000000000E+00  0.00000000000E+00  0.99999998245E-14  0.12500000000E+03  0.12500000000E+03 0.  0.
        -13    1    3    3    0    0 -0.39530697274E+02 -0.45082893513E+02 -0.15655478729E+02  0.61969738524E+02  0.10566000000E+00 0.  1.
         23    2    1    0    0    0 -0.18340553661E+02 -0.17182485301E+02 -0.11860796997E+02  0.97209853992E+02  0.93152903863E+02 0.  0.
         13    1    3    3    0    0  0.21190143613E+02  0.27900408212E+02  0.37946817319E+01  0.35240115468E+02  0.10566000000E+00 0. -1.
         22    1    1    0    0    0  0.18340553661E+02  0.17182485301E+02  0.11860796997E+02  0.27790146008E+02  0.00000000000E+00 0.  1.
</event>
<event>
 5    1  0.9041167E-005  0.9118800E+02  0.7818608E-02  0.1130116E+00
         25   -1    0    0    0    0  0.00000000000E+00  0.00000000000E+00  0.99999998245E-14  0.12500000000E+03  0.12500000000E+03 0.  0.
        -13    1    3    3    0    0 -0.35194385731E+02  0.11223836784E+00  0.28438240965E+02  0.45248227564E+02  0.10566000000E+00 0.  1.
         23    2    1    0    0    0 -0.33687535453E+01 -0.29162852060E+02  0.28236907643E+01  0.95507735417E+02  0.90840155516E+02 0.  0.
         13    1    3    3    0    0  0.31825632186E+02 -0.29275090428E+02 -0.25614550201E+02  0.50259507853E+02  0.10566000000E+00 0. -1.
         22    1    1    0    0    0  0.33687535453E+01  0.29162852060E+02 -0.28236907643E+01  0.29492264583E+02  0.00000000000E+00 0.  1.
</event>
<event>
 5    1  0.9041167E-005  0.9118800E+02  0.7818608E-02  0.1130116E+00
         25   -1    0    0    0    0  0.00000000000E+00  0.00000000000E+00  0.99999998245E-14  0.12500000000E+03  0.12500000000E+03 0.  0.
        -13    1    3    3    0    0 -0.20033356054E+02 -0.26733598436E+02  0.11410997000E+02  0.35302162210E+02  0.10566000000E+00 0. -1.
         23    2    1    0    0    0 -0.32328566009E+01  0.24671145183E+02 -0.15475980767E+02  0.95697734778E+02  0.91101227733E+02 0.  0.
         13    1    3    3    0    0  0.16800499453E+02  0.51404743619E+02 -0.26886977767E+02  0.60395572568E+02  0.10566000000E+00 0.  1.
         22    1    1    0    0    0  0.32328566009E+01 -0.24671145183E+02  0.15475980767E+02  0.29302265222E+02  0.00000000000E+00 0.  1.
</event>
<event>
 5    1  0.9041167E-005  0.9118800E+02  0.7818608E-02  0.1130116E+00
         25   -1    0    0    0    0  0.00000000000E+00  0.00000000000E+00  0.99999998245E-14  0.12500000000E+03  0.12500000000E+03 0.  0.
        -13    1    3    3    0    0 -0.28043819719E+02  0.11471544355E+02 -0.23883291461E+02  0.38580758538E+02  0.10566000000E+00 0.  1.
         23    2    1    0    0    0 -0.12941429830E+01  0.15417580268E+02  0.25668089569E+02  0.95029557736E+02  0.90179761776E+02 0.  0.
         13    1    3    3    0    0  0.26749676736E+02  0.39460359136E+01  0.49551381030E+02  0.56448799198E+02  0.10566000000E+00 0. -1.
         22    1    1    0    0    0  0.12941429830E+01 -0.15417580268E+02 -0.25668089569E+02  0.29970442264E+02  0.00000000000E+00 0. -1.
</event>
<event>
 5    1  0.9041167E-005  0.9118800E+02  0.7818608E-02  0.1130116E+00
         25   -1    0    0    0    0  0.00000000000E+00  0.00000000000E+00  0.99999998245E-14  0.12500000000E+03  0.12500000000E+03 0.  0.
        -13    1    3    3    0    0 -0.15191152765E+02 -0.56044329906E+02 -0.26881530498E+01  0.58128954642E+02  0.10566000000E+00 0.  1.
         23    2    1    0    0    0  0.33426912357E+01 -0.25331716774E+02  0.11849787804E+02  0.96834650181E+02  0.92648057428E+02 0.  0.
         13    1    3    3    0    0  0.18533844001E+02  0.30712613132E+02  0.14537940854E+02  0.38705695539E+02  0.10566000000E+00 0. -1.
         22    1    1    0    0    0 -0.33426912357E+01  0.25331716774E+02 -0.11849787804E+02  0.28165349819E+02  0.00000000000E+00 0.  1.
</event>
<event>
 5    1  0.9041167E-005  0.9118800E+02  0.7818608E-02  0.1130116E+00
         25   -1    0    0    0    0  0.00000000000E+00  0.00000000000E+00  0.99999998245E-14  0.12500000000E+03  0.12500000000E+03 0.  0.
        -13    1    3    3    0    0 -0.49414873425E+02 -0.63614759319E+01 -0.10475047992E+02  0.50912040679E+02  0.10566000000E+00 0.  1.
         23    2    1    0    0    0 -0.20409178684E+02 -0.67669158831E+01  0.21849843176E+02  0.94344798616E+02  0.89225554938E+02 0.  0.
         13    1    3    3    0    0  0.29005694741E+02 -0.40543995114E+00  0.32324891168E+02  0.43432757937E+02  0.10566000000E+00 0. -1.
         22    1    1    0    0    0  0.20409178684E+02  0.67669158831E+01 -0.21849843176E+02  0.30655201384E+02  0.00000000000E+00 0.  1.
</event>
<event>
 5    1  0.9041167E-005  0.9118800E+02  0.7818608E-02  0.1130116E+00
         25   -1    0    0    0    0  0.00000000000E+00  0.00000000000E+00  0.99999998245E-14  0.12500000000E+03  0.12500000000E+03 0.  0.
        -13    1    3    3    0    0 -0.38404500776E+02  0.14828253826E+02  0.20063094273E+02  0.45796525056E+02  0.10566000000E+00 0.  1.
         23    2    1    0    0    0  0.46159142119E+01 -0.46609594349E+01  0.30195324455E+02  0.94100342626E+02  0.88882426027E+02 0.  0.
         13    1    3    3    0    0  0.43020414988E+02 -0.19489213261E+02  0.10132230183E+02  0.48303817570E+02  0.10566000000E+00 0. -1.
         22    1    1    0    0    0 -0.46159142119E+01  0.46609594349E+01 -0.30195324455E+02  0.30899657374E+02  0.00000000000E+00 0.  1.
</event>
<event>
 5    1  0.9041167E-005  0.9118800E+02  0.7818608E-02  0.1130116E+00
         25   -1    0    0    0    0  0.00000000000E+00  0.00000000000E+00  0.99999998245E-14  0.12500000000E+03  0.12500000000E+03 0.  0.
        -13    1    3    3    0    0 -0.99557105600E+01  0.34897151196E+02 -0.81264062632E+01  0.37188398422E+02  0.10566000000E+00 0.  1.
         23    2    1    0    0    0 -0.21750680223E+02 -0.17028884436E+02  0.12993652700E+02  0.94472798920E+02  0.89404696353E+02 0.  0.
         13    1    3    3    0    0 -0.11794969663E+02 -0.51926035632E+02  0.21120058963E+02  0.57284400499E+02  0.10566000000E+00 0. -1.
         22    1    1    0    0    0  0.21750680223E+02  0.17028884436E+02 -0.12993652700E+02  0.30527201080E+02  0.00000000000E+00 0. -1.
</event>
<event>
 5    1  0.9041167E-005  0.9118800E+02  0.7818608E-02  0.1130116E+00
         25   -1    0    0    0    0  0.00000000000E+00  0.00000000000E+00  0.99999998245E-14  0.12500000000E+03  0.12500000000E+03 0.  0.
        -13    1    3    3    0    0  0.27624033137E+02  0.12493390413E+02  0.23877009920E+02  0.38591382167E+02  0.10566000000E+00 0. -1.
         23    2    1    0    0    0 -0.20442700196E+02  0.22369146988E+02 -0.30137805154E+01  0.94547321936E+02  0.89508829085E+02 0.  0.
         13    1    3    3    0    0 -0.48066733333E+02  0.98757565743E+01 -0.26890790435E+02  0.55955939770E+02  0.10566000000E+00 0.  1.
         22    1    1    0    0    0  0.20442700196E+02 -0.22369146988E+02  0.30137805154E+01  0.30452678064E+02  0.00000000000E+00 0. -1.
</event>
<event>
 5    1  0.9041167E-005  0.9118800E+02  0.7818608E-02  0.1130116E+00
         25   -1    0    0    0    0  0.00000000000E+00  0.00000000000E+00  0.99999998245E-14  0.12500000000E+03  0.12500000000E+03 0.  0.
        -13    1    3    3    0    0 -0.76739550272E+01  0.49458138540E+02  0.13875731062E+02  0.51937887232E+02  0.10566000000E+00 0.  1.
         23    2    1    0    0    0  0.21066552346E+02  0.16976104707E+02  0.12144048058E+02  0.95344213684E+02  0.90614863135E+02 0.  0.
         13    1    3    3    0    0  0.28740507373E+02 -0.32482033833E+02 -0.17316830035E+01  0.43406326452E+02  0.10566000000E+00 0. -1.
         22    1    1    0    0    0 -0.21066552346E+02 -0.16976104707E+02 -0.12144048058E+02  0.29655786316E+02  0.00000000000E+00 0.  1.
</event>
<event>
 5    1  0.9041167E-005  0.9118800E+02  0.7818608E-02  0.1130116E+00
         25   -1    0    0    0    0  0.00000000000E+00  0.00000000000E+00  0.99999998245E-14  0.12500000000E+03  0.12500000000E+03 0.  0.
        -13    1    3    3    0    0 -0.40569141100E+02 -0.15368629903E+02 -0.39759247331E+02  0.58846061100E+02  0.10566000000E+00 0.  1.
         23    2    1    0    0    0 -0.26316115068E+02 -0.11811553946E+02 -0.61772738943E+01  0.95500687607E+02  0.90830456906E+02 0.  0.
         13    1    3    3    0    0  0.14253026032E+02  0.35570759569E+01  0.33581973436E+02  0.36654626507E+02  0.10566000000E+00 0. -1.
         22    1    1    0    0    0  0.26316115068E+02  0.11811553946E+02  0.61772738943E+01  0.29499312393E+02  0.00000000000E+00 0.  1.
</event>
<event>
 5    1  0.9041167E-005  0.9118800E+02  0.7818608E-02  0.1130116E+00
         25   -1    0    0    0    0  0.00000000000E+00  0.00000000000E+00  0.99999998245E-14  0.12500000000E+03  0.12500000000E+03 0.  0.
        -13    1    3    3    0    0 -0.25740083033E+01  0.17896795084E+02 -0.28870451413E+02  0.34065157006E+02  0.10566000000E+00 0. -1.
         23    2    1    0    0    0  0.16187206026E+02 -0.18544607236E+02  0.16621415840E+02  0.95298155596E+02  0.90551305341E+02 0.  0.
         13    1    3    3    0    0  0.18761214329E+02 -0.36441402321E+02  0.45491867253E+02  0.61232998590E+02  0.10566000000E+00 0.  1.
         22    1    1    0    0    0 -0.16187206026E+02  0.18544607236E+02 -0.16621415840E+02  0.29701844404E+02  0.00000000000E+00 0.  1.
</event>
<event>
 5    1  0.9041167E-005  0.9118800E+02  0.7818608E-02  0.1130116E+00
         25   -1    0    0    0    0  0.00000000000E+00  0.00000000000E+00  0.99999998245E-14  0.12500000000E+03  0.12500000000E+03 0.  0.
        -13    1    3    3    0    0 -0.38570196752E+02  0.11348214848E+02 -0.38305678756E+01  0.40387206786E+02  0.10566000000E+00 0. -1.
         23    2    1    0    0    0 -0.24429395765E+00 -0.25975108903E+02 -0.14951998770E+02  0.95027875796E+02  0.90177430375E+02 0.  0.
         13    1    3    3    0    0  0.38325902794E+02 -0.37323323750E+02 -0.11121430894E+02  0.54640669011E+02  0.10566000000E+00 0.  1.
         22    1    1    0    0    0  0.24429395765E+00  0.25975108903E+02  0.14951998770E+02  0.29972124204E+02  0.00000000000E+00 0.  1.
</event>
<event>
 5    1  0.9041167E-005  0.9118800E+02  0.7818608E-02  0.1130116E+00
         25   -1    0    0    0    0  0.00000000000E+00  0.00000000000E+00  0.99999998245E-14  0.12500000000E+03  0.12500000000E+03 0.  0.
        -13    1    3    3    0    0 -0.16775290028E+02  0.25666825513E+02 -0.36706813159E+02  0.47828836320E+02  0.10566000000E+00 0. -1.
         23    2    1    0    0    0  0.22523932495E+02  0.47876216552E+01 -0.16309029717E+02  0.96782393679E+02  0.92577526538E+02 0.  0.
         13    1    3    3    0    0  0.39299222524E+02 -0.20879203858E+02  0.20397783442E+02  0.48953557359E+02  0.10566000000E+00 0.  1.
         22    1    1    0    0    0 -0.22523932495E+02 -0.47876216552E+01  0.16309029717E+02  0.28217606321E+02  0.00000000000E+00 0. -1.
</event>
<event>
 5    1  0.9041167E-005  0.9118800E+02  0.7818608E-02  0.1130116E+00
         25   -1    0    0    0    0  0.00000000000E+00  0.00000000000E+00  0.99999998245E-14  0.12500000000E+03  0.12500000000E+03 0.  0.
        -13    1    3    3    0    0 -0.33609291843E+02 -0.85126066921E+01  0.17998382230E+02  0.39064074261E+02  0.10566000000E+00 0. -1.
         23    2    1    0    0    0  0.14991368286E+02  0.15082530301E+02  0.23425717272E+02  0.93361604448E+02  0.87837356017E+02 0.  0.
         13    1    3    3    0    0  0.48600660130E+02  0.23595136993E+02  0.54273350417E+01  0.54297530187E+02  0.10566000000E+00 0.  1.
         22    1    1    0    0    0 -0.14991368286E+02 -0.15082530301E+02 -0.23425717272E+02  0.31638395552E+02  0.00000000000E+00 0.  1.
</event>
<event>
 5    1  0.9041167E-005  0.9118800E+02  0.7818608E-02  0.1130116E+00
         25   -1    0    0    0    0  0.00000000000E+00  0.00000000000E+00  0.99999998245E-14  0.12500000000E+03  0.12500000000E+03 0.  0.
        -13    1    3    3    0    0 -0.24130162362E+02  0.45887884343E+02  0.71616145548E+01  0.52337964731E+02  0.10566000000E+00 0.  1.
         23    2    1    0    0    0 -0.14056902109E+02  0.16674592633E+02 -0.21420249069E+02  0.94430969813E+02  0.89346194398E+02 0.  0.
         13    1    3    3    0    0  0.10073260253E+02 -0.29213291710E+02 -0.28581863624E+02  0.42093005083E+02  0.10566000000E+00 0. -1.
         22    1    1    0    0    0  0.14056902109E+02 -0.16674592633E+02  0.21420249069E+02  0.30569030187E+02  0.00000000000E+00 0. -1.
</event>
<event>
 5    1  0.9041167E-005  0.9118800E+02  0.7818608E-02  0.1130116E+00
         25   -1    0    0    0    0  0.00000000000E+00  0.00000000000E+00  0.99999998245E-14  0.12500000000E+03  0.12500000000E+03 0.  0.
        -13    1    3    3    0    0  0.73542149451E+01 -0.59180338730E+02 -0.86547420255E+01  0.60260374155E+02  0.10566000000E+00 0. -1.
         23    2    1    0    0    0  0.10387002513E+02 -0.26589892221E+02  0.55119516000E+01  0.95926063218E+02  0.91413980356E+02 0.  0.
         13    1    3    3    0    0  0.30327875676E+01  0.32590446509E+02  0.14166693625E+02  0.35665689064E+02  0.10566000000E+00 0.  1.
         22    1    1    0    0    0 -0.10387002513E+02  0.26589892221E+02 -0.55119516000E+01  0.29073936782E+02  0.00000000000E+00 0. -1.
</event>
<event>
 5    1  0.9041167E-005  0.9118800E+02  0.7818608E-02  0.1130116E+00
         25   -1    0    0    0    0  0.00000000000E+00  0.00000000000E+00  0.99999998245E-14  0.12500000000E+03  0.12500000000E+03 0.  0.
        -13    1    3    3    0    0 -0.27206843388E+02  0.34524541197E+02 -0.70862666085E+01  0.44523955467E+02  0.10566000000E+00 0.  1.
         23    2    1    0    0    0 -0.22207979207E+02 -0.10823174659E+02  0.15910759262E+02  0.95614838601E+02  0.90987414790E+02 0.  0.
         13    1    3    3    0    0  0.49988641810E+01 -0.45347715856E+02  0.22997025871E+02  0.51090883134E+02  0.10566000000E+00 0. -1.
         22    1    1    0    0    0  0.22207979207E+02  0.10823174659E+02 -0.15910759262E+02  0.29385161399E+02  0.00000000000E+00 0. -1.
</event>
<event>
 5    1  0.9041167E-005  0.9118800E+02  0.7818608E-02  0.1130116E+00
         25   -1    0    0    0    0  0.00000000000E+00  0.00000000000E+00  0.99999998245E-14  0.12500000000E+03  0.12500000000E+03 0.  0.
        -13    1    3    3    0    0 -0.18570609153E+02  0.32896317981E+02 -0.43643223554E+02  0.57721550458E+02  0.10566000000E+00 0. -1.
         23    2    1    0    0    0  0.13433123690E+01  0.47237806373E+01 -0.29640856018E+02  0.94955051388E+02  0.90076427809E+02 0.  0.
         13    1    3    3    0    0  0.19913921522E+02 -0.28172537344E+02  0.14002367536E+02  0.37233500929E+02  0.10566000000E+00 0.  1.
         22    1    1    0    0    0 -0.13433123690E+01 -0.47237806373E+01  0.29640856018E+02  0.30044948612E+02  0.00000000000E+00 0. -1.
</event>
<event>
 5    1  0.9041167E-005  0.9118800E+02  0.7818608E-02  0.1130116E+00
         25   -1    0    0    0    0  0.00000000000E+00  0.00000000000E+00  0.99999998245E-14  0.12500000000E+03  0.12500000000E+03 0.  0.
        -13    1    3    3    0    0 -0.38956960291E+02 -0.13214762884E+02  0.11552006438E+02  0.42728617225E+02  0.10566000000E+00 0.  1.
         23    2    1    0    0    0  0.90963853958E+01 -0.28478023049E+02 -0.23001221429E+01  0.95016127903E+02  0.90161144490E+02 0.  0.
         13    1    3    3    0    0  0.48053345687E+02 -0.15263260165E+02 -0.13852128581E+02  0.52287510678E+02  0.10566000000E+00 0. -1.
         22    1    1    0    0    0 -0.90963853958E+01  0.28478023049E+02  0.23001221429E+01  0.29983872097E+02  0.00000000000E+00 0.  1.
</event>
<event>
 5    1  0.9041167E-005  0.9118800E+02  0.7818608E-02  0.1130116E+00
         25   -1    0    0    0    0  0.00000000000E+00  0.00000000000E+00  0.99999998245E-14  0.12500000000E+03  0.12500000000E+03 0.  0.
        -13    1    3    3    0    0  0.16942108944E+02  0.24486831509E+02 -0.35819795516E+02  0.46580134045E+02  0.10566000000E+00 0.  1.
         23    2    1    0    0    0  0.18914335426E+02 -0.18494611679E+02 -0.10259724173E+02  0.96626338166E+02  0.92366576972E+02 0.  0.
         13    1    3    3    0    0  0.19722264824E+01 -0.42981443188E+02  0.25560071343E+02  0.50046204121E+02  0.10566000000E+00 0. -1.
         22    1    1    0    0    0 -0.18914335426E+02  0.18494611679E+02  0.10259724173E+02  0.28373661834E+02  0.00000000000E+00 0. -1.
</event>
<event>
 5    1  0.9041167E-005  0.9118800E+02  0.7818608E-02  0.1130116E+00
         25   -1    0    0    0    0  0.00000000000E+00  0.00000000000E+00  0.99999998245E-14  0.12500000000E+03  0.12500000000E+03 0.  0.
        -13    1    3    3    0    0 -0.25221982808E+02 -0.82108365459E+01  0.35776780047E+02  0.44537123931E+02  0.10566000000E+00 0.  1.
         23    2    1    0    0    0  0.21997381032E+02  0.48877963130E+00  0.20510909278E+02  0.94919756032E+02  0.90027434752E+02 0.  0.
         13    1    3    3    0    0  0.47219363839E+02  0.86996161772E+01 -0.15265870769E+02  0.50382632101E+02  0.10566000000E+00 0. -1.
         22    1    1    0    0    0 -0.21997381032E+02 -0.48877963130E+00 -0.20510909278E+02  0.30080243968E+02  0.00000000000E+00 0. -1.
</event>
<event>
 5    1  0.9041167E-005  0.9118800E+02  0.7818608E-02  0.1130116E+00
         25   -1    0    0    0    0  0.00000000000E+00  0.00000000000E+00  0.99999998245E-14  0.12500000000E+03  0.12500000000E+03 0.  0.
        -13    1    3    3    0    0 -0.16655551911E+02 -0.27579001180E+02 -0.49421442883E+02  0.58995753205E+02  0.10566000000E+00 0.  1.
         23    2    1    0    0    0 -0.91028581083E+01  0.34238409867E+01 -0.21523677545E+02  0.10138107945E+03  0.98591428951E+02 0.  0.
         13    1    3    3    0    0  0.75526938032E+01  0.31002842166E+02  0.27897765338E+02  0.42385326246E+02  0.10566000000E+00 0. -1.
         22    1    1    0    0    0  0.91028581083E+01 -0.34238409867E+01  0.21523677545E+02  0.23618920549E+02  0.00000000000E+00 0.  1.
</event>
<event>
 5    1  0.9041167E-005  0.9118800E+02  0.7818608E-02  0.1130116E+00
         25   -1    0    0    0    0  0.00000000000E+00  0.00000000000E+00  0.99999998245E-14  0.12500000000E+03  0.12500000000E+03 0.  0.
        -13    1    3    3    0    0 -0.24027019537E+02  0.54172940042E+02 -0.55955357889E+01  0.59525845525E+02  0.10566000000E+00 0. -1.
         23    2    1    0    0    0  0.42696161024E+00  0.25266621814E+02 -0.10362858526E+02  0.97687488015E+02  0.93791641439E+02 0.  0.
         13    1    3    3    0    0  0.24453981148E+02 -0.28906318228E+02 -0.47673227367E+01  0.38161642490E+02  0.10566000000E+00 0.  1.
         22    1    1    0    0    0 -0.42696161024E+00 -0.25266621814E+02  0.10362858526E+02  0.27312511985E+02  0.00000000000E+00 0. -1.
</event>
<event>
 5    1  0.9041167E-005  0.9118800E+02  0.7818608E-02  0.1130116E+00
         25   -1    0    0    0    0  0.00000000000E+00  0.00000000000E+00  0.99999998245E-14  0.12500000000E+03  0.12500000000E+03 0.  0.
        -13    1    3    3    0    0 -0.27233319051E+02  0.23503534448E+02  0.29831093883E+02  0.46733019637E+02  0.10566000000E+00 0.  1.
         23    2    1    0    0    0 -0.71638243129E+01  0.42602523747E+02  0.25668420942E+02  0.74748997602E+02  0.55337594820E+02 0.  0.
         13    1    3    3    0    0  0.20069494738E+02  0.19098989298E+02 -0.41626729415E+01  0.28015977965E+02  0.10566000000E+00 0. -1.
         22    1    1    0    0    0  0.71638243129E+01 -0.42602523747E+02 -0.25668420942E+02  0.50251002398E+02  0.00000000000E+00 0. -1.
</event>
<event>
 5    1  0.9041167E-005  0.9118800E+02  0.7818608E-02  0.1130116E+00
         25   -1    0    0    0    0  0.00000000000E+00  0.00000000000E+00  0.99999998245E-14  0.12500000000E+03  0.12500000000E+03 0.  0.
        -13    1    3    3    0    0  0.12984771947E+01 -0.65458750195E+01 -0.35531464878E+02  0.36152879322E+02  0.10566000000E+00 0.  1.
         23    2    1    0    0    0 -0.12349642147E+02  0.73242908114E+00  0.24181991323E+02  0.97837179494E+02  0.93990929740E+02 0.  0.
         13    1    3    3    0    0 -0.13648119341E+02  0.72783041007E+01  0.59713456202E+02  0.61684300172E+02  0.10566000000E+00 0. -1.
         22    1    1    0    0    0  0.12349642147E+02 -0.73242908114E+00 -0.24181991323E+02  0.27162820506E+02  0.00000000000E+00 0. -1.
</event>
<event>
 5    1  0.9041167E-005  0.9118800E+02  0.7818608E-02  0.1130116E+00
         25   -1    0    0    0    0  0.00000000000E+00  0.00000000000E+00  0.99999998245E-14  0.12500000000E+03  0.12500000000E+03 0.  0.
        -13    1    3    3    0    0  0.49317108880E+02 -0.20337792941E+02  0.31614679898E+02  0.62010500716E+02  0.10566000000E+00 0. -1.
         23    2    1    0    0    0  0.11388387651E+02 -0.67680390163E+01  0.13184395677E+02  0.10630962775E+03  0.10465374784E+03 0.  0.
         13    1    3    3    0    0 -0.37928721229E+02  0.13569753925E+02 -0.18430284221E+02  0.44299127036E+02  0.10566000000E+00 0.  1.
         22    1    1    0    0    0 -0.11388387651E+02  0.67680390163E+01 -0.13184395677E+02  0.18690372248E+02  0.00000000000E+00 0. -1.
</event>
<event>
 5    1  0.9041167E-005  0.9118800E+02  0.7818608E-02  0.1130116E+00
         25   -1    0    0    0    0  0.00000000000E+00  0.00000000000E+00  0.99999998245E-14  0.12500000000E+03  0.12500000000E+03 0.  0.
        -13    1    3    3    0    0 -0.47335667377E+02  0.13778017534E+02  0.25660778487E+02  0.55578645988E+02  0.10566000000E+00 0.  1.
         23    2    1    0    0    0 -0.24763531264E+02  0.96694995691E+01 -0.88161799384E+01  0.96991845271E+02  0.92859901560E+02 0.  0.
         13    1    3    3    0    0  0.22572136113E+02 -0.41085179651E+01 -0.34476958426E+02  0.41413199283E+02  0.10566000000E+00 0. -1.
         22    1    1    0    0    0  0.24763531264E+02 -0.96694995691E+01  0.88161799384E+01  0.28008154729E+02  0.00000000000E+00 0.  1.
</event>
<event>
 5    1  0.9041167E-005  0.9118800E+02  0.7818608E-02  0.1130116E+00
         25   -1    0    0    0    0  0.00000000000E+00  0.00000000000E+00  0.99999998245E-14  0.12500000000E+03  0.12500000000E+03 0.  0.
        -13    1    3    3    0    0 -0.33202862581E+01  0.43231836811E+02 -0.32063809608E+02  0.53926941926E+02  0.10566000000E+00 0.  1.
         23    2    1    0    0    0 -0.16798628523E+02  0.24003638805E+02  0.23711508067E+01  0.95606276991E+02  0.90975651951E+02 0.  0.
         13    1    3    3    0    0 -0.13478342265E+02 -0.19228198005E+02  0.34434960414E+02  0.41679335066E+02  0.10566000000E+00 0. -1.
         22    1    1    0    0    0  0.16798628523E+02 -0.24003638805E+02 -0.23711508067E+01  0.29393723009E+02  0.00000000000E+00 0.  1.
</event>
<event>
 5    1  0.9041167E-005  0.9118800E+02  0.7818608E-02  0.1130116E+00
         25   -1    0    0    0    0  0.00000000000E+00  0.00000000000E+00  0.99999998245E-14  0.12500000000E+03  0.12500000000E+03 0.  0.
        -13    1    3    3    0    0 -0.11583077373E+02  0.24277742053E+02  0.24277337138E+02  0.36235020397E+02  0.10566000000E+00 0. -1.
         23    2    1    0    0    0  0.12979447223E+02 -0.26108277097E+02  0.56681693365E+01  0.95297536688E+02  0.90550450976E+02 0.  0.
         13    1    3    3    0    0  0.24562524596E+02 -0.50386019150E+02 -0.18609167801E+02  0.59062516291E+02  0.10566000000E+00 0.  1.
         22    1    1    0    0    0 -0.12979447223E+02  0.26108277097E+02 -0.56681693365E+01  0.29702463312E+02  0.00000000000E+00 0.  1.
</event>
<event>
 5    1  0.9041167E-005  0.9118800E+02  0.7818608E-02  0.1130116E+00
         25   -1    0    0    0    0  0.00000000000E+00  0.00000000000E+00  0.99999998245E-14  0.12500000000E+03  0.12500000000E+03 0.  0.
        -13    1    3    3    0    0 -0.13848649343E+02 -0.17827976023E+02  0.27570911535E+02  0.35634086835E+02  0.10566000000E+00 0.  1.
         23    2    1    0    0    0  0.63858903329E+01 -0.88696998844E+01 -0.27727656565E+02  0.95196072239E+02  0.90410276295E+02 0.  0.
         13    1    3    3    0    0  0.20234539676E+02  0.89582761383E+01 -0.55298568100E+02  0.59561985404E+02  0.10566000000E+00 0. -1.
         22    1    1    0    0    0 -0.63858903329E+01  0.88696998844E+01  0.27727656565E+02  0.29803927761E+02  0.00000000000E+00 0. -1.
</event>
<event>
 5    1  0.9041167E-005  0.9118800E+02  0.7818608E-02  0.1130116E+00
         25   -1    0    0    0    0  0.00000000000E+00  0.00000000000E+00  0.99999998245E-14  0.12500000000E+03  0.12500000000E+03 0.  0.
        -13    1    3    3    0    0  0.19174083862E+02 -0.43741375290E+02  0.35372564199E+02  0.59432170297E+02  0.10566000000E+00 0. -1.
         23    2    1    0    0    0  0.19790292104E+02 -0.22792028885E+02  0.82520177806E+01  0.93707380428E+02  0.88328053907E+02 0.  0.
         13    1    3    3    0    0  0.61620824207E+00  0.20949346406E+02 -0.27120546418E+02  0.34275210130E+02  0.10566000000E+00 0.  1.
         22    1    1    0    0    0 -0.19790292104E+02  0.22792028885E+02 -0.82520177806E+01  0.31292619572E+02  0.00000000000E+00 0. -1.
</event>
<event>
 5    1  0.9041167E-005  0.9118800E+02  0.7818608E-02  0.1130116E+00
         25   -1    0    0    0    0  0.00000000000E+00  0.00000000000E+00  0.99999998245E-14  0.12500000000E+03  0.12500000000E+03 0.  0.
        -13    1    3    3    0    0 -0.20255394436E+02  0.16266044116E+02 -0.33546888337E+02  0.42429589629E+02  0.10566000000E+00 0.  1.
         23    2    1    0    0    0  0.61954108713E+01  0.27426117449E+02  0.10482943745E+02  0.94992215281E+02  0.90127985777E+02 0.  0.
         13    1    3    3    0    0  0.26450805307E+02  0.11160073333E+02  0.44029832082E+02  0.52562625652E+02  0.10566000000E+00 0. -1.
         22    1    1    0    0    0 -0.61954108713E+01 -0.27426117449E+02 -0.10482943745E+02  0.30007784719E+02  0.00000000000E+00 0. -1.
</event>
<event>
 5    1  0.9041167E-005  0.9118800E+02  0.7818608E-02  0.1130116E+00
         25   -1    0    0    0    0  0.00000000000E+00  0.00000000000E+00  0.99999998245E-14  0.12500000000E+03  0.12500000000E+03 0.  0.
        -13    1    3    3    0    0  0.14851021986E+02 -0.18287907857E+02  0.51613660750E+02  0.56736069372E+02  0.10566000000E+00 0. -1.
         23    2    1    0    0    0 -0.34364613633E+01 -0.23449899253E+02  0.18423050748E+02  0.94981408418E+02  0.90112996313E+02 0.  0.
         13    1    3    3    0    0 -0.18287483350E+02 -0.51619913961E+01 -0.33190610001E+02  0.38245339046E+02  0.10566000000E+00 0.  1.
         22    1    1    0    0    0  0.34364613633E+01  0.23449899253E+02 -0.18423050748E+02  0.30018591582E+02  0.00000000000E+00 0. -1.
</event>
<event>
 5    1  0.9041167E-005  0.9118800E+02  0.7818608E-02  0.1130116E+00
         25   -1    0    0    0    0  0.00000000000E+00  0.00000000000E+00  0.99999998245E-14  0.12500000000E+03  0.12500000000E+03 0.  0.
        -13    1    3    3    0    0  0.56253018589E+02  0.10779061057E+02 -0.15557886642E+02  0.59351910319E+02  0.10566000000E+00 0. -1.
         23    2    1    0    0    0  0.27567685296E+02  0.11225059645E+02  0.52273383563E+01  0.94779075082E+02  0.89831891722E+02 0.  0.
         13    1    3    3    0    0 -0.28685333293E+02  0.44599858749E+00  0.20785224999E+02  0.35427164763E+02  0.10566000000E+00 0.  1.
         22    1    1    0    0    0 -0.27567685296E+02 -0.11225059645E+02 -0.52273383563E+01  0.30220924918E+02  0.00000000000E+00 0. -1.
</event>
<event>
 5    1  0.9041167E-005  0.9118800E+02  0.7818608E-02  0.1130116E+00
         25   -1    0    0    0    0  0.00000000000E+00  0.00000000000E+00  0.99999998245E-14  0.12500000000E+03  0.12500000000E+03 0.  0.
        -13    1    3    3    0    0  0.62582925159E+01 -0.27539115076E+02  0.49074870240E+02  0.56620871925E+02  0.10566000000E+00 0.  1.
         23    2    1    0    0    0  0.18418375873E+02 -0.14630472124E+01  0.23416223292E+02  0.95172217813E+02  0.90377289477E+02 0.  0.
         13    1    3    3    0    0  0.12160083357E+02  0.26076067864E+02 -0.25658646948E+02  0.38551345888E+02  0.10566000000E+00 0. -1.
         22    1    1    0    0    0 -0.18418375873E+02  0.14630472124E+01 -0.23416223292E+02  0.29827782187E+02  0.00000000000E+00 0.  1.
</event>
<event>
 5    1  0.9041167E-005  0.9118800E+02  0.7818608E-02  0.1130116E+00
         25   -1    0    0    0    0  0.00000000000E+00  0.00000000000E+00  0.99999998245E-14  0.12500000000E+03  0.12500000000E+03 0.  0.
        -13    1    3    3    0    0 -0.20515026199E+02  0.41538843620E+02 -0.58879212627E+01  0.46701398374E+02  0.10566000000E+00 0. -1.
         23    2    1    0    0    0  0.79022277321E+01 -0.22173277786E+01 -0.22171880076E+02  0.10135779173E+03  0.98561898995E+02 0.  0.
         13    1    3    3    0    0  0.28417253931E+02 -0.43756171399E+02 -0.16283958813E+02  0.54656393360E+02  0.10566000000E+00 0.  1.
         22    1    1    0    0    0 -0.79022277321E+01  0.22173277786E+01  0.22171880076E+02  0.23642208266E+02  0.00000000000E+00 0.  1.
</event>
<event>
 5    1  0.9041167E-005  0.9118800E+02  0.7818608E-02  0.1130116E+00
         25   -1    0    0    0    0  0.00000000000E+00  0.00000000000E+00  0.99999998245E-14  0.12500000000E+03  0.12500000000E+03 0.  0.
        -13    1    3    3    0    0  0.12609785288E+02  0.21445557878E+02 -0.50365167998E+02  0.56174548945E+02  0.10566000000E+00 0.  1.
         23    2    1    0    0    0 -0.13119942245E+02  0.25101327476E+01 -0.23732939365E+02  0.97766086182E+02  0.93896334037E+02 0.  0.
         13    1    3    3    0    0 -0.25729727532E+02 -0.18935425130E+02  0.26632228633E+02  0.41591537237E+02  0.10566000000E+00 0. -1.
         22    1    1    0    0    0  0.13119942245E+02 -0.25101327476E+01  0.23732939365E+02  0.27233913818E+02  0.00000000000E+00 0.  1.
</event>
<event>
 5    1  0.9041167E-005  0.9118800E+02  0.7818608E-02  0.1130116E+00
         25   -1    0    0    0    0  0.00000000000E+00  0.00000000000E+00  0.99999998245E-14  0.12500000000E+03  0.12500000000E+03 0.  0.
        -13    1    3    3    0    0  0.24458047974E+01  0.57596590143E+02 -0.19703241121E+02  0.60922721803E+02  0.10566000000E+00 0. -1.
         23    2    1    0    0    0 -0.73895405367E+01  0.28301660913E+02 -0.43527215479E+01  0.95427453532E+02  0.90729616900E+02 0.  0.
         13    1    3    3    0    0 -0.98353453340E+01 -0.29294929230E+02  0.15350519573E+02  0.34504731728E+02  0.10566000000E+00 0.  1.
         22    1    1    0    0    0  0.73895405367E+01 -0.28301660913E+02  0.43527215479E+01  0.29572546468E+02  0.00000000000E+00 0. -1.
</event>
<event>
 5    1  0.9041167E-005  0.9118800E+02  0.7818608E-02  0.1130116E+00
         25   -1    0    0    0    0  0.00000000000E+00  0.00000000000E+00  0.99999998245E-14  0.12500000000E+03  0.12500000000E+03 0.  0.
        -13    1    3    3    0    0  0.33183996894E+01  0.27007620508E+02 -0.55527702440E+02  0.61836560742E+02  0.10566000000E+00 0. -1.
         23    2    1    0    0    0 -0.48412353401E+01  0.12181276494E+02 -0.26433424996E+02  0.95494966300E+02  0.90822582957E+02 0.  0.
         13    1    3    3    0    0 -0.81596350295E+01 -0.14826344014E+02  0.29094277445E+02  0.33658405558E+02  0.10566000000E+00 0.  1.
         22    1    1    0    0    0  0.48412353401E+01 -0.12181276494E+02  0.26433424996E+02  0.29505033700E+02  0.00000000000E+00 0. -1.
</event>
<event>
 5    1  0.9041167E-005  0.9118800E+02  0.7818608E-02  0.1130116E+00
         25   -1    0    0    0    0  0.00000000000E+00  0.00000000000E+00  0.99999998245E-14  0.12500000000E+03  0.12500000000E+03 0.  0.
        -13    1    3    3    0    0  0.79049792375E+01 -0.76635200131E+01  0.56724571878E+02  0.57783271408E+02  0.10566000000E+00 0. -1.
         23    2    1    0    0    0 -0.69938289330E+01  0.93219758337E+01  0.30217547958E+02  0.92613072372E+02  0.86765592795E+02 0.  0.
         13    1    3    3    0    0 -0.14898808171E+02  0.16985495847E+02 -0.26507023921E+02  0.34829800965E+02  0.10566000000E+00 0.  1.
         22    1    1    0    0    0  0.69938289330E+01 -0.93219758337E+01 -0.30217547958E+02  0.32386927628E+02  0.00000000000E+00 0.  1.
</event>
<event>
 5    1  0.9041167E-005  0.9118800E+02  0.7818608E-02  0.1130116E+00
         25   -1    0    0    0    0  0.00000000000E+00  0.00000000000E+00  0.99999998245E-14  0.12500000000E+03  0.12500000000E+03 0.  0.
        -13    1    3    3    0    0 -0.23505620753E+02 -0.23319227341E+02 -0.29313014464E+02  0.44221765589E+02  0.10566000000E+00 0.  1.
         23    2    1    0    0    0 -0.21993456428E+01  0.22584504172E+02 -0.17895152354E+02  0.96101324811E+02  0.91653320740E+02 0.  0.
         13    1    3    3    0    0  0.21306275111E+02  0.45903731513E+02  0.11417862110E+02  0.51879559222E+02  0.10566000000E+00 0. -1.
         22    1    1    0    0    0  0.21993456428E+01 -0.22584504172E+02  0.17895152354E+02  0.28898675189E+02  0.00000000000E+00 0.  1.
</event>
<event>
 5    1  0.9041167E-005  0.9118800E+02  0.7818608E-02  0.1130116E+00
         25   -1    0    0    0    0  0.00000000000E+00  0.00000000000E+00  0.99999998245E-14  0.12500000000E+03  0.12500000000E+03 0.  0.
        -13    1    3    3    0    0 -0.57632442507E+01  0.39993235761E+02  0.18716451320E+02  0.44530782667E+02  0.10566000000E+00 0. -1.
         23    2    1    0    0    0  0.28787859101E+01  0.14032080858E+02 -0.25048351168E+02  0.96145076715E+02  0.91712971704E+02 0.  0.
         13    1    3    3    0    0  0.86420301608E+01 -0.25961154903E+02 -0.43764802489E+02  0.51614294048E+02  0.10566000000E+00 0.  1.
         22    1    1    0    0    0 -0.28787859101E+01 -0.14032080858E+02  0.25048351168E+02  0.28854923285E+02  0.00000000000E+00 0.  1.
</event>
<event>
 5    1  0.9041167E-005  0.9118800E+02  0.7818608E-02  0.1130116E+00
         25   -1    0    0    0    0  0.00000000000E+00  0.00000000000E+00  0.99999998245E-14  0.12500000000E+03  0.12500000000E+03 0.  0.
        -13    1    3    3    0    0 -0.11155980159E+02 -0.86523934402E+01  0.13743578446E+02  0.19703221008E+02  0.10566000000E+00 0. -1.
         23    2    1    0    0    0  0.24693919678E+02  0.38096250782E+02  0.38869073138E+01  0.79434420434E+02  0.65066159472E+02 0.  0.
         13    1    3    3    0    0  0.35849899837E+02  0.46748644223E+02 -0.98566711321E+01  0.59731199426E+02  0.10566000000E+00 0.  1.
         22    1    1    0    0    0 -0.24693919678E+02 -0.38096250782E+02 -0.38869073138E+01  0.45565579566E+02  0.00000000000E+00 0.  1.
</event>
<event>
 5    1  0.9041167E-005  0.9118800E+02  0.7818608E-02  0.1130116E+00
         25   -1    0    0    0    0  0.00000000000E+00  0.00000000000E+00  0.99999998245E-14  0.12500000000E+03  0.12500000000E+03 0.  0.
        -13    1    3    3    0    0 -0.52769117356E+02 -0.18540131126E+02 -0.20131016921E+02  0.59443967019E+02  0.10566000000E+00 0.  1.
         23    2    1    0    0    0 -0.17730088691E+02 -0.87647899151E+01 -0.21421725637E+02  0.95844075791E+02  0.91301801448E+02 0.  0.
         13    1    3    3    0    0  0.35039028665E+02  0.97753412113E+01 -0.12907087161E+01  0.36400108771E+02  0.10566000000E+00 0. -1.
         22    1    1    0    0    0  0.17730088691E+02  0.87647899151E+01  0.21421725637E+02  0.29155924209E+02  0.00000000000E+00 0.  1.
</event>
<event>
 5    1  0.9041167E-005  0.9118800E+02  0.7818608E-02  0.1130116E+00
         25   -1    0    0    0    0  0.00000000000E+00  0.00000000000E+00  0.99999998245E-14  0.12500000000E+03  0.12500000000E+03 0.  0.
        -13    1    3    3    0    0  0.20542074898E+01 -0.30291940334E+02  0.11956889897E+02  0.32631270243E+02  0.10566000000E+00 0. -1.
         23    2    1    0    0    0  0.89019627319E+01  0.29049691415E+02  0.11907797712E+02  0.92366808950E+02  0.86410081804E+02 0.  0.
         13    1    3    3    0    0  0.68477552421E+01  0.59341631749E+02 -0.49092185335E-01  0.59735538707E+02  0.10566000000E+00 0.  1.
         22    1    1    0    0    0 -0.89019627319E+01 -0.29049691415E+02 -0.11907797712E+02  0.32633191050E+02  0.00000000000E+00 0.  1.
</event>
<event>
 5    1  0.9041167E-005  0.9118800E+02  0.7818608E-02  0.1130116E+00
         25   -1    0    0    0    0  0.00000000000E+00  0.00000000000E+00  0.99999998245E-14  0.12500000000E+03  0.12500000000E+03 0.  0.
        -13    1    3    3    0    0 -0.41350974236E+02 -0.31424016091E+01 -0.43436919822E+02  0.60054599539E+02  0.10566000000E+00 0. -1.
         23    2    1    0    0    0 -0.20510888782E+02 -0.12707905670E+02 -0.14984630441E+02  0.96597067500E+02  0.92326956383E+02 0.  0.
         13    1    3    3    0    0  0.20840085454E+02 -0.95655040606E+01  0.28452289381E+02  0.36542467961E+02  0.10566000000E+00 0.  1.
         22    1    1    0    0    0  0.20510888782E+02  0.12707905670E+02  0.14984630441E+02  0.28402932500E+02  0.00000000000E+00 0. -1.
</event>
<event>
 5    1  0.9041167E-005  0.9118800E+02  0.7818608E-02  0.1130116E+00
         25   -1    0    0    0    0  0.00000000000E+00  0.00000000000E+00  0.99999998245E-14  0.12500000000E+03  0.12500000000E+03 0.  0.
        -13    1    3    3    0    0 -0.42005128120E+01  0.27879971108E+02  0.40952004726E+02  0.49719361943E+02  0.10566000000E+00 0. -1.
         23    2    1    0    0    0 -0.26250612443E+02  0.12636905354E+02  0.36731017404E+01  0.95635434501E+02  0.91015705377E+02 0.  0.
         13    1    3    3    0    0 -0.22050099631E+02 -0.15243065754E+02 -0.37278902986E+02  0.45916072558E+02  0.10566000000E+00 0.  1.
         22    1    1    0    0    0  0.26250612443E+02 -0.12636905354E+02 -0.36731017404E+01  0.29364565499E+02  0.00000000000E+00 0. -1.
</event>
<event>
 5    1  0.9041167E-005  0.9118800E+02  0.7818608E-02  0.1130116E+00
         25   -1    0    0    0    0  0.00000000000E+00  0.00000000000E+00  0.99999998245E-14  0.12500000000E+03  0.12500000000E+03 0.  0.
        -13    1    3    3    0    0 -0.16869000418E+02 -0.38015398687E+02 -0.17600564801E+02  0.45161097836E+02  0.10566000000E+00 0. -1.
         23    2    1    0    0    0  0.22899226884E+02 -0.75588520027E+01 -0.17418312401E+02  0.95252589316E+02  0.90488382288E+02 0.  0.
         13    1    3    3    0    0  0.39768227303E+02  0.30456546684E+02  0.18225240020E+00  0.50091491480E+02  0.10566000000E+00 0.  1.
         22    1    1    0    0    0 -0.22899226884E+02  0.75588520027E+01  0.17418312401E+02  0.29747410684E+02  0.00000000000E+00 0. -1.
</event>
<event>
 5    1  0.9041167E-005  0.9118800E+02  0.7818608E-02  0.1130116E+00
         25   -1    0    0    0    0  0.00000000000E+00  0.00000000000E+00  0.99999998245E-14  0.12500000000E+03  0.12500000000E+03 0.  0.
        -13    1    3    3    0    0  0.16555511534E+02  0.23497765393E+02 -0.22205740464E+02  0.36322665296E+02  0.10566000000E+00 0.  1.
         23    2    1    0    0    0 -0.24383279740E+02 -0.53027369370E+01  0.12361003276E+02  0.97152957933E+02  0.93076524877E+02 0.  0.
         13    1    3    3    0    0 -0.40938791274E+02 -0.28800502330E+02  0.34566743740E+02  0.60830292637E+02  0.10566000000E+00 0. -1.
         22    1    1    0    0    0  0.24383279740E+02  0.53027369370E+01 -0.12361003276E+02  0.27847042067E+02  0.00000000000E+00 0. -1.
</event>
<event>
 5    1  0.9041167E-005  0.9118800E+02  0.7818608E-02  0.1130116E+00
         25   -1    0    0    0    0  0.00000000000E+00  0.00000000000E+00  0.99999998245E-14  0.12500000000E+03  0.12500000000E+03 0.  0.
        -13    1    3    3    0    0  0.25086562007E+02 -0.29419629298E+02  0.47195300572E+00  0.38666317190E+02  0.10566000000E+00 0.  1.
         23    2    1    0    0    0  0.12042438888E+01  0.13504346810E+02 -0.26883964371E+02  0.94890780043E+02  0.89987193593E+02 0.  0.
         13    1    3    3    0    0 -0.23882318118E+02  0.42923976107E+02 -0.27355917377E+02  0.56224462853E+02  0.10566000000E+00 0. -1.
         22    1    1    0    0    0 -0.12042438888E+01 -0.13504346810E+02  0.26883964371E+02  0.30109219957E+02  0.00000000000E+00 0. -1.
</event>
<event>
 5    1  0.9041167E-005  0.9118800E+02  0.7818608E-02  0.1130116E+00
         25   -1    0    0    0    0  0.00000000000E+00  0.00000000000E+00  0.99999998245E-14  0.12500000000E+03  0.12500000000E+03 0.  0.
        -13    1    3    3    0    0  0.24079910964E+02 -0.21689284193E+02  0.15417438337E+02  0.35888378757E+02  0.10566000000E+00 0. -1.
         23    2    1    0    0    0 -0.10020229447E+02  0.21076528046E+02  0.24307654844E+02  0.91303010273E+02  0.84857248177E+02 0.  0.
         13    1    3    3    0    0 -0.34100140411E+02  0.42765812239E+02  0.88902165070E+01  0.55414631516E+02  0.10566000000E+00 0.  1.
         22    1    1    0    0    0  0.10020229447E+02 -0.21076528046E+02 -0.24307654844E+02  0.33696989727E+02  0.00000000000E+00 0.  1.
</event>
<event>
 5    1  0.9041167E-005  0.9118800E+02  0.7818608E-02  0.1130116E+00
         25   -1    0    0    0    0  0.00000000000E+00  0.00000000000E+00  0.99999998245E-14  0.12500000000E+03  0.12500000000E+03 0.  0.
        -13    1    3    3    0    0 -0.13893263942E+01 -0.20097233498E+02  0.47842588419E+02  0.51911014754E+02  0.10566000000E+00 0. -1.
         23    2    1    0    0    0  0.23731834136E+02 -0.11019524954E+01  0.20206207838E+02  0.93811779692E+02  0.88475674188E+02 0.  0.
         13    1    3    3    0    0  0.25121160530E+02  0.18995281002E+02 -0.27636380581E+02  0.41900764938E+02  0.10566000000E+00 0.  1.
         22    1    1    0    0    0 -0.23731834136E+02  0.11019524954E+01 -0.20206207838E+02  0.31188220308E+02  0.00000000000E+00 0. -1.
</event>
<event>
 5    1  0.9041167E-005  0.9118800E+02  0.7818608E-02  0.1130116E+00
         25   -1    0    0    0    0  0.00000000000E+00  0.00000000000E+00  0.99999998245E-14  0.12500000000E+03  0.12500000000E+03 0.  0.
        -13    1    3    3    0    0 -0.31506033971E+02 -0.38824206480E+02 -0.13094789544E+02  0.51685915515E+02  0.10566000000E+00 0. -1.
         23    2    1    0    0    0  0.63600825835E+01 -0.10217479753E+02 -0.21954411101E+02  0.99963152959E+02  0.96777002638E+02 0.  0.
         13    1    3    3    0    0  0.37866116554E+02  0.28606726728E+02 -0.88596215569E+01  0.48277237443E+02  0.10566000000E+00 0.  1.
         22    1    1    0    0    0 -0.63600825835E+01  0.10217479753E+02  0.21954411101E+02  0.25036847041E+02  0.00000000000E+00 0.  1.
</event>
<event>
 5    1  0.9041167E-005  0.9118800E+02  0.7818608E-02  0.1130116E+00
         25   -1    0    0    0    0  0.00000000000E+00  0.00000000000E+00  0.99999998245E-14  0.12500000000E+03  0.12500000000E+03 0.  0.
        -13    1    3    3    0    0  0.14933708929E+02  0.22850267591E+02  0.26902102504E+02  0.38326031291E+02  0.10566000000E+00 0.  1.
         23    2    1    0    0    0 -0.28952046930E+01 -0.26570404964E+02 -0.18336823516E+01  0.98209497557E+02  0.94484783904E+02 0.  0.
         13    1    3    3    0    0 -0.17828913622E+02 -0.49420672555E+02 -0.28735784856E+02  0.59883466266E+02  0.10566000000E+00 0. -1.
         22    1    1    0    0    0  0.28952046930E+01  0.26570404964E+02  0.18336823516E+01  0.26790502443E+02  0.00000000000E+00 0. -1.
</event>
<event>
 5    1  0.9041167E-005  0.9118800E+02  0.7818608E-02  0.1130116E+00
         25   -1    0    0    0    0  0.00000000000E+00  0.00000000000E+00  0.99999998245E-14  0.12500000000E+03  0.12500000000E+03 0.  0.
        -13    1    3    3    0    0 -0.10918613715E+02  0.21693945843E+01 -0.42932138691E+02  0.44352024699E+02  0.10566000000E+00 0. -1.
         23    2    1    0    0    0 -0.31114571933E+02 -0.35336378115E+01  0.16660999473E+01  0.93641124513E+02  0.88234240113E+02 0.  0.
         13    1    3    3    0    0 -0.20195958218E+02 -0.57030323958E+01  0.44598238638E+02  0.49289099814E+02  0.10566000000E+00 0.  1.
         22    1    1    0    0    0  0.31114571933E+02  0.35336378115E+01 -0.16660999473E+01  0.31358875487E+02  0.00000000000E+00 0. -1.
</event>
<event>
 5    1  0.9041167E-005  0.9118800E+02  0.7818608E-02  0.1130116E+00
         25   -1    0    0    0    0  0.00000000000E+00  0.00000000000E+00  0.99999998245E-14  0.12500000000E+03  0.12500000000E+03 0.  0.
        -13    1    3    3    0    0  0.34934421627E+02  0.22069257748E+02  0.37674549235E+02  0.55918232948E+02  0.10566000000E+00 0. -1.
         23    2    1    0    0    0  0.13407589101E+01  0.24109142457E+02  0.13724828928E+02  0.97225563668E+02  0.93173981974E+02 0.  0.
         13    1    3    3    0    0 -0.33593662717E+02  0.20398847088E+01 -0.23949720307E+02  0.41307330720E+02  0.10566000000E+00 0.  1.
         22    1    1    0    0    0 -0.13407589101E+01 -0.24109142457E+02 -0.13724828928E+02  0.27774436332E+02  0.00000000000E+00 0. -1.
</event>
<event>
 5    1  0.9041167E-005  0.9118800E+02  0.7818608E-02  0.1130116E+00
         25   -1    0    0    0    0  0.00000000000E+00  0.00000000000E+00  0.99999998245E-14  0.12500000000E+03  0.12500000000E+03 0.  0.
        -13    1    3    3    0    0  0.21471142309E+02 -0.33865550558E+02  0.16045280390E+02  0.43189670681E+02  0.10566000000E+00 0.  1.
         23    2    1    0    0    0 -0.24452449574E+02 -0.10157292029E+02  0.14312631382E+02  0.94901091571E+02  0.90001516059E+02 0.  0.
         13    1    3    3    0    0 -0.45923591883E+02  0.23708258530E+02 -0.17326490072E+01  0.51711420891E+02  0.10566000000E+00 0. -1.
         22    1    1    0    0    0  0.24452449574E+02  0.10157292029E+02 -0.14312631382E+02  0.30098908429E+02  0.00000000000E+00 0. -1.
</event>
<event>
 5    1  0.9041167E-005  0.9118800E+02  0.7818608E-02  0.1130116E+00
         25   -1    0    0    0    0  0.00000000000E+00  0.00000000000E+00  0.99999998245E-14  0.12500000000E+03  0.12500000000E+03 0.  0.
        -13    1    3    3    0    0  0.43088064096E+01 -0.27863827103E+01 -0.33357482362E+02  0.33750000516E+02  0.10566000000E+00 0. -1.
         23    2    1    0    0    0  0.10548442182E+02 -0.24838055766E+01  0.27767122012E+02  0.95193088260E+02  0.90406150593E+02 0.  0.
         13    1    3    3    0    0  0.62396357726E+01  0.30257713370E+00  0.61124604375E+02  0.61443087744E+02  0.10566000000E+00 0.  1.
         22    1    1    0    0    0 -0.10548442182E+02  0.24838055766E+01 -0.27767122012E+02  0.29806911740E+02  0.00000000000E+00 0.  1.
</event>
<event>
 5    1  0.9041167E-005  0.9118800E+02  0.7818608E-02  0.1130116E+00
         25   -1    0    0    0    0  0.00000000000E+00  0.00000000000E+00  0.99999998245E-14  0.12500000000E+03  0.12500000000E+03 0.  0.
        -13    1    3    3    0    0 -0.30147415399E+01 -0.48602321407E+02 -0.19353974417E+01  0.48734292239E+02  0.10566000000E+00 0. -1.
         23    2    1    0    0    0  0.25953072280E+02 -0.10366170588E+02 -0.41038405617E+01  0.96753567291E+02  0.92538596395E+02 0.  0.
         13    1    3    3    0    0  0.28967813820E+02  0.38236150819E+02 -0.21684431200E+01  0.48019275052E+02  0.10566000000E+00 0.  1.
         22    1    1    0    0    0 -0.25953072280E+02  0.10366170588E+02  0.41038405617E+01  0.28246432709E+02  0.00000000000E+00 0. -1.
</event>
<event>
 5    1  0.9041167E-005  0.9118800E+02  0.7818608E-02  0.1130116E+00
         25   -1    0    0    0    0  0.00000000000E+00  0.00000000000E+00  0.99999998245E-14  0.12500000000E+03  0.12500000000E+03 0.  0.
        -13    1    3    3    0    0 -0.44517579608E+02 -0.38161450957E+01  0.37077208224E+02  0.58061246898E+02  0.10566000000E+00 0. -1.
         23    2    1    0    0    0 -0.21926546867E+02  0.14382589986E+02  0.13153191570E+02  0.95663353963E+02  0.91054041595E+02 0.  0.
         13    1    3    3    0    0  0.22591032741E+02  0.18198735081E+02 -0.23924016654E+02  0.37602107065E+02  0.10566000000E+00 0.  1.
         22    1    1    0    0    0  0.21926546867E+02 -0.14382589986E+02 -0.13153191570E+02  0.29336646037E+02  0.00000000000E+00 0. -1.
</event>
<event>
 5    1  0.9041167E-005  0.9118800E+02  0.7818608E-02  0.1130116E+00
         25   -1    0    0    0    0  0.00000000000E+00  0.00000000000E+00  0.99999998245E-14  0.12500000000E+03  0.12500000000E+03 0.  0.
        -13    1    3    3    0    0 -0.34771312348E+02 -0.28699842203E+02  0.38891065499E+02  0.59542012433E+02  0.10566000000E+00 0. -1.
         23    2    1    0    0    0 -0.86455290489E+01 -0.68109876585E+01  0.27336803243E+02  0.95530769658E+02  0.90871846104E+02 0.  0.
         13    1    3    3    0    0  0.26125783299E+02  0.21888854544E+02 -0.11554262256E+02  0.35988757225E+02  0.10566000000E+00 0.  1.
         22    1    1    0    0    0  0.86455290489E+01  0.68109876585E+01 -0.27336803243E+02  0.29469230342E+02  0.00000000000E+00 0. -1.
</event>
<event>
 5    1  0.9041167E-005  0.9118800E+02  0.7818608E-02  0.1130116E+00
         25   -1    0    0    0    0  0.00000000000E+00  0.00000000000E+00  0.99999998245E-14  0.12500000000E+03  0.12500000000E+03 0.  0.
        -13    1    3    3    0    0  0.23074479229E+02 -0.31863491095E+02  0.40480875329E+02  0.56448437426E+02  0.10566000000E+00 0.  1.
         23    2    1    0    0    0  0.25066194871E+02 -0.80252110056E+01  0.67008528899E+01  0.97840847464E+02  0.93995807705E+02 0.  0.
         13    1    3    3    0    0  0.19917156422E+01  0.23838280089E+02 -0.33780022439E+02  0.41392410038E+02  0.10566000000E+00 0. -1.
         22    1    1    0    0    0 -0.25066194871E+02  0.80252110056E+01 -0.67008528899E+01  0.27159152536E+02  0.00000000000E+00 0.  1.
</event>
<event>
 5    1  0.9041167E-005  0.9118800E+02  0.7818608E-02  0.1130116E+00
         25   -1    0    0    0    0  0.00000000000E+00  0.00000000000E+00  0.99999998245E-14  0.12500000000E+03  0.12500000000E+03 0.  0.
        -13    1    3    3    0    0  0.49501491913E+02  0.10164892932E+02  0.14526526838E+02  0.52580927112E+02  0.10566000000E+00 0. -1.
         23    2    1    0    0    0  0.14167344865E+02  0.25910373927E+02 -0.35073477463E+01  0.95261764919E+02  0.90501056511E+02 0.  0.
         13    1    3    3    0    0 -0.35334147048E+02  0.15745480994E+02 -0.18033874584E+02  0.42680837807E+02  0.10566000000E+00 0.  1.
         22    1    1    0    0    0 -0.14167344865E+02 -0.25910373927E+02  0.35073477463E+01  0.29738235081E+02  0.00000000000E+00 0. -1.
</event>
<event>
 5    1  0.9041167E-005  0.9118800E+02  0.7818608E-02  0.1130116E+00
         25   -1    0    0    0    0  0.00000000000E+00  0.00000000000E+00  0.99999998245E-14  0.12500000000E+03  0.12500000000E+03 0.  0.
        -13    1    3    3    0    0 -0.21817356484E+02  0.23550794400E+02 -0.20456082302E+02  0.38067038602E+02  0.10566000000E+00 0.  1.
         23    2    1    0    0    0  0.11709381591E+02 -0.90273213597E+01  0.20163146393E+02  0.99996907778E+02  0.96820591532E+02 0.  0.
         13    1    3    3    0    0  0.33526738075E+02 -0.32578115759E+02  0.40619228695E+02  0.61929869176E+02  0.10566000000E+00 0. -1.
         22    1    1    0    0    0 -0.11709381591E+02  0.90273213597E+01 -0.20163146393E+02  0.25003092222E+02  0.00000000000E+00 0. -1.
</event>
<event>
 5    1  0.9041167E-005  0.9118800E+02  0.7818608E-02  0.1130116E+00
         25   -1    0    0    0    0  0.00000000000E+00  0.00000000000E+00  0.99999998245E-14  0.12500000000E+03  0.12500000000E+03 0.  0.
        -13    1    3    3    0    0 -0.19303601443E+00  0.73735767995E+01 -0.20642456144E+02  0.21920973003E+02  0.10566000000E+00 0.  1.
         23    2    1    0    0    0  0.30923831261E+02 -0.28883774892E+02  0.13430100754E+02  0.80604916960E+02  0.67277256484E+02 0.  0.
         13    1    3    3    0    0  0.31116867275E+02 -0.36257351692E+02  0.34072556898E+02  0.58683943957E+02  0.10566000000E+00 0. -1.
         22    1    1    0    0    0 -0.30923831261E+02  0.28883774892E+02 -0.13430100754E+02  0.44395083040E+02  0.00000000000E+00 0. -1.
</event>
<event>
 5    1  0.9041167E-005  0.9118800E+02  0.7818608E-02  0.1130116E+00
         25   -1    0    0    0    0  0.00000000000E+00  0.00000000000E+00  0.99999998245E-14  0.12500000000E+03  0.12500000000E+03 0.  0.
        -13    1    3    3    0    0 -0.29751449959E+02  0.33617981815E+02  0.21605705637E+02  0.49821031263E+02  0.10566000000E+00 0.  1.
         23    2    1    0    0    0  0.24446379617E+01  0.23567975484E+01  0.29430569914E+02  0.95374180266E+02  0.90656191551E+02 0.  0.
         13    1    3    3    0    0  0.32196087921E+02 -0.31261184266E+02  0.78248642773E+01  0.45553149003E+02  0.10566000000E+00 0. -1.
         22    1    1    0    0    0 -0.24446379617E+01 -0.23567975484E+01 -0.29430569914E+02  0.29625819734E+02  0.00000000000E+00 0. -1.
</event>
<event>
 5    1  0.9041167E-005  0.9118800E+02  0.7818608E-02  0.1130116E+00
         25   -1    0    0    0    0  0.00000000000E+00  0.00000000000E+00  0.99999998245E-14  0.12500000000E+03  0.12500000000E+03 0.  0.
        -13    1    3    3    0    0 -0.51113019891E+02 -0.31684786164E+02  0.71673406716E+01  0.60562764245E+02  0.10566000000E+00 0.  1.
         23    2    1    0    0    0 -0.17599179733E+02 -0.23071490359E+02 -0.38187149207E+00  0.95979823907E+02  0.91487463494E+02 0.  0.
         13    1    3    3    0    0  0.33513840158E+02  0.86132958050E+01 -0.75492121637E+01  0.35417059662E+02  0.10566000000E+00 0. -1.
         22    1    1    0    0    0  0.17599179733E+02  0.23071490359E+02  0.38187149207E+00  0.29020176093E+02  0.00000000000E+00 0.  1.
</event>
<event>
 5    1  0.9041167E-005  0.9118800E+02  0.7818608E-02  0.1130116E+00
         25   -1    0    0    0    0  0.00000000000E+00  0.00000000000E+00  0.99999998245E-14  0.12500000000E+03  0.12500000000E+03 0.  0.
        -13    1    3    3    0    0 -0.16994585984E+02 -0.18755267931E+02  0.28405471238E+02  0.38045472637E+02  0.10566000000E+00 0.  1.
         23    2    1    0    0    0 -0.14055367160E+02  0.17407737417E+02 -0.17526493930E+02  0.96578869525E+02  0.92302315146E+02 0.  0.
         13    1    3    3    0    0  0.29392188238E+01  0.36163005348E+02 -0.45931965167E+02  0.58533396888E+02  0.10566000000E+00 0. -1.
         22    1    1    0    0    0  0.14055367160E+02 -0.17407737417E+02  0.17526493930E+02  0.28421130475E+02  0.00000000000E+00 0. -1.
</event>
<event>
 5    1  0.9041167E-005  0.9118800E+02  0.7818608E-02  0.1130116E+00
         25   -1    0    0    0    0  0.00000000000E+00  0.00000000000E+00  0.99999998245E-14  0.12500000000E+03  0.12500000000E+03 0.  0.
        -13    1    3    3    0    0  0.11500715819E+02 -0.39721650284E+02  0.27352336748E+02  0.49580615721E+02  0.10566000000E+00 0. -1.
         23    2    1    0    0    0 -0.12206324196E+02 -0.24637837132E+02 -0.94874753139E+01  0.95913412769E+02  0.91396680422E+02 0.  0.
         13    1    3    3    0    0 -0.23707040015E+02  0.15083813152E+02 -0.36839812062E+02  0.46332797048E+02  0.10566000000E+00 0.  1.
         22    1    1    0    0    0  0.12206324196E+02  0.24637837132E+02  0.94874753139E+01  0.29086587231E+02  0.00000000000E+00 0. -1.
</event>
<event>
 5    1  0.9041167E-005  0.9118800E+02  0.7818608E-02  0.1130116E+00
         25   -1    0    0    0    0  0.00000000000E+00  0.00000000000E+00  0.99999998245E-14  0.12500000000E+03  0.12500000000E+03 0.  0.
        -13    1    3    3    0    0 -0.34412501788E+02  0.57015349274E+00  0.50769366537E+02  0.61335838601E+02  0.10566000000E+00 0.  1.
         23    2    1    0    0    0 -0.12566190248E+02  0.79766664241E+01  0.24847966306E+02  0.96035232193E+02  0.91563136950E+02 0.  0.
         13    1    3    3    0    0  0.21846311540E+02  0.74065129313E+01 -0.25921400230E+02  0.34699393592E+02  0.10566000000E+00 0. -1.
         22    1    1    0    0    0  0.12566190248E+02 -0.79766664241E+01 -0.24847966306E+02  0.28964767807E+02  0.00000000000E+00 0.  1.
</event>
<event>
 5    1  0.9041167E-005  0.9118800E+02  0.7818608E-02  0.1130116E+00
         25   -1    0    0    0    0  0.00000000000E+00  0.00000000000E+00  0.99999998245E-14  0.12500000000E+03  0.12500000000E+03 0.  0.
        -13    1    3    3    0    0  0.22789644411E+02 -0.37115771119E+02 -0.36537226488E+02  0.56850052257E+02  0.10566000000E+00 0.  1.
         23    2    1    0    0    0 -0.31447400589E+01 -0.61351504283E+01 -0.25286879044E+02  0.98790160004E+02  0.95249881895E+02 0.  0.
         13    1    3    3    0    0 -0.25934384470E+02  0.30980620691E+02  0.11250347444E+02  0.41940107747E+02  0.10566000000E+00 0. -1.
         22    1    1    0    0    0  0.31447400589E+01  0.61351504283E+01  0.25286879044E+02  0.26209839996E+02  0.00000000000E+00 0.  1.
</event>
<event>
 5    1  0.9041167E-005  0.9118800E+02  0.7818608E-02  0.1130116E+00
         25   -1    0    0    0    0  0.00000000000E+00  0.00000000000E+00  0.99999998245E-14  0.12500000000E+03  0.12500000000E+03 0.  0.
        -13    1    3    3    0    0  0.52898028406E+02  0.29347680808E+02  0.64783935103E+00  0.60497261408E+02  0.10566000000E+00 0.  1.
         23    2    1    0    0    0  0.22753736275E+02  0.16491006192E+02 -0.10332109208E+02  0.95059420841E+02  0.90221146137E+02 0.  0.
         13    1    3    3    0    0 -0.30144292131E+02 -0.12856674616E+02 -0.10979948559E+02  0.34562159433E+02  0.10566000000E+00 0. -1.
         22    1    1    0    0    0 -0.22753736275E+02 -0.16491006192E+02  0.10332109208E+02  0.29940579159E+02  0.00000000000E+00 0. -1.
</event>
<event>
 5    1  0.9041167E-005  0.9118800E+02  0.7818608E-02  0.1130116E+00
         25   -1    0    0    0    0  0.00000000000E+00  0.00000000000E+00  0.99999998245E-14  0.12500000000E+03  0.12500000000E+03 0.  0.
        -13    1    3    3    0    0 -0.29233364098E+02  0.10631677300E+01  0.18242731092E+02  0.34475038852E+02  0.10566000000E+00 0. -1.
         23    2    1    0    0    0  0.22785278229E+02 -0.17431561883E+02 -0.74360205921E+01  0.95363491165E+02  0.90641451838E+02 0.  0.
         13    1    3    3    0    0  0.52018642327E+02 -0.18494729613E+02 -0.25678751684E+02  0.60888452313E+02  0.10566000000E+00 0.  1.
         22    1    1    0    0    0 -0.22785278229E+02  0.17431561883E+02  0.74360205921E+01  0.29636508835E+02  0.00000000000E+00 0.  1.
</event>
<event>
 5    1  0.9041167E-005  0.9118800E+02  0.7818608E-02  0.1130116E+00
         25   -1    0    0    0    0  0.00000000000E+00  0.00000000000E+00  0.99999998245E-14  0.12500000000E+03  0.12500000000E+03 0.  0.
        -13    1    3    3    0    0 -0.55325701091E+01  0.35872764903E+02 -0.38281643345E+01  0.36498364347E+02  0.10566000000E+00 0. -1.
         23    2    1    0    0    0 -0.19835757753E+02 -0.19710848085E+02  0.95844850179E+01  0.95439263018E+02  0.90745885607E+02 0.  0.
         13    1    3    3    0    0 -0.14303187644E+02 -0.55583612987E+02  0.13412649352E+02  0.58940898671E+02  0.10566000000E+00 0.  1.
         22    1    1    0    0    0  0.19835757753E+02  0.19710848085E+02 -0.95844850179E+01  0.29560736982E+02  0.00000000000E+00 0.  1.
</event>
<event>
 5    1  0.9041167E-005  0.9118800E+02  0.7818608E-02  0.1130116E+00
         25   -1    0    0    0    0  0.00000000000E+00  0.00000000000E+00  0.99999998245E-14  0.12500000000E+03  0.12500000000E+03 0.  0.
        -13    1    3    3    0    0  0.30545648215E+02  0.19748293478E+02 -0.71158334970E+01  0.37063161907E+02  0.10566000000E+00 0. -1.
         23    2    1    0    0    0 -0.22739618851E+02  0.85574463163E+01  0.15672210817E+02  0.96087401624E+02  0.91634329845E+02 0.  0.
         13    1    3    3    0    0 -0.53285267066E+02 -0.11190847162E+02  0.22788044314E+02  0.59024239717E+02  0.10566000000E+00 0.  1.
         22    1    1    0    0    0  0.22739618851E+02 -0.85574463163E+01 -0.15672210817E+02  0.28912598376E+02  0.00000000000E+00 0.  1.
</event>
<event>
 5    1  0.9041167E-005  0.9118800E+02  0.7818608E-02  0.1130116E+00
         25   -1    0    0    0    0  0.00000000000E+00  0.00000000000E+00  0.99999998245E-14  0.12500000000E+03  0.12500000000E+03 0.  0.
        -13    1    3    3    0    0 -0.25598038449E+01 -0.60609091928E+02  0.58616223132E+01  0.60945749649E+02  0.10566000000E+00 0. -1.
         23    2    1    0    0    0  0.81315121264E+01 -0.28716665402E+02 -0.35416118919E+00  0.95152156001E+02  0.90349537908E+02 0.  0.
         13    1    3    3    0    0  0.10691315971E+02  0.31892426526E+02 -0.62157835024E+01  0.34206406352E+02  0.10566000000E+00 0.  1.
         22    1    1    0    0    0 -0.81315121264E+01  0.28716665402E+02  0.35416118919E+00  0.29847843999E+02  0.00000000000E+00 0. -1.
</event>
<event>
 5    1  0.9041167E-005  0.9118800E+02  0.7818608E-02  0.1130116E+00
         25   -1    0    0    0    0  0.00000000000E+00  0.00000000000E+00  0.99999998245E-14  0.12500000000E+03  0.12500000000E+03 0.  0.
        -13    1    3    3    0    0 -0.20039926599E+02  0.26635499978E+02 -0.11440681372E+01  0.33352189929E+02  0.10566000000E+00 0. -1.
         23    2    1    0    0    0  0.93336313816E+01 -0.27996105020E+02  0.16517892214E+01  0.95442818492E+02  0.90750783044E+02 0.  0.
         13    1    3    3    0    0  0.29373557980E+02 -0.54631604997E+02  0.27958573586E+01  0.62090628563E+02  0.10566000000E+00 0.  1.
         22    1    1    0    0    0 -0.93336313816E+01  0.27996105020E+02 -0.16517892214E+01  0.29557181508E+02  0.00000000000E+00 0.  1.
</event>
<event>
 5    1  0.9041167E-005  0.9118800E+02  0.7818608E-02  0.1130116E+00
         25   -1    0    0    0    0  0.00000000000E+00  0.00000000000E+00  0.99999998245E-14  0.12500000000E+03  0.12500000000E+03 0.  0.
        -13    1    3    3    0    0 -0.33071480267E+02  0.12413970970E+02 -0.19805052650E+02  0.40497910525E+02  0.10566000000E+00 0.  1.
         23    2    1    0    0    0  0.22253959809E+02  0.40954241143E+01 -0.17327107394E+02  0.96500177606E+02  0.92195685373E+02 0.  0.
         13    1    3    3    0    0  0.55325440077E+02 -0.83185468561E+01  0.24779452563E+01  0.56002267081E+02  0.10566000000E+00 0. -1.
         22    1    1    0    0    0 -0.22253959809E+02 -0.40954241143E+01  0.17327107394E+02  0.28499822394E+02  0.00000000000E+00 0. -1.
</event>
<event>
 5    1  0.9041167E-005  0.9118800E+02  0.7818608E-02  0.1130116E+00
         25   -1    0    0    0    0  0.00000000000E+00  0.00000000000E+00  0.99999998245E-14  0.12500000000E+03  0.12500000000E+03 0.  0.
        -13    1    3    3    0    0  0.25915664104E+02  0.60103294765E+01  0.41615839738E+02  0.49392661272E+02  0.10566000000E+00 0. -1.
         23    2    1    0    0    0  0.88031685280E+01  0.27687384593E+02  0.45864334771E+01  0.95587036638E+02  0.90949211978E+02 0.  0.
         13    1    3    3    0    0 -0.17112495576E+02  0.21677055116E+02 -0.37029406261E+02  0.46194375366E+02  0.10566000000E+00 0.  1.
         22    1    1    0    0    0 -0.88031685280E+01 -0.27687384593E+02 -0.45864334771E+01  0.29412963362E+02  0.00000000000E+00 0. -1.
</event>
<event>
 5    1  0.9041167E-005  0.9118800E+02  0.7818608E-02  0.1130116E+00
         25   -1    0    0    0    0  0.00000000000E+00  0.00000000000E+00  0.99999998245E-14  0.12500000000E+03  0.12500000000E+03 0.  0.
        -13    1    3    3    0    0  0.15856743522E+02 -0.38481261456E+02 -0.27471281994E+02  0.49869091598E+02  0.10566000000E+00 0. -1.
         23    2    1    0    0    0  0.27516196232E+02  0.21233021939E+01 -0.90527073972E+01  0.95955190162E+02  0.91453800034E+02 0.  0.
         13    1    3    3    0    0  0.11659452711E+02  0.40604563650E+02  0.18418574597E+02  0.46086098565E+02  0.10566000000E+00 0.  1.
         22    1    1    0    0    0 -0.27516196232E+02 -0.21233021939E+01  0.90527073972E+01  0.29044809838E+02  0.00000000000E+00 0.  1.
</event>
<event>
 5    1  0.9041167E-005  0.9118800E+02  0.7818608E-02  0.1130116E+00
         25   -1    0    0    0    0  0.00000000000E+00  0.00000000000E+00  0.99999998245E-14  0.12500000000E+03  0.12500000000E+03 0.  0.
        -13    1    3    3    0    0 -0.20852362211E+02  0.31499341314E+01  0.36337399947E+02  0.42013817891E+02  0.10566000000E+00 0.  1.
         23    2    1    0    0    0 -0.84464077885E+01  0.27880461462E+02 -0.84581934339E+01  0.94665152514E+02  0.89673229720E+02 0.  0.
         13    1    3    3    0    0  0.12405954422E+02  0.24730527331E+02 -0.44795593381E+02  0.52651334623E+02  0.10566000000E+00 0. -1.
         22    1    1    0    0    0  0.84464077885E+01 -0.27880461462E+02  0.84581934339E+01  0.30334847486E+02  0.00000000000E+00 0.  1.
</event>
<event>
 5    1  0.9041167E-005  0.9118800E+02  0.7818608E-02  0.1130116E+00
         25   -1    0    0    0    0  0.00000000000E+00  0.00000000000E+00  0.99999998245E-14  0.12500000000E+03  0.12500000000E+03 0.  0.
        -13    1    3    3    0    0  0.21357716329E+02 -0.10330002321E+02  0.31312787737E+02  0.39285656856E+02  0.10566000000E+00 0.  1.
         23    2    1    0    0    0  0.24927726762E+01  0.30503995486E+02 -0.51754155390E+00  0.94389944373E+02  0.89288779213E+02 0.  0.
         13    1    3    3    0    0 -0.18864943653E+02  0.40833997807E+02 -0.31830329291E+02  0.55104287517E+02  0.10566000000E+00 0. -1.
         22    1    1    0    0    0 -0.24927726762E+01 -0.30503995486E+02  0.51754155390E+00  0.30610055627E+02  0.00000000000E+00 0. -1.
</event>
<event>
 5    1  0.9041167E-005  0.9118800E+02  0.7818608E-02  0.1130116E+00
         25   -1    0    0    0    0  0.00000000000E+00  0.00000000000E+00  0.99999998245E-14  0.12500000000E+03  0.12500000000E+03 0.  0.
        -13    1    3    3    0    0 -0.26350010580E+02  0.52807643883E+02 -0.43591515623E+01  0.59177560582E+02  0.10566000000E+00 0.  1.
         23    2    1    0    0    0 -0.94088674242E+01  0.23393177816E+02 -0.16086925481E+02  0.95090858823E+02  0.90264692465E+02 0.  0.
         13    1    3    3    0    0  0.16941143156E+02 -0.29414466067E+02 -0.11727773918E+02  0.35913298241E+02  0.10566000000E+00 0. -1.
         22    1    1    0    0    0  0.94088674242E+01 -0.23393177816E+02  0.16086925481E+02  0.29909141177E+02  0.00000000000E+00 0.  1.
</event>
<event>
 5    1  0.9041167E-005  0.9118800E+02  0.7818608E-02  0.1130116E+00
         25   -1    0    0    0    0  0.00000000000E+00  0.00000000000E+00  0.99999998245E-14  0.12500000000E+03  0.12500000000E+03 0.  0.
        -13    1    3    3    0    0 -0.25444990041E+02  0.37132687415E+02 -0.26972033690E+01  0.45095122385E+02  0.10566000000E+00 0. -1.
         23    2    1    0    0    0  0.21581515513E+02  0.17894747482E+02 -0.70532321318E+01  0.96090972295E+02  0.91639200530E+02 0.  0.
         13    1    3    3    0    0  0.47026505555E+02 -0.19237939932E+02 -0.43560287628E+01  0.50995849911E+02  0.10566000000E+00 0.  1.
         22    1    1    0    0    0 -0.21581515513E+02 -0.17894747482E+02  0.70532321318E+01  0.28909027705E+02  0.00000000000E+00 0.  1.
</event>
<event>
 5    1  0.9041167E-005  0.9118800E+02  0.7818608E-02  0.1130116E+00
         25   -1    0    0    0    0  0.00000000000E+00  0.00000000000E+00  0.99999998245E-14  0.12500000000E+03  0.12500000000E+03 0.  0.
        -13    1    3    3    0    0  0.58992006864E+02  0.13395614026E+02  0.13909402033E+02  0.62072393042E+02  0.10566000000E+00 0. -1.
         23    2    1    0    0    0  0.26482770128E+02  0.92863040928E+01  0.10575982059E+02  0.95009602305E+02  0.90152096905E+02 0.  0.
         13    1    3    3    0    0 -0.32509236736E+02 -0.41093099336E+01 -0.33334199745E+01  0.32937209263E+02  0.10566000000E+00 0.  1.
         22    1    1    0    0    0 -0.26482770128E+02 -0.92863040928E+01 -0.10575982059E+02  0.29990397695E+02  0.00000000000E+00 0. -1.
</event>
<event>
 5    1  0.9041167E-005  0.9118800E+02  0.7818608E-02  0.1130116E+00
         25   -1    0    0    0    0  0.00000000000E+00  0.00000000000E+00  0.99999998245E-14  0.12500000000E+03  0.12500000000E+03 0.  0.
        -13    1    3    3    0    0 -0.29722896231E+02 -0.44976548597E+01  0.18470212208E+02  0.35282281143E+02  0.10566000000E+00 0.  1.
         23    2    1    0    0    0  0.55590693653E+01  0.31837639569E+01 -0.29211964517E+02  0.95093838827E+02  0.90268819128E+02 0.  0.
         13    1    3    3    0    0  0.35281965596E+02  0.76814188166E+01 -0.47682176725E+02  0.59811557685E+02  0.10566000000E+00 0. -1.
         22    1    1    0    0    0 -0.55590693653E+01 -0.31837639569E+01  0.29211964517E+02  0.29906161173E+02  0.00000000000E+00 0. -1.
</event>
<event>
 5    1  0.9041167E-005  0.9118800E+02  0.7818608E-02  0.1130116E+00
         25   -1    0    0    0    0  0.00000000000E+00  0.00000000000E+00  0.99999998245E-14  0.12500000000E+03  0.12500000000E+03 0.  0.
        -13    1    3    3    0    0 -0.10906920891E+02  0.30122618610E+01 -0.55413014617E+02  0.56556591109E+02  0.10566000000E+00 0.  1.
         23    2    1    0    0    0 -0.70538266409E+00  0.19516408119E+02 -0.19349502825E+02  0.97508346537E+02  0.93552587533E+02 0.  0.
         13    1    3    3    0    0  0.10201538227E+02  0.16504146258E+02  0.36063511792E+02  0.40951755428E+02  0.10566000000E+00 0. -1.
         22    1    1    0    0    0  0.70538266409E+00 -0.19516408119E+02  0.19349502825E+02  0.27491653463E+02  0.00000000000E+00 0.  1.
</event>
<event>
 5    1  0.9041167E-005  0.9118800E+02  0.7818608E-02  0.1130116E+00
         25   -1    0    0    0    0  0.00000000000E+00  0.00000000000E+00  0.99999998245E-14  0.12500000000E+03  0.12500000000E+03 0.  0.
        -13    1    3    3    0    0 -0.98344863513E+01  0.56039629313E+02  0.70146052096E+01  0.57326896180E+02  0.10566000000E+00 0.  1.
         23    2    1    0    0    0  0.33571272895E+01  0.26484672364E+02  0.19418748780E+02  0.91987941929E+02  0.85860267192E+02 0.  0.
         13    1    3    3    0    0  0.13191613641E+02 -0.29554956949E+02  0.12404143571E+02  0.34661045750E+02  0.10566000000E+00 0. -1.
         22    1    1    0    0    0 -0.33571272895E+01 -0.26484672364E+02 -0.19418748780E+02  0.33012058071E+02  0.00000000000E+00 0.  1.
</event>
<event>
 5    1  0.9041167E-005  0.9118800E+02  0.7818608E-02  0.1130116E+00
         25   -1    0    0    0    0  0.00000000000E+00  0.00000000000E+00  0.99999998245E-14  0.12500000000E+03  0.12500000000E+03 0.  0.
        -13    1    3    3    0    0  0.44413242557E+02  0.27378243760E+02  0.34232649180E+02  0.62401841157E+02  0.10566000000E+00 0.  1.
         23    2    1    0    0    0  0.19887113257E+02  0.14003724401E+02  0.18297899669E+02  0.94562938658E+02  0.89530635341E+02 0.  0.
         13    1    3    3    0    0 -0.24526129300E+02 -0.13374519359E+02 -0.15934749511E+02  0.32161097502E+02  0.10566000000E+00 0. -1.
         22    1    1    0    0    0 -0.19887113257E+02 -0.14003724401E+02 -0.18297899669E+02  0.30437061342E+02  0.00000000000E+00 0.  1.
</event>
<event>
 5    1  0.9041167E-005  0.9118800E+02  0.7818608E-02  0.1130116E+00
         25   -1    0    0    0    0  0.00000000000E+00  0.00000000000E+00  0.99999998245E-14  0.12500000000E+03  0.12500000000E+03 0.  0.
        -13    1    3    3    0    0 -0.52272300646E+02 -0.31910973471E+02  0.35244345164E+01  0.61344408428E+02  0.10566000000E+00 0.  1.
         23    2    1    0    0    0 -0.26998481296E+02 -0.10087003019E+02  0.81322885467E+01  0.95053385180E+02  0.90212783434E+02 0.  0.
         13    1    3    3    0    0  0.25273819350E+02  0.21823970452E+02  0.46078540303E+01  0.33708976752E+02  0.10566000000E+00 0. -1.
         22    1    1    0    0    0  0.26998481296E+02  0.10087003019E+02 -0.81322885467E+01  0.29946614820E+02  0.00000000000E+00 0.  1.
</event>
<event>
 5    1  0.9041167E-005  0.9118800E+02  0.7818608E-02  0.1130116E+00
         25   -1    0    0    0    0  0.00000000000E+00  0.00000000000E+00  0.99999998245E-14  0.12500000000E+03  0.12500000000E+03 0.  0.
        -13    1    3    3    0    0  0.11668234785E+02 -0.24052101206E+02 -0.50325750205E+02  0.56985468087E+02  0.10566000000E+00 0.  1.
         23    2    1    0    0    0 -0.56345085750E+01  0.28397876121E+01 -0.28761051002E+02  0.95554964165E+02  0.90905121095E+02 0.  0.
         13    1    3    3    0    0 -0.17302743360E+02  0.26891888818E+02  0.21564699203E+02  0.38569496078E+02  0.10566000000E+00 0. -1.
         22    1    1    0    0    0  0.56345085750E+01 -0.28397876121E+01  0.28761051002E+02  0.29445035835E+02  0.00000000000E+00 0.  1.
</event>
<event>
 5    1  0.9041167E-005  0.9118800E+02  0.7818608E-02  0.1130116E+00
         25   -1    0    0    0    0  0.00000000000E+00  0.00000000000E+00  0.99999998245E-14  0.12500000000E+03  0.12500000000E+03 0.  0.
        -13    1    3    3    0    0  0.54715970087E+02  0.26310367226E+01  0.16736205635E+02  0.57278892097E+02  0.10566000000E+00 0.  1.
         23    2    1    0    0    0  0.29067239128E+02 -0.15471651442E+02  0.18596653405E+01  0.92019176116E+02  0.85905727568E+02 0.  0.
         13    1    3    3    0    0 -0.25648730959E+02 -0.18102688164E+02 -0.14876540294E+02  0.34740284019E+02  0.10566000000E+00 0. -1.
         22    1    1    0    0    0 -0.29067239128E+02  0.15471651442E+02 -0.18596653405E+01  0.32980823884E+02  0.00000000000E+00 0.  1.
</event>
<event>
 5    1  0.9041167E-005  0.9118800E+02  0.7818608E-02  0.1130116E+00
         25   -1    0    0    0    0  0.00000000000E+00  0.00000000000E+00  0.99999998245E-14  0.12500000000E+03  0.12500000000E+03 0.  0.
        -13    1    3    3    0    0  0.43172328287E+02 -0.18772060238E+02  0.38651883686E+02  0.60911570755E+02  0.10566000000E+00 0. -1.
         23    2    1    0    0    0  0.19659510630E+02  0.23416171098E+00  0.22249663166E+02  0.95308272181E+02  0.90565269531E+02 0.  0.
         13    1    3    3    0    0 -0.23512817658E+02  0.19006221949E+02 -0.16402220521E+02  0.34396701426E+02  0.10566000000E+00 0.  1.
         22    1    1    0    0    0 -0.19659510630E+02 -0.23416171098E+00 -0.22249663166E+02  0.29691727819E+02  0.00000000000E+00 0. -1.
</event>
<event>
 5    1  0.9041167E-005  0.9118800E+02  0.7818608E-02  0.1130116E+00
         25   -1    0    0    0    0  0.00000000000E+00  0.00000000000E+00  0.99999998245E-14  0.12500000000E+03  0.12500000000E+03 0.  0.
        -13    1    3    3    0    0  0.72856730416E+01  0.48921101639E+02  0.27968969826E+02  0.56821031797E+02  0.10566000000E+00 0. -1.
         23    2    1    0    0    0  0.21135271506E+02  0.17987238836E+02  0.81875033494E+01  0.96064283771E+02  0.91602788947E+02 0.  0.
         13    1    3    3    0    0  0.13849598464E+02 -0.30933862803E+02 -0.19781466476E+02  0.39243251975E+02  0.10566000000E+00 0.  1.
         22    1    1    0    0    0 -0.21135271506E+02 -0.17987238836E+02 -0.81875033494E+01  0.28935716229E+02  0.00000000000E+00 0. -1.
</event>
<event>
 5    1  0.9041167E-005  0.9118800E+02  0.7818608E-02  0.1130116E+00
         25   -1    0    0    0    0  0.00000000000E+00  0.00000000000E+00  0.99999998245E-14  0.12500000000E+03  0.12500000000E+03 0.  0.
        -13    1    3    3    0    0  0.20954707065E+02 -0.34523740091E+02  0.47430598793E+02  0.62294953599E+02  0.10566000000E+00 0.  1.
         23    2    1    0    0    0  0.12562306914E+02 -0.14269147481E+02  0.23981725642E+02  0.94397005219E+02  0.89298663510E+02 0.  0.
         13    1    3    3    0    0 -0.83924001514E+01  0.20254592609E+02 -0.23448873151E+02  0.32102051619E+02  0.10566000000E+00 0. -1.
         22    1    1    0    0    0 -0.12562306914E+02  0.14269147481E+02 -0.23981725642E+02  0.30602994781E+02  0.00000000000E+00 0.  1.
</event>
<event>
 5    1  0.9041167E-005  0.9118800E+02  0.7818608E-02  0.1130116E+00
         25   -1    0    0    0    0  0.00000000000E+00  0.00000000000E+00  0.99999998245E-14  0.12500000000E+03  0.12500000000E+03 0.  0.
        -13    1    3    3    0    0  0.40466546238E+02 -0.43381385954E+02 -0.16142126487E+02  0.61482236648E+02  0.10566000000E+00 0.  1.
         23    2    1    0    0    0  0.24137179224E+02 -0.14246400572E+02 -0.69506670666E+01  0.96123103996E+02  0.91683019142E+02 0.  0.
         13    1    3    3    0    0 -0.16329367014E+02  0.29134985382E+02  0.91914594205E+01  0.34640867348E+02  0.10566000000E+00 0. -1.
         22    1    1    0    0    0 -0.24137179224E+02  0.14246400572E+02  0.69506670666E+01  0.28876896004E+02  0.00000000000E+00 0.  1.
</event>
<event>
 5    1  0.9041167E-005  0.9118800E+02  0.7818608E-02  0.1130116E+00
         25   -1    0    0    0    0  0.00000000000E+00  0.00000000000E+00  0.99999998245E-14  0.12500000000E+03  0.12500000000E+03 0.  0.
        -13    1    3    3    0    0 -0.27003479144E+02  0.17583757977E+02  0.52489211238E+02  0.61591435207E+02  0.10566000000E+00 0. -1.
         23    2    1    0    0    0 -0.52185722080E+01  0.11741511338E+02  0.22099739322E+02  0.99436450511E+02  0.96094290297E+02 0.  0.
         13    1    3    3    0    0  0.21784906936E+02 -0.58422466383E+01 -0.30389471916E+02  0.37845015304E+02  0.10566000000E+00 0.  1.
         22    1    1    0    0    0  0.52185722080E+01 -0.11741511338E+02 -0.22099739322E+02  0.25563549489E+02  0.00000000000E+00 0. -1.
</event>
<event>
 5    1  0.9041167E-005  0.9118800E+02  0.7818608E-02  0.1130116E+00
         25   -1    0    0    0    0  0.00000000000E+00  0.00000000000E+00  0.99999998245E-14  0.12500000000E+03  0.12500000000E+03 0.  0.
        -13    1    3    3    0    0  0.73943173678E+01 -0.33280358882E+02 -0.11119280645E+02  0.35859556366E+02  0.10566000000E+00 0.  1.
         23    2    1    0    0    0  0.11571372637E+02  0.23218760619E+02  0.11189843101E+02  0.96747210792E+02  0.92530009716E+02 0.  0.
         13    1    3    3    0    0  0.41770552696E+01  0.56499119501E+02  0.22309123746E+02  0.60887654426E+02  0.10566000000E+00 0. -1.
         22    1    1    0    0    0 -0.11571372637E+02 -0.23218760619E+02 -0.11189843101E+02  0.28252789208E+02  0.00000000000E+00 0. -1.
</event>
<event>
 5    1  0.9041167E-005  0.9118800E+02  0.7818608E-02  0.1130116E+00
         25   -1    0    0    0    0  0.00000000000E+00  0.00000000000E+00  0.99999998245E-14  0.12500000000E+03  0.12500000000E+03 0.  0.
        -13    1    3    3    0    0 -0.14066701084E+02 -0.14341546875E+02 -0.26849070924E+02  0.33532608304E+02  0.10566000000E+00 0.  1.
         23    2    1    0    0    0  0.15107058793E+02 -0.32932118639E+01  0.25911541308E+02  0.94825897814E+02  0.89897021383E+02 0.  0.
         13    1    3    3    0    0  0.29173759877E+02  0.11048335011E+02  0.52760612232E+02  0.61293289510E+02  0.10566000000E+00 0. -1.
         22    1    1    0    0    0 -0.15107058793E+02  0.32932118639E+01 -0.25911541308E+02  0.30174102186E+02  0.00000000000E+00 0. -1.
</event>
<event>
 5    1  0.9041167E-005  0.9118800E+02  0.7818608E-02  0.1130116E+00
         25   -1    0    0    0    0  0.00000000000E+00  0.00000000000E+00  0.99999998245E-14  0.12500000000E+03  0.12500000000E+03 0.  0.
        -13    1    3    3    0    0 -0.12941822630E+02  0.21937740166E+02  0.45184154863E+02  0.51868817524E+02  0.10566000000E+00 0.  1.
         23    2    1    0    0    0  0.70126180941E+01  0.26906587728E+02  0.53689652753E+01  0.96680976997E+02  0.92440490313E+02 0.  0.
         13    1    3    3    0    0  0.19954440724E+02  0.49688475615E+01 -0.39815189588E+02  0.44812159473E+02  0.10566000000E+00 0. -1.
         22    1    1    0    0    0 -0.70126180941E+01 -0.26906587728E+02 -0.53689652753E+01  0.28319023003E+02  0.00000000000E+00 0.  1.
</event>
<event>
 5    1  0.9041167E-005  0.9118800E+02  0.7818608E-02  0.1130116E+00
         25   -1    0    0    0    0  0.00000000000E+00  0.00000000000E+00  0.99999998245E-14  0.12500000000E+03  0.12500000000E+03 0.  0.
        -13    1    3    3    0    0  0.15428887400E+02  0.29305455994E+02 -0.83344033557E+01  0.34151628962E+02  0.10566000000E+00 0.  1.
         23    2    1    0    0    0  0.13007642817E+02 -0.27022683204E+02  0.99170345383E+01  0.93412474721E+02  0.87909718918E+02 0.  0.
         13    1    3    3    0    0 -0.24212445829E+01 -0.56328139198E+02  0.18251437894E+02  0.59260845759E+02  0.10566000000E+00 0. -1.
         22    1    1    0    0    0 -0.13007642817E+02  0.27022683204E+02 -0.99170345383E+01  0.31587525279E+02  0.00000000000E+00 0. -1.
</event>
<event>
 5    1  0.9041167E-005  0.9118800E+02  0.7818608E-02  0.1130116E+00
         25   -1    0    0    0    0  0.00000000000E+00  0.00000000000E+00  0.99999998245E-14  0.12500000000E+03  0.12500000000E+03 0.  0.
        -13    1    3    3    0    0  0.55670940291E+02  0.13022948581E+02  0.51555628379E+00  0.57176286561E+02  0.10566000000E+00 0.  1.
         23    2    1    0    0    0  0.19672568755E+02  0.33186900390E+01  0.17792212590E+02  0.98268249331E+02  0.94562478461E+02 0.  0.
         13    1    3    3    0    0 -0.35998371536E+02 -0.97042585419E+01  0.17276656306E+02  0.41091962770E+02  0.10566000000E+00 0. -1.
         22    1    1    0    0    0 -0.19672568755E+02 -0.33186900390E+01 -0.17792212590E+02  0.26731750669E+02  0.00000000000E+00 0.  1.
</event>
<event>
 5    1  0.9041167E-005  0.9118800E+02  0.7818608E-02  0.1130116E+00
         25   -1    0    0    0    0  0.00000000000E+00  0.00000000000E+00  0.99999998245E-14  0.12500000000E+03  0.12500000000E+03 0.  0.
        -13    1    3    3    0    0 -0.51816580843E+00 -0.32973926512E+02  0.10941620474E+02  0.34745914120E+02  0.10566000000E+00 0.  1.
         23    2    1    0    0    0 -0.22369177209E+02  0.20821872889E+02 -0.24734531087E+01  0.94339790446E+02  0.89218538497E+02 0.  0.
         13    1    3    3    0    0 -0.21851011400E+02  0.53795799400E+02 -0.13415073583E+02  0.59593876326E+02  0.10566000000E+00 0. -1.
         22    1    1    0    0    0  0.22369177209E+02 -0.20821872889E+02  0.24734531087E+01  0.30660209554E+02  0.00000000000E+00 0. -1.
</event>
<event>
 5    1  0.9041167E-005  0.9118800E+02  0.7818608E-02  0.1130116E+00
         25   -1    0    0    0    0  0.00000000000E+00  0.00000000000E+00  0.99999998245E-14  0.12500000000E+03  0.12500000000E+03 0.  0.
        -13    1    3    3    0    0  0.33022803922E+02  0.29589503940E+02  0.38795306794E+02  0.58916307722E+02  0.10566000000E+00 0.  1.
         23    2    1    0    0    0  0.24048106058E+02  0.17709212839E+01  0.15056830531E+02  0.96571920346E+02  0.92292903771E+02 0.  0.
         13    1    3    3    0    0 -0.89746978638E+01 -0.27818582656E+02 -0.23738476263E+02  0.37655612624E+02  0.10566000000E+00 0. -1.
         22    1    1    0    0    0 -0.24048106058E+02 -0.17709212839E+01 -0.15056830531E+02  0.28428079654E+02  0.00000000000E+00 0.  1.
</event>
<event>
 5    1  0.9041167E-005  0.9118800E+02  0.7818608E-02  0.1130116E+00
         25   -1    0    0    0    0  0.00000000000E+00  0.00000000000E+00  0.99999998245E-14  0.12500000000E+03  0.12500000000E+03 0.  0.
        -13    1    3    3    0    0 -0.15475481801E+02  0.48955110845E+02  0.44677948697E+01  0.51537032994E+02  0.10566000000E+00 0.  1.
         23    2    1    0    0    0 -0.16714505876E+02  0.89349412638E+01  0.22611825533E+02  0.95495720039E+02  0.90823620330E+02 0.  0.
         13    1    3    3    0    0 -0.12390240749E+01 -0.40020169581E+02  0.18144030663E+02  0.43958687045E+02  0.10566000000E+00 0. -1.
         22    1    1    0    0    0  0.16714505876E+02 -0.89349412638E+01 -0.22611825533E+02  0.29504279961E+02  0.00000000000E+00 0.  1.
</event>
<event>
 4    1  0.9041167E-005  0.9118800E+02  0.7818608E-02  0.1130116E+00
         25   -1    0    0    0    0  0.00000000000E+00  0.00000000000E+00  0.99999998245E-14  0.12500000000E+03  0.12500000000E+03 0.  0.
        -13    1    1    0    0    0 -0.66097676376E+01 -0.48360716118E+01  0.96852454947E+01  0.12684311617E+02  0.10566000000E+00 0.  1.
         13    1    1    0    0    0  0.11887479857E+02  0.57543966146E+02 -0.81533533902E+01  0.59322074750E+02  0.10566000000E+00 0. -1.
         22    1    1    0    0    0 -0.52777122192E+01 -0.52707894534E+02 -0.15318921045E+01  0.52993613633E+02  0.00000000000E+00 0. -1.
</event>
<event>
 5    1  0.9041167E-005  0.9118800E+02  0.7818608E-02  0.1130116E+00
         25   -1    0    0    0    0  0.00000000000E+00  0.00000000000E+00  0.99999998245E-14  0.12500000000E+03  0.12500000000E+03 0.  0.
        -13    1    3    3    0    0  0.56411715708E+01 -0.40342006374E+02 -0.47207214927E+02  0.62352486720E+02  0.10566000000E+00 0.  1.
         23    2    1    0    0    0 -0.40975467776E+00 -0.18444221261E+02 -0.20252374188E+02  0.97604455526E+02  0.93680915246E+02 0.  0.
         13    1    3    3    0    0 -0.60509262486E+01  0.21897785114E+02  0.26954840739E+02  0.35251968805E+02  0.10566000000E+00 0. -1.
         22    1    1    0    0    0  0.40975467776E+00  0.18444221261E+02  0.20252374188E+02  0.27395544474E+02  0.00000000000E+00 0.  1.
</event>
<event>
 5    1  0.9041167E-005  0.9118800E+02  0.7818608E-02  0.1130116E+00
         25   -1    0    0    0    0  0.00000000000E+00  0.00000000000E+00  0.99999998245E-14  0.12500000000E+03  0.12500000000E+03 0.  0.
        -13    1    3    3    0    0 -0.29165390034E+02 -0.40548710221E+01 -0.13587335473E+02  0.32429751836E+02  0.10566000000E+00 0.  1.
         23    2    1    0    0    0  0.18201871855E+02  0.19103219062E+02  0.17216186099E+02  0.93493838994E+02  0.88025335832E+02 0.  0.
         13    1    3    3    0    0  0.47367261888E+02  0.23158090084E+02  0.30803521573E+02  0.61064087158E+02  0.10566000000E+00 0. -1.
         22    1    1    0    0    0 -0.18201871855E+02 -0.19103219062E+02 -0.17216186099E+02  0.31506161006E+02  0.00000000000E+00 0. -1.
</event>
<event>
 5    1  0.9041167E-005  0.9118800E+02  0.7818608E-02  0.1130116E+00
         25   -1    0    0    0    0  0.00000000000E+00  0.00000000000E+00  0.99999998245E-14  0.12500000000E+03  0.12500000000E+03 0.  0.
        -13    1    3    3    0    0  0.19722044856E+02  0.43277442123E+01  0.40643493319E+02  0.45382740513E+02  0.10566000000E+00 0.  1.
         23    2    1    0    0    0  0.81476933916E+01 -0.26764585050E+02  0.10992224294E+01  0.97001139122E+02  0.92872411299E+02 0.  0.
         13    1    3    3    0    0 -0.11574351464E+02 -0.31092329263E+02 -0.39544270889E+02  0.51618398609E+02  0.10566000000E+00 0. -1.
         22    1    1    0    0    0 -0.81476933916E+01  0.26764585050E+02 -0.10992224294E+01  0.27998860878E+02  0.00000000000E+00 0. -1.
</event>
<event>
 5    1  0.9041167E-005  0.9118800E+02  0.7818608E-02  0.1130116E+00
         25   -1    0    0    0    0  0.00000000000E+00  0.00000000000E+00  0.99999998245E-14  0.12500000000E+03  0.12500000000E+03 0.  0.
        -13    1    3    3    0    0  0.17145364919E+02  0.25602852631E+01 -0.37501800542E+02  0.41314825508E+02  0.10566000000E+00 0.  1.
         23    2    1    0    0    0 -0.59762307833E+01  0.27079039182E+02  0.62816293348E+01  0.96566770066E+02  0.92285928052E+02 0.  0.
         13    1    3    3    0    0 -0.23121595703E+02  0.24518753919E+02  0.43783429877E+02  0.55251944557E+02  0.10566000000E+00 0. -1.
         22    1    1    0    0    0  0.59762307833E+01 -0.27079039182E+02 -0.62816293348E+01  0.28433229934E+02  0.00000000000E+00 0. -1.
</event>
<event>
 5    1  0.9041167E-005  0.9118800E+02  0.7818608E-02  0.1130116E+00
         25   -1    0    0    0    0  0.00000000000E+00  0.00000000000E+00  0.99999998245E-14  0.12500000000E+03  0.12500000000E+03 0.  0.
        -13    1    3    3    0    0 -0.14503798287E+02  0.40649616111E+02  0.40944088240E+02  0.59491015965E+02  0.10566000000E+00 0.  1.
         23    2    1    0    0    0 -0.99027446000E+01  0.26893213665E+02  0.83774885897E+01  0.95142143297E+02  0.90335684114E+02 0.  0.
         13    1    3    3    0    0  0.46010536874E+01 -0.13756402446E+02 -0.32566599650E+02  0.35651127333E+02  0.10566000000E+00 0. -1.
         22    1    1    0    0    0  0.99027446000E+01 -0.26893213665E+02 -0.83774885897E+01  0.29857856703E+02  0.00000000000E+00 0.  1.
</event>
<event>
 5    1  0.9041167E-005  0.9118800E+02  0.7818608E-02  0.1130116E+00
         25   -1    0    0    0    0  0.00000000000E+00  0.00000000000E+00  0.99999998245E-14  0.12500000000E+03  0.12500000000E+03 0.  0.
        -13    1    3    3    0    0 -0.82793939126E+01  0.58295168657E+02 -0.20625968407E+02  0.62388434738E+02  0.10566000000E+00 0.  1.
         23    2    1    0    0    0 -0.56571399111E+01  0.27682060442E+02 -0.77542680718E+01  0.95701051630E+02  0.91105778672E+02 0.  0.
         13    1    3    3    0    0  0.26222540015E+01 -0.30613108215E+02  0.12871700335E+02  0.33312616892E+02  0.10566000000E+00 0. -1.
         22    1    1    0    0    0  0.56571399111E+01 -0.27682060442E+02  0.77542680718E+01  0.29298948370E+02  0.00000000000E+00 0.  1.
</event>
<event>
 5    1  0.9041167E-005  0.9118800E+02  0.7818608E-02  0.1130116E+00
         25   -1    0    0    0    0  0.00000000000E+00  0.00000000000E+00  0.99999998245E-14  0.12500000000E+03  0.12500000000E+03 0.  0.
        -13    1    3    3    0    0 -0.24518854980E+02  0.50305227981E+01  0.27530742988E+02  0.37207974719E+02  0.10566000000E+00 0.  1.
         23    2    1    0    0    0  0.18087326959E+02 -0.23482505109E+02  0.85245407620E-01  0.95359036630E+02  0.90635308558E+02 0.  0.
         13    1    3    3    0    0  0.42606181940E+02 -0.28513027907E+02 -0.27445497580E+02  0.58151061911E+02  0.10566000000E+00 0. -1.
         22    1    1    0    0    0 -0.18087326959E+02  0.23482505109E+02 -0.85245407620E-01  0.29640963370E+02  0.00000000000E+00 0. -1.
</event>
<event>
 5    1  0.9041167E-005  0.9118800E+02  0.7818608E-02  0.1130116E+00
         25   -1    0    0    0    0  0.00000000000E+00  0.00000000000E+00  0.99999998245E-14  0.12500000000E+03  0.12500000000E+03 0.  0.
        -13    1    3    3    0    0 -0.37198595956E+02 -0.40629294188E+00 -0.17928566123E+02  0.41295826209E+02  0.10566000000E+00 0.  1.
         23    2    1    0    0    0 -0.16198641025E+02  0.20256266087E+01  0.28412683371E+02  0.92231421902E+02  0.86214009740E+02 0.  0.
         13    1    3    3    0    0  0.20999954931E+02  0.24319195506E+01  0.46341249494E+02  0.50935595692E+02  0.10566000000E+00 0. -1.
         22    1    1    0    0    0  0.16198641025E+02 -0.20256266087E+01 -0.28412683371E+02  0.32768578098E+02  0.00000000000E+00 0. -1.
</event>
<event>
 5    1  0.9041167E-005  0.9118800E+02  0.7818608E-02  0.1130116E+00
         25   -1    0    0    0    0  0.00000000000E+00  0.00000000000E+00  0.99999998245E-14  0.12500000000E+03  0.12500000000E+03 0.  0.
        -13    1    3    3    0    0  0.25492321505E+02  0.26450062305E+02  0.36961842920E+02  0.52111929994E+02  0.10566000000E+00 0. -1.
         23    2    1    0    0    0  0.57674427781E+01  0.28905101599E+02 -0.15855061685E+01  0.95482511549E+02  0.90805439745E+02 0.  0.
         13    1    3    3    0    0 -0.19724878727E+02  0.24550392938E+01 -0.38547349088E+02  0.43370581556E+02  0.10566000000E+00 0.  1.
         22    1    1    0    0    0 -0.57674427781E+01 -0.28905101599E+02  0.15855061685E+01  0.29517488451E+02  0.00000000000E+00 0. -1.
</event>
<event>
 5    1  0.9041167E-005  0.9118800E+02  0.7818608E-02  0.1130116E+00
         25   -1    0    0    0    0  0.00000000000E+00  0.00000000000E+00  0.99999998245E-14  0.12500000000E+03  0.12500000000E+03 0.  0.
        -13    1    3    3    0    0  0.38298523069E+02 -0.34075368280E+01  0.39279715875E+01  0.38650075050E+02  0.10566000000E+00 0.  1.
         23    2    1    0    0    0 -0.14932349625E+02  0.12191379187E+02 -0.18311844887E+02  0.98411873797E+02  0.94752142188E+02 0.  0.
         13    1    3    3    0    0 -0.53230872695E+02  0.15598916015E+02 -0.22239816474E+02  0.59761798747E+02  0.10566000000E+00 0. -1.
         22    1    1    0    0    0  0.14932349625E+02 -0.12191379187E+02  0.18311844887E+02  0.26588126203E+02  0.00000000000E+00 0. -1.
</event>
<event>
 5    1  0.9041167E-005  0.9118800E+02  0.7818608E-02  0.1130116E+00
         25   -1    0    0    0    0  0.00000000000E+00  0.00000000000E+00  0.99999998245E-14  0.12500000000E+03  0.12500000000E+03 0.  0.
        -13    1    3    3    0    0  0.16142367951E+02 -0.40934334081E+02  0.14182746385E+02  0.46231560743E+02  0.10566000000E+00 0. -1.
         23    2    1    0    0    0 -0.19094843979E+02 -0.91693061227E+01  0.22166275306E+02  0.94340042364E+02  0.89218891446E+02 0.  0.
         13    1    3    3    0    0 -0.35237211929E+02  0.31765027958E+02  0.79835289209E+01  0.48108481620E+02  0.10566000000E+00 0.  1.
         22    1    1    0    0    0  0.19094843979E+02  0.91693061227E+01 -0.22166275306E+02  0.30659957636E+02  0.00000000000E+00 0.  1.
</event>
<event>
 5    1  0.9041167E-005  0.9118800E+02  0.7818608E-02  0.1130116E+00
         25   -1    0    0    0    0  0.00000000000E+00  0.00000000000E+00  0.99999998245E-14  0.12500000000E+03  0.12500000000E+03 0.  0.
        -13    1    3    3    0    0 -0.27692728895E+02  0.33539259340E+02 -0.31394962973E+02  0.53641625766E+02  0.10566000000E+00 0. -1.
         23    2    1    0    0    0  0.94276259106E+01  0.23933914733E+02 -0.13340853120E+02  0.96022581779E+02  0.91545865253E+02 0.  0.
         13    1    3    3    0    0  0.37120354806E+02 -0.96053446064E+01  0.18054109854E+02  0.42380956013E+02  0.10566000000E+00 0.  1.
         22    1    1    0    0    0 -0.94276259106E+01 -0.23933914733E+02  0.13340853120E+02  0.28977418221E+02  0.00000000000E+00 0. -1.
</event>
<event>
 5    1  0.9041167E-005  0.9118800E+02  0.7818608E-02  0.1130116E+00
         25   -1    0    0    0    0  0.00000000000E+00  0.00000000000E+00  0.99999998245E-14  0.12500000000E+03  0.12500000000E+03 0.  0.
        -13    1    3    3    0    0  0.42401849933E+02  0.42250823057E+02  0.11737090579E+02  0.60998519539E+02  0.10566000000E+00 0. -1.
         23    2    1    0    0    0  0.21545671302E+02  0.15408928297E+02  0.13949435100E+02  0.95062769621E+02  0.90225785701E+02 0.  0.
         13    1    3    3    0    0 -0.20856178630E+02 -0.26841894760E+02  0.22123445214E+01  0.34064250082E+02  0.10566000000E+00 0.  1.
         22    1    1    0    0    0 -0.21545671302E+02 -0.15408928297E+02 -0.13949435100E+02  0.29937230379E+02  0.00000000000E+00 0. -1.
</event>
<event>
 5    1  0.9041167E-005  0.9118800E+02  0.7818608E-02  0.1130116E+00
         25   -1    0    0    0    0  0.00000000000E+00  0.00000000000E+00  0.99999998245E-14  0.12500000000E+03  0.12500000000E+03 0.  0.
        -13    1    3    3    0    0 -0.27448127712E+02  0.27884846141E+02  0.45086108858E+02  0.59697007757E+02  0.10566000000E+00 0.  1.
         23    2    1    0    0    0 -0.18624138208E+01  0.95586957300E+01  0.27669430482E+02  0.95666833916E+02  0.91058818788E+02 0.  0.
         13    1    3    3    0    0  0.25585713892E+02 -0.18326150411E+02 -0.17416678376E+02  0.35969826159E+02  0.10566000000E+00 0. -1.
         22    1    1    0    0    0  0.18624138208E+01 -0.95586957300E+01 -0.27669430482E+02  0.29333166084E+02  0.00000000000E+00 0.  1.
</event>
<event>
 5    1  0.9041167E-005  0.9118800E+02  0.7818608E-02  0.1130116E+00
         25   -1    0    0    0    0  0.00000000000E+00  0.00000000000E+00  0.99999998245E-14  0.12500000000E+03  0.12500000000E+03 0.  0.
        -13    1    3    3    0    0 -0.16995170695E+02  0.39992433813E+02 -0.44532000328E+02  0.62220099699E+02  0.10566000000E+00 0.  1.
         23    2    1    0    0    0 -0.82103016473E+01  0.19824054690E+02 -0.27924553688E+02  0.89783769422E+02  0.82588996576E+02 0.  0.
         13    1    3    3    0    0  0.87848690476E+01 -0.20168379123E+02  0.16607446641E+02  0.27563669723E+02  0.10566000000E+00 0. -1.
         22    1    1    0    0    0  0.82103016473E+01 -0.19824054690E+02  0.27924553688E+02  0.35216230578E+02  0.00000000000E+00 0.  1.
</event>
<event>
 5    1  0.9041167E-005  0.9118800E+02  0.7818608E-02  0.1130116E+00
         25   -1    0    0    0    0  0.00000000000E+00  0.00000000000E+00  0.99999998245E-14  0.12500000000E+03  0.12500000000E+03 0.  0.
        -13    1    3    3    0    0  0.30580792062E+02 -0.22698408722E+02 -0.28002152041E+02  0.47270860840E+02  0.10566000000E+00 0.  1.
         23    2    1    0    0    0 -0.99749152752E+01 -0.29331384497E+02 -0.78546216241E+01  0.93038708847E+02  0.87376639966E+02 0.  0.
         13    1    3    3    0    0 -0.40555707337E+02 -0.66329757758E+01  0.20147530417E+02  0.45767848007E+02  0.10566000000E+00 0. -1.
         22    1    1    0    0    0  0.99749152752E+01  0.29331384497E+02  0.78546216241E+01  0.31961291153E+02  0.00000000000E+00 0.  1.
</event>
<event>
 5    1  0.9041167E-005  0.9118800E+02  0.7818608E-02  0.1130116E+00
         25   -1    0    0    0    0  0.00000000000E+00  0.00000000000E+00  0.99999998245E-14  0.12500000000E+03  0.12500000000E+03 0.  0.
        -13    1    3    3    0    0  0.33143258698E+02  0.15793849904E+02 -0.37297175673E+02  0.52335568872E+02  0.10566000000E+00 0.  1.
         23    2    1    0    0    0  0.46182083689E+00 -0.15021346646E+02 -0.18844957228E+02  0.10089633749E+03  0.97974917056E+02 0.  0.
         13    1    3    3    0    0 -0.32681437861E+02 -0.30815196550E+02  0.18452218445E+02  0.48560768617E+02  0.10566000000E+00 0. -1.
         22    1    1    0    0    0 -0.46182083689E+00  0.15021346646E+02  0.18844957228E+02  0.24103662512E+02  0.00000000000E+00 0.  1.
</event>
<event>
 5    1  0.9041167E-005  0.9118800E+02  0.7818608E-02  0.1130116E+00
         25   -1    0    0    0    0  0.00000000000E+00  0.00000000000E+00  0.99999998245E-14  0.12500000000E+03  0.12500000000E+03 0.  0.
        -13    1    3    3    0    0 -0.37076456981E+02  0.27134252152E+02  0.40277278797E+02  0.61099931698E+02  0.10566000000E+00 0.  1.
         23    2    1    0    0    0 -0.21621977553E+02  0.13911419204E+02  0.10350879699E+02  0.97283972000E+02  0.93252308283E+02 0.  0.
         13    1    3    3    0    0  0.15454479428E+02 -0.13222832949E+02 -0.29926399099E+02  0.36184040303E+02  0.10566000000E+00 0. -1.
         22    1    1    0    0    0  0.21621977553E+02 -0.13911419204E+02 -0.10350879699E+02  0.27716028000E+02  0.00000000000E+00 0.  1.
</event>
<event>
 5    1  0.9041167E-005  0.9118800E+02  0.7818608E-02  0.1130116E+00
         25   -1    0    0    0    0  0.00000000000E+00  0.00000000000E+00  0.99999998245E-14  0.12500000000E+03  0.12500000000E+03 0.  0.
        -13    1    3    3    0    0  0.20510702462E+02  0.28557281009E+02 -0.21163382292E+02  0.41037874314E+02  0.10566000000E+00 0.  1.
         23    2    1    0    0    0  0.93660692926E+01 -0.23276021337E+02 -0.17944715946E+02  0.94153456374E+02  0.88957091306E+02 0.  0.
         13    1    3    3    0    0 -0.11144633170E+02 -0.51833302346E+02  0.32186663462E+01  0.53115582061E+02  0.10566000000E+00 0. -1.
         22    1    1    0    0    0 -0.93660692926E+01  0.23276021337E+02  0.17944715946E+02  0.30846543626E+02  0.00000000000E+00 0. -1.
</event>
<event>
 5    1  0.9041167E-005  0.9118800E+02  0.7818608E-02  0.1130116E+00
         25   -1    0    0    0    0  0.00000000000E+00  0.00000000000E+00  0.99999998245E-14  0.12500000000E+03  0.12500000000E+03 0.  0.
        -13    1    3    3    0    0 -0.49872141463E+02  0.12522845138E+02 -0.78345566722E+01  0.52013878790E+02  0.10566000000E+00 0.  1.
         23    2    1    0    0    0 -0.13375543269E+02  0.23438667244E+02  0.12571010683E+02  0.95229098275E+02  0.90455926112E+02 0.  0.
         13    1    3    3    0    0  0.36496598195E+02  0.10915822106E+02  0.20405567356E+02  0.43215219485E+02  0.10566000000E+00 0. -1.
         22    1    1    0    0    0  0.13375543269E+02 -0.23438667244E+02 -0.12571010683E+02  0.29770901725E+02  0.00000000000E+00 0. -1.
</event>
<event>
 5    1  0.9041167E-005  0.9118800E+02  0.7818608E-02  0.1130116E+00
         25   -1    0    0    0    0  0.00000000000E+00  0.00000000000E+00  0.99999998245E-14  0.12500000000E+03  0.12500000000E+03 0.  0.
        -13    1    3    3    0    0  0.63206334386E+01 -0.16022578412E+02 -0.27617957443E+02  0.32548980989E+02  0.10566000000E+00 0. -1.
         23    2    1    0    0    0 -0.49868809102E+01  0.15908335401E+02  0.24894265075E+02  0.95038882697E+02  0.90192686368E+02 0.  0.
         13    1    3    3    0    0 -0.11307514349E+02  0.31930913813E+02  0.52512222518E+02  0.62489901708E+02  0.10566000000E+00 0.  1.
         22    1    1    0    0    0  0.49868809102E+01 -0.15908335401E+02 -0.24894265075E+02  0.29961117303E+02  0.00000000000E+00 0.  1.
</event>
<event>
 5    1  0.9041167E-005  0.9118800E+02  0.7818608E-02  0.1130116E+00
         25   -1    0    0    0    0  0.00000000000E+00  0.00000000000E+00  0.99999998245E-14  0.12500000000E+03  0.12500000000E+03 0.  0.
        -13    1    3    3    0    0 -0.32417375371E+01 -0.17134128473E+02 -0.59371525590E+02  0.61879531637E+02  0.10566000000E+00 0. -1.
         23    2    1    0    0    0 -0.32139428554E+01 -0.13828510545E+02 -0.26328453224E+02  0.95087718547E+02  0.90260343655E+02 0.  0.
         13    1    3    3    0    0  0.27794681726E-01  0.33056179279E+01  0.33043072366E+02  0.33208186910E+02  0.10566000000E+00 0.  1.
         22    1    1    0    0    0  0.32139428554E+01  0.13828510545E+02  0.26328453224E+02  0.29912281453E+02  0.00000000000E+00 0. -1.
</event>
<event>
 5    1  0.9041167E-005  0.9118800E+02  0.7818608E-02  0.1130116E+00
         25   -1    0    0    0    0  0.00000000000E+00  0.00000000000E+00  0.99999998245E-14  0.12500000000E+03  0.12500000000E+03 0.  0.
        -13    1    3    3    0    0 -0.16097126018E+02 -0.54749786397E+01 -0.34476541407E+02  0.38441330994E+02  0.10566000000E+00 0.  1.
         23    2    1    0    0    0 -0.84975227532E+01  0.20854884591E+01  0.24811566025E+02  0.98690857793E+02  0.95119474600E+02 0.  0.
         13    1    3    3    0    0  0.75996032648E+01  0.75604670988E+01  0.59288107432E+02  0.60249526799E+02  0.10566000000E+00 0. -1.
         22    1    1    0    0    0  0.84975227532E+01 -0.20854884591E+01 -0.24811566025E+02  0.26309142207E+02  0.00000000000E+00 0. -1.
</event>
<event>
 5    1  0.9041167E-005  0.9118800E+02  0.7818608E-02  0.1130116E+00
         25   -1    0    0    0    0  0.00000000000E+00  0.00000000000E+00  0.99999998245E-14  0.12500000000E+03  0.12500000000E+03 0.  0.
        -13    1    3    3    0    0 -0.18320791358E+02 -0.63603935736E+01  0.49198718704E+02  0.52883183419E+02  0.10566000000E+00 0. -1.
         23    2    1    0    0    0  0.12715107630E+02 -0.15677943115E+02  0.21452575867E+02  0.95543508802E+02  0.90889367918E+02 0.  0.
         13    1    3    3    0    0  0.31035898988E+02 -0.93175495413E+01 -0.27746142837E+02  0.42660325383E+02  0.10566000000E+00 0.  1.
         22    1    1    0    0    0 -0.12715107630E+02  0.15677943115E+02 -0.21452575867E+02  0.29456491198E+02  0.00000000000E+00 0. -1.
</event>
<event>
 5    1  0.9041167E-005  0.9118800E+02  0.7818608E-02  0.1130116E+00
         25   -1    0    0    0    0  0.00000000000E+00  0.00000000000E+00  0.99999998245E-14  0.12500000000E+03  0.12500000000E+03 0.  0.
        -13    1    3    3    0    0 -0.19433756949E+02 -0.92810073170E+01 -0.24659962006E+02  0.32740386316E+02  0.10566000000E+00 0. -1.
         23    2    1    0    0    0  0.88601427646E+00  0.75689492581E+01  0.30324218290E+02  0.93732889020E+02  0.88364145755E+02 0.  0.
         13    1    3    3    0    0  0.20319771226E+02  0.16849956575E+02  0.54984180295E+02  0.60992502704E+02  0.10566000000E+00 0.  1.
         22    1    1    0    0    0 -0.88601427646E+00 -0.75689492581E+01 -0.30324218290E+02  0.31267110980E+02  0.00000000000E+00 0.  1.
</event>
<event>
 5    1  0.9041167E-005  0.9118800E+02  0.7818608E-02  0.1130116E+00
         25   -1    0    0    0    0  0.00000000000E+00  0.00000000000E+00  0.99999998245E-14  0.12500000000E+03  0.12500000000E+03 0.  0.
        -13    1    3    3    0    0 -0.26563952003E+02  0.47659519448E+02  0.11926849755E+02  0.55851000431E+02  0.10566000000E+00 0.  1.
         23    2    1    0    0    0  0.62039022575E+01  0.30088321733E+02  0.27017694182E+01  0.94160170786E+02  0.88966525708E+02 0.  0.
         13    1    3    3    0    0  0.32767854261E+02 -0.17571197715E+02 -0.92250803371E+01  0.38309170355E+02  0.10566000000E+00 0. -1.
         22    1    1    0    0    0 -0.62039022575E+01 -0.30088321733E+02 -0.27017694182E+01  0.30839829214E+02  0.00000000000E+00 0. -1.
</event>
<event>
 5    1  0.9041167E-005  0.9118800E+02  0.7818608E-02  0.1130116E+00
         25   -1    0    0    0    0  0.00000000000E+00  0.00000000000E+00  0.99999998245E-14  0.12500000000E+03  0.12500000000E+03 0.  0.
        -13    1    3    3    0    0 -0.22863985883E+02  0.26263669754E+02 -0.15650963712E+02  0.38177297292E+02  0.10566000000E+00 0. -1.
         23    2    1    0    0    0  0.20365390681E+02 -0.10545712874E+02 -0.19234308648E+02  0.95068080136E+02  0.90233142658E+02 0.  0.
         13    1    3    3    0    0  0.43229376564E+02 -0.36809382628E+02 -0.35833449352E+01  0.56890782843E+02  0.10566000000E+00 0.  1.
         22    1    1    0    0    0 -0.20365390681E+02  0.10545712874E+02  0.19234308648E+02  0.29931919864E+02  0.00000000000E+00 0.  1.
</event>
<event>
 5    1  0.9041167E-005  0.9118800E+02  0.7818608E-02  0.1130116E+00
         25   -1    0    0    0    0  0.00000000000E+00  0.00000000000E+00  0.99999998245E-14  0.12500000000E+03  0.12500000000E+03 0.  0.
        -13    1    3    3    0    0 -0.43785978786E+02 -0.85900941592E+00 -0.21559120825E+02  0.48813488814E+02  0.10566000000E+00 0. -1.
         23    2    1    0    0    0 -0.11924558406E+02 -0.19349263179E+02  0.12566186466E+02  0.99028898348E+02  0.95562673607E+02 0.  0.
         13    1    3    3    0    0  0.31861420380E+02 -0.18490253763E+02  0.34125307292E+02  0.50215409533E+02  0.10566000000E+00 0.  1.
         22    1    1    0    0    0  0.11924558406E+02  0.19349263179E+02 -0.12566186466E+02  0.25971101652E+02  0.00000000000E+00 0.  1.
</event>
<event>
 5    1  0.9041167E-005  0.9118800E+02  0.7818608E-02  0.1130116E+00
         25   -1    0    0    0    0  0.00000000000E+00  0.00000000000E+00  0.99999998245E-14  0.12500000000E+03  0.12500000000E+03 0.  0.
        -13    1    3    3    0    0  0.34457821283E+02  0.24206128060E+02 -0.37957269224E+02  0.56692535083E+02  0.10566000000E+00 0. -1.
         23    2    1    0    0    0  0.26001164306E+02 -0.38350160056E+01 -0.10966371834E+02  0.96521425523E+02  0.92224489051E+02 0.  0.
         13    1    3    3    0    0 -0.84566569764E+01 -0.28041144066E+02  0.26990897389E+02  0.39828890440E+02  0.10566000000E+00 0.  1.
         22    1    1    0    0    0 -0.26001164306E+02  0.38350160056E+01  0.10966371834E+02  0.28478574477E+02  0.00000000000E+00 0. -1.
</event>
<event>
 5    1  0.9041167E-005  0.9118800E+02  0.7818608E-02  0.1130116E+00
         25   -1    0    0    0    0  0.00000000000E+00  0.00000000000E+00  0.99999998245E-14  0.12500000000E+03  0.12500000000E+03 0.  0.
        -13    1    3    3    0    0  0.17382102296E+02 -0.28258072382E+02  0.60374331533E+01  0.33721178777E+02  0.10566000000E+00 0. -1.
         23    2    1    0    0    0 -0.27007690923E+02  0.13394107359E+02  0.35679894744E+01  0.94642990433E+02  0.89642331564E+02 0.  0.
         13    1    3    3    0    0 -0.44389793220E+02  0.41652179741E+02 -0.24694436789E+01  0.60921811656E+02  0.10566000000E+00 0.  1.
         22    1    1    0    0    0  0.27007690923E+02 -0.13394107359E+02 -0.35679894744E+01  0.30357009567E+02  0.00000000000E+00 0.  1.
</event>
<event>
 5    1  0.9041167E-005  0.9118800E+02  0.7818608E-02  0.1130116E+00
         25   -1    0    0    0    0  0.00000000000E+00  0.00000000000E+00  0.99999998245E-14  0.12500000000E+03  0.12500000000E+03 0.  0.
        -13    1    3    3    0    0 -0.19049934412E+02 -0.26821145244E+02  0.42412501483E+02  0.53675928305E+02  0.10566000000E+00 0. -1.
         23    2    1    0    0    0 -0.23371589182E+01 -0.30526170180E+02  0.61545352588E+01  0.93772004837E+02  0.88419461711E+02 0.  0.
         13    1    3    3    0    0  0.16712775493E+02 -0.37050249353E+01 -0.36257966225E+02  0.40096076532E+02  0.10566000000E+00 0.  1.
         22    1    1    0    0    0  0.23371589182E+01  0.30526170180E+02 -0.61545352588E+01  0.31227995163E+02  0.00000000000E+00 0. -1.
</event>
<event>
 5    1  0.9041167E-005  0.9118800E+02  0.7818608E-02  0.1130116E+00
         25   -1    0    0    0    0  0.00000000000E+00  0.00000000000E+00  0.99999998245E-14  0.12500000000E+03  0.12500000000E+03 0.  0.
        -13    1    3    3    0    0 -0.75240722198E+01 -0.38652555084E+02  0.13148610028E+01  0.39400148487E+02  0.10566000000E+00 0.  1.
         23    2    1    0    0    0 -0.25895966211E+02  0.86533075065E+01 -0.16397984882E+02  0.93150750323E+02  0.87536778446E+02 0.  0.
         13    1    3    3    0    0 -0.18371893992E+02  0.47305862591E+02 -0.17712845885E+02  0.53750601835E+02  0.10566000000E+00 0. -1.
         22    1    1    0    0    0  0.25895966211E+02 -0.86533075065E+01  0.16397984882E+02  0.31849249677E+02  0.00000000000E+00 0.  1.
</event>
<event>
 5    1  0.9041167E-005  0.9118800E+02  0.7818608E-02  0.1130116E+00
         25   -1    0    0    0    0  0.00000000000E+00  0.00000000000E+00  0.99999998245E-14  0.12500000000E+03  0.12500000000E+03 0.  0.
        -13    1    3    3    0    0  0.60427325786E+01 -0.61495306093E+01  0.49169118891E+02  0.49919382611E+02  0.10566000000E+00 0. -1.
         23    2    1    0    0    0  0.29652321755E+01  0.25129687213E+02  0.22480227767E+02  0.91152482783E+02  0.84635221367E+02 0.  0.
         13    1    3    3    0    0 -0.30775004031E+01  0.31279217822E+02 -0.26688891124E+02  0.41233100172E+02  0.10566000000E+00 0.  1.
         22    1    1    0    0    0 -0.29652321755E+01 -0.25129687213E+02 -0.22480227767E+02  0.33847517217E+02  0.00000000000E+00 0. -1.
</event>
<event>
 5    1  0.9041167E-005  0.9118800E+02  0.7818608E-02  0.1130116E+00
         25   -1    0    0    0    0  0.00000000000E+00  0.00000000000E+00  0.99999998245E-14  0.12500000000E+03  0.12500000000E+03 0.  0.
        -13    1    3    3    0    0  0.49876903381E+02  0.47822052693E+01 -0.66250791057E+01  0.50541842223E+02  0.10566000000E+00 0.  1.
         23    2    1    0    0    0  0.10315702322E+02  0.23394410734E+02 -0.15425132605E+02  0.95139543140E+02  0.90332086132E+02 0.  0.
         13    1    3    3    0    0 -0.39561201059E+02  0.18612205465E+02 -0.88000534991E+01  0.44597700917E+02  0.10566000000E+00 0. -1.
         22    1    1    0    0    0 -0.10315702322E+02 -0.23394410734E+02  0.15425132605E+02  0.29860456860E+02  0.00000000000E+00 0.  1.
</event>
<event>
 5    1  0.9041167E-005  0.9118800E+02  0.7818608E-02  0.1130116E+00
         25   -1    0    0    0    0  0.00000000000E+00  0.00000000000E+00  0.99999998245E-14  0.12500000000E+03  0.12500000000E+03 0.  0.
        -13    1    3    3    0    0  0.44737056478E+01 -0.28728134037E+02 -0.37243466056E+02  0.47248350822E+02  0.10566000000E+00 0.  1.
         23    2    1    0    0    0  0.22483384792E+02  0.10702763621E+02 -0.13360970478E+02  0.96741067378E+02  0.92521710125E+02 0.  0.
         13    1    3    3    0    0  0.18009679144E+02  0.39430897659E+02  0.23882495578E+02  0.49492716556E+02  0.10566000000E+00 0. -1.
         22    1    1    0    0    0 -0.22483384792E+02 -0.10702763621E+02  0.13360970478E+02  0.28258932622E+02  0.00000000000E+00 0.  1.
</event>
<event>
 5    1  0.9041167E-005  0.9118800E+02  0.7818608E-02  0.1130116E+00
         25   -1    0    0    0    0  0.00000000000E+00  0.00000000000E+00  0.99999998245E-14  0.12500000000E+03  0.12500000000E+03 0.  0.
        -13    1    3    3    0    0  0.15353168908E+02 -0.42329081508E+02 -0.39575122831E+02  0.59947247209E+02  0.10566000000E+00 0. -1.
         23    2    1    0    0    0  0.12918685442E+02 -0.12806383129E+02 -0.27698265087E+02  0.91862562392E+02  0.85677538469E+02 0.  0.
         13    1    3    3    0    0 -0.24344834660E+01  0.29522698379E+02  0.11876857744E+02  0.31915315183E+02  0.10566000000E+00 0.  1.
         22    1    1    0    0    0 -0.12918685442E+02  0.12806383129E+02  0.27698265087E+02  0.33137437608E+02  0.00000000000E+00 0. -1.
</event>
<event>
 5    1  0.9041167E-005  0.9118800E+02  0.7818608E-02  0.1130116E+00
         25   -1    0    0    0    0  0.00000000000E+00  0.00000000000E+00  0.99999998245E-14  0.12500000000E+03  0.12500000000E+03 0.  0.
        -13    1    3    3    0    0 -0.35377360842E+02  0.11345648372E+02 -0.81780208957E+01  0.38041721661E+02  0.10566000000E+00 0. -1.
         23    2    1    0    0    0  0.15993702927E+02  0.15913645931E+02  0.18239262292E+02  0.95987703485E+02  0.91498228787E+02 0.  0.
         13    1    3    3    0    0  0.51371063769E+02  0.45679975590E+01  0.26417283187E+02  0.57945981824E+02  0.10566000000E+00 0.  1.
         22    1    1    0    0    0 -0.15993702927E+02 -0.15913645931E+02 -0.18239262292E+02  0.29012296515E+02  0.00000000000E+00 0.  1.
</event>
<event>
 5    1  0.9041167E-005  0.9118800E+02  0.7818608E-02  0.1130116E+00
         25   -1    0    0    0    0  0.00000000000E+00  0.00000000000E+00  0.99999998245E-14  0.12500000000E+03  0.12500000000E+03 0.  0.
        -13    1    3    3    0    0 -0.23438868026E+02  0.52267160437E+01 -0.33127560065E+02  0.40916323085E+02  0.10566000000E+00 0.  1.
         23    2    1    0    0    0  0.43852279171E+01 -0.16123479133E+02 -0.44242662357E+02  0.77707188964E+02  0.61658715856E+02 0.  0.
         13    1    3    3    0    0  0.27824095943E+02 -0.21350195177E+02 -0.11115102292E+02  0.36790865879E+02  0.10566000000E+00 0. -1.
         22    1    1    0    0    0 -0.43852279171E+01  0.16123479133E+02  0.44242662357E+02  0.47292811036E+02  0.00000000000E+00 0.  1.
</event>
<event>
 5    1  0.9041167E-005  0.9118800E+02  0.7818608E-02  0.1130116E+00
         25   -1    0    0    0    0  0.00000000000E+00  0.00000000000E+00  0.99999998245E-14  0.12500000000E+03  0.12500000000E+03 0.  0.
        -13    1    3    3    0    0 -0.19840687751E+02 -0.19965788579E+02  0.48649765932E+02  0.56205840384E+02  0.10566000000E+00 0. -1.
         23    2    1    0    0    0  0.67849379076E+01 -0.24066635371E+00  0.30023638536E+02  0.94218314314E+02  0.89048181220E+02 0.  0.
         13    1    3    3    0    0  0.26625625659E+02  0.19725122225E+02 -0.18626127395E+02  0.38012473930E+02  0.10566000000E+00 0.  1.
         22    1    1    0    0    0 -0.67849379076E+01  0.24066635371E+00 -0.30023638536E+02  0.30781685686E+02  0.00000000000E+00 0. -1.
</event>
<event>
 5    1  0.9041167E-005  0.9118800E+02  0.7818608E-02  0.1130116E+00
         25   -1    0    0    0    0  0.00000000000E+00  0.00000000000E+00  0.99999998245E-14  0.12500000000E+03  0.12500000000E+03 0.  0.
        -13    1    3    3    0    0  0.40315919709E+02 -0.18170935573E+02  0.69561934995E+01  0.44765567947E+02  0.10566000000E+00 0.  1.
         23    2    1    0    0    0 -0.10248758303E+02 -0.21914134366E+02 -0.10825121479E+02  0.98496234479E+02  0.94863368166E+02 0.  0.
         13    1    3    3    0    0 -0.50564678012E+02 -0.37431987929E+01 -0.17781314978E+02  0.53730666532E+02  0.10566000000E+00 0. -1.
         22    1    1    0    0    0  0.10248758303E+02  0.21914134366E+02  0.10825121479E+02  0.26503765521E+02  0.00000000000E+00 0. -1.
</event>
<event>
 5    1  0.9041167E-005  0.9118800E+02  0.7818608E-02  0.1130116E+00
         25   -1    0    0    0    0  0.00000000000E+00  0.00000000000E+00  0.99999998245E-14  0.12500000000E+03  0.12500000000E+03 0.  0.
        -13    1    3    3    0    0 -0.30911026109E+02 -0.18860992550E+02  0.14942247099E+02  0.39172828434E+02  0.10566000000E+00 0.  1.
         23    2    1    0    0    0 -0.35921781681E+01 -0.37087504466E+00 -0.29922708123E+02  0.94860163343E+02  0.89944654293E+02 0.  0.
         13    1    3    3    0    0  0.27318847941E+02  0.18490117506E+02 -0.44864955222E+02  0.55687334909E+02  0.10566000000E+00 0. -1.
         22    1    1    0    0    0  0.35921781681E+01  0.37087504466E+00  0.29922708123E+02  0.30139836657E+02  0.00000000000E+00 0. -1.
</event>
<event>
 5    1  0.9041167E-005  0.9118800E+02  0.7818608E-02  0.1130116E+00
         25   -1    0    0    0    0  0.00000000000E+00  0.00000000000E+00  0.99999998245E-14  0.12500000000E+03  0.12500000000E+03 0.  0.
        -13    1    3    3    0    0  0.36758132767E+02 -0.37423018006E+02  0.17620412263E+02  0.55336540311E+02  0.10566000000E+00 0. -1.
         23    2    1    0    0    0  0.76615277186E+01 -0.13872357671E+02  0.26787349313E+02  0.93875999654E+02  0.88566358814E+02 0.  0.
         13    1    3    3    0    0 -0.29096605048E+02  0.23550660336E+02  0.91669370498E+01  0.38539459343E+02  0.10566000000E+00 0.  1.
         22    1    1    0    0    0 -0.76615277186E+01  0.13872357671E+02 -0.26787349313E+02  0.31124000346E+02  0.00000000000E+00 0. -1.
</event>
<event>
 5    1  0.9041167E-005  0.9118800E+02  0.7818608E-02  0.1130116E+00
         25   -1    0    0    0    0  0.00000000000E+00  0.00000000000E+00  0.99999998245E-14  0.12500000000E+03  0.12500000000E+03 0.  0.
        -13    1    3    3    0    0 -0.41060839827E+02  0.44273637138E+02  0.90808958345E+01  0.61062438093E+02  0.10566000000E+00 0.  1.
         23    2    1    0    0    0 -0.22406658025E+02  0.18054461688E+02 -0.42872937175E+01  0.95906997438E+02  0.91387905980E+02 0.  0.
         13    1    3    3    0    0  0.18654181802E+02 -0.26219175450E+02 -0.13368189552E+02  0.34844559345E+02  0.10566000000E+00 0. -1.
         22    1    1    0    0    0  0.22406658025E+02 -0.18054461688E+02  0.42872937175E+01  0.29093002562E+02  0.00000000000E+00 0.  1.
</event>
<event>
 5    1  0.9041167E-005  0.9118800E+02  0.7818608E-02  0.1130116E+00
         25   -1    0    0    0    0  0.00000000000E+00  0.00000000000E+00  0.99999998245E-14  0.12500000000E+03  0.12500000000E+03 0.  0.
        -13    1    3    3    0    0 -0.50273514490E+02  0.15245142111E+02 -0.27182805905E+02  0.59150289247E+02  0.10566000000E+00 0.  1.
         23    2    1    0    0    0 -0.15514243514E+02  0.95726397837E+01 -0.24486645833E+02  0.94472585953E+02  0.89404398596E+02 0.  0.
         13    1    3    3    0    0  0.34759270976E+02 -0.56725023271E+01  0.26961600724E+01  0.35322296706E+02  0.10566000000E+00 0. -1.
         22    1    1    0    0    0  0.15514243514E+02 -0.95726397837E+01  0.24486645833E+02  0.30527414047E+02  0.00000000000E+00 0.  1.
</event>
<event>
 5    1  0.9041167E-005  0.9118800E+02  0.7818608E-02  0.1130116E+00
         25   -1    0    0    0    0  0.00000000000E+00  0.00000000000E+00  0.99999998245E-14  0.12500000000E+03  0.12500000000E+03 0.  0.
        -13    1    3    3    0    0  0.42537015557E+02  0.11311447805E+02 -0.65642860251E+01  0.44502219709E+02  0.10566000000E+00 0.  1.
         23    2    1    0    0    0 -0.46282038800E+01  0.98076324734E+01 -0.26982652813E+02  0.95919534413E+02  0.91405052395E+02 0.  0.
         13    1    3    3    0    0 -0.47165219437E+02 -0.15038153319E+01 -0.20418366788E+02  0.51417314705E+02  0.10566000000E+00 0. -1.
         22    1    1    0    0    0  0.46282038800E+01 -0.98076324734E+01  0.26982652813E+02  0.29080465587E+02  0.00000000000E+00 0. -1.
</event>
<event>
 5    1  0.9041167E-005  0.9118800E+02  0.7818608E-02  0.1130116E+00
         25   -1    0    0    0    0  0.00000000000E+00  0.00000000000E+00  0.99999998245E-14  0.12500000000E+03  0.12500000000E+03 0.  0.
        -13    1    3    3    0    0 -0.48771162422E+02 -0.18252982501E+02  0.25301416717E+02  0.57896204592E+02  0.10566000000E+00 0.  1.
         23    2    1    0    0    0 -0.27192871798E+02 -0.96474975422E+01 -0.46216930555E+01  0.95778663067E+02  0.91212201852E+02 0.  0.
         13    1    3    3    0    0  0.21578290624E+02  0.86054849589E+01 -0.29923109773E+02  0.37882458475E+02  0.10566000000E+00 0. -1.
         22    1    1    0    0    0  0.27192871798E+02  0.96474975422E+01  0.46216930555E+01  0.29221336933E+02  0.00000000000E+00 0.  1.
</event>
<event>
 5    1  0.9041167E-005  0.9118800E+02  0.7818608E-02  0.1130116E+00
         25   -1    0    0    0    0  0.00000000000E+00  0.00000000000E+00  0.99999998245E-14  0.12500000000E+03  0.12500000000E+03 0.  0.
        -13    1    3    3    0    0  0.23119270140E+02 -0.41908931249E+02  0.71764049099E+01  0.48398048738E+02  0.10566000000E+00 0. -1.
         23    2    1    0    0    0 -0.38264874518E+01 -0.70729389498E+01  0.27096922283E+02  0.96734974459E+02  0.92513478017E+02 0.  0.
         13    1    3    3    0    0 -0.26945757591E+02  0.34835992299E+02  0.19920517374E+02  0.48336925721E+02  0.10566000000E+00 0.  1.
         22    1    1    0    0    0  0.38264874518E+01  0.70729389498E+01 -0.27096922283E+02  0.28265025541E+02  0.00000000000E+00 0.  1.
</event>
<event>
 5    1  0.9041167E-005  0.9118800E+02  0.7818608E-02  0.1130116E+00
         25   -1    0    0    0    0  0.00000000000E+00  0.00000000000E+00  0.99999998245E-14  0.12500000000E+03  0.12500000000E+03 0.  0.
        -13    1    3    3    0    0 -0.20585834404E+02 -0.20099951477E+02  0.21045674232E+02  0.35647106410E+02  0.10566000000E+00 0.  1.
         23    2    1    0    0    0  0.23764983184E+02  0.15598185475E+02 -0.62894391962E+00  0.96566333576E+02  0.92285336831E+02 0.  0.
         13    1    3    3    0    0  0.44350817588E+02  0.35698136952E+02 -0.21674618151E+02  0.60919227167E+02  0.10566000000E+00 0. -1.
         22    1    1    0    0    0 -0.23764983184E+02 -0.15598185475E+02  0.62894391962E+00  0.28433666424E+02  0.00000000000E+00 0. -1.
</event>
<event>
 5    1  0.9041167E-005  0.9118800E+02  0.7818608E-02  0.1130116E+00
         25   -1    0    0    0    0  0.00000000000E+00  0.00000000000E+00  0.99999998245E-14  0.12500000000E+03  0.12500000000E+03 0.  0.
        -13    1    3    3    0    0 -0.14563199956E+02 -0.50745697102E+02  0.73739721459E+01  0.53306652460E+02  0.10566000000E+00 0. -1.
         23    2    1    0    0    0 -0.17463218436E+02 -0.16284232349E+02 -0.17062758614E+02  0.95652462576E+02  0.91039088550E+02 0.  0.
         13    1    3    3    0    0 -0.29000184806E+01  0.34461464753E+02 -0.24436730759E+02  0.42345810116E+02  0.10566000000E+00 0.  1.
         22    1    1    0    0    0  0.17463218436E+02  0.16284232349E+02  0.17062758614E+02  0.29347537424E+02  0.00000000000E+00 0. -1.
</event>
<event>
 5    1  0.9041167E-005  0.9118800E+02  0.7818608E-02  0.1130116E+00
         25   -1    0    0    0    0  0.00000000000E+00  0.00000000000E+00  0.99999998245E-14  0.12500000000E+03  0.12500000000E+03 0.  0.
        -13    1    3    3    0    0  0.39921778657E+02 -0.16136065491E+02 -0.43393414865E+02  0.61131993574E+02  0.10566000000E+00 0.  1.
         23    2    1    0    0    0  0.11663657258E+02 -0.88191881905E+01 -0.26162267925E+02  0.95028626258E+02  0.90178470626E+02 0.  0.
         13    1    3    3    0    0 -0.28258121399E+02  0.73168773005E+01  0.17231146940E+02  0.33896632684E+02  0.10566000000E+00 0. -1.
         22    1    1    0    0    0 -0.11663657258E+02  0.88191881905E+01  0.26162267925E+02  0.29971373742E+02  0.00000000000E+00 0.  1.
</event>
<event>
 5    1  0.9041167E-005  0.9118800E+02  0.7818608E-02  0.1130116E+00
         25   -1    0    0    0    0  0.00000000000E+00  0.00000000000E+00  0.99999998245E-14  0.12500000000E+03  0.12500000000E+03 0.  0.
        -13    1    3    3    0    0 -0.44858948957E+02 -0.14407651303E+02 -0.28998670048E+02  0.55324856495E+02  0.10566000000E+00 0. -1.
         23    2    1    0    0    0 -0.32170385325E+01 -0.44641477588E+01 -0.26199353711E+02  0.98229043966E+02  0.94510639567E+02 0.  0.
         13    1    3    3    0    0  0.41641910425E+02  0.99435035443E+01  0.27993163369E+01  0.42904187471E+02  0.10566000000E+00 0.  1.
         22    1    1    0    0    0  0.32170385325E+01  0.44641477588E+01  0.26199353711E+02  0.26770956034E+02  0.00000000000E+00 0. -1.
</event>
<event>
 5    1  0.9041167E-005  0.9118800E+02  0.7818608E-02  0.1130116E+00
         25   -1    0    0    0    0  0.00000000000E+00  0.00000000000E+00  0.99999998245E-14  0.12500000000E+03  0.12500000000E+03 0.  0.
        -13    1    3    3    0    0 -0.45755968631E+02 -0.13648552189E+02  0.24016480852E+02  0.53448051029E+02  0.10566000000E+00 0.  1.
         23    2    1    0    0    0 -0.66486843799E+01  0.70944029923E+01  0.25467211605E+02  0.97739874822E+02  0.93861433536E+02 0.  0.
         13    1    3    3    0    0  0.39107284251E+02  0.20742955181E+02  0.14507307530E+01  0.44291823793E+02  0.10566000000E+00 0. -1.
         22    1    1    0    0    0  0.66486843799E+01 -0.70944029923E+01 -0.25467211605E+02  0.27260125178E+02  0.00000000000E+00 0.  1.
</event>
<event>
 5    1  0.9041167E-005  0.9118800E+02  0.7818608E-02  0.1130116E+00
         25   -1    0    0    0    0  0.00000000000E+00  0.00000000000E+00  0.99999998245E-14  0.12500000000E+03  0.12500000000E+03 0.  0.
        -13    1    3    3    0    0  0.20158136842E+02 -0.25871530121E+02 -0.85382512126E+01  0.33890993634E+02  0.10566000000E+00 0. -1.
         23    2    1    0    0    0 -0.27912196625E+02  0.76467845318E+01  0.83508029064E+01  0.94878579993E+02  0.89970245071E+02 0.  0.
         13    1    3    3    0    0 -0.48070333466E+02  0.33518314653E+02  0.16889054119E+02  0.60987586358E+02  0.10566000000E+00 0.  1.
         22    1    1    0    0    0  0.27912196625E+02 -0.76467845318E+01 -0.83508029064E+01  0.30121420007E+02  0.00000000000E+00 0.  1.
</event>
<event>
 5    1  0.9041167E-005  0.9118800E+02  0.7818608E-02  0.1130116E+00
         25   -1    0    0    0    0  0.00000000000E+00  0.00000000000E+00  0.99999998245E-14  0.12500000000E+03  0.12500000000E+03 0.  0.
        -13    1    3    3    0    0  0.43420591867E+02 -0.87651857422E+01  0.13221557604E+02  0.46227665187E+02  0.10566000000E+00 0. -1.
         23    2    1    0    0    0 -0.71500229438E+00  0.21791491264E+01  0.30160380798E+02  0.94752545743E+02  0.89794968877E+02 0.  0.
         13    1    3    3    0    0 -0.44135594161E+02  0.10944334869E+02  0.16938823193E+02  0.48524880555E+02  0.10566000000E+00 0.  1.
         22    1    1    0    0    0  0.71500229438E+00 -0.21791491264E+01 -0.30160380798E+02  0.30247454257E+02  0.00000000000E+00 0.  1.
</event>
<event>
 5    1  0.9041167E-005  0.9118800E+02  0.7818608E-02  0.1130116E+00
         25   -1    0    0    0    0  0.00000000000E+00  0.00000000000E+00  0.99999998245E-14  0.12500000000E+03  0.12500000000E+03 0.  0.
        -13    1    3    3    0    0 -0.94173415717E+01 -0.25640613032E+02  0.46212674644E+02  0.53681931976E+02  0.10566000000E+00 0.  1.
         23    2    1    0    0    0  0.17966891974E+02 -0.17090086779E+02  0.15264628102E+02  0.95881463904E+02  0.91352974642E+02 0.  0.
         13    1    3    3    0    0  0.27384233545E+02  0.85505262524E+01 -0.30948046542E+02  0.42199531927E+02  0.10566000000E+00 0. -1.
         22    1    1    0    0    0 -0.17966891974E+02  0.17090086779E+02 -0.15264628102E+02  0.29118536096E+02  0.00000000000E+00 0.  1.
</event>
<event>
 5    1  0.9041167E-005  0.9118800E+02  0.7818608E-02  0.1130116E+00
         25   -1    0    0    0    0  0.00000000000E+00  0.00000000000E+00  0.99999998245E-14  0.12500000000E+03  0.12500000000E+03 0.  0.
        -13    1    3    3    0    0 -0.14031902678E+02  0.17355063975E+02  0.35917433998E+02  0.42286709110E+02  0.10566000000E+00 0.  1.
         23    2    1    0    0    0  0.20498023379E+02  0.18512889712E+02 -0.61295731578E+01  0.96707461849E+02  0.92476296759E+02 0.  0.
         13    1    3    3    0    0  0.34529926056E+02  0.11578257370E+01 -0.42047007156E+02  0.54420752739E+02  0.10566000000E+00 0. -1.
         22    1    1    0    0    0 -0.20498023379E+02 -0.18512889712E+02  0.61295731578E+01  0.28292538151E+02  0.00000000000E+00 0. -1.
</event>
<event>
 5    1  0.9041167E-005  0.9118800E+02  0.7818608E-02  0.1130116E+00
         25   -1    0    0    0    0  0.00000000000E+00  0.00000000000E+00  0.99999998245E-14  0.12500000000E+03  0.12500000000E+03 0.  0.
        -13    1    3    3    0    0  0.30112582622E+02  0.15467928778E+02  0.23111562302E+02  0.40989997913E+02  0.10566000000E+00 0.  1.
         23    2    1    0    0    0 -0.20816293372E+02  0.20505261922E+02  0.45569187145E+01  0.95427219535E+02  0.90729294518E+02 0.  0.
         13    1    3    3    0    0 -0.50928875994E+02  0.50373331446E+01 -0.18554643588E+02  0.54437221622E+02  0.10566000000E+00 0. -1.
         22    1    1    0    0    0  0.20816293372E+02 -0.20505261922E+02 -0.45569187145E+01  0.29572780465E+02  0.00000000000E+00 0. -1.
</event>
<event>
 5    1  0.9041167E-005  0.9118800E+02  0.7818608E-02  0.1130116E+00
         25   -1    0    0    0    0  0.00000000000E+00  0.00000000000E+00  0.99999998245E-14  0.12500000000E+03  0.12500000000E+03 0.  0.
        -13    1    3    3    0    0 -0.45040329329E+02  0.10709337405E+02  0.35132781519E+02  0.58117507474E+02  0.10566000000E+00 0.  1.
         23    2    1    0    0    0 -0.89564733865E+01  0.12017025504E+02  0.25389858058E+02  0.95516577375E+02  0.90852321620E+02 0.  0.
         13    1    3    3    0    0  0.36083855942E+02  0.13076880991E+01 -0.97429234616E+01  0.37399069901E+02  0.10566000000E+00 0. -1.
         22    1    1    0    0    0  0.89564733865E+01 -0.12017025504E+02 -0.25389858058E+02  0.29483422625E+02  0.00000000000E+00 0.  1.
</event>
<event>
 5    1  0.9041167E-005  0.9118800E+02  0.7818608E-02  0.1130116E+00
         25   -1    0    0    0    0  0.00000000000E+00  0.00000000000E+00  0.99999998245E-14  0.12500000000E+03  0.12500000000E+03 0.  0.
        -13    1    3    3    0    0 -0.51529813428E+02  0.74135334208E+01 -0.27904365055E+02  0.59067308241E+02  0.10566000000E+00 0. -1.
         23    2    1    0    0    0 -0.26673184100E+02 -0.91848533696E+01 -0.59089810077E+01  0.96177502919E+02  0.91757156286E+02 0.  0.
         13    1    3    3    0    0  0.24856629328E+02 -0.16598386790E+02  0.21995384047E+02  0.37110194678E+02  0.10566000000E+00 0.  1.
         22    1    1    0    0    0  0.26673184100E+02  0.91848533696E+01  0.59089810077E+01  0.28822497081E+02  0.00000000000E+00 0. -1.
</event>
<event>
 5    1  0.9041167E-005  0.9118800E+02  0.7818608E-02  0.1130116E+00
         25   -1    0    0    0    0  0.00000000000E+00  0.00000000000E+00  0.99999998245E-14  0.12500000000E+03  0.12500000000E+03 0.  0.
        -13    1    3    3    0    0  0.20799410952E+02 -0.35699095015E+02 -0.22856906484E+01  0.41379661992E+02  0.10566000000E+00 0.  1.
         23    2    1    0    0    0 -0.26370787690E+02 -0.19644353255E+02 -0.68322865173E+01  0.91414300703E+02  0.85021027845E+02 0.  0.
         13    1    3    3    0    0 -0.47170198642E+02  0.16054741759E+02 -0.45465958689E+01  0.50034638711E+02  0.10566000000E+00 0. -1.
         22    1    1    0    0    0  0.26370787690E+02  0.19644353255E+02  0.68322865173E+01  0.33585699297E+02  0.00000000000E+00 0. -1.
</event>
<event>
 5    1  0.9041167E-005  0.9118800E+02  0.7818608E-02  0.1130116E+00
         25   -1    0    0    0    0  0.00000000000E+00  0.00000000000E+00  0.99999998245E-14  0.12500000000E+03  0.12500000000E+03 0.  0.
        -13    1    3    3    0    0  0.78073456377E+01 -0.42234798564E+02  0.23672792826E+02  0.49042279106E+02  0.10566000000E+00 0.  1.
         23    2    1    0    0    0 -0.24535585564E+02 -0.10339539875E+02  0.66022035674E+01  0.97568446349E+02  0.93632855276E+02 0.  0.
         13    1    3    3    0    0 -0.32342931202E+02  0.31895258690E+02 -0.17070589258E+02  0.48526167243E+02  0.10566000000E+00 0. -1.
         22    1    1    0    0    0  0.24535585564E+02  0.10339539875E+02 -0.66022035674E+01  0.27431553651E+02  0.00000000000E+00 0.  1.
</event>
<event>
 5    1  0.9041167E-005  0.9118800E+02  0.7818608E-02  0.1130116E+00
         25   -1    0    0    0    0  0.00000000000E+00  0.00000000000E+00  0.99999998245E-14  0.12500000000E+03  0.12500000000E+03 0.  0.
        -13    1    3    3    0    0  0.28379969772E+02  0.11959152376E+02  0.43107718159E+01  0.31097233438E+02  0.10566000000E+00 0.  1.
         23    2    1    0    0    0 -0.24063507170E+02 -0.19836012844E+02 -0.58742129444E+01  0.93266324502E+02  0.87701659765E+02 0.  0.
         13    1    3    3    0    0 -0.52443476942E+02 -0.31795165220E+02 -0.10184984760E+02  0.62169091064E+02  0.10566000000E+00 0. -1.
         22    1    1    0    0    0  0.24063507170E+02  0.19836012844E+02  0.58742129444E+01  0.31733675498E+02  0.00000000000E+00 0. -1.
</event>
<event>
 5    1  0.9041167E-005  0.9118800E+02  0.7818608E-02  0.1130116E+00
         25   -1    0    0    0    0  0.00000000000E+00  0.00000000000E+00  0.99999998245E-14  0.12500000000E+03  0.12500000000E+03 0.  0.
        -13    1    3    3    0    0 -0.25745181311E+01  0.47668019714E+02  0.91600699374E+00  0.47746397560E+02  0.10566000000E+00 0. -1.
         23    2    1    0    0    0 -0.23352474452E+02  0.56330353837E+01  0.14967265413E+02  0.96696498721E+02  0.92461476737E+02 0.  0.
         13    1    3    3    0    0 -0.20777956321E+02 -0.42034984330E+02  0.14051258420E+02  0.48950101162E+02  0.10566000000E+00 0.  1.
         22    1    1    0    0    0  0.23352474452E+02 -0.56330353837E+01 -0.14967265413E+02  0.28303501279E+02  0.00000000000E+00 0.  1.
</event>
<event>
 5    1  0.9041167E-005  0.9118800E+02  0.7818608E-02  0.1130116E+00
         25   -1    0    0    0    0  0.00000000000E+00  0.00000000000E+00  0.99999998245E-14  0.12500000000E+03  0.12500000000E+03 0.  0.
        -13    1    3    3    0    0  0.52564307517E+02  0.57132011996E+01  0.26514161919E+02  0.59149463556E+02  0.10566000000E+00 0.  1.
         23    2    1    0    0    0  0.15493243480E+02  0.81999288552E+01  0.22437309671E+02  0.96526990113E+02  0.92232030923E+02 0.  0.
         13    1    3    3    0    0 -0.37071064037E+02  0.24867276556E+01 -0.40768522475E+01  0.37377526557E+02  0.10566000000E+00 0. -1.
         22    1    1    0    0    0 -0.15493243480E+02 -0.81999288552E+01 -0.22437309671E+02  0.28473009887E+02  0.00000000000E+00 0.  1.
</event>
<event>
 5    1  0.9041167E-005  0.9118800E+02  0.7818608E-02  0.1130116E+00
         25   -1    0    0    0    0  0.00000000000E+00  0.00000000000E+00  0.99999998245E-14  0.12500000000E+03  0.12500000000E+03 0.  0.
        -13    1    3    3    0    0 -0.30561266816E+02 -0.22757782959E+02  0.18122778231E+02  0.42194240951E+02  0.10566000000E+00 0. -1.
         23    2    1    0    0    0  0.21498316220E+02 -0.91722139932E+00  0.15065364448E+02  0.98732451554E+02  0.95174118796E+02 0.  0.
         13    1    3    3    0    0  0.52059583036E+02  0.21840561560E+02 -0.30574137826E+01  0.56538210603E+02  0.10566000000E+00 0.  1.
         22    1    1    0    0    0 -0.21498316220E+02  0.91722139932E+00 -0.15065364448E+02  0.26267548446E+02  0.00000000000E+00 0.  1.
</event>
<event>
 5    1  0.9041167E-005  0.9118800E+02  0.7818608E-02  0.1130116E+00
         25   -1    0    0    0    0  0.00000000000E+00  0.00000000000E+00  0.99999998245E-14  0.12500000000E+03  0.12500000000E+03 0.  0.
        -13    1    3    3    0    0  0.75143832066E+01  0.25615632447E+01  0.34109741027E+02  0.35021609875E+02  0.10566000000E+00 0.  1.
         23    2    1    0    0    0 -0.79714390410E+00 -0.22631910980E+02 -0.19679918953E+02  0.94997699371E+02  0.90135591432E+02 0.  0.
         13    1    3    3    0    0 -0.83115271107E+01 -0.25193474225E+02 -0.53789659981E+02  0.59976089496E+02  0.10566000000E+00 0. -1.
         22    1    1    0    0    0  0.79714390410E+00  0.22631910980E+02  0.19679918953E+02  0.30002300629E+02  0.00000000000E+00 0. -1.
</event>
<event>
 5    1  0.9041167E-005  0.9118800E+02  0.7818608E-02  0.1130116E+00
         25   -1    0    0    0    0  0.00000000000E+00  0.00000000000E+00  0.99999998245E-14  0.12500000000E+03  0.12500000000E+03 0.  0.
        -13    1    3    3    0    0 -0.21519929072E+01  0.26238903094E+02  0.33996056512E+02  0.42998303821E+02  0.10566000000E+00 0. -1.
         23    2    1    0    0    0  0.61873133980E+00 -0.23592015384E+02  0.17701559223E+02  0.95498962437E+02  0.90828082713E+02 0.  0.
         13    1    3    3    0    0  0.27707242470E+01 -0.49830918478E+02 -0.16294497289E+02  0.52500658617E+02  0.10566000000E+00 0.  1.
         22    1    1    0    0    0 -0.61873133980E+00  0.23592015384E+02 -0.17701559223E+02  0.29501037563E+02  0.00000000000E+00 0.  1.
</event>
<event>
 5    1  0.9041167E-005  0.9118800E+02  0.7818608E-02  0.1130116E+00
         25   -1    0    0    0    0  0.00000000000E+00  0.00000000000E+00  0.99999998245E-14  0.12500000000E+03  0.12500000000E+03 0.  0.
        -13    1    3    3    0    0 -0.28201421460E+02 -0.13917354334E+02 -0.19847401011E+02  0.37187947173E+02  0.10566000000E+00 0.  1.
         23    2    1    0    0    0 -0.49977473838E+01  0.25110486525E+02  0.15799936620E+02  0.94914255707E+02  0.90019797416E+02 0.  0.
         13    1    3    3    0    0  0.23203674077E+02  0.39027840859E+02  0.35647337631E+02  0.57726308534E+02  0.10566000000E+00 0. -1.
         22    1    1    0    0    0  0.49977473838E+01 -0.25110486525E+02 -0.15799936620E+02  0.30085744293E+02  0.00000000000E+00 0. -1.
</event>
<event>
 5    1  0.9041167E-005  0.9118800E+02  0.7818608E-02  0.1130116E+00
         25   -1    0    0    0    0  0.00000000000E+00  0.00000000000E+00  0.99999998245E-14  0.12500000000E+03  0.12500000000E+03 0.  0.
        -13    1    3    3    0    0  0.34887710645E+02  0.95408580293E+01 -0.28990507940E+02  0.46353436125E+02  0.10566000000E+00 0. -1.
         23    2    1    0    0    0 -0.57582950506E+01 -0.16131935520E+02 -0.25135966446E+02  0.94582667529E+02  0.89558175965E+02 0.  0.
         13    1    3    3    0    0 -0.40646005695E+02 -0.25672793549E+02  0.38545414938E+01  0.48229231403E+02  0.10566000000E+00 0.  1.
         22    1    1    0    0    0  0.57582950506E+01  0.16131935520E+02  0.25135966446E+02  0.30417332471E+02  0.00000000000E+00 0. -1.
</event>
<event>
 5    1  0.9041167E-005  0.9118800E+02  0.7818608E-02  0.1130116E+00
         25   -1    0    0    0    0  0.00000000000E+00  0.00000000000E+00  0.99999998245E-14  0.12500000000E+03  0.12500000000E+03 0.  0.
        -13    1    3    3    0    0 -0.33091833802E+02 -0.25585420885E+01 -0.37752994419E+01  0.33404784865E+02  0.10566000000E+00 0.  1.
         23    2    1    0    0    0  0.27035301580E+02  0.78060985433E+01  0.84240191126E+01  0.95626426775E+02  0.91003333421E+02 0.  0.
         13    1    3    3    0    0  0.60127135382E+02  0.10364640632E+02  0.12199318555E+02  0.62221641910E+02  0.10566000000E+00 0. -1.
         22    1    1    0    0    0 -0.27035301580E+02 -0.78060985433E+01 -0.84240191126E+01  0.29373573225E+02  0.00000000000E+00 0. -1.
</event>
<event>
 5    1  0.9041167E-005  0.9118800E+02  0.7818608E-02  0.1130116E+00
         25   -1    0    0    0    0  0.00000000000E+00  0.00000000000E+00  0.99999998245E-14  0.12500000000E+03  0.12500000000E+03 0.  0.
        -13    1    3    3    0    0  0.17663466697E+02  0.57566083845E+02 -0.13022639617E+02  0.61607242851E+02  0.10566000000E+00 0.  1.
         23    2    1    0    0    0  0.90167382811E+01  0.35491365098E+02 -0.59216700302E+00  0.88376384293E+02  0.80430691115E+02 0.  0.
         13    1    3    3    0    0 -0.86467284164E+01 -0.22074718748E+02  0.12430472614E+02  0.26769141442E+02  0.10566000000E+00 0. -1.
         22    1    1    0    0    0 -0.90167382811E+01 -0.35491365098E+02  0.59216700302E+00  0.36623615707E+02  0.00000000000E+00 0.  1.
</event>
<event>
 5    1  0.9041167E-005  0.9118800E+02  0.7818608E-02  0.1130116E+00
         25   -1    0    0    0    0  0.00000000000E+00  0.00000000000E+00  0.99999998245E-14  0.12500000000E+03  0.12500000000E+03 0.  0.
        -13    1    3    3    0    0 -0.47991611918E+02 -0.25783992593E+02  0.21331905627E+02  0.58507011975E+02  0.10566000000E+00 0. -1.
         23    2    1    0    0    0 -0.17703446086E+02 -0.12841118489E+02 -0.70868703049E+01  0.10201021840E+03  0.99385887326E+02 0.  0.
         13    1    3    3    0    0  0.30288165832E+02  0.12942874104E+02 -0.28418775932E+02  0.43503206423E+02  0.10566000000E+00 0.  1.
         22    1    1    0    0    0  0.17703446086E+02  0.12841118489E+02  0.70868703049E+01  0.22989781602E+02  0.00000000000E+00 0.  1.
</event>
<event>
 5    1  0.9041167E-005  0.9118800E+02  0.7818608E-02  0.1130116E+00
         25   -1    0    0    0    0  0.00000000000E+00  0.00000000000E+00  0.99999998245E-14  0.12500000000E+03  0.12500000000E+03 0.  0.
        -13    1    3    3    0    0 -0.75949418294E+01 -0.53873071849E+02  0.42453880768E+01  0.54571288200E+02  0.10566000000E+00 0.  1.
         23    2    1    0    0    0 -0.12675782002E+01 -0.20865244747E+02 -0.20044482620E+02  0.96038879919E+02  0.91568116611E+02 0.  0.
         13    1    3    3    0    0  0.63273636292E+01  0.33007827102E+02 -0.24289870697E+02  0.41467591719E+02  0.10566000000E+00 0. -1.
         22    1    1    0    0    0  0.12675782002E+01  0.20865244747E+02  0.20044482620E+02  0.28961120081E+02  0.00000000000E+00 0.  1.
</event>
<event>
 5    1  0.9041167E-005  0.9118800E+02  0.7818608E-02  0.1130116E+00
         25   -1    0    0    0    0  0.00000000000E+00  0.00000000000E+00  0.99999998245E-14  0.12500000000E+03  0.12500000000E+03 0.  0.
        -13    1    3    3    0    0  0.15635526706E+02 -0.12760006420E+02 -0.55043697159E+02  0.58626847264E+02  0.10566000000E+00 0. -1.
         23    2    1    0    0    0 -0.80950996471E+01 -0.57343088489E+01 -0.28042905974E+02  0.95254117734E+02  0.90490493609E+02 0.  0.
         13    1    3    3    0    0 -0.23730626353E+02  0.70256975710E+01  0.27000791184E+02  0.36627270470E+02  0.10566000000E+00 0.  1.
         22    1    1    0    0    0  0.80950996471E+01  0.57343088489E+01  0.28042905974E+02  0.29745882266E+02  0.00000000000E+00 0. -1.
</event>
<event>
 5    1  0.9041167E-005  0.9118800E+02  0.7818608E-02  0.1130116E+00
         25   -1    0    0    0    0  0.00000000000E+00  0.00000000000E+00  0.99999998245E-14  0.12500000000E+03  0.12500000000E+03 0.  0.
        -13    1    3    3    0    0  0.13002610431E+02  0.34109732219E+02  0.54657823907E+00  0.36508240466E+02  0.10566000000E+00 0. -1.
         23    2    1    0    0    0 -0.19932496743E+02 -0.11237299769E+02 -0.18366420211E+02  0.95658787962E+02  0.91047773122E+02 0.  0.
         13    1    3    3    0    0 -0.32935107174E+02 -0.45347031989E+02 -0.18912998450E+02  0.59150547496E+02  0.10566000000E+00 0.  1.
         22    1    1    0    0    0  0.19932496743E+02  0.11237299769E+02  0.18366420211E+02  0.29341212038E+02  0.00000000000E+00 0.  1.
</event>
<event>
 5    1  0.9041167E-005  0.9118800E+02  0.7818608E-02  0.1130116E+00
         25   -1    0    0    0    0  0.00000000000E+00  0.00000000000E+00  0.99999998245E-14  0.12500000000E+03  0.12500000000E+03 0.  0.
        -13    1    3    3    0    0  0.12549169036E+02  0.48743882394E+02 -0.34481699752E+01  0.50451449480E+02  0.10566000000E+00 0.  1.
         23    2    1    0    0    0  0.89246583999E+01  0.35035045013E+02  0.24179492152E+02  0.81505727419E+02  0.68930630744E+02 0.  0.
         13    1    3    3    0    0 -0.36245106365E+01 -0.13708837382E+02  0.27627662127E+02  0.31054277940E+02  0.10566000000E+00 0. -1.
         22    1    1    0    0    0 -0.89246583999E+01 -0.35035045013E+02 -0.24179492152E+02  0.43494272581E+02  0.00000000000E+00 0. -1.
</event>
<event>
 5    1  0.9041167E-005  0.9118800E+02  0.7818608E-02  0.1130116E+00
         25   -1    0    0    0    0  0.00000000000E+00  0.00000000000E+00  0.99999998245E-14  0.12500000000E+03  0.12500000000E+03 0.  0.
        -13    1    3    3    0    0  0.68972643920E+01  0.48790448438E+01 -0.48803794235E+02  0.49529777210E+02  0.10566000000E+00 0.  1.
         23    2    1    0    0    0 -0.18836008284E+01  0.12616751983E+02  0.95620053420E+01  0.10905753065E+03  0.10788597065E+03 0.  0.
         13    1    3    3    0    0 -0.87808652204E+01  0.77377071393E+01  0.58365799577E+02  0.59527753444E+02  0.10566000000E+00 0. -1.
         22    1    1    0    0    0  0.18836008284E+01 -0.12616751983E+02 -0.95620053420E+01  0.15942469346E+02  0.00000000000E+00 0. -1.
</event>
<event>
 5    1  0.9041167E-005  0.9118800E+02  0.7818608E-02  0.1130116E+00
         25   -1    0    0    0    0  0.00000000000E+00  0.00000000000E+00  0.99999998245E-14  0.12500000000E+03  0.12500000000E+03 0.  0.
        -13    1    3    3    0    0  0.20002485160E+02  0.34838755864E+02  0.95365823371E+01  0.41289173998E+02  0.10566000000E+00 0. -1.
         23    2    1    0    0    0  0.15399644955E+02 -0.20661500334E+02  0.10956975379E+02  0.96998179162E+02  0.92868427307E+02 0.  0.
         13    1    3    3    0    0 -0.46028402052E+01 -0.55500256198E+02  0.14203930422E+01  0.55709005164E+02  0.10566000000E+00 0.  1.
         22    1    1    0    0    0 -0.15399644955E+02  0.20661500334E+02 -0.10956975379E+02  0.28001820838E+02  0.00000000000E+00 0.  1.
</event>
<event>
 5    1  0.9041167E-005  0.9118800E+02  0.7818608E-02  0.1130116E+00
         25   -1    0    0    0    0  0.00000000000E+00  0.00000000000E+00  0.99999998245E-14  0.12500000000E+03  0.12500000000E+03 0.  0.
        -13    1    3    3    0    0 -0.21547185495E+02  0.68972928294E+01 -0.27729054354E+02  0.35787783817E+02  0.10566000000E+00 0. -1.
         23    2    1    0    0    0  0.30386891806E+01  0.13636974666E+02  0.26126528105E+02  0.95372374702E+02  0.90653701940E+02 0.  0.
         13    1    3    3    0    0  0.24585874676E+02  0.67396818362E+01  0.53855582459E+02  0.59584590885E+02  0.10566000000E+00 0.  1.
         22    1    1    0    0    0 -0.30386891806E+01 -0.13636974666E+02 -0.26126528105E+02  0.29627625298E+02  0.00000000000E+00 0.  1.
</event>
<event>
 5    1  0.9041167E-005  0.9118800E+02  0.7818608E-02  0.1130116E+00
         25   -1    0    0    0    0  0.00000000000E+00  0.00000000000E+00  0.99999998245E-14  0.12500000000E+03  0.12500000000E+03 0.  0.
        -13    1    3    3    0    0  0.59898395174E+01 -0.35111800287E+01  0.38886498855E+02  0.39501614143E+02  0.10566000000E+00 0. -1.
         23    2    1    0    0    0 -0.28393968846E+02  0.66650040771E+01 -0.41735863899E+01  0.95537166302E+02  0.90880644670E+02 0.  0.
         13    1    3    3    0    0 -0.34383808363E+02  0.10176184106E+02 -0.43060085245E+02  0.56035552160E+02  0.10566000000E+00 0.  1.
         22    1    1    0    0    0  0.28393968846E+02 -0.66650040771E+01  0.41735863899E+01  0.29462833698E+02  0.00000000000E+00 0.  1.
</event>
<event>
 5    1  0.9041167E-005  0.9118800E+02  0.7818608E-02  0.1130116E+00
         25   -1    0    0    0    0  0.00000000000E+00  0.00000000000E+00  0.99999998245E-14  0.12500000000E+03  0.12500000000E+03 0.  0.
        -13    1    3    3    0    0  0.30649046123E+02 -0.18886459831E+02 -0.18568673757E+02  0.40507643752E+02  0.10566000000E+00 0. -1.
         23    2    1    0    0    0 -0.11258766347E+02 -0.20576900314E+02  0.17427701546E+02  0.95778545085E+02  0.91212040166E+02 0.  0.
         13    1    3    3    0    0 -0.41907812470E+02 -0.16904404822E+01  0.35996375304E+02  0.55270901332E+02  0.10566000000E+00 0.  1.
         22    1    1    0    0    0  0.11258766347E+02  0.20576900314E+02 -0.17427701546E+02  0.29221454915E+02  0.00000000000E+00 0.  1.
</event>
<event>
 5    1  0.9041167E-005  0.9118800E+02  0.7818608E-02  0.1130116E+00
         25   -1    0    0    0    0  0.00000000000E+00  0.00000000000E+00  0.99999998245E-14  0.12500000000E+03  0.12500000000E+03 0.  0.
        -13    1    3    3    0    0 -0.33828880387E+02 -0.48749257007E+02  0.16025501875E+01  0.59358761258E+02  0.10566000000E+00 0. -1.
         23    2    1    0    0    0 -0.18579696238E+02 -0.24633552236E+02  0.14780593622E+02  0.90787678303E+02  0.84094705992E+02 0.  0.
         13    1    3    3    0    0  0.15249184149E+02  0.24115704771E+02  0.13178043435E+02  0.31428917045E+02  0.10566000000E+00 0.  1.
         22    1    1    0    0    0  0.18579696238E+02  0.24633552236E+02 -0.14780593622E+02  0.34212321697E+02  0.00000000000E+00 0. -1.
</event>
<event>
 5    1  0.9041167E-005  0.9118800E+02  0.7818608E-02  0.1130116E+00
         25   -1    0    0    0    0  0.00000000000E+00  0.00000000000E+00  0.99999998245E-14  0.12500000000E+03  0.12500000000E+03 0.  0.
        -13    1    3    3    0    0  0.54875541125E+02 -0.10537139007E+02  0.68310882525E+01  0.56294149278E+02  0.10566000000E+00 0.  1.
         23    2    1    0    0    0  0.15725582215E+02 -0.22447392969E+02  0.16468918278E+01  0.97542912759E+02  0.93598761689E+02 0.  0.
         13    1    3    3    0    0 -0.39149958910E+02 -0.11910253961E+02 -0.51841964247E+01  0.41248763480E+02  0.10566000000E+00 0. -1.
         22    1    1    0    0    0 -0.15725582215E+02  0.22447392969E+02 -0.16468918278E+01  0.27457087241E+02  0.00000000000E+00 0.  1.
</event>
<event>
 5    1  0.9041167E-005  0.9118800E+02  0.7818608E-02  0.1130116E+00
         25   -1    0    0    0    0  0.00000000000E+00  0.00000000000E+00  0.99999998245E-14  0.12500000000E+03  0.12500000000E+03 0.  0.
        -13    1    3    3    0    0  0.26487159245E+02  0.54013239126E+02 -0.15047194078E+02  0.62011521667E+02  0.10566000000E+00 0.  1.
         23    2    1    0    0    0  0.11172355445E+02  0.31238256214E+02 -0.40524182730E+01  0.91577368874E+02  0.85260437593E+02 0.  0.
         13    1    3    3    0    0 -0.15314803801E+02 -0.22774982911E+02  0.10994775805E+02  0.29565847208E+02  0.10566000000E+00 0. -1.
         22    1    1    0    0    0 -0.11172355445E+02 -0.31238256214E+02  0.40524182730E+01  0.33422631126E+02  0.00000000000E+00 0.  1.
</event>
<event>
 5    1  0.9041167E-005  0.9118800E+02  0.7818608E-02  0.1130116E+00
         25   -1    0    0    0    0  0.00000000000E+00  0.00000000000E+00  0.99999998245E-14  0.12500000000E+03  0.12500000000E+03 0.  0.
        -13    1    3    3    0    0  0.14997307104E+02 -0.19624947956E+02  0.21073498733E+02  0.32467850491E+02  0.10566000000E+00 0. -1.
         23    2    1    0    0    0 -0.18659915946E+01  0.19516792032E+02 -0.23672260667E+02  0.94263002409E+02  0.89110889358E+02 0.  0.
         13    1    3    3    0    0 -0.16863298698E+02  0.39141739987E+02 -0.44745759400E+02  0.61795151918E+02  0.10566000000E+00 0.  1.
         22    1    1    0    0    0  0.18659915946E+01 -0.19516792032E+02  0.23672260667E+02  0.30736997591E+02  0.00000000000E+00 0.  1.
</event>
<event>
 5    1  0.9041167E-005  0.9118800E+02  0.7818608E-02  0.1130116E+00
         25   -1    0    0    0    0  0.00000000000E+00  0.00000000000E+00  0.99999998245E-14  0.12500000000E+03  0.12500000000E+03 0.  0.
        -13    1    3    3    0    0 -0.20034849032E+02 -0.18865499001E+02 -0.21625254218E+02  0.34999500173E+02  0.10566000000E+00 0. -1.
         23    2    1    0    0    0  0.30070579153E+02  0.66323445469E+01 -0.11530164912E+02  0.92118813469E+02  0.86050586094E+02 0.  0.
         13    1    3    3    0    0  0.50105428186E+02  0.25497843548E+02  0.10095089306E+02  0.57119313296E+02  0.10566000000E+00 0.  1.
         22    1    1    0    0    0 -0.30070579153E+02 -0.66323445469E+01  0.11530164912E+02  0.32881186531E+02  0.00000000000E+00 0.  1.
</event>
<event>
 5    1  0.9041167E-005  0.9118800E+02  0.7818608E-02  0.1130116E+00
         25   -1    0    0    0    0  0.00000000000E+00  0.00000000000E+00  0.99999998245E-14  0.12500000000E+03  0.12500000000E+03 0.  0.
        -13    1    3    3    0    0  0.30328391127E+02 -0.45076115310E+02 -0.99846560939E+01  0.55239225204E+02  0.10566000000E+00 0.  1.
         23    2    1    0    0    0  0.16647737565E+02 -0.17001757024E+02  0.16381564319E+02  0.96111203599E+02  0.91666792787E+02 0.  0.
         13    1    3    3    0    0 -0.13680653562E+02  0.28074358286E+02  0.26366220413E+02  0.40871978395E+02  0.10566000000E+00 0. -1.
         22    1    1    0    0    0 -0.16647737565E+02  0.17001757024E+02 -0.16381564319E+02  0.28888796401E+02  0.00000000000E+00 0.  1.
</event>
<event>
 5    1  0.9041167E-005  0.9118800E+02  0.7818608E-02  0.1130116E+00
         25   -1    0    0    0    0  0.00000000000E+00  0.00000000000E+00  0.99999998245E-14  0.12500000000E+03  0.12500000000E+03 0.  0.
        -13    1    3    3    0    0  0.27760571130E+02  0.51956524002E+02  0.17069486254E+02  0.61331135819E+02  0.10566000000E+00 0.  1.
         23    2    1    0    0    0  0.14183895063E+02  0.24612989344E+02 -0.56476057032E+00  0.96586955846E+02  0.92313265360E+02 0.  0.
         13    1    3    3    0    0 -0.13576676067E+02 -0.27343534658E+02 -0.17634246824E+02  0.35255820027E+02  0.10566000000E+00 0. -1.
         22    1    1    0    0    0 -0.14183895063E+02 -0.24612989344E+02  0.56476057032E+00  0.28413044154E+02  0.00000000000E+00 0.  1.
</event>
<event>
 5    1  0.9041167E-005  0.9118800E+02  0.7818608E-02  0.1130116E+00
         25   -1    0    0    0    0  0.00000000000E+00  0.00000000000E+00  0.99999998245E-14  0.12500000000E+03  0.12500000000E+03 0.  0.
        -13    1    3    3    0    0 -0.17121917398E+02 -0.46986606272E+02  0.32276863070E+02  0.59520654214E+02  0.10566000000E+00 0. -1.
         23    2    1    0    0    0 -0.21118422916E+02 -0.22990975698E+02  0.10813671595E+02  0.91962018170E+02  0.85822517689E+02 0.  0.
         13    1    3    3    0    0 -0.39965055183E+01  0.23995630574E+02 -0.21463191475E+02  0.32441363956E+02  0.10566000000E+00 0.  1.
         22    1    1    0    0    0  0.21118422916E+02  0.22990975698E+02 -0.10813671595E+02  0.33037981830E+02  0.00000000000E+00 0. -1.
</event>
<event>
 5    1  0.9041167E-005  0.9118800E+02  0.7818608E-02  0.1130116E+00
         25   -1    0    0    0    0  0.00000000000E+00  0.00000000000E+00  0.99999998245E-14  0.12500000000E+03  0.12500000000E+03 0.  0.
        -13    1    3    3    0    0  0.35045945824E+02 -0.47602183196E+01 -0.41609629685E+02  0.54609984835E+02  0.10566000000E+00 0.  1.
         23    2    1    0    0    0  0.28458898259E+02  0.75667491417E+01 -0.33261597775E+01  0.95365089480E+02  0.90643655983E+02 0.  0.
         13    1    3    3    0    0 -0.65870475654E+01  0.12326967461E+02  0.38283469907E+02  0.40755104645E+02  0.10566000000E+00 0. -1.
         22    1    1    0    0    0 -0.28458898259E+02 -0.75667491417E+01  0.33261597775E+01  0.29634910520E+02  0.00000000000E+00 0.  1.
</event>
<event>
 5    1  0.9041167E-005  0.9118800E+02  0.7818608E-02  0.1130116E+00
         25   -1    0    0    0    0  0.00000000000E+00  0.00000000000E+00  0.99999998245E-14  0.12500000000E+03  0.12500000000E+03 0.  0.
        -13    1    3    3    0    0  0.39690174691E+01 -0.45519207421E+02 -0.98861523425E+01  0.46749315675E+02  0.10566000000E+00 0.  1.
         23    2    1    0    0    0 -0.28331851051E+02 -0.18068429279E+02  0.35311825393E+01  0.91211967048E+02  0.84723029703E+02 0.  0.
         13    1    3    3    0    0 -0.32300868520E+02  0.27450778142E+02  0.13417334882E+02  0.44462651373E+02  0.10566000000E+00 0. -1.
         22    1    1    0    0    0  0.28331851051E+02  0.18068429279E+02 -0.35311825393E+01  0.33788032952E+02  0.00000000000E+00 0. -1.
</event>
<event>
 5    1  0.9041167E-005  0.9118800E+02  0.7818608E-02  0.1130116E+00
         25   -1    0    0    0    0  0.00000000000E+00  0.00000000000E+00  0.99999998245E-14  0.12500000000E+03  0.12500000000E+03 0.  0.
        -13    1    3    3    0    0  0.21289240473E+02  0.46859123600E+01 -0.42531581364E+02  0.47792636587E+02  0.10566000000E+00 0.  1.
         23    2    1    0    0    0 -0.17363341079E+02 -0.10456514662E+02 -0.24896514907E+02  0.92896094212E+02  0.87172378384E+02 0.  0.
         13    1    3    3    0    0 -0.38652581552E+02 -0.15142427022E+02  0.17635066457E+02  0.45103457625E+02  0.10566000000E+00 0. -1.
         22    1    1    0    0    0  0.17363341079E+02  0.10456514662E+02  0.24896514907E+02  0.32103905788E+02  0.00000000000E+00 0.  1.
</event>
<event>
 5    1  0.9041167E-005  0.9118800E+02  0.7818608E-02  0.1130116E+00
         25   -1    0    0    0    0  0.00000000000E+00  0.00000000000E+00  0.99999998245E-14  0.12500000000E+03  0.12500000000E+03 0.  0.
        -13    1    3    3    0    0  0.13980509978E+02  0.47679996408E+02  0.21181111101E+02  0.54013769987E+02  0.10566000000E+00 0. -1.
         23    2    1    0    0    0 -0.16401654006E+02  0.22657758737E+02  0.12717913866E+02  0.94273242635E+02  0.89125252643E+02 0.  0.
         13    1    3    3    0    0 -0.30382163984E+02 -0.25022237671E+02 -0.84631972356E+01  0.40259472648E+02  0.10566000000E+00 0.  1.
         22    1    1    0    0    0  0.16401654006E+02 -0.22657758737E+02 -0.12717913866E+02  0.30726757365E+02  0.00000000000E+00 0.  1.
</event>
<event>
 5    1  0.9041167E-005  0.9118800E+02  0.7818608E-02  0.1130116E+00
         25   -1    0    0    0    0  0.00000000000E+00  0.00000000000E+00  0.99999998245E-14  0.12500000000E+03  0.12500000000E+03 0.  0.
        -13    1    3    3    0    0  0.37232636186E+02 -0.63227939061E+01 -0.10383919341E+02  0.39167382668E+02  0.10566000000E+00 0.  1.
         23    2    1    0    0    0 -0.12873551192E+02 -0.15317950382E+02  0.18543449310E+02  0.97719467811E+02  0.93834252557E+02 0.  0.
         13    1    3    3    0    0 -0.50106187378E+02 -0.89951564755E+01  0.28927368651E+02  0.58552085143E+02  0.10566000000E+00 0. -1.
         22    1    1    0    0    0  0.12873551192E+02  0.15317950382E+02 -0.18543449310E+02  0.27280532189E+02  0.00000000000E+00 0. -1.
</event>
<event>
 5    1  0.9041167E-005  0.9118800E+02  0.7818608E-02  0.1130116E+00
         25   -1    0    0    0    0  0.00000000000E+00  0.00000000000E+00  0.99999998245E-14  0.12500000000E+03  0.12500000000E+03 0.  0.
        -13    1    3    3    0    0 -0.28414030904E+02  0.17585926364E+02 -0.62384880509E+01  0.33993409001E+02  0.10566000000E+00 0. -1.
         23    2    1    0    0    0  0.19597499046E+02 -0.12190028759E+02 -0.22484963337E+02  0.92778386970E+02  0.87003429487E+02 0.  0.
         13    1    3    3    0    0  0.48011529949E+02 -0.29775955123E+02 -0.16246475286E+02  0.58784977969E+02  0.10566000000E+00 0.  1.
         22    1    1    0    0    0 -0.19597499046E+02  0.12190028759E+02  0.22484963337E+02  0.32221613030E+02  0.00000000000E+00 0.  1.
</event>
<event>
 5    1  0.9041167E-005  0.9118800E+02  0.7818608E-02  0.1130116E+00
         25   -1    0    0    0    0  0.00000000000E+00  0.00000000000E+00  0.99999998245E-14  0.12500000000E+03  0.12500000000E+03 0.  0.
        -13    1    3    3    0    0  0.38895046295E+02 -0.21487658071E+02 -0.14212456575E+02  0.46653501065E+02  0.10566000000E+00 0.  1.
         23    2    1    0    0    0  0.20626825723E+02  0.17183475977E+02  0.10643221365E+02  0.96120665744E+02  0.91679694785E+02 0.  0.
         13    1    3    3    0    0 -0.18268220571E+02  0.38671134049E+02  0.24855677940E+02  0.49467164679E+02  0.10566000000E+00 0. -1.
         22    1    1    0    0    0 -0.20626825723E+02 -0.17183475977E+02 -0.10643221365E+02  0.28879334256E+02  0.00000000000E+00 0. -1.
</event>
<event>
 5    1  0.9041167E-005  0.9118800E+02  0.7818608E-02  0.1130116E+00
         25   -1    0    0    0    0  0.00000000000E+00  0.00000000000E+00  0.99999998245E-14  0.12500000000E+03  0.12500000000E+03 0.  0.
        -13    1    3    3    0    0 -0.19443734289E+01 -0.37432523420E+02  0.24685256131E+02  0.44881482060E+02  0.10566000000E+00 0.  1.
         23    2    1    0    0    0 -0.30894741146E+01  0.13608221240E+02  0.25488584138E+02  0.95941499402E+02  0.91435085447E+02 0.  0.
         13    1    3    3    0    0 -0.11451006857E+01  0.51040744660E+02  0.80332800697E+00  0.51060017342E+02  0.10566000000E+00 0. -1.
         22    1    1    0    0    0  0.30894741146E+01 -0.13608221240E+02 -0.25488584138E+02  0.29058500598E+02  0.00000000000E+00 0. -1.
</event>
<event>
 5    1  0.9041167E-005  0.9118800E+02  0.7818608E-02  0.1130116E+00
         25   -1    0    0    0    0  0.00000000000E+00  0.00000000000E+00  0.99999998245E-14  0.12500000000E+03  0.12500000000E+03 0.  0.
        -13    1    3    3    0    0 -0.40643578215E+02 -0.12065033111E+02 -0.11188279908E+02  0.43848081434E+02  0.10566000000E+00 0. -1.
         23    2    1    0    0    0  0.16273370859E+02  0.10097035236E+02 -0.59474351331E+00  0.10583945618E+03  0.10409065301E+03 0.  0.
         13    1    3    3    0    0  0.56916949074E+02  0.22162068347E+02  0.10593536395E+02  0.61991374745E+02  0.10566000000E+00 0.  1.
         22    1    1    0    0    0 -0.16273370859E+02 -0.10097035236E+02  0.59474351331E+00  0.19160543821E+02  0.00000000000E+00 0.  1.
</event>
<event>
 5    1  0.9041167E-005  0.9118800E+02  0.7818608E-02  0.1130116E+00
         25   -1    0    0    0    0  0.00000000000E+00  0.00000000000E+00  0.99999998245E-14  0.12500000000E+03  0.12500000000E+03 0.  0.
        -13    1    3    3    0    0 -0.46910840250E+01 -0.51385400823E+02 -0.13238269234E+02  0.53270335305E+02  0.10566000000E+00 0. -1.
         23    2    1    0    0    0  0.15491375298E+02 -0.15591107848E+02 -0.20436229031E+02  0.94988255473E+02  0.90122493687E+02 0.  0.
         13    1    3    3    0    0  0.20182459323E+02  0.35794292976E+02 -0.71979597963E+01  0.41717920169E+02  0.10566000000E+00 0.  1.
         22    1    1    0    0    0 -0.15491375298E+02  0.15591107848E+02  0.20436229031E+02  0.30011744527E+02  0.00000000000E+00 0. -1.
</event>
<event>
 5    1  0.9041167E-005  0.9118800E+02  0.7818608E-02  0.1130116E+00
         25   -1    0    0    0    0  0.00000000000E+00  0.00000000000E+00  0.99999998245E-14  0.12500000000E+03  0.12500000000E+03 0.  0.
        -13    1    3    3    0    0 -0.13123393005E+02 -0.12222899540E+02 -0.45258123591E+02  0.48681943594E+02  0.10566000000E+00 0. -1.
         23    2    1    0    0    0 -0.53772652036E+01  0.19518040406E+02  0.30937707474E+00  0.10475241751E+03  0.10277696424E+03 0.  0.
         13    1    3    3    0    0  0.77461278019E+01  0.31740939946E+02  0.45567500666E+02  0.56070473919E+02  0.10566000000E+00 0.  1.
         22    1    1    0    0    0  0.53772652036E+01 -0.19518040406E+02 -0.30937707474E+00  0.20247582486E+02  0.00000000000E+00 0. -1.
</event>
<event>
 5    1  0.9041167E-005  0.9118800E+02  0.7818608E-02  0.1130116E+00
         25   -1    0    0    0    0  0.00000000000E+00  0.00000000000E+00  0.99999998245E-14  0.12500000000E+03  0.12500000000E+03 0.  0.
        -13    1    3    3    0    0  0.44080236546E+02 -0.18762005685E+02 -0.30619460838E+02  0.56856333484E+02  0.10566000000E+00 0. -1.
         23    2    1    0    0    0  0.14873283508E+02  0.68493441894E+01 -0.23513386523E+02  0.96346772889E+02  0.91987462310E+02 0.  0.
         13    1    3    3    0    0 -0.29206953038E+02  0.25611349874E+02  0.71060743152E+01  0.39490439404E+02  0.10566000000E+00 0.  1.
         22    1    1    0    0    0 -0.14873283508E+02 -0.68493441894E+01  0.23513386523E+02  0.28653227111E+02  0.00000000000E+00 0. -1.
</event>
<event>
 5    1  0.9041167E-005  0.9118800E+02  0.7818608E-02  0.1130116E+00
         25   -1    0    0    0    0  0.00000000000E+00  0.00000000000E+00  0.99999998245E-14  0.12500000000E+03  0.12500000000E+03 0.  0.
        -13    1    3    3    0    0  0.14623546460E+02 -0.82910473209E+01 -0.42033082652E+02  0.45270087011E+02  0.10566000000E+00 0.  1.
         23    2    1    0    0    0  0.29340809556E+02  0.14969716225E+02 -0.45891404850E+01  0.91742884676E+02  0.85502755330E+02 0.  0.
         13    1    3    3    0    0  0.14717263096E+02  0.23260763546E+02  0.37443942167E+02  0.46472797665E+02  0.10566000000E+00 0. -1.
         22    1    1    0    0    0 -0.29340809556E+02 -0.14969716225E+02  0.45891404850E+01  0.33257115324E+02  0.00000000000E+00 0.  1.
</event>
<event>
 5    1  0.9041167E-005  0.9118800E+02  0.7818608E-02  0.1130116E+00
         25   -1    0    0    0    0  0.00000000000E+00  0.00000000000E+00  0.99999998245E-14  0.12500000000E+03  0.12500000000E+03 0.  0.
        -13    1    3    3    0    0  0.22287241517E+02  0.48019400312E+02 -0.66122339840E+00  0.52943671210E+02  0.10566000000E+00 0.  1.
         23    2    1    0    0    0  0.13056902195E+02  0.12035998494E+02 -0.22731979563E+02  0.96154015019E+02  0.91725153338E+02 0.  0.
         13    1    3    3    0    0 -0.92303393220E+01 -0.35983401818E+02 -0.22070756164E+02  0.43210343809E+02  0.10566000000E+00 0. -1.
         22    1    1    0    0    0 -0.13056902195E+02 -0.12035998494E+02  0.22731979563E+02  0.28845984981E+02  0.00000000000E+00 0.  1.
</event>
<event>
 5    1  0.9041167E-005  0.9118800E+02  0.7818608E-02  0.1130116E+00
         25   -1    0    0    0    0  0.00000000000E+00  0.00000000000E+00  0.99999998245E-14  0.12500000000E+03  0.12500000000E+03 0.  0.
        -13    1    3    3    0    0 -0.35363882792E+02 -0.39862810317E+02  0.26897051695E+02  0.59691795134E+02  0.10566000000E+00 0. -1.
         23    2    1    0    0    0 -0.26646549920E+02 -0.11371480949E+02  0.81129355051E+01  0.94913974604E+02  0.90019407080E+02 0.  0.
         13    1    3    3    0    0  0.87173328716E+01  0.28491329368E+02 -0.18784116190E+02  0.35222179470E+02  0.10566000000E+00 0.  1.
         22    1    1    0    0    0  0.26646549920E+02  0.11371480949E+02 -0.81129355051E+01  0.30086025396E+02  0.00000000000E+00 0. -1.
</event>
<event>
 5    1  0.9041167E-005  0.9118800E+02  0.7818608E-02  0.1130116E+00
         25   -1    0    0    0    0  0.00000000000E+00  0.00000000000E+00  0.99999998245E-14  0.12500000000E+03  0.12500000000E+03 0.  0.
        -13    1    3    3    0    0 -0.33160708146E+02 -0.39053087501E+01 -0.23721876997E+01  0.33474205587E+02  0.10566000000E+00 0.  1.
         23    2    1    0    0    0  0.18183575353E+02  0.24922295961E+02  0.76754094293E+01  0.93208882396E+02  0.87619750051E+02 0.  0.
         13    1    3    3    0    0  0.51344283499E+02  0.28827604711E+02  0.10047597129E+02  0.59734676809E+02  0.10566000000E+00 0. -1.
         22    1    1    0    0    0 -0.18183575353E+02 -0.24922295961E+02 -0.76754094293E+01  0.31791117604E+02  0.00000000000E+00 0. -1.
</event>
<event>
 5    1  0.9041167E-005  0.9118800E+02  0.7818608E-02  0.1130116E+00
         25   -1    0    0    0    0  0.00000000000E+00  0.00000000000E+00  0.99999998245E-14  0.12500000000E+03  0.12500000000E+03 0.  0.
        -13    1    3    3    0    0 -0.15661573793E+02  0.24146687195E+02 -0.16366265843E+02  0.33109110798E+02  0.10566000000E+00 0.  1.
         23    2    1    0    0    0  0.44531781305E+01 -0.18220526495E+02 -0.36355463383E+02  0.84091100002E+02  0.73469551520E+02 0.  0.
         13    1    3    3    0    0  0.20114751924E+02 -0.42367213690E+02 -0.19989197540E+02  0.50981989204E+02  0.10566000000E+00 0. -1.
         22    1    1    0    0    0 -0.44531781305E+01  0.18220526495E+02  0.36355463383E+02  0.40908899998E+02  0.00000000000E+00 0. -1.
</event>
<event>
 5    1  0.9041167E-005  0.9118800E+02  0.7818608E-02  0.1130116E+00
         25   -1    0    0    0    0  0.00000000000E+00  0.00000000000E+00  0.99999998245E-14  0.12500000000E+03  0.12500000000E+03 0.  0.
        -13    1    3    3    0    0 -0.91755311288E+01 -0.35139518447E+02  0.11582231665E+02  0.38120012887E+02  0.10566000000E+00 0.  1.
         23    2    1    0    0    0  0.12289275470E+01  0.25008757259E+02  0.43009032657E+01  0.99594371265E+02  0.96299495410E+02 0.  0.
         13    1    3    3    0    0  0.10404458676E+02  0.60148275705E+02 -0.72813283996E+01  0.61474358377E+02  0.10566000000E+00 0. -1.
         22    1    1    0    0    0 -0.12289275470E+01 -0.25008757259E+02 -0.43009032657E+01  0.25405628735E+02  0.00000000000E+00 0. -1.
</event>
<event>
 5    1  0.9041167E-005  0.9118800E+02  0.7818608E-02  0.1130116E+00
         25   -1    0    0    0    0  0.00000000000E+00  0.00000000000E+00  0.99999998245E-14  0.12500000000E+03  0.12500000000E+03 0.  0.
        -13    1    3    3    0    0 -0.48562435537E+02  0.18302066565E+02 -0.27397351984E+00  0.51897610844E+02  0.10566000000E+00 0.  1.
         23    2    1    0    0    0 -0.22508730653E+02 -0.14415559245E+02  0.12307982179E+02  0.95573180102E+02  0.90930165653E+02 0.  0.
         13    1    3    3    0    0  0.26053704884E+02 -0.32717625810E+02  0.12581955699E+02  0.43675569259E+02  0.10566000000E+00 0. -1.
         22    1    1    0    0    0  0.22508730653E+02  0.14415559245E+02 -0.12307982179E+02  0.29426819898E+02  0.00000000000E+00 0.  1.
</event>
<event>
 5    1  0.9041167E-005  0.9118800E+02  0.7818608E-02  0.1130116E+00
         25   -1    0    0    0    0  0.00000000000E+00  0.00000000000E+00  0.99999998245E-14  0.12500000000E+03  0.12500000000E+03 0.  0.
        -13    1    3    3    0    0  0.40228797415E+02 -0.25027875667E+02  0.20725206481E+02  0.51713596371E+02  0.10566000000E+00 0.  1.
         23    2    1    0    0    0  0.10298775932E+02 -0.24960807836E+02 -0.11461744477E+02  0.95666089589E+02  0.91057797015E+02 0.  0.
         13    1    3    3    0    0 -0.29930021483E+02  0.67067830266E-01 -0.32186950958E+02  0.43952493218E+02  0.10566000000E+00 0. -1.
         22    1    1    0    0    0 -0.10298775932E+02  0.24960807836E+02  0.11461744477E+02  0.29333910411E+02  0.00000000000E+00 0.  1.
</event>
<event>
 5    1  0.9041167E-005  0.9118800E+02  0.7818608E-02  0.1130116E+00
         25   -1    0    0    0    0  0.00000000000E+00  0.00000000000E+00  0.99999998245E-14  0.12500000000E+03  0.12500000000E+03 0.  0.
        -13    1    3    3    0    0  0.47026294784E+02  0.29314822795E+02  0.16554212170E+02  0.57834975069E+02  0.10566000000E+00 0.  1.
         23    2    1    0    0    0  0.15790052330E+02  0.20534401925E+02 -0.72775571722E+01  0.98093676331E+02  0.94331432103E+02 0.  0.
         13    1    3    3    0    0 -0.31236242454E+02 -0.87804208694E+01 -0.23831769343E+02  0.40258701262E+02  0.10566000000E+00 0. -1.
         22    1    1    0    0    0 -0.15790052330E+02 -0.20534401925E+02  0.72775571722E+01  0.26906323669E+02  0.00000000000E+00 0.  1.
</event>
<event>
 5    1  0.9041167E-005  0.9118800E+02  0.7818608E-02  0.1130116E+00
         25   -1    0    0    0    0  0.00000000000E+00  0.00000000000E+00  0.99999998245E-14  0.12500000000E+03  0.12500000000E+03 0.  0.
        -13    1    3    3    0    0 -0.33575167428E+02  0.42298340520E+01 -0.27768170842E+01  0.33954458339E+02  0.10566000000E+00 0.  1.
         23    2    1    0    0    0  0.20751555414E+02  0.10154129554E+01  0.22857273674E+02  0.94111279156E+02  0.88897805310E+02 0.  0.
         13    1    3    3    0    0  0.54326722842E+02 -0.32144210967E+01  0.25634090759E+02  0.60156820817E+02  0.10566000000E+00 0. -1.
         22    1    1    0    0    0 -0.20751555414E+02 -0.10154129554E+01 -0.22857273674E+02  0.30888720844E+02  0.00000000000E+00 0. -1.
</event>
<event>
 5    1  0.9041167E-005  0.9118800E+02  0.7818608E-02  0.1130116E+00
         25   -1    0    0    0    0  0.00000000000E+00  0.00000000000E+00  0.99999998245E-14  0.12500000000E+03  0.12500000000E+03 0.  0.
        -13    1    3    3    0    0  0.12707378255E+02 -0.24750253847E+02 -0.32333119224E+02  0.42655530595E+02  0.10566000000E+00 0.  1.
         23    2    1    0    0    0  0.38929105009E+02 -0.94926083786E+01 -0.30600062303E+01  0.84813578552E+02  0.74688651334E+02 0.  0.
         13    1    3    3    0    0  0.26221726754E+02  0.15257645468E+02  0.29273112993E+02  0.42158047957E+02  0.10566000000E+00 0. -1.
         22    1    1    0    0    0 -0.38929105009E+02  0.94926083786E+01  0.30600062303E+01  0.40186421448E+02  0.00000000000E+00 0.  1.
</event>
<event>
 5    1  0.9041167E-005  0.9118800E+02  0.7818608E-02  0.1130116E+00
         25   -1    0    0    0    0  0.00000000000E+00  0.00000000000E+00  0.99999998245E-14  0.12500000000E+03  0.12500000000E+03 0.  0.
        -13    1    3    3    0    0 -0.42995769800E+02 -0.62970946910E+01  0.21034969365E+02  0.48278056324E+02  0.10566000000E+00 0.  1.
         23    2    1    0    0    0 -0.17514573704E+02 -0.12724902491E+02 -0.19018767672E+02  0.96183390915E+02  0.91765177103E+02 0.  0.
         13    1    3    3    0    0  0.25481196096E+02 -0.64278077997E+01 -0.40053737037E+02  0.47905334591E+02  0.10566000000E+00 0. -1.
         22    1    1    0    0    0  0.17514573704E+02  0.12724902491E+02  0.19018767672E+02  0.28816609085E+02  0.00000000000E+00 0.  1.
</event>
<event>
 5    1  0.9041167E-005  0.9118800E+02  0.7818608E-02  0.1130116E+00
         25   -1    0    0    0    0  0.00000000000E+00  0.00000000000E+00  0.99999998245E-14  0.12500000000E+03  0.12500000000E+03 0.  0.
        -13    1    3    3    0    0 -0.35310480610E+02  0.24267261870E+01 -0.34768889211E+02  0.49614573080E+02  0.10566000000E+00 0.  1.
         23    2    1    0    0    0  0.65064695235E+01  0.17029919809E+02 -0.23386596069E+02  0.95347256618E+02  0.90619060658E+02 0.  0.
         13    1    3    3    0    0  0.41816950133E+02  0.14603193622E+02  0.11382293142E+02  0.45732683538E+02  0.10566000000E+00 0. -1.
         22    1    1    0    0    0 -0.65064695235E+01 -0.17029919809E+02  0.23386596069E+02  0.29652743382E+02  0.00000000000E+00 0.  1.
</event>
<event>
 5    1  0.9041167E-005  0.9118800E+02  0.7818608E-02  0.1130116E+00
         25   -1    0    0    0    0  0.00000000000E+00  0.00000000000E+00  0.99999998245E-14  0.12500000000E+03  0.12500000000E+03 0.  0.
        -13    1    3    3    0    0 -0.41168547779E+02 -0.42952058453E+00 -0.24625648279E+02  0.47973612865E+02  0.10566000000E+00 0.  1.
         23    2    1    0    0    0 -0.10596241959E+02 -0.27613304455E+02 -0.20333263834E+02  0.89108266345E+02  0.81560202221E+02 0.  0.
         13    1    3    3    0    0  0.30572305820E+02 -0.27183783871E+02  0.42923844448E+01  0.41134653480E+02  0.10566000000E+00 0. -1.
         22    1    1    0    0    0  0.10596241959E+02  0.27613304455E+02  0.20333263834E+02  0.35891733655E+02  0.00000000000E+00 0.  1.
</event>
<event>
 5    1  0.9041167E-005  0.9118800E+02  0.7818608E-02  0.1130116E+00
         25   -1    0    0    0    0  0.00000000000E+00  0.00000000000E+00  0.99999998245E-14  0.12500000000E+03  0.12500000000E+03 0.  0.
        -13    1    3    3    0    0  0.11260242130E+02  0.31150948254E+02  0.20934272087E+02  0.39184557440E+02  0.10566000000E+00 0.  1.
         23    2    1    0    0    0  0.35948858114E+01 -0.24639757142E+02  0.15285464748E+02  0.95782089934E+02  0.91216898016E+02 0.  0.
         13    1    3    3    0    0 -0.76653563183E+01 -0.55790705396E+02 -0.56488073384E+01  0.56597532494E+02  0.10566000000E+00 0. -1.
         22    1    1    0    0    0 -0.35948858114E+01  0.24639757142E+02 -0.15285464748E+02  0.29217910066E+02  0.00000000000E+00 0. -1.
</event>
<event>
 5    1  0.9041167E-005  0.9118800E+02  0.7818608E-02  0.1130116E+00
         25   -1    0    0    0    0  0.00000000000E+00  0.00000000000E+00  0.99999998245E-14  0.12500000000E+03  0.12500000000E+03 0.  0.
        -13    1    3    3    0    0  0.48214739706E+02  0.11311851590E+02  0.36630763439E+02  0.61599051173E+02  0.10566000000E+00 0. -1.
         23    2    1    0    0    0  0.16876287967E+02  0.66256283034E+01  0.21975002720E+02  0.96511251510E+02  0.92210698282E+02 0.  0.
         13    1    3    3    0    0 -0.31338451739E+02 -0.46862232868E+01 -0.14655760719E+02  0.34912200337E+02  0.10566000000E+00 0.  1.
         22    1    1    0    0    0 -0.16876287967E+02 -0.66256283034E+01 -0.21975002720E+02  0.28488748490E+02  0.00000000000E+00 0. -1.
</event>
<event>
 5    1  0.9041167E-005  0.9118800E+02  0.7818608E-02  0.1130116E+00
         25   -1    0    0    0    0  0.00000000000E+00  0.00000000000E+00  0.99999998245E-14  0.12500000000E+03  0.12500000000E+03 0.  0.
        -13    1    3    3    0    0  0.11998747471E+02  0.14913255420E+01 -0.53708336529E+02  0.55052616373E+02  0.10566000000E+00 0.  1.
         23    2    1    0    0    0  0.20093363289E+02 -0.12462308233E+02 -0.14971366496E+02  0.97014393172E+02  0.92890248643E+02 0.  0.
         13    1    3    3    0    0  0.80946158182E+01 -0.13953633775E+02  0.38736970033E+02  0.41961776799E+02  0.10566000000E+00 0. -1.
         22    1    1    0    0    0 -0.20093363289E+02  0.12462308233E+02  0.14971366496E+02  0.27985606828E+02  0.00000000000E+00 0.  1.
</event>
<event>
 5    1  0.9041167E-005  0.9118800E+02  0.7818608E-02  0.1130116E+00
         25   -1    0    0    0    0  0.00000000000E+00  0.00000000000E+00  0.99999998245E-14  0.12500000000E+03  0.12500000000E+03 0.  0.
        -13    1    3    3    0    0 -0.17639616136E+02 -0.42040349718E+02 -0.35252059734E+02  0.57630425483E+02  0.10566000000E+00 0. -1.
         23    2    1    0    0    0 -0.20451617249E+02 -0.68759083664E+01 -0.18006185594E+02  0.96897162357E+02  0.92732359989E+02 0.  0.
         13    1    3    3    0    0 -0.28120011124E+01  0.35164441351E+02  0.17245874140E+02  0.39266736874E+02  0.10566000000E+00 0.  1.
         22    1    1    0    0    0  0.20451617249E+02  0.68759083664E+01  0.18006185594E+02  0.28102837643E+02  0.00000000000E+00 0. -1.
</event>
<event>
 5    1  0.9041167E-005  0.9118800E+02  0.7818608E-02  0.1130116E+00
         25   -1    0    0    0    0  0.00000000000E+00  0.00000000000E+00  0.99999998245E-14  0.12500000000E+03  0.12500000000E+03 0.  0.
        -13    1    3    3    0    0  0.32736559240E+02 -0.21601940888E+02  0.41596329628E+02  0.57171601023E+02  0.10566000000E+00 0.  1.
         23    2    1    0    0    0  0.20819017591E+02  0.74849348454E+01  0.18074403132E+02  0.96431839547E+02  0.92102985222E+02 0.  0.
         13    1    3    3    0    0 -0.11917541649E+02  0.29086875733E+02 -0.23521926495E+02  0.39260238524E+02  0.10566000000E+00 0. -1.
         22    1    1    0    0    0 -0.20819017591E+02 -0.74849348454E+01 -0.18074403132E+02  0.28568160453E+02  0.00000000000E+00 0.  1.
</event>
<event>
 5    1  0.9041167E-005  0.9118800E+02  0.7818608E-02  0.1130116E+00
         25   -1    0    0    0    0  0.00000000000E+00  0.00000000000E+00  0.99999998245E-14  0.12500000000E+03  0.12500000000E+03 0.  0.
        -13    1    3    3    0    0 -0.68357993713E+01  0.48564973304E+01 -0.48034179454E+02  0.48760714507E+02  0.10566000000E+00 0. -1.
         23    2    1    0    0    0  0.24862324308E+02 -0.50519651638E+01 -0.15402909000E+02  0.95319920356E+02  0.90581345149E+02 0.  0.
         13    1    3    3    0    0  0.31698123679E+02 -0.99084624941E+01  0.32631270454E+02  0.46559205849E+02  0.10566000000E+00 0.  1.
         22    1    1    0    0    0 -0.24862324308E+02  0.50519651638E+01  0.15402909000E+02  0.29680079644E+02  0.00000000000E+00 0.  1.
</event>
<event>
 5    1  0.9041167E-005  0.9118800E+02  0.7818608E-02  0.1130116E+00
         25   -1    0    0    0    0  0.00000000000E+00  0.00000000000E+00  0.99999998245E-14  0.12500000000E+03  0.12500000000E+03 0.  0.
        -13    1    3    3    0    0 -0.21771451020E+02 -0.16488649822E+02 -0.20294891497E+02  0.34025952410E+02  0.10566000000E+00 0.  1.
         23    2    1    0    0    0  0.22383091410E+02  0.10176470679E+02  0.14695140219E+02  0.96355445847E+02  0.91999247072E+02 0.  0.
         13    1    3    3    0    0  0.44154542430E+02  0.26665120501E+02  0.34990031717E+02  0.62329493437E+02  0.10566000000E+00 0. -1.
         22    1    1    0    0    0 -0.22383091410E+02 -0.10176470679E+02 -0.14695140219E+02  0.28644554153E+02  0.00000000000E+00 0. -1.
</event>
<event>
 5    1  0.9041167E-005  0.9118800E+02  0.7818608E-02  0.1130116E+00
         25   -1    0    0    0    0  0.00000000000E+00  0.00000000000E+00  0.99999998245E-14  0.12500000000E+03  0.12500000000E+03 0.  0.
        -13    1    3    3    0    0 -0.29275560079E+02 -0.39986560252E+02  0.23258913479E+02  0.54744603743E+02  0.10566000000E+00 0. -1.
         23    2    1    0    0    0 -0.25685737793E+02  0.81760455658E-01  0.12751333658E+02  0.96323174499E+02  0.91955389319E+02 0.  0.
         13    1    3    3    0    0  0.35898222857E+01  0.40068320707E+02 -0.10507579822E+02  0.41578570756E+02  0.10566000000E+00 0.  1.
         22    1    1    0    0    0  0.25685737793E+02 -0.81760455658E-01 -0.12751333658E+02  0.28676825501E+02  0.00000000000E+00 0. -1.
</event>
<event>
 5    1  0.9041167E-005  0.9118800E+02  0.7818608E-02  0.1130116E+00
         25   -1    0    0    0    0  0.00000000000E+00  0.00000000000E+00  0.99999998245E-14  0.12500000000E+03  0.12500000000E+03 0.  0.
        -13    1    3    3    0    0  0.35378307557E+02  0.45084604391E+02 -0.13381310280E+01  0.57324060894E+02  0.10566000000E+00 0. -1.
         23    2    1    0    0    0  0.28963291304E+02  0.81768151841E+01 -0.24786426256E+01  0.94802711728E+02  0.89864775814E+02 0.  0.
         13    1    3    3    0    0 -0.64150162537E+01 -0.36907789206E+02 -0.11405115977E+01  0.37478650835E+02  0.10566000000E+00 0.  1.
         22    1    1    0    0    0 -0.28963291304E+02 -0.81768151841E+01  0.24786426256E+01  0.30197288272E+02  0.00000000000E+00 0. -1.
</event>
<event>
 5    1  0.9041167E-005  0.9118800E+02  0.7818608E-02  0.1130116E+00
         25   -1    0    0    0    0  0.00000000000E+00  0.00000000000E+00  0.99999998245E-14  0.12500000000E+03  0.12500000000E+03 0.  0.
        -13    1    3    3    0    0 -0.31650814659E+02  0.32745147688E+02  0.21632047097E+02  0.50418006618E+02  0.10566000000E+00 0. -1.
         23    2    1    0    0    0 -0.27037125318E+02 -0.61813707066E+01 -0.35950833046E+01  0.97033231984E+02  0.92915596086E+02 0.  0.
         13    1    3    3    0    0  0.46136893403E+01 -0.38926518394E+02 -0.25227130401E+02  0.46615225366E+02  0.10566000000E+00 0.  1.
         22    1    1    0    0    0  0.27037125318E+02  0.61813707066E+01  0.35950833046E+01  0.27966768016E+02  0.00000000000E+00 0. -1.
</event>
<event>
 5    1  0.9041167E-005  0.9118800E+02  0.7818608E-02  0.1130116E+00
         25   -1    0    0    0    0  0.00000000000E+00  0.00000000000E+00  0.99999998245E-14  0.12500000000E+03  0.12500000000E+03 0.  0.
        -13    1    3    3    0    0 -0.72856122376E+01 -0.46942767846E+02 -0.26597344600E+02  0.54443856426E+02  0.10566000000E+00 0.  1.
         23    2    1    0    0    0  0.64004048173E+01 -0.26352096737E+02  0.77790906251E+01  0.96788079910E+02  0.92585203879E+02 0.  0.
         13    1    3    3    0    0  0.13686017055E+02  0.20590671110E+02  0.34376435225E+02  0.42344223483E+02  0.10566000000E+00 0. -1.
         22    1    1    0    0    0 -0.64004048173E+01  0.26352096737E+02 -0.77790906251E+01  0.28211920090E+02  0.00000000000E+00 0.  1.
</event>
<event>
 5    1  0.9041167E-005  0.9118800E+02  0.7818608E-02  0.1130116E+00
         25   -1    0    0    0    0  0.00000000000E+00  0.00000000000E+00  0.99999998245E-14  0.12500000000E+03  0.12500000000E+03 0.  0.
        -13    1    3    3    0    0 -0.32623410016E+02 -0.98041345146E+01  0.47305533984E+02  0.58294362028E+02  0.10566000000E+00 0.  1.
         23    2    1    0    0    0 -0.75149916916E+01 -0.18883860717E+02  0.19922521943E+02  0.96539814191E+02  0.92249409471E+02 0.  0.
         13    1    3    3    0    0  0.25108418325E+02 -0.90797262027E+01 -0.27383012041E+02  0.38245452163E+02  0.10566000000E+00 0. -1.
         22    1    1    0    0    0  0.75149916916E+01  0.18883860717E+02 -0.19922521943E+02  0.28460185809E+02  0.00000000000E+00 0.  1.
</event>
<event>
 5    1  0.9041167E-005  0.9118800E+02  0.7818608E-02  0.1130116E+00
         25   -1    0    0    0    0  0.00000000000E+00  0.00000000000E+00  0.99999998245E-14  0.12500000000E+03  0.12500000000E+03 0.  0.
        -13    1    3    3    0    0  0.87370147428E+01  0.50732717332E+02 -0.13810617949E+02  0.53299984678E+02  0.10566000000E+00 0. -1.
         23    2    1    0    0    0  0.22418580176E+02  0.15805914863E+02  0.76589016870E+01  0.96520560806E+02  0.92223317016E+02 0.  0.
         13    1    3    3    0    0  0.13681565433E+02 -0.34926802469E+02  0.21469519636E+02  0.43220576128E+02  0.10566000000E+00 0.  1.
         22    1    1    0    0    0 -0.22418580176E+02 -0.15805914863E+02 -0.76589016870E+01  0.28479439194E+02  0.00000000000E+00 0. -1.
</event>
<event>
 5    1  0.9041167E-005  0.9118800E+02  0.7818608E-02  0.1130116E+00
         25   -1    0    0    0    0  0.00000000000E+00  0.00000000000E+00  0.99999998245E-14  0.12500000000E+03  0.12500000000E+03 0.  0.
        -13    1    3    3    0    0 -0.33968150071E+01  0.38580857889E+02 -0.33853740480E+02  0.51440332971E+02  0.10566000000E+00 0. -1.
         23    2    1    0    0    0  0.63087658701E+01 -0.24616349146E+01 -0.30510237739E+02  0.93747243639E+02  0.88384449479E+02 0.  0.
         13    1    3    3    0    0  0.97055808772E+01 -0.41042492803E+02  0.33435027409E+01  0.42306910668E+02  0.10566000000E+00 0.  1.
         22    1    1    0    0    0 -0.63087658701E+01  0.24616349146E+01  0.30510237739E+02  0.31252756361E+02  0.00000000000E+00 0. -1.
</event>
<event>
 5    1  0.9041167E-005  0.9118800E+02  0.7818608E-02  0.1130116E+00
         25   -1    0    0    0    0  0.00000000000E+00  0.00000000000E+00  0.99999998245E-14  0.12500000000E+03  0.12500000000E+03 0.  0.
        -13    1    3    3    0    0  0.30969403626E+02  0.17873346919E+02 -0.68041665747E+01  0.36398740882E+02  0.10566000000E+00 0. -1.
         23    2    1    0    0    0 -0.21173100497E+02  0.79751337798E+01  0.19038926764E+02  0.95430020700E+02  0.90733153670E+02 0.  0.
         13    1    3    3    0    0 -0.52142504123E+02 -0.98982131393E+01  0.25843093339E+02  0.59031279818E+02  0.10566000000E+00 0.  1.
         22    1    1    0    0    0  0.21173100497E+02 -0.79751337798E+01 -0.19038926764E+02  0.29569979300E+02  0.00000000000E+00 0.  1.
</event>
<event>
 5    1  0.9041167E-005  0.9118800E+02  0.7818608E-02  0.1130116E+00
         25   -1    0    0    0    0  0.00000000000E+00  0.00000000000E+00  0.99999998245E-14  0.12500000000E+03  0.12500000000E+03 0.  0.
        -13    1    3    3    0    0  0.35821629247E+02 -0.80041862694E+01 -0.64292365842E+01  0.37263955330E+02  0.10566000000E+00 0. -1.
         23    2    1    0    0    0 -0.17349982347E+02  0.20266554402E+02 -0.67325639254E+01  0.97484867222E+02  0.93521210458E+02 0.  0.
         13    1    3    3    0    0 -0.53171611594E+02  0.28270740671E+02 -0.30332734121E+00  0.60220911892E+02  0.10566000000E+00 0.  1.
         22    1    1    0    0    0  0.17349982347E+02 -0.20266554402E+02  0.67325639254E+01  0.27515132778E+02  0.00000000000E+00 0.  1.
</event>
<event>
 5    1  0.9041167E-005  0.9118800E+02  0.7818608E-02  0.1130116E+00
         25   -1    0    0    0    0  0.00000000000E+00  0.00000000000E+00  0.99999998245E-14  0.12500000000E+03  0.12500000000E+03 0.  0.
        -13    1    3    3    0    0 -0.12293119554E+02  0.26859111287E+02 -0.15492999088E+02  0.33355311905E+02  0.10566000000E+00 0.  1.
         23    2    1    0    0    0  0.64646675429E+01 -0.23562482022E+02  0.16095700479E+02  0.95741598483E+02  0.91161393257E+02 0.  0.
         13    1    3    3    0    0  0.18757787097E+02 -0.50421593309E+02  0.31588699566E+02  0.62386286577E+02  0.10566000000E+00 0. -1.
         22    1    1    0    0    0 -0.64646675429E+01  0.23562482022E+02 -0.16095700479E+02  0.29258401517E+02  0.00000000000E+00 0. -1.
</event>
<event>
 5    1  0.9041167E-005  0.9118800E+02  0.7818608E-02  0.1130116E+00
         25   -1    0    0    0    0  0.00000000000E+00  0.00000000000E+00  0.99999998245E-14  0.12500000000E+03  0.12500000000E+03 0.  0.
        -13    1    3    3    0    0  0.17240374512E+02 -0.41368887252E+02 -0.19060015522E+02  0.48702265876E+02  0.10566000000E+00 0. -1.
         23    2    1    0    0    0 -0.17042199869E+02 -0.16265703280E+02  0.91738379760E+01  0.99718208473E+02  0.96460106357E+02 0.  0.
         13    1    3    3    0    0 -0.34282574381E+02  0.25103183972E+02  0.28233853498E+02  0.51015942597E+02  0.10566000000E+00 0.  1.
         22    1    1    0    0    0  0.17042199869E+02  0.16265703280E+02 -0.91738379760E+01  0.25281791527E+02  0.00000000000E+00 0.  1.
</event>
<event>
 5    1  0.9041167E-005  0.9118800E+02  0.7818608E-02  0.1130116E+00
         25   -1    0    0    0    0  0.00000000000E+00  0.00000000000E+00  0.99999998245E-14  0.12500000000E+03  0.12500000000E+03 0.  0.
        -13    1    3    3    0    0 -0.29383009899E+02  0.96331792058E-01  0.19035886802E+02  0.35010665531E+02  0.10566000000E+00 0.  1.
         23    2    1    0    0    0  0.24144907622E+02 -0.18177471979E+02 -0.27093011055E+00  0.94776326254E+02  0.89828066680E+02 0.  0.
         13    1    3    3    0    0  0.53527917520E+02 -0.18273803771E+02 -0.19306816913E+02  0.59765660723E+02  0.10566000000E+00 0. -1.
         22    1    1    0    0    0 -0.24144907622E+02  0.18177471979E+02  0.27093011055E+00  0.30223673746E+02  0.00000000000E+00 0. -1.
</event>
<event>
 5    1  0.9041167E-005  0.9118800E+02  0.7818608E-02  0.1130116E+00
         25   -1    0    0    0    0  0.00000000000E+00  0.00000000000E+00  0.99999998245E-14  0.12500000000E+03  0.12500000000E+03 0.  0.
        -13    1    3    3    0    0  0.18386001713E+02  0.94597514860E+01 -0.28490386303E+02  0.35202915119E+02  0.10566000000E+00 0.  1.
         23    2    1    0    0    0 -0.63492196677E+01  0.61922834283E+01  0.27287799497E+02  0.96307126916E+02  0.91933572372E+02 0.  0.
         13    1    3    3    0    0 -0.24735221380E+02 -0.32674680577E+01  0.55778185799E+02  0.61104211797E+02  0.10566000000E+00 0. -1.
         22    1    1    0    0    0  0.63492196677E+01 -0.61922834283E+01 -0.27287799497E+02  0.28692873084E+02  0.00000000000E+00 0. -1.
</event>
<event>
 4    1  0.9041167E-005  0.9118800E+02  0.7818608E-02  0.1130116E+00
         25   -1    0    0    0    0  0.00000000000E+00  0.00000000000E+00  0.99999998245E-14  0.12500000000E+03  0.12500000000E+03 0.  0.
        -13    1    1    0    0    0 -0.14291697030E+01  0.80537369888E+01  0.40384782352E+01  0.91228107520E+01  0.10566000000E+00 0.  1.
         13    1    1    0    0    0 -0.49818499659E+01 -0.57535600982E+02  0.19168208219E+02  0.60848957097E+02  0.10566000000E+00 0. -1.
         22    1    1    0    0    0  0.64110196689E+01  0.49481863994E+02 -0.23206686454E+02  0.55028232151E+02  0.00000000000E+00 0. -1.
</event>
<event>
 5    1  0.9041167E-005  0.9118800E+02  0.7818608E-02  0.1130116E+00
         25   -1    0    0    0    0  0.00000000000E+00  0.00000000000E+00  0.99999998245E-14  0.12500000000E+03  0.12500000000E+03 0.  0.
        -13    1    3    3    0    0  0.16250936245E+02 -0.41876338231E+02  0.71887412662E+01  0.45490766068E+02  0.10566000000E+00 0.  1.
         23    2    1    0    0    0 -0.14283077599E+02 -0.82821524787E+01  0.25647838544E+02  0.94497344749E+02  0.89439008198E+02 0.  0.
         13    1    3    3    0    0 -0.30534013843E+02  0.33594185752E+02  0.18459097278E+02  0.49006578681E+02  0.10566000000E+00 0. -1.
         22    1    1    0    0    0  0.14283077599E+02  0.82821524787E+01 -0.25647838544E+02  0.30502655251E+02  0.00000000000E+00 0.  1.
</event>
<event>
 5    1  0.9041167E-005  0.9118800E+02  0.7818608E-02  0.1130116E+00
         25   -1    0    0    0    0  0.00000000000E+00  0.00000000000E+00  0.99999998245E-14  0.12500000000E+03  0.12500000000E+03 0.  0.
        -13    1    3    3    0    0  0.31667931004E+02  0.93398512174E+01  0.29897518434E+01  0.33151779062E+02  0.10566000000E+00 0. -1.
         23    2    1    0    0    0  0.16212947021E+02  0.24678778051E+02 -0.36381666708E+02  0.78143544632E+02  0.62537078266E+02 0.  0.
         13    1    3    3    0    0 -0.15454983983E+02  0.15338926834E+02 -0.39371418551E+02  0.44991765570E+02  0.10566000000E+00 0.  1.
         22    1    1    0    0    0 -0.16212947021E+02 -0.24678778051E+02  0.36381666708E+02  0.46856455368E+02  0.00000000000E+00 0.  1.
</event>
<event>
 5    1  0.9041167E-005  0.9118800E+02  0.7818608E-02  0.1130116E+00
         25   -1    0    0    0    0  0.00000000000E+00  0.00000000000E+00  0.99999998245E-14  0.12500000000E+03  0.12500000000E+03 0.  0.
        -13    1    3    3    0    0 -0.31181705531E+02  0.24815074838E+02 -0.41335351883E+01  0.40064747300E+02  0.10566000000E+00 0.  1.
         23    2    1    0    0    0  0.24750114427E+00  0.35257751202E+02 -0.27237533996E+02  0.80446060389E+02  0.66981453383E+02 0.  0.
         13    1    3    3    0    0  0.31429206675E+02  0.10442676363E+02 -0.23103998808E+02  0.40381313089E+02  0.10566000000E+00 0. -1.
         22    1    1    0    0    0 -0.24750114427E+00 -0.35257751202E+02  0.27237533996E+02  0.44553939611E+02  0.00000000000E+00 0.  1.
</event>
<event>
 5    1  0.9041167E-005  0.9118800E+02  0.7818608E-02  0.1130116E+00
         25   -1    0    0    0    0  0.00000000000E+00  0.00000000000E+00  0.99999998245E-14  0.12500000000E+03  0.12500000000E+03 0.  0.
        -13    1    3    3    0    0 -0.21244136085E+02  0.27786056003E+02  0.95053464811E+01  0.36245565273E+02  0.10566000000E+00 0. -1.
         23    2    1    0    0    0  0.11526029584E+02 -0.13219394517E+02 -0.21534041647E+02  0.97227411013E+02  0.93176460295E+02 0.  0.
         13    1    3    3    0    0  0.32770165670E+02 -0.41005450520E+02 -0.31039388129E+02  0.60981845740E+02  0.10566000000E+00 0.  1.
         22    1    1    0    0    0 -0.11526029584E+02  0.13219394517E+02  0.21534041647E+02  0.27772588987E+02  0.00000000000E+00 0.  1.
</event>
<event>
 5    1  0.9041167E-005  0.9118800E+02  0.7818608E-02  0.1130116E+00
         25   -1    0    0    0    0  0.00000000000E+00  0.00000000000E+00  0.99999998245E-14  0.12500000000E+03  0.12500000000E+03 0.  0.
        -13    1    3    3    0    0  0.26208246125E+01 -0.21765709606E+02  0.41816577188E+02  0.47214956614E+02  0.10566000000E+00 0.  1.
         23    2    1    0    0    0 -0.25931823374E+02  0.38224843607E+01  0.10336738721E+02  0.96823431408E+02  0.92632919916E+02 0.  0.
         13    1    3    3    0    0 -0.28552647987E+02  0.25588193966E+02 -0.31479838467E+02  0.49608474795E+02  0.10566000000E+00 0. -1.
         22    1    1    0    0    0  0.25931823374E+02 -0.38224843607E+01 -0.10336738721E+02  0.28176568592E+02  0.00000000000E+00 0. -1.
</event>
<event>
 5    1  0.9041167E-005  0.9118800E+02  0.7818608E-02  0.1130116E+00
         25   -1    0    0    0    0  0.00000000000E+00  0.00000000000E+00  0.99999998245E-14  0.12500000000E+03  0.12500000000E+03 0.  0.
        -13    1    3    3    0    0 -0.18819637332E+02 -0.25655820205E+02  0.10515995405E+02  0.33511150130E+02  0.10566000000E+00 0.  1.
         23    2    1    0    0    0 -0.14911496797E+02  0.26676136430E+02 -0.13942629059E+02  0.91408841987E+02  0.85013001928E+02 0.  0.
         13    1    3    3    0    0  0.39081405351E+01  0.52331956635E+02 -0.24458624464E+02  0.57897691857E+02  0.10566000000E+00 0. -1.
         22    1    1    0    0    0  0.14911496797E+02 -0.26676136430E+02  0.13942629059E+02  0.33591158013E+02  0.00000000000E+00 0. -1.
</event>
<event>
 5    1  0.9041167E-005  0.9118800E+02  0.7818608E-02  0.1130116E+00
         25   -1    0    0    0    0  0.00000000000E+00  0.00000000000E+00  0.99999998245E-14  0.12500000000E+03  0.12500000000E+03 0.  0.
        -13    1    3    3    0    0 -0.42626461599E+02 -0.53509396164E+01 -0.21697064226E+02  0.48129217148E+02  0.10566000000E+00 0. -1.
         23    2    1    0    0    0 -0.20691097319E+02  0.69537440785E+01  0.19059623637E+02  0.96021640520E+02  0.91544580015E+02 0.  0.
         13    1    3    3    0    0  0.21935364280E+02  0.12304683695E+02  0.40756687862E+02  0.47892423372E+02  0.10566000000E+00 0.  1.
         22    1    1    0    0    0  0.20691097319E+02 -0.69537440785E+01 -0.19059623637E+02  0.28978359480E+02  0.00000000000E+00 0.  1.
</event>
<event>
 5    1  0.9041167E-005  0.9118800E+02  0.7818608E-02  0.1130116E+00
         25   -1    0    0    0    0  0.00000000000E+00  0.00000000000E+00  0.99999998245E-14  0.12500000000E+03  0.12500000000E+03 0.  0.
        -13    1    3    3    0    0  0.18310850800E+02  0.78438767470E+01  0.29403369871E+02  0.35515953925E+02  0.10566000000E+00 0.  1.
         23    2    1    0    0    0 -0.19030733354E+02  0.11969896125E+02 -0.18140584499E+02  0.96111801177E+02  0.91667607661E+02 0.  0.
         13    1    3    3    0    0 -0.37341584154E+02  0.41260193783E+01 -0.47543954370E+02  0.60595847252E+02  0.10566000000E+00 0. -1.
         22    1    1    0    0    0  0.19030733354E+02 -0.11969896125E+02  0.18140584499E+02  0.28888198823E+02  0.00000000000E+00 0. -1.
</event>
<event>
 5    1  0.9041167E-005  0.9118800E+02  0.7818608E-02  0.1130116E+00
         25   -1    0    0    0    0  0.00000000000E+00  0.00000000000E+00  0.99999998245E-14  0.12500000000E+03  0.12500000000E+03 0.  0.
        -13    1    3    3    0    0 -0.59506998942E+02  0.89941326697E+01 -0.35434078856E+00  0.60184001753E+02  0.10566000000E+00 0. -1.
         23    2    1    0    0    0 -0.25450224578E+02 -0.36992868389E+00 -0.11285063567E+02  0.97157524571E+02  0.93082657583E+02 0.  0.
         13    1    3    3    0    0  0.34056774364E+02 -0.93640613536E+01 -0.10930722778E+02  0.36973522818E+02  0.10566000000E+00 0.  1.
         22    1    1    0    0    0  0.25450224578E+02  0.36992868389E+00  0.11285063567E+02  0.27842475429E+02  0.00000000000E+00 0. -1.
</event>
<event>
 5    1  0.9041167E-005  0.9118800E+02  0.7818608E-02  0.1130116E+00
         25   -1    0    0    0    0  0.00000000000E+00  0.00000000000E+00  0.99999998245E-14  0.12500000000E+03  0.12500000000E+03 0.  0.
        -13    1    3    3    0    0  0.18854033773E+02 -0.31706275829E+02  0.29437700929E+02  0.47194829341E+02  0.10566000000E+00 0. -1.
         23    2    1    0    0    0  0.27744768876E+02  0.35324856198E+00 -0.68442327204E+01  0.96421327776E+02  0.92088717789E+02 0.  0.
         13    1    3    3    0    0  0.88907351031E+01  0.32059524391E+02 -0.36281933649E+02  0.49226498436E+02  0.10566000000E+00 0.  1.
         22    1    1    0    0    0 -0.27744768876E+02 -0.35324856198E+00  0.68442327204E+01  0.28578672224E+02  0.00000000000E+00 0.  1.
</event>
<event>
 5    1  0.9041167E-005  0.9118800E+02  0.7818608E-02  0.1130116E+00
         25   -1    0    0    0    0  0.00000000000E+00  0.00000000000E+00  0.99999998245E-14  0.12500000000E+03  0.12500000000E+03 0.  0.
        -13    1    3    3    0    0  0.26284662913E+02  0.43776171306E+02  0.32711541223E+01  0.51165889927E+02  0.10566000000E+00 0.  1.
         23    2    1    0    0    0 -0.98637467728E+01  0.31942367748E+02 -0.75821525846E+01  0.90720306367E+02  0.83994503343E+02 0.  0.
         13    1    3    3    0    0 -0.36148409686E+02 -0.11833803558E+02 -0.10853306707E+02  0.39554416441E+02  0.10566000000E+00 0. -1.
         22    1    1    0    0    0  0.98637467728E+01 -0.31942367748E+02  0.75821525846E+01  0.34279693633E+02  0.00000000000E+00 0. -1.
</event>
<event>
 5    1  0.9041167E-005  0.9118800E+02  0.7818608E-02  0.1130116E+00
         25   -1    0    0    0    0  0.00000000000E+00  0.00000000000E+00  0.99999998245E-14  0.12500000000E+03  0.12500000000E+03 0.  0.
        -13    1    3    3    0    0 -0.60516106670E+01 -0.25001570109E+00  0.34835658951E+02  0.35358433196E+02  0.10566000000E+00 0.  1.
         23    2    1    0    0    0  0.24895936138E+02 -0.57429776192E+01 -0.15802361064E+02  0.94958294933E+02  0.90080928799E+02 0.  0.
         13    1    3    3    0    0  0.30947546805E+02 -0.54929619181E+01 -0.50638020016E+02  0.59599861737E+02  0.10566000000E+00 0. -1.
         22    1    1    0    0    0 -0.24895936138E+02  0.57429776192E+01  0.15802361064E+02  0.30041705067E+02  0.00000000000E+00 0. -1.
</event>
<event>
 5    1  0.9041167E-005  0.9118800E+02  0.7818608E-02  0.1130116E+00
         25   -1    0    0    0    0  0.00000000000E+00  0.00000000000E+00  0.99999998245E-14  0.12500000000E+03  0.12500000000E+03 0.  0.
        -13    1    3    3    0    0 -0.10301116387E+02 -0.41145504320E+01  0.46740616044E+02  0.48038930840E+02  0.10566000000E+00 0. -1.
         23    2    1    0    0    0  0.20896255792E+02 -0.16603273269E+02  0.14417960102E+02  0.94665205409E+02  0.89673303454E+02 0.  0.
         13    1    3    3    0    0  0.31197372179E+02 -0.12488722837E+02 -0.32322655942E+02  0.46626274569E+02  0.10566000000E+00 0.  1.
         22    1    1    0    0    0 -0.20896255792E+02  0.16603273269E+02 -0.14417960102E+02  0.30334794591E+02  0.00000000000E+00 0. -1.
</event>
<event>
 5    1  0.9041167E-005  0.9118800E+02  0.7818608E-02  0.1130116E+00
         25   -1    0    0    0    0  0.00000000000E+00  0.00000000000E+00  0.99999998245E-14  0.12500000000E+03  0.12500000000E+03 0.  0.
        -13    1    3    3    0    0  0.59427380396E+01  0.15256585742E+02 -0.33960520506E+02  0.37701560459E+02  0.10566000000E+00 0.  1.
         23    2    1    0    0    0 -0.21009999010E+02 -0.18790967469E+02  0.53885726755E+01  0.96302313120E+02  0.91927026928E+02 0.  0.
         13    1    3    3    0    0 -0.26952737049E+02 -0.34047553211E+02  0.39349093182E+02  0.58600752661E+02  0.10566000000E+00 0. -1.
         22    1    1    0    0    0  0.21009999010E+02  0.18790967469E+02 -0.53885726755E+01  0.28697686880E+02  0.00000000000E+00 0. -1.
</event>
<event>
 5    1  0.9041167E-005  0.9118800E+02  0.7818608E-02  0.1130116E+00
         25   -1    0    0    0    0  0.00000000000E+00  0.00000000000E+00  0.99999998245E-14  0.12500000000E+03  0.12500000000E+03 0.  0.
        -13    1    3    3    0    0  0.49168151624E+02 -0.10759134306E+02 -0.15021279538E+02  0.52525385369E+02  0.10566000000E+00 0. -1.
         23    2    1    0    0    0  0.67254568619E+01 -0.21468844987E+02 -0.17690879932E+02  0.96379896788E+02  0.92032462735E+02 0.  0.
         13    1    3    3    0    0 -0.42442694762E+02 -0.10709710681E+02 -0.26696003944E+01  0.43854511419E+02  0.10566000000E+00 0.  1.
         22    1    1    0    0    0 -0.67254568619E+01  0.21468844987E+02  0.17690879932E+02  0.28620103212E+02  0.00000000000E+00 0. -1.
</event>
<event>
 5    1  0.9041167E-005  0.9118800E+02  0.7818608E-02  0.1130116E+00
         25   -1    0    0    0    0  0.00000000000E+00  0.00000000000E+00  0.99999998245E-14  0.12500000000E+03  0.12500000000E+03 0.  0.
        -13    1    3    3    0    0 -0.13092485650E+01  0.49121798102E+02 -0.36193563829E+02  0.61029914036E+02  0.10566000000E+00 0. -1.
         23    2    1    0    0    0 -0.55838540356E+01  0.31863494939E+02 -0.13283861799E+02  0.90029688021E+02  0.82960364061E+02 0.  0.
         13    1    3    3    0    0 -0.42746054707E+01 -0.17258303163E+02  0.22909702030E+02  0.28999773984E+02  0.10566000000E+00 0.  1.
         22    1    1    0    0    0  0.55838540356E+01 -0.31863494939E+02  0.13283861799E+02  0.34970311979E+02  0.00000000000E+00 0. -1.
</event>
<event>
 5    1  0.9041167E-005  0.9118800E+02  0.7818608E-02  0.1130116E+00
         25   -1    0    0    0    0  0.00000000000E+00  0.00000000000E+00  0.99999998245E-14  0.12500000000E+03  0.12500000000E+03 0.  0.
        -13    1    3    3    0    0  0.34589931199E+02 -0.46318618937E+01 -0.16952997079E+02  0.38798618003E+02  0.10566000000E+00 0.  1.
         23    2    1    0    0    0 -0.19569836038E+02  0.12887256203E+02 -0.17549626794E+02  0.95724596406E+02  0.91138077122E+02 0.  0.
         13    1    3    3    0    0 -0.54159767237E+02  0.17519118097E+02 -0.59662971486E+00  0.56925978403E+02  0.10566000000E+00 0. -1.
         22    1    1    0    0    0  0.19569836038E+02 -0.12887256203E+02  0.17549626794E+02  0.29275403594E+02  0.00000000000E+00 0. -1.
</event>
<event>
 5    1  0.9041167E-005  0.9118800E+02  0.7818608E-02  0.1130116E+00
         25   -1    0    0    0    0  0.00000000000E+00  0.00000000000E+00  0.99999998245E-14  0.12500000000E+03  0.12500000000E+03 0.  0.
        -13    1    3    3    0    0  0.46008971923E+01 -0.21058073596E+02  0.44927315411E+02  0.49830568456E+02  0.10566000000E+00 0. -1.
         23    2    1    0    0    0 -0.23552158337E+02 -0.40335861531E+01  0.68713526027E+01  0.10013658378E+03  0.97000752290E+02 0.  0.
         13    1    3    3    0    0 -0.28153055529E+02  0.17024487443E+02 -0.38055962809E+02  0.50306015323E+02  0.10566000000E+00 0.  1.
         22    1    1    0    0    0  0.23552158337E+02  0.40335861531E+01 -0.68713526027E+01  0.24863416221E+02  0.00000000000E+00 0.  1.
</event>
<event>
 5    1  0.9041167E-005  0.9118800E+02  0.7818608E-02  0.1130116E+00
         25   -1    0    0    0    0  0.00000000000E+00  0.00000000000E+00  0.99999998245E-14  0.12500000000E+03  0.12500000000E+03 0.  0.
        -13    1    3    3    0    0 -0.36384376722E+02  0.33943086805E+02 -0.68100630764E+01  0.50222944303E+02  0.10566000000E+00 0. -1.
         23    2    1    0    0    0 -0.17629963439E+01  0.22750262960E+02  0.19386485363E+02  0.95058082299E+02  0.90219291589E+02 0.  0.
         13    1    3    3    0    0  0.34621380379E+02 -0.11192823845E+02  0.26196548439E+02  0.44835137996E+02  0.10566000000E+00 0.  1.
         22    1    1    0    0    0  0.17629963439E+01 -0.22750262960E+02 -0.19386485363E+02  0.29941917701E+02  0.00000000000E+00 0. -1.
</event>
<event>
 5    1  0.9041167E-005  0.9118800E+02  0.7818608E-02  0.1130116E+00
         25   -1    0    0    0    0  0.00000000000E+00  0.00000000000E+00  0.99999998245E-14  0.12500000000E+03  0.12500000000E+03 0.  0.
        -13    1    3    3    0    0 -0.13315419020E+02 -0.55794441435E+01 -0.59837682909E+02  0.61554772687E+02  0.10566000000E+00 0.  1.
         23    2    1    0    0    0 -0.39858544862E+01  0.46693336279E+01 -0.28900943484E+02  0.95454200860E+02  0.90766459748E+02 0.  0.
         13    1    3    3    0    0  0.93295645339E+01  0.10248777771E+02  0.30936739425E+02  0.33899428173E+02  0.10566000000E+00 0. -1.
         22    1    1    0    0    0  0.39858544862E+01 -0.46693336279E+01  0.28900943484E+02  0.29545799140E+02  0.00000000000E+00 0.  1.
</event>
<event>
 5    1  0.9041167E-005  0.9118800E+02  0.7818608E-02  0.1130116E+00
         25   -1    0    0    0    0  0.00000000000E+00  0.00000000000E+00  0.99999998245E-14  0.12500000000E+03  0.12500000000E+03 0.  0.
        -13    1    3    3    0    0 -0.53591153303E+02  0.24284722513E+02  0.19387185909E+01  0.58868745984E+02  0.10566000000E+00 0.  1.
         23    2    1    0    0    0 -0.21187749017E+02  0.13871741142E+02  0.15276436859E+02  0.95424411522E+02  0.90725425766E+02 0.  0.
         13    1    3    3    0    0  0.32403404286E+02 -0.10412981371E+02  0.13337718268E+02  0.36555665538E+02  0.10566000000E+00 0. -1.
         22    1    1    0    0    0  0.21187749017E+02 -0.13871741142E+02 -0.15276436859E+02  0.29575588478E+02  0.00000000000E+00 0.  1.
</event>
<event>
 5    1  0.9041167E-005  0.9118800E+02  0.7818608E-02  0.1130116E+00
         25   -1    0    0    0    0  0.00000000000E+00  0.00000000000E+00  0.99999998245E-14  0.12500000000E+03  0.12500000000E+03 0.  0.
        -13    1    3    3    0    0  0.51724079723E+01  0.34061242532E+02  0.14575444896E+02  0.37408245147E+02  0.10566000000E+00 0. -1.
         23    2    1    0    0    0 -0.27675458476E+01 -0.40105083701E+01 -0.28872164663E+02  0.95719539284E+02  0.91131140786E+02 0.  0.
         13    1    3    3    0    0 -0.79399538200E+01 -0.38071750902E+02 -0.43447609559E+02  0.58311294136E+02  0.10566000000E+00 0.  1.
         22    1    1    0    0    0  0.27675458476E+01  0.40105083701E+01  0.28872164663E+02  0.29280460716E+02  0.00000000000E+00 0.  1.
</event>
<event>
 5    1  0.9041167E-005  0.9118800E+02  0.7818608E-02  0.1130116E+00
         25   -1    0    0    0    0  0.00000000000E+00  0.00000000000E+00  0.99999998245E-14  0.12500000000E+03  0.12500000000E+03 0.  0.
        -13    1    3    3    0    0 -0.38703474592E+02  0.15218034476E+02  0.18352984037E+02  0.45457570391E+02  0.10566000000E+00 0.  1.
         23    2    1    0    0    0 -0.23694437789E+01  0.23507931368E+02 -0.16259107758E+02  0.96319071038E+02  0.91949811090E+02 0.  0.
         13    1    3    3    0    0  0.36334030813E+02  0.82898968924E+01 -0.34612091795E+02  0.50861500647E+02  0.10566000000E+00 0. -1.
         22    1    1    0    0    0  0.23694437789E+01 -0.23507931368E+02  0.16259107758E+02  0.28680928962E+02  0.00000000000E+00 0. -1.
</event>
<event>
 5    1  0.9041167E-005  0.9118800E+02  0.7818608E-02  0.1130116E+00
         25   -1    0    0    0    0  0.00000000000E+00  0.00000000000E+00  0.99999998245E-14  0.12500000000E+03  0.12500000000E+03 0.  0.
        -13    1    3    3    0    0 -0.47784501798E+01 -0.34500256432E+02  0.35214709943E+02  0.49529670304E+02  0.10566000000E+00 0. -1.
         23    2    1    0    0    0  0.14234557034E+02 -0.23127029265E+02 -0.67795560849E+01  0.97009921807E+02  0.92884231448E+02 0.  0.
         13    1    3    3    0    0  0.19013007214E+02  0.11373227168E+02 -0.41994266028E+02  0.47480251503E+02  0.10566000000E+00 0.  1.
         22    1    1    0    0    0 -0.14234557034E+02  0.23127029265E+02  0.67795560849E+01  0.27990078193E+02  0.00000000000E+00 0. -1.
</event>
<event>
 5    1  0.9041167E-005  0.9118800E+02  0.7818608E-02  0.1130116E+00
         25   -1    0    0    0    0  0.00000000000E+00  0.00000000000E+00  0.99999998245E-14  0.12500000000E+03  0.12500000000E+03 0.  0.
        -13    1    3    3    0    0 -0.25117202748E+02  0.34366759176E+02 -0.24511663818E+02  0.49120065526E+02  0.10566000000E+00 0. -1.
         23    2    1    0    0    0 -0.16602923610E+02 -0.11157956922E+02 -0.21650981479E+02  0.95522515812E+02  0.90860491705E+02 0.  0.
         13    1    3    3    0    0  0.85142791377E+01 -0.45524716098E+02  0.28606823397E+01  0.46402450285E+02  0.10566000000E+00 0.  1.
         22    1    1    0    0    0  0.16602923610E+02  0.11157956922E+02  0.21650981479E+02  0.29477484188E+02  0.00000000000E+00 0. -1.
</event>
<event>
 5    1  0.9041167E-005  0.9118800E+02  0.7818608E-02  0.1130116E+00
         25   -1    0    0    0    0  0.00000000000E+00  0.00000000000E+00  0.99999998245E-14  0.12500000000E+03  0.12500000000E+03 0.  0.
        -13    1    3    3    0    0 -0.56277118204E+02 -0.93574150235E+01 -0.12027836952E+02  0.58303990216E+02  0.10566000000E+00 0.  1.
         23    2    1    0    0    0 -0.28982473397E+02  0.11480280422E+02 -0.74620343869E+01  0.92945943159E+02  0.87243829523E+02 0.  0.
         13    1    3    3    0    0  0.27294644807E+02  0.20837695446E+02  0.45658025646E+01  0.34641952944E+02  0.10566000000E+00 0. -1.
         22    1    1    0    0    0  0.28982473397E+02 -0.11480280422E+02  0.74620343869E+01  0.32054056841E+02  0.00000000000E+00 0.  1.
</event>
<event>
 5    1  0.9041167E-005  0.9118800E+02  0.7818608E-02  0.1130116E+00
         25   -1    0    0    0    0  0.00000000000E+00  0.00000000000E+00  0.99999998245E-14  0.12500000000E+03  0.12500000000E+03 0.  0.
        -13    1    3    3    0    0 -0.26454985968E+02 -0.50969222517E+02 -0.61458720141E+01  0.57753881544E+02  0.10566000000E+00 0. -1.
         23    2    1    0    0    0 -0.39371017728E+01 -0.25582687382E+02  0.12260998913E+02  0.96359002140E+02  0.92004078904E+02 0.  0.
         13    1    3    3    0    0  0.22517884195E+02  0.25386535135E+02  0.18406870927E+02  0.38605120595E+02  0.10566000000E+00 0.  1.
         22    1    1    0    0    0  0.39371017728E+01  0.25582687382E+02 -0.12260998913E+02  0.28640997860E+02  0.00000000000E+00 0. -1.
</event>
<event>
 5    1  0.9041167E-005  0.9118800E+02  0.7818608E-02  0.1130116E+00
         25   -1    0    0    0    0  0.00000000000E+00  0.00000000000E+00  0.99999998245E-14  0.12500000000E+03  0.12500000000E+03 0.  0.
        -13    1    3    3    0    0  0.30281813362E+02  0.49975759396E+02 -0.15330693621E+02  0.60411969663E+02  0.10566000000E+00 0. -1.
         23    2    1    0    0    0  0.64532300674E+01  0.29923129313E+02 -0.18942703343E+01  0.94330371598E+02  0.89205341205E+02 0.  0.
         13    1    3    3    0    0 -0.23828583294E+02 -0.20052630083E+02  0.13436423286E+02  0.33918401935E+02  0.10566000000E+00 0.  1.
         22    1    1    0    0    0 -0.64532300674E+01 -0.29923129313E+02  0.18942703343E+01  0.30669628402E+02  0.00000000000E+00 0. -1.
</event>
<event>
 5    1  0.9041167E-005  0.9118800E+02  0.7818608E-02  0.1130116E+00
         25   -1    0    0    0    0  0.00000000000E+00  0.00000000000E+00  0.99999998245E-14  0.12500000000E+03  0.12500000000E+03 0.  0.
        -13    1    3    3    0    0 -0.18487535724E+02 -0.47499337383E+02  0.91349953524E+01  0.51782577505E+02  0.10566000000E+00 0. -1.
         23    2    1    0    0    0  0.47396434032E+01 -0.13833329083E+02  0.25312825820E+02  0.95767067131E+02  0.91196309042E+02 0.  0.
         13    1    3    3    0    0  0.23227179127E+02  0.33666008299E+02  0.16177830467E+02  0.43984489626E+02  0.10566000000E+00 0.  1.
         22    1    1    0    0    0 -0.47396434032E+01  0.13833329083E+02 -0.25312825820E+02  0.29232932869E+02  0.00000000000E+00 0. -1.
</event>
<event>
 5    1  0.9041167E-005  0.9118800E+02  0.7818608E-02  0.1130116E+00
         25   -1    0    0    0    0  0.00000000000E+00  0.00000000000E+00  0.99999998245E-14  0.12500000000E+03  0.12500000000E+03 0.  0.
        -13    1    3    3    0    0 -0.45485861911E+02 -0.25153340148E+02  0.25369498012E+02  0.57838367437E+02  0.10566000000E+00 0.  1.
         23    2    1    0    0    0 -0.25680137031E+02 -0.12179010052E+02 -0.47855586232E+01  0.96178145530E+02  0.91758031705E+02 0.  0.
         13    1    3    3    0    0  0.19805724880E+02  0.12974330096E+02 -0.30155056635E+02  0.38339778093E+02  0.10566000000E+00 0. -1.
         22    1    1    0    0    0  0.25680137031E+02  0.12179010052E+02  0.47855586232E+01  0.28821854470E+02  0.00000000000E+00 0.  1.
</event>
<event>
 5    1  0.9041167E-005  0.9118800E+02  0.7818608E-02  0.1130116E+00
         25   -1    0    0    0    0  0.00000000000E+00  0.00000000000E+00  0.99999998245E-14  0.12500000000E+03  0.12500000000E+03 0.  0.
        -13    1    3    3    0    0  0.13413613991E+02 -0.46566853215E+02  0.12404750476E+02  0.50022853348E+02  0.10566000000E+00 0. -1.
         23    2    1    0    0    0  0.28806029490E+02 -0.56596555552E+01 -0.64291362222E+00  0.95636206412E+02  0.91016765505E+02 0.  0.
         13    1    3    3    0    0  0.15392415499E+02  0.40907197660E+02 -0.13047664098E+02  0.45613353064E+02  0.10566000000E+00 0.  1.
         22    1    1    0    0    0 -0.28806029490E+02  0.56596555552E+01  0.64291362222E+00  0.29363793588E+02  0.00000000000E+00 0.  1.
</event>
<event>
 5    1  0.9041167E-005  0.9118800E+02  0.7818608E-02  0.1130116E+00
         25   -1    0    0    0    0  0.00000000000E+00  0.00000000000E+00  0.99999998245E-14  0.12500000000E+03  0.12500000000E+03 0.  0.
        -13    1    3    3    0    0 -0.47775351671E+02  0.19532676368E+02 -0.13790066912E+02  0.53424589684E+02  0.10566000000E+00 0. -1.
         23    2    1    0    0    0 -0.15957092890E+02 -0.11889820147E+02 -0.17770898855E+02  0.98320392005E+02  0.94631379581E+02 0.  0.
         13    1    3    3    0    0  0.31818258781E+02 -0.31422496515E+02 -0.39808319435E+01  0.44895802322E+02  0.10566000000E+00 0.  1.
         22    1    1    0    0    0  0.15957092890E+02  0.11889820147E+02  0.17770898855E+02  0.26679607995E+02  0.00000000000E+00 0. -1.
</event>
<event>
 5    1  0.9041167E-005  0.9118800E+02  0.7818608E-02  0.1130116E+00
         25   -1    0    0    0    0  0.00000000000E+00  0.00000000000E+00  0.99999998245E-14  0.12500000000E+03  0.12500000000E+03 0.  0.
        -13    1    3    3    0    0 -0.28019640206E+02  0.37428568812E+02 -0.18622580205E+02  0.50327027114E+02  0.10566000000E+00 0.  1.
         23    2    1    0    0    0 -0.10274826363E+02  0.15340413523E+02  0.19709116460E+02  0.97993526415E+02  0.94198628460E+02 0.  0.
         13    1    3    3    0    0  0.17744813843E+02 -0.22088155289E+02  0.38331696665E+02  0.47666499301E+02  0.10566000000E+00 0. -1.
         22    1    1    0    0    0  0.10274826363E+02 -0.15340413523E+02 -0.19709116460E+02  0.27006473585E+02  0.00000000000E+00 0.  1.
</event>
<event>
 5    1  0.9041167E-005  0.9118800E+02  0.7818608E-02  0.1130116E+00
         25   -1    0    0    0    0  0.00000000000E+00  0.00000000000E+00  0.99999998245E-14  0.12500000000E+03  0.12500000000E+03 0.  0.
        -13    1    3    3    0    0  0.34549614762E+02  0.20305434930E+02 -0.34447498752E+02  0.52845320533E+02  0.10566000000E+00 0.  1.
         23    2    1    0    0    0 -0.87448072596E+01  0.93429976380E+01 -0.22563317984E+02  0.99060328118E+02  0.95603776231E+02 0.  0.
         13    1    3    3    0    0 -0.43294422022E+02 -0.10962437292E+02  0.11884180768E+02  0.46215007586E+02  0.10566000000E+00 0. -1.
         22    1    1    0    0    0  0.87448072596E+01 -0.93429976380E+01  0.22563317984E+02  0.25939671882E+02  0.00000000000E+00 0. -1.
</event>
<event>
 5    1  0.9041167E-005  0.9118800E+02  0.7818608E-02  0.1130116E+00
         25   -1    0    0    0    0  0.00000000000E+00  0.00000000000E+00  0.99999998245E-14  0.12500000000E+03  0.12500000000E+03 0.  0.
        -13    1    3    3    0    0  0.20180423522E+02  0.34140302800E+02 -0.43552228514E+02  0.58903459502E+02  0.10566000000E+00 0.  1.
         23    2    1    0    0    0  0.22567871104E+02  0.10118950070E+02 -0.15960283568E+02  0.95564772665E+02  0.90918607371E+02 0.  0.
         13    1    3    3    0    0  0.23874475821E+01 -0.24021352730E+02  0.27591944945E+02  0.36661313163E+02  0.10566000000E+00 0. -1.
         22    1    1    0    0    0 -0.22567871104E+02 -0.10118950070E+02  0.15960283568E+02  0.29435227335E+02  0.00000000000E+00 0.  1.
</event>
<event>
 5    1  0.9041167E-005  0.9118800E+02  0.7818608E-02  0.1130116E+00
         25   -1    0    0    0    0  0.00000000000E+00  0.00000000000E+00  0.99999998245E-14  0.12500000000E+03  0.12500000000E+03 0.  0.
        -13    1    3    3    0    0  0.20672151769E+02 -0.23176545794E+02  0.19962000714E+02  0.36918596537E+02  0.10566000000E+00 0. -1.
         23    2    1    0    0    0  0.15167056048E+02  0.39703555670E+01 -0.28347425230E+02  0.92605867358E+02  0.86755212175E+02 0.  0.
         13    1    3    3    0    0 -0.55050957206E+01  0.27146901361E+02 -0.48309425944E+02  0.55687270821E+02  0.10566000000E+00 0.  1.
         22    1    1    0    0    0 -0.15167056048E+02 -0.39703555670E+01  0.28347425230E+02  0.32394132642E+02  0.00000000000E+00 0.  1.
</event>
<event>
 5    1  0.9041167E-005  0.9118800E+02  0.7818608E-02  0.1130116E+00
         25   -1    0    0    0    0  0.00000000000E+00  0.00000000000E+00  0.99999998245E-14  0.12500000000E+03  0.12500000000E+03 0.  0.
        -13    1    3    3    0    0 -0.52023358951E+02  0.47021800999E+01 -0.68041411092E+01  0.52676824833E+02  0.10566000000E+00 0. -1.
         23    2    1    0    0    0 -0.14384107523E+02  0.14065873452E+02 -0.22765060519E+02  0.94619096036E+02  0.89609006295E+02 0.  0.
         13    1    3    3    0    0  0.37639251428E+02  0.93636933525E+01 -0.15960919409E+02  0.41942271203E+02  0.10566000000E+00 0.  1.
         22    1    1    0    0    0  0.14384107523E+02 -0.14065873452E+02  0.22765060519E+02  0.30380903964E+02  0.00000000000E+00 0.  1.
</event>
<event>
 5    1  0.9041167E-005  0.9118800E+02  0.7818608E-02  0.1130116E+00
         25   -1    0    0    0    0  0.00000000000E+00  0.00000000000E+00  0.99999998245E-14  0.12500000000E+03  0.12500000000E+03 0.  0.
        -13    1    3    3    0    0  0.13088110005E+02  0.38385098005E+02 -0.35986786523E+02  0.54219685915E+02  0.10566000000E+00 0.  1.
         23    2    1    0    0    0  0.12397464787E+01 -0.52522002396E+00 -0.29572633923E+02  0.95396731523E+02  0.90687280699E+02 0.  0.
         13    1    3    3    0    0 -0.11848363526E+02 -0.38910318029E+02  0.64141525999E+01  0.41177045608E+02  0.10566000000E+00 0. -1.
         22    1    1    0    0    0 -0.12397464787E+01  0.52522002396E+00  0.29572633923E+02  0.29603268477E+02  0.00000000000E+00 0.  1.
</event>
<event>
 5    1  0.9041167E-005  0.9118800E+02  0.7818608E-02  0.1130116E+00
         25   -1    0    0    0    0  0.00000000000E+00  0.00000000000E+00  0.99999998245E-14  0.12500000000E+03  0.12500000000E+03 0.  0.
        -13    1    3    3    0    0  0.27721945201E+02  0.27633729238E+02 -0.57908553282E+01  0.39568603801E+02  0.10566000000E+00 0. -1.
         23    2    1    0    0    0 -0.25990977210E+02  0.14347450732E+02  0.86509314041E+00  0.95299349755E+02  0.90552953782E+02 0.  0.
         13    1    3    3    0    0 -0.53712922411E+02 -0.13286278505E+02  0.66559484686E+01  0.55730745953E+02  0.10566000000E+00 0.  1.
         22    1    1    0    0    0  0.25990977210E+02 -0.14347450732E+02 -0.86509314041E+00  0.29700650245E+02  0.00000000000E+00 0.  1.
</event>
<event>
 5    1  0.9041167E-005  0.9118800E+02  0.7818608E-02  0.1130116E+00
         25   -1    0    0    0    0  0.00000000000E+00  0.00000000000E+00  0.99999998245E-14  0.12500000000E+03  0.12500000000E+03 0.  0.
        -13    1    3    3    0    0 -0.20065037379E+02  0.37232551420E+02 -0.36395408996E+02  0.55798795420E+02  0.10566000000E+00 0.  1.
         23    2    1    0    0    0 -0.10271201944E+02  0.27426375070E+02  0.10168546149E+01  0.95695774499E+02  0.91098537995E+02 0.  0.
         13    1    3    3    0    0  0.97938354343E+01 -0.98061763501E+01  0.37412263611E+02  0.39896979079E+02  0.10566000000E+00 0. -1.
         22    1    1    0    0    0  0.10271201944E+02 -0.27426375070E+02 -0.10168546149E+01  0.29304225501E+02  0.00000000000E+00 0.  1.
</event>
<event>
 5    1  0.9041167E-005  0.9118800E+02  0.7818608E-02  0.1130116E+00
         25   -1    0    0    0    0  0.00000000000E+00  0.00000000000E+00  0.99999998245E-14  0.12500000000E+03  0.12500000000E+03 0.  0.
        -13    1    3    3    0    0  0.42347070136E+02 -0.43413093057E+02 -0.10984954054E+02  0.61633200286E+02  0.10566000000E+00 0. -1.
         23    2    1    0    0    0  0.28049636119E+02 -0.20584360699E+02 -0.15537412008E+01  0.90173112349E+02  0.83176187020E+02 0.  0.
         13    1    3    3    0    0 -0.14297434018E+02  0.22828732359E+02  0.94312128534E+01  0.28539912062E+02  0.10566000000E+00 0.  1.
         22    1    1    0    0    0 -0.28049636119E+02  0.20584360699E+02  0.15537412008E+01  0.34826887651E+02  0.00000000000E+00 0. -1.
</event>
<event>
 5    1  0.9041167E-005  0.9118800E+02  0.7818608E-02  0.1130116E+00
         25   -1    0    0    0    0  0.00000000000E+00  0.00000000000E+00  0.99999998245E-14  0.12500000000E+03  0.12500000000E+03 0.  0.
        -13    1    3    3    0    0 -0.15972738454E+02 -0.13180827835E+02 -0.32524938737E+02  0.38558337620E+02  0.10566000000E+00 0.  1.
         23    2    1    0    0    0  0.23915112661E+02  0.97379325403E+01  0.59168354907E+01  0.98509079179E+02  0.94880291919E+02 0.  0.
         13    1    3    3    0    0  0.39887851115E+02  0.22918760375E+02  0.38441774228E+02  0.59950741559E+02  0.10566000000E+00 0. -1.
         22    1    1    0    0    0 -0.23915112661E+02 -0.97379325403E+01 -0.59168354907E+01  0.26490920821E+02  0.00000000000E+00 0. -1.
</event>
<event>
 5    1  0.9041167E-005  0.9118800E+02  0.7818608E-02  0.1130116E+00
         25   -1    0    0    0    0  0.00000000000E+00  0.00000000000E+00  0.99999998245E-14  0.12500000000E+03  0.12500000000E+03 0.  0.
        -13    1    3    3    0    0  0.21322115468E+02  0.20117874591E+02  0.20178531423E+02  0.35588562495E+02  0.10566000000E+00 0. -1.
         23    2    1    0    0    0 -0.21068134127E+02  0.18458097896E+01 -0.19330025106E+02  0.96348243336E+02  0.91989460450E+02 0.  0.
         13    1    3    3    0    0 -0.42390249595E+02 -0.18272064801E+02 -0.39508556529E+02  0.60759680840E+02  0.10566000000E+00 0.  1.
         22    1    1    0    0    0  0.21068134127E+02 -0.18458097896E+01  0.19330025106E+02  0.28651756664E+02  0.00000000000E+00 0.  1.
</event>
<event>
 5    1  0.9041167E-005  0.9118800E+02  0.7818608E-02  0.1130116E+00
         25   -1    0    0    0    0  0.00000000000E+00  0.00000000000E+00  0.99999998245E-14  0.12500000000E+03  0.12500000000E+03 0.  0.
        -13    1    3    3    0    0  0.98218244259E+01 -0.45173205769E+01 -0.37030791516E+02  0.38576743053E+02  0.10566000000E+00 0. -1.
         23    2    1    0    0    0  0.12465293673E+02 -0.23056190598E+02  0.15640432611E+02  0.94477965279E+02  0.89411919339E+02 0.  0.
         13    1    3    3    0    0  0.26434692470E+01 -0.18538870021E+02  0.52671224127E+02  0.55901222226E+02  0.10566000000E+00 0.  1.
         22    1    1    0    0    0 -0.12465293673E+02  0.23056190598E+02 -0.15640432611E+02  0.30522034721E+02  0.00000000000E+00 0.  1.
</event>
<event>
 5    1  0.9041167E-005  0.9118800E+02  0.7818608E-02  0.1130116E+00
         25   -1    0    0    0    0  0.00000000000E+00  0.00000000000E+00  0.99999998245E-14  0.12500000000E+03  0.12500000000E+03 0.  0.
        -13    1    3    3    0    0 -0.25914570963E+02  0.29569069084E+02 -0.34297156579E+02  0.52174715602E+02  0.10566000000E+00 0.  1.
         23    2    1    0    0    0 -0.16993187508E+02  0.21989310773E+02  0.80153603801E+01  0.96076925959E+02  0.91620038691E+02 0.  0.
         13    1    3    3    0    0  0.89213834553E+01 -0.75797583113E+01  0.42312516959E+02  0.43902210357E+02  0.10566000000E+00 0. -1.
         22    1    1    0    0    0  0.16993187508E+02 -0.21989310773E+02 -0.80153603801E+01  0.28923074041E+02  0.00000000000E+00 0. -1.
</event>
<event>
 5    1  0.9041167E-005  0.9118800E+02  0.7818608E-02  0.1130116E+00
         25   -1    0    0    0    0  0.00000000000E+00  0.00000000000E+00  0.99999998245E-14  0.12500000000E+03  0.12500000000E+03 0.  0.
        -13    1    3    3    0    0 -0.23314113239E+02 -0.48319536086E+02  0.74675100616E-01  0.53650183449E+02  0.10566000000E+00 0.  1.
         23    2    1    0    0    0  0.10163166239E+02 -0.25799474323E+02  0.10544614782E+02  0.95333660080E+02  0.90600303642E+02 0.  0.
         13    1    3    3    0    0  0.33477279478E+02  0.22520061763E+02  0.10469939681E+02  0.41683476631E+02  0.10566000000E+00 0. -1.
         22    1    1    0    0    0 -0.10163166239E+02  0.25799474323E+02 -0.10544614782E+02  0.29666339920E+02  0.00000000000E+00 0.  1.
</event>
<event>
 5    1  0.9041167E-005  0.9118800E+02  0.7818608E-02  0.1130116E+00
         25   -1    0    0    0    0  0.00000000000E+00  0.00000000000E+00  0.99999998245E-14  0.12500000000E+03  0.12500000000E+03 0.  0.
        -13    1    3    3    0    0  0.52590487271E+02 -0.24611964436E+02  0.21325337209E+01  0.58103932818E+02  0.10566000000E+00 0.  1.
         23    2    1    0    0    0  0.21833110146E+02 -0.98830312881E+01  0.17315440772E+02  0.95433405756E+02  0.90737817028E+02 0.  0.
         13    1    3    3    0    0 -0.30757377125E+02  0.14728933148E+02  0.15182907051E+02  0.37329472938E+02  0.10566000000E+00 0. -1.
         22    1    1    0    0    0 -0.21833110146E+02  0.98830312881E+01 -0.17315440772E+02  0.29566594244E+02  0.00000000000E+00 0.  1.
</event>
<event>
 5    1  0.9041167E-005  0.9118800E+02  0.7818608E-02  0.1130116E+00
         25   -1    0    0    0    0  0.00000000000E+00  0.00000000000E+00  0.99999998245E-14  0.12500000000E+03  0.12500000000E+03 0.  0.
        -13    1    3    3    0    0 -0.51408164172E+01  0.44247162739E+02  0.11960047831E+02  0.46122590041E+02  0.10566000000E+00 0. -1.
         23    2    1    0    0    0  0.88611438239E+01  0.14450676193E+02 -0.24474604485E+02  0.95228399825E+02  0.90454960926E+02 0.  0.
         13    1    3    3    0    0  0.14001960241E+02 -0.29796486547E+02 -0.36434652316E+02  0.49105809784E+02  0.10566000000E+00 0.  1.
         22    1    1    0    0    0 -0.88611438239E+01 -0.14450676193E+02  0.24474604485E+02  0.29771600175E+02  0.00000000000E+00 0.  1.
</event>
<event>
 5    1  0.9041167E-005  0.9118800E+02  0.7818608E-02  0.1130116E+00
         25   -1    0    0    0    0  0.00000000000E+00  0.00000000000E+00  0.99999998245E-14  0.12500000000E+03  0.12500000000E+03 0.  0.
        -13    1    3    3    0    0 -0.23891320092E+02  0.33162335866E+02 -0.33454611777E+02  0.52818158894E+02  0.10566000000E+00 0.  1.
         23    2    1    0    0    0 -0.28463156696E+02  0.14177524568E+02  0.18328786121E+01  0.93148580314E+02  0.87533679681E+02 0.  0.
         13    1    3    3    0    0 -0.45718366047E+01 -0.18984811298E+02  0.35287490389E+02  0.40330421420E+02  0.10566000000E+00 0. -1.
         22    1    1    0    0    0  0.28463156696E+02 -0.14177524568E+02 -0.18328786121E+01  0.31851419686E+02  0.00000000000E+00 0.  1.
</event>
<event>
 5    1  0.9041167E-005  0.9118800E+02  0.7818608E-02  0.1130116E+00
         25   -1    0    0    0    0  0.00000000000E+00  0.00000000000E+00  0.99999998245E-14  0.12500000000E+03  0.12500000000E+03 0.  0.
        -13    1    3    3    0    0  0.23305016047E+02 -0.11361841359E+02  0.29146110590E+02  0.39009257089E+02  0.10566000000E+00 0. -1.
         23    2    1    0    0    0  0.17901378138E+02 -0.18107449779E+01 -0.24967687861E+02  0.94224627155E+02  0.89057042331E+02 0.  0.
         13    1    3    3    0    0 -0.54036379090E+01  0.95510963814E+01 -0.54113798451E+02  0.55215370066E+02  0.10566000000E+00 0.  1.
         22    1    1    0    0    0 -0.17901378138E+02  0.18107449779E+01  0.24967687861E+02  0.30775372845E+02  0.00000000000E+00 0.  1.
</event>
<event>
 5    1  0.9041167E-005  0.9118800E+02  0.7818608E-02  0.1130116E+00
         25   -1    0    0    0    0  0.00000000000E+00  0.00000000000E+00  0.99999998245E-14  0.12500000000E+03  0.12500000000E+03 0.  0.
        -13    1    3    3    0    0  0.78730827960E+01 -0.28977479711E+02  0.47198165081E+02  0.55940662440E+02  0.10566000000E+00 0. -1.
         23    2    1    0    0    0  0.16789857607E+02  0.25087532150E+01  0.21827112805E+02  0.97348309011E+02  0.93338508948E+02 0.  0.
         13    1    3    3    0    0  0.89167748107E+01  0.31486232926E+02 -0.25371052276E+02  0.41407646571E+02  0.10566000000E+00 0.  1.
         22    1    1    0    0    0 -0.16789857607E+02 -0.25087532150E+01 -0.21827112805E+02  0.27651690989E+02  0.00000000000E+00 0. -1.
</event>
<event>
 5    1  0.9041167E-005  0.9118800E+02  0.7818608E-02  0.1130116E+00
         25   -1    0    0    0    0  0.00000000000E+00  0.00000000000E+00  0.99999998245E-14  0.12500000000E+03  0.12500000000E+03 0.  0.
        -13    1    3    3    0    0 -0.48854089390E+02  0.99343652433E+00  0.44921630294E+01  0.49070354176E+02  0.10566000000E+00 0.  1.
         23    2    1    0    0    0 -0.31200052314E+02 -0.53257335106E+01  0.30441368232E+02  0.81085496682E+02  0.68164317429E+02 0.  0.
         13    1    3    3    0    0  0.17654037076E+02 -0.63191700349E+01  0.25949205202E+02  0.32015142506E+02  0.10566000000E+00 0. -1.
         22    1    1    0    0    0  0.31200052314E+02  0.53257335106E+01 -0.30441368232E+02  0.43914503318E+02  0.00000000000E+00 0. -1.
</event>
<event>
 5    1  0.9041167E-005  0.9118800E+02  0.7818608E-02  0.1130116E+00
         25   -1    0    0    0    0  0.00000000000E+00  0.00000000000E+00  0.99999998245E-14  0.12500000000E+03  0.12500000000E+03 0.  0.
        -13    1    3    3    0    0 -0.55813004520E+02  0.10923017657E+02 -0.93225775154E+01  0.57630941376E+02  0.10566000000E+00 0.  1.
         23    2    1    0    0    0 -0.25349048366E+02 -0.12128479158E+02 -0.76777061946E+01  0.95868892363E+02  0.91335771145E+02 0.  0.
         13    1    3    3    0    0  0.30463956154E+02 -0.23051496815E+02  0.16448713208E+01  0.38237950987E+02  0.10566000000E+00 0. -1.
         22    1    1    0    0    0  0.25349048366E+02  0.12128479158E+02  0.76777061946E+01  0.29131107637E+02  0.00000000000E+00 0.  1.
</event>
<event>
 5    1  0.9041167E-005  0.9118800E+02  0.7818608E-02  0.1130116E+00
         25   -1    0    0    0    0  0.00000000000E+00  0.00000000000E+00  0.99999998245E-14  0.12500000000E+03  0.12500000000E+03 0.  0.
        -13    1    3    3    0    0 -0.18402348558E+01 -0.33960480038E+02  0.51795462439E+01  0.34402609379E+02  0.10566000000E+00 0. -1.
         23    2    1    0    0    0 -0.15299979081E+02  0.25349705444E+02  0.26292142121E+01  0.95274426947E+02  0.90518543606E+02 0.  0.
         13    1    3    3    0    0 -0.13459744225E+02  0.59310185482E+02 -0.25503320318E+01  0.60871817568E+02  0.10566000000E+00 0.  1.
         22    1    1    0    0    0  0.15299979081E+02 -0.25349705444E+02 -0.26292142121E+01  0.29725573053E+02  0.00000000000E+00 0.  1.
</event>
<event>
 5    1  0.9041167E-005  0.9118800E+02  0.7818608E-02  0.1130116E+00
         25   -1    0    0    0    0  0.00000000000E+00  0.00000000000E+00  0.99999998245E-14  0.12500000000E+03  0.12500000000E+03 0.  0.
        -13    1    3    3    0    0 -0.36578619717E+02 -0.43764590406E+02 -0.33348410258E+01  0.57135515422E+02  0.10566000000E+00 0.  1.
         23    2    1    0    0    0 -0.13999598482E+02 -0.21511891071E+02  0.16459490138E+02  0.94509591168E+02  0.89456122161E+02 0.  0.
         13    1    3    3    0    0  0.22579021235E+02  0.22252699335E+02  0.19794331164E+02  0.37374075746E+02  0.10566000000E+00 0. -1.
         22    1    1    0    0    0  0.13999598482E+02  0.21511891071E+02 -0.16459490138E+02  0.30490408832E+02  0.00000000000E+00 0.  1.
</event>
<event>
 5    1  0.9041167E-005  0.9118800E+02  0.7818608E-02  0.1130116E+00
         25   -1    0    0    0    0  0.00000000000E+00  0.00000000000E+00  0.99999998245E-14  0.12500000000E+03  0.12500000000E+03 0.  0.
        -13    1    3    3    0    0 -0.40068636734E+02 -0.10233371232E+02  0.10617990172E+01  0.41368540192E+02  0.10566000000E+00 0. -1.
         23    2    1    0    0    0  0.98033735670E+01 -0.25385629882E+02  0.13000216001E+02  0.94841386739E+02  0.89918555842E+02 0.  0.
         13    1    3    3    0    0  0.49872010301E+02 -0.15152258650E+02  0.11938416983E+02  0.53472846546E+02  0.10566000000E+00 0.  1.
         22    1    1    0    0    0 -0.98033735670E+01  0.25385629882E+02 -0.13000216001E+02  0.30158613261E+02  0.00000000000E+00 0.  1.
</event>
<event>
 5    1  0.9041167E-005  0.9118800E+02  0.7818608E-02  0.1130116E+00
         25   -1    0    0    0    0  0.00000000000E+00  0.00000000000E+00  0.99999998245E-14  0.12500000000E+03  0.12500000000E+03 0.  0.
        -13    1    3    3    0    0 -0.29951479828E+02  0.28655696472E+02  0.27768497355E+02  0.49893293072E+02  0.10566000000E+00 0.  1.
         23    2    1    0    0    0 -0.31792509380E+02 -0.64233371536E+01  0.39706526164E+01  0.92322959206E+02  0.86346625884E+02 0.  0.
         13    1    3    3    0    0 -0.18410295518E+01 -0.35079033626E+02 -0.23797844739E+02  0.42429666133E+02  0.10566000000E+00 0. -1.
         22    1    1    0    0    0  0.31792509380E+02  0.64233371536E+01 -0.39706526164E+01  0.32677040794E+02  0.00000000000E+00 0. -1.
</event>
<event>
 5    1  0.9041167E-005  0.9118800E+02  0.7818608E-02  0.1130116E+00
         25   -1    0    0    0    0  0.00000000000E+00  0.00000000000E+00  0.99999998245E-14  0.12500000000E+03  0.12500000000E+03 0.  0.
        -13    1    3    3    0    0 -0.76300567953E+01  0.45504785104E+01  0.47558969435E+02  0.48381725467E+02  0.10566000000E+00 0. -1.
         23    2    1    0    0    0 -0.22894175706E+02  0.15943883186E+02  0.28784204967E+01  0.96952968128E+02  0.92807553744E+02 0.  0.
         13    1    3    3    0    0 -0.15264118910E+02  0.11393404675E+02 -0.44680548938E+02  0.48571242661E+02  0.10566000000E+00 0.  1.
         22    1    1    0    0    0  0.22894175706E+02 -0.15943883186E+02 -0.28784204967E+01  0.28047031872E+02  0.00000000000E+00 0.  1.
</event>
<event>
 5    1  0.9041167E-005  0.9118800E+02  0.7818608E-02  0.1130116E+00
         25   -1    0    0    0    0  0.00000000000E+00  0.00000000000E+00  0.99999998245E-14  0.12500000000E+03  0.12500000000E+03 0.  0.
        -13    1    3    3    0    0 -0.35934231752E+02  0.37447779816E+02 -0.14270490445E+02  0.53826232325E+02  0.10566000000E+00 0.  1.
         23    2    1    0    0    0  0.59943499714E+01  0.21877456342E+02 -0.13587926505E+02  0.98557854204E+02  0.94944528811E+02 0.  0.
         13    1    3    3    0    0  0.41928581723E+02 -0.15570323473E+02  0.68256394017E+00  0.44731621879E+02  0.10566000000E+00 0. -1.
         22    1    1    0    0    0 -0.59943499714E+01 -0.21877456342E+02  0.13587926505E+02  0.26442145796E+02  0.00000000000E+00 0. -1.
</event>
<event>
 5    1  0.9041167E-005  0.9118800E+02  0.7818608E-02  0.1130116E+00
         25   -1    0    0    0    0  0.00000000000E+00  0.00000000000E+00  0.99999998245E-14  0.12500000000E+03  0.12500000000E+03 0.  0.
        -13    1    3    3    0    0 -0.50430996209E+02  0.13607995716E+02 -0.31754657462E+02  0.61129635698E+02  0.10566000000E+00 0.  1.
         23    2    1    0    0    0 -0.17540739784E+02  0.36571581367E+01 -0.21546728542E+02  0.96976547881E+02  0.92839307248E+02 0.  0.
         13    1    3    3    0    0  0.32890256424E+02 -0.99508375794E+01  0.10207928920E+02  0.35846912183E+02  0.10566000000E+00 0. -1.
         22    1    1    0    0    0  0.17540739784E+02 -0.36571581367E+01  0.21546728542E+02  0.28023452119E+02  0.00000000000E+00 0.  1.
</event>
<event>
 5    1  0.9041167E-005  0.9118800E+02  0.7818608E-02  0.1130116E+00
         25   -1    0    0    0    0  0.00000000000E+00  0.00000000000E+00  0.99999998245E-14  0.12500000000E+03  0.12500000000E+03 0.  0.
        -13    1    3    3    0    0  0.25824606568E+02  0.56210099628E+02  0.10564489899E+01  0.61867704443E+02  0.10566000000E+00 0. -1.
         23    2    1    0    0    0  0.12754431565E+02  0.26324485442E+02 -0.57487577624E+01  0.95188890088E+02  0.90400345807E+02 0.  0.
         13    1    3    3    0    0 -0.13070175003E+02 -0.29885614185E+02 -0.68052067523E+01  0.33321185645E+02  0.10566000000E+00 0.  1.
         22    1    1    0    0    0 -0.12754431565E+02 -0.26324485442E+02  0.57487577624E+01  0.29811109912E+02  0.00000000000E+00 0. -1.
</event>
<event>
 5    1  0.9041167E-005  0.9118800E+02  0.7818608E-02  0.1130116E+00
         25   -1    0    0    0    0  0.00000000000E+00  0.00000000000E+00  0.99999998245E-14  0.12500000000E+03  0.12500000000E+03 0.  0.
        -13    1    3    3    0    0  0.20009459946E+01 -0.15411850476E+02  0.45381035450E+02  0.47968515325E+02  0.10566000000E+00 0. -1.
         23    2    1    0    0    0 -0.21578906429E+02 -0.20104561154E+02  0.48258936529E+01  0.95114688701E+02  0.90297686434E+02 0.  0.
         13    1    3    3    0    0 -0.23579852424E+02 -0.46927106781E+01 -0.40555141797E+02  0.47146173376E+02  0.10566000000E+00 0.  1.
         22    1    1    0    0    0  0.21578906429E+02  0.20104561154E+02 -0.48258936529E+01  0.29885311299E+02  0.00000000000E+00 0.  1.
</event>
<event>
 5    1  0.9041167E-005  0.9118800E+02  0.7818608E-02  0.1130116E+00
         25   -1    0    0    0    0  0.00000000000E+00  0.00000000000E+00  0.99999998245E-14  0.12500000000E+03  0.12500000000E+03 0.  0.
        -13    1    3    3    0    0 -0.30025574313E+02 -0.45034949173E+02 -0.22364398234E+01  0.54172821479E+02  0.10566000000E+00 0.  1.
         23    2    1    0    0    0 -0.19982488693E+02 -0.15314276410E+02  0.20183405348E+02  0.92732419245E+02  0.86937361423E+02 0.  0.
         13    1    3    3    0    0  0.10043085620E+02  0.29720672764E+02  0.22419845172E+02  0.38559597766E+02  0.10566000000E+00 0. -1.
         22    1    1    0    0    0  0.19982488693E+02  0.15314276410E+02 -0.20183405348E+02  0.32267580755E+02  0.00000000000E+00 0.  1.
</event>
<event>
 5    1  0.9041167E-005  0.9118800E+02  0.7818608E-02  0.1130116E+00
         25   -1    0    0    0    0  0.00000000000E+00  0.00000000000E+00  0.99999998245E-14  0.12500000000E+03  0.12500000000E+03 0.  0.
        -13    1    3    3    0    0  0.11074155709E+02  0.35425743061E+02 -0.84983602159E+01  0.38076941664E+02  0.10566000000E+00 0.  1.
         23    2    1    0    0    0  0.19596956709E+02 -0.21411472150E+02 -0.34154595304E+01  0.95774031826E+02  0.91205854837E+02 0.  0.
         13    1    3    3    0    0  0.85228010002E+01 -0.56837215211E+02  0.50829006855E+01  0.57697090162E+02  0.10566000000E+00 0. -1.
         22    1    1    0    0    0 -0.19596956709E+02  0.21411472150E+02  0.34154595304E+01  0.29225968174E+02  0.00000000000E+00 0. -1.
</event>
<event>
 5    1  0.9041167E-005  0.9118800E+02  0.7818608E-02  0.1130116E+00
         25   -1    0    0    0    0  0.00000000000E+00  0.00000000000E+00  0.99999998245E-14  0.12500000000E+03  0.12500000000E+03 0.  0.
        -13    1    3    3    0    0  0.49302423638E+02 -0.32674978045E+01  0.13455235631E+02  0.51209960441E+02  0.10566000000E+00 0. -1.
         23    2    1    0    0    0  0.17703158646E+02 -0.17750336197E+02 -0.14696598808E+02  0.95940298046E+02  0.91433443069E+02 0.  0.
         13    1    3    3    0    0 -0.31599264992E+02 -0.14482838393E+02 -0.28151834439E+02  0.44730337605E+02  0.10566000000E+00 0.  1.
         22    1    1    0    0    0 -0.17703158646E+02  0.17750336197E+02  0.14696598808E+02  0.29059701954E+02  0.00000000000E+00 0. -1.
</event>
<event>
 5    1  0.9041167E-005  0.9118800E+02  0.7818608E-02  0.1130116E+00
         25   -1    0    0    0    0  0.00000000000E+00  0.00000000000E+00  0.99999998245E-14  0.12500000000E+03  0.12500000000E+03 0.  0.
        -13    1    3    3    0    0  0.36236401431E+02  0.20082450020E+02  0.23681557846E+02  0.47720110368E+02  0.10566000000E+00 0.  1.
         23    2    1    0    0    0  0.23450246987E+02  0.44339729687E+01 -0.18705061093E+02  0.94677508174E+02  0.89690451240E+02 0.  0.
         13    1    3    3    0    0 -0.12786154445E+02 -0.15648477052E+02 -0.42386618940E+02  0.46957397806E+02  0.10566000000E+00 0. -1.
         22    1    1    0    0    0 -0.23450246987E+02 -0.44339729687E+01  0.18705061093E+02  0.30322491826E+02  0.00000000000E+00 0. -1.
</event>
<event>
 5    1  0.9041167E-005  0.9118800E+02  0.7818608E-02  0.1130116E+00
         25   -1    0    0    0    0  0.00000000000E+00  0.00000000000E+00  0.99999998245E-14  0.12500000000E+03  0.12500000000E+03 0.  0.
        -13    1    3    3    0    0 -0.15376683892E+02  0.14820312187E+02 -0.57196880217E+02  0.61053896939E+02  0.10566000000E+00 0.  1.
         23    2    1    0    0    0  0.19134387306E+01  0.74404223116E+01 -0.29411986920E+02  0.94601215378E+02  0.89584060214E+02 0.  0.
         13    1    3    3    0    0  0.17290122623E+02 -0.73798898752E+01  0.27784893297E+02  0.33547318439E+02  0.10566000000E+00 0. -1.
         22    1    1    0    0    0 -0.19134387306E+01 -0.74404223116E+01  0.29411986920E+02  0.30398784622E+02  0.00000000000E+00 0.  1.
</event>
<event>
 4    1  0.9041167E-005  0.9118800E+02  0.7818608E-02  0.1130116E+00
         25   -1    0    0    0    0  0.00000000000E+00  0.00000000000E+00  0.99999998245E-14  0.12500000000E+03  0.12500000000E+03 0.  0.
        -13    1    1    0    0    0 -0.13089230527E+02  0.11678744730E+02  0.66504393821E+01  0.18760611458E+02  0.10566000000E+00 0. -1.
         13    1    1    0    0    0 -0.12997465427E+01  0.10780053733E+02 -0.52274611829E+02  0.53390496396E+02  0.10566000000E+00 0.  1.
         22    1    1    0    0    0  0.14388977070E+02 -0.22458798464E+02  0.45624172447E+02  0.52848892145E+02  0.00000000000E+00 0.  1.
</event>
<event>
 5    1  0.9041167E-005  0.9118800E+02  0.7818608E-02  0.1130116E+00
         25   -1    0    0    0    0  0.00000000000E+00  0.00000000000E+00  0.99999998245E-14  0.12500000000E+03  0.12500000000E+03 0.  0.
        -13    1    3    3    0    0 -0.12337410073E+02 -0.29874775405E+02  0.37628952074E+02  0.49605071223E+02  0.10566000000E+00 0. -1.
         23    2    1    0    0    0  0.22858145515E+02 -0.10731085956E+02  0.15374556972E+02  0.95436035039E+02  0.90741439043E+02 0.  0.
         13    1    3    3    0    0  0.35195555588E+02  0.19143689449E+02 -0.22254395102E+02  0.45830963816E+02  0.10566000000E+00 0.  1.
         22    1    1    0    0    0 -0.22858145515E+02  0.10731085956E+02 -0.15374556972E+02  0.29563964961E+02  0.00000000000E+00 0. -1.
</event>
<event>
 5    1  0.9041167E-005  0.9118800E+02  0.7818608E-02  0.1130116E+00
         25   -1    0    0    0    0  0.00000000000E+00  0.00000000000E+00  0.99999998245E-14  0.12500000000E+03  0.12500000000E+03 0.  0.
        -13    1    3    3    0    0  0.41878901602E+02 -0.57191320073E+01  0.65195775388E+01  0.42767592002E+02  0.10566000000E+00 0.  1.
         23    2    1    0    0    0 -0.69433846606E+01 -0.25000044555E+02  0.13550955803E+02  0.95728149674E+02  0.91142950460E+02 0.  0.
         13    1    3    3    0    0 -0.48822286263E+02 -0.19280912548E+02  0.70313782647E+01  0.52960557672E+02  0.10566000000E+00 0. -1.
         22    1    1    0    0    0  0.69433846606E+01  0.25000044555E+02 -0.13550955803E+02  0.29271850326E+02  0.00000000000E+00 0. -1.
</event>
<event>
 5    1  0.9041167E-005  0.9118800E+02  0.7818608E-02  0.1130116E+00
         25   -1    0    0    0    0  0.00000000000E+00  0.00000000000E+00  0.99999998245E-14  0.12500000000E+03  0.12500000000E+03 0.  0.
        -13    1    3    3    0    0  0.43389672221E+01 -0.21232798787E+02  0.26475115416E+02  0.34214050932E+02  0.10566000000E+00 0.  1.
         23    2    1    0    0    0 -0.10915211116E+02  0.10436188422E+02 -0.24551125974E+02  0.96176161791E+02  0.91755329261E+02 0.  0.
         13    1    3    3    0    0 -0.15254178338E+02  0.31668987209E+02 -0.51026241390E+02  0.61962110859E+02  0.10566000000E+00 0. -1.
         22    1    1    0    0    0  0.10915211116E+02 -0.10436188422E+02  0.24551125974E+02  0.28823838209E+02  0.00000000000E+00 0. -1.
</event>
<event>
 5    1  0.9041167E-005  0.9118800E+02  0.7818608E-02  0.1130116E+00
         25   -1    0    0    0    0  0.00000000000E+00  0.00000000000E+00  0.99999998245E-14  0.12500000000E+03  0.12500000000E+03 0.  0.
        -13    1    3    3    0    0  0.86611173728E+01  0.16062467727E+02  0.51317233807E+02  0.54465470468E+02  0.10566000000E+00 0.  1.
         23    2    1    0    0    0 -0.31551089784E+01 -0.14335606756E+02  0.23302315949E+02  0.97459806422E+02  0.93487708313E+02 0.  0.
         13    1    3    3    0    0 -0.11816226351E+02 -0.30398074483E+02 -0.28014917859E+02  0.42994335954E+02  0.10566000000E+00 0. -1.
         22    1    1    0    0    0  0.31551089784E+01  0.14335606756E+02 -0.23302315949E+02  0.27540193578E+02  0.00000000000E+00 0.  1.
</event>
<event>
 5    1  0.9041167E-005  0.9118800E+02  0.7818608E-02  0.1130116E+00
         25   -1    0    0    0    0  0.00000000000E+00  0.00000000000E+00  0.99999998245E-14  0.12500000000E+03  0.12500000000E+03 0.  0.
        -13    1    3    3    0    0 -0.15517538203E+02  0.45394570757E+02 -0.51050588270E+00  0.47976377795E+02  0.10566000000E+00 0.  1.
         23    2    1    0    0    0  0.15866966901E+02  0.25473817041E+01  0.14697056230E+02  0.10322264355E+03  0.10089926108E+03 0.  0.
         13    1    3    3    0    0  0.31384505103E+02 -0.42847189052E+02  0.15207562113E+02  0.55246265754E+02  0.10566000000E+00 0. -1.
         22    1    1    0    0    0 -0.15866966901E+02 -0.25473817041E+01 -0.14697056230E+02  0.21777356451E+02  0.00000000000E+00 0.  1.
</event>
<event>
 5    1  0.9041167E-005  0.9118800E+02  0.7818608E-02  0.1130116E+00
         25   -1    0    0    0    0  0.00000000000E+00  0.00000000000E+00  0.99999998245E-14  0.12500000000E+03  0.12500000000E+03 0.  0.
        -13    1    3    3    0    0 -0.17019907995E+01  0.20894059948E+02 -0.39345438807E+02  0.44581758969E+02  0.10566000000E+00 0.  1.
         23    2    1    0    0    0  0.27352843043E+02 -0.68191702195E+01 -0.75010193422E+01  0.95829048761E+02  0.91281225836E+02 0.  0.
         13    1    3    3    0    0  0.29054833843E+02 -0.27713230167E+02  0.31844419465E+02  0.51247289792E+02  0.10566000000E+00 0. -1.
         22    1    1    0    0    0 -0.27352843043E+02  0.68191702195E+01  0.75010193422E+01  0.29170951239E+02  0.00000000000E+00 0. -1.
</event>
<event>
 5    1  0.9041167E-005  0.9118800E+02  0.7818608E-02  0.1130116E+00
         25   -1    0    0    0    0  0.00000000000E+00  0.00000000000E+00  0.99999998245E-14  0.12500000000E+03  0.12500000000E+03 0.  0.
        -13    1    3    3    0    0  0.14273032022E+02 -0.19410462911E+02  0.30213709898E+02  0.38644080314E+02  0.10566000000E+00 0. -1.
         23    2    1    0    0    0  0.42019880168E+01  0.27957129331E+02 -0.17605858271E+01  0.96674085254E+02  0.92431170682E+02 0.  0.
         13    1    3    3    0    0 -0.10071044005E+02  0.47367592242E+02 -0.31974295725E+02  0.58030004940E+02  0.10566000000E+00 0.  1.
         22    1    1    0    0    0 -0.42019880168E+01 -0.27957129331E+02  0.17605858271E+01  0.28325914746E+02  0.00000000000E+00 0.  1.
</event>
<event>
 5    1  0.9041167E-005  0.9118800E+02  0.7818608E-02  0.1130116E+00
         25   -1    0    0    0    0  0.00000000000E+00  0.00000000000E+00  0.99999998245E-14  0.12500000000E+03  0.12500000000E+03 0.  0.
        -13    1    3    3    0    0  0.43370374787E+02  0.21334974561E+01 -0.27861143675E+02  0.51592593572E+02  0.10566000000E+00 0. -1.
         23    2    1    0    0    0  0.22580220635E+02 -0.13871388707E+02  0.91534999888E+01  0.96963089496E+02  0.92821184942E+02 0.  0.
         13    1    3    3    0    0 -0.20790154152E+02 -0.16004886163E+02  0.37014643664E+02  0.45370495924E+02  0.10566000000E+00 0.  1.
         22    1    1    0    0    0 -0.22580220635E+02  0.13871388707E+02 -0.91534999888E+01  0.28036910504E+02  0.00000000000E+00 0. -1.
</event>
<event>
 5    1  0.9041167E-005  0.9118800E+02  0.7818608E-02  0.1130116E+00
         25   -1    0    0    0    0  0.00000000000E+00  0.00000000000E+00  0.99999998245E-14  0.12500000000E+03  0.12500000000E+03 0.  0.
        -13    1    3    3    0    0 -0.54151563329E+02 -0.22332911037E+02  0.11031894461E+02  0.59605910661E+02  0.10566000000E+00 0.  1.
         23    2    1    0    0    0 -0.26622297182E+02 -0.46402007903E+00  0.14050721180E+02  0.94893774937E+02  0.89991353664E+02 0.  0.
         13    1    3    3    0    0  0.27529266147E+02  0.21868890958E+02  0.30188267189E+01  0.35287864276E+02  0.10566000000E+00 0. -1.
         22    1    1    0    0    0  0.26622297182E+02  0.46402007903E+00 -0.14050721180E+02  0.30106225063E+02  0.00000000000E+00 0.  1.
</event>
<event>
 5    1  0.9041167E-005  0.9118800E+02  0.7818608E-02  0.1130116E+00
         25   -1    0    0    0    0  0.00000000000E+00  0.00000000000E+00  0.99999998245E-14  0.12500000000E+03  0.12500000000E+03 0.  0.
        -13    1    3    3    0    0 -0.97794329809E+01  0.43058022760E+02 -0.28683860133E+02  0.52653638332E+02  0.10566000000E+00 0.  1.
         23    2    1    0    0    0  0.66900412183E+01  0.24398702526E+02  0.92834540016E+01  0.98051236491E+02  0.94275177660E+02 0.  0.
         13    1    3    3    0    0  0.16469474199E+02 -0.18659320234E+02  0.37967314135E+02  0.45397598159E+02  0.10566000000E+00 0. -1.
         22    1    1    0    0    0 -0.66900412183E+01 -0.24398702526E+02 -0.92834540016E+01  0.26948763509E+02  0.00000000000E+00 0. -1.
</event>
<event>
 5    1  0.9041167E-005  0.9118800E+02  0.7818608E-02  0.1130116E+00
         25   -1    0    0    0    0  0.00000000000E+00  0.00000000000E+00  0.99999998245E-14  0.12500000000E+03  0.12500000000E+03 0.  0.
        -13    1    3    3    0    0 -0.17659588745E+02 -0.21649233350E+02 -0.11939067341E+02  0.30382608056E+02  0.10566000000E+00 0. -1.
         23    2    1    0    0    0 -0.24509233855E+02  0.27529333121E+01  0.34087200371E+02  0.82926036375E+02  0.71459842525E+02 0.  0.
         13    1    3    3    0    0 -0.68496451096E+01  0.24402166662E+02  0.46026267712E+02  0.52543428319E+02  0.10566000000E+00 0.  1.
         22    1    1    0    0    0  0.24509233855E+02 -0.27529333121E+01 -0.34087200371E+02  0.42073963625E+02  0.00000000000E+00 0. -1.
</event>
<event>
 5    1  0.9041167E-005  0.9118800E+02  0.7818608E-02  0.1130116E+00
         25   -1    0    0    0    0  0.00000000000E+00  0.00000000000E+00  0.99999998245E-14  0.12500000000E+03  0.12500000000E+03 0.  0.
        -13    1    3    3    0    0  0.50910897958E+02  0.14033275664E+02  0.23698686511E+02  0.57883428225E+02  0.10566000000E+00 0.  1.
         23    2    1    0    0    0  0.34875121314E+02  0.79121619814E+01 -0.24414968603E+01  0.89155372776E+02  0.81632366093E+02 0.  0.
         13    1    3    3    0    0 -0.16035776643E+02 -0.61211136828E+01 -0.26140183371E+02  0.31271944551E+02  0.10566000000E+00 0. -1.
         22    1    1    0    0    0 -0.34875121314E+02 -0.79121619814E+01  0.24414968603E+01  0.35844627224E+02  0.00000000000E+00 0.  1.
</event>
<event>
 5    1  0.9041167E-005  0.9118800E+02  0.7818608E-02  0.1130116E+00
         25   -1    0    0    0    0  0.00000000000E+00  0.00000000000E+00  0.99999998245E-14  0.12500000000E+03  0.12500000000E+03 0.  0.
        -13    1    3    3    0    0  0.21327721296E+02  0.42188676355E+01 -0.26937951906E+02  0.34616974980E+02  0.10566000000E+00 0. -1.
         23    2    1    0    0    0 -0.10941213884E+02 -0.17114994902E+02  0.20709903625E+02  0.95990806286E+02  0.91502467571E+02 0.  0.
         13    1    3    3    0    0 -0.32268935181E+02 -0.21333862538E+02  0.47647855531E+02  0.61373831306E+02  0.10566000000E+00 0.  1.
         22    1    1    0    0    0  0.10941213884E+02  0.17114994902E+02 -0.20709903625E+02  0.29009193714E+02  0.00000000000E+00 0.  1.
</event>
<event>
 5    1  0.9041167E-005  0.9118800E+02  0.7818608E-02  0.1130116E+00
         25   -1    0    0    0    0  0.00000000000E+00  0.00000000000E+00  0.99999998245E-14  0.12500000000E+03  0.12500000000E+03 0.  0.
        -13    1    3    3    0    0 -0.32776803828E+02  0.46511897826E+02  0.16244312219E+02  0.59174017542E+02  0.10566000000E+00 0. -1.
         23    2    1    0    0    0 -0.21037253976E+02  0.12238132302E+02  0.16833803419E+02  0.95407519964E+02  0.90702149870E+02 0.  0.
         13    1    3    3    0    0  0.11739549852E+02 -0.34273765524E+02  0.58949119997E+00  0.36233502422E+02  0.10566000000E+00 0.  1.
         22    1    1    0    0    0  0.21037253976E+02 -0.12238132302E+02 -0.16833803419E+02  0.29592480036E+02  0.00000000000E+00 0. -1.
</event>
<event>
 5    1  0.9041167E-005  0.9118800E+02  0.7818608E-02  0.1130116E+00
         25   -1    0    0    0    0  0.00000000000E+00  0.00000000000E+00  0.99999998245E-14  0.12500000000E+03  0.12500000000E+03 0.  0.
        -13    1    3    3    0    0 -0.19299295522E+02 -0.13583519342E+02  0.56610813622E+02  0.61333271463E+02  0.10566000000E+00 0. -1.
         23    2    1    0    0    0 -0.12443617850E+02  0.14539895309E+01  0.26717695427E+02  0.95490798728E+02  0.90816846907E+02 0.  0.
         13    1    3    3    0    0  0.68556776722E+01  0.15037508873E+02 -0.29893118194E+02  0.34157527265E+02  0.10566000000E+00 0.  1.
         22    1    1    0    0    0  0.12443617850E+02 -0.14539895309E+01 -0.26717695427E+02  0.29509201272E+02  0.00000000000E+00 0. -1.
</event>
<event>
 5    1  0.9041167E-005  0.9118800E+02  0.7818608E-02  0.1130116E+00
         25   -1    0    0    0    0  0.00000000000E+00  0.00000000000E+00  0.99999998245E-14  0.12500000000E+03  0.12500000000E+03 0.  0.
        -13    1    3    3    0    0 -0.33052165150E+02 -0.81915230391E+01  0.95113327492E+00  0.34065561633E+02  0.10566000000E+00 0.  1.
         23    2    1    0    0    0  0.22443727589E+02  0.69315227376E+01 -0.18833159734E+02  0.94892611852E+02  0.89989738098E+02 0.  0.
         13    1    3    3    0    0  0.55495892739E+02  0.15123045777E+02 -0.19784293009E+02  0.60827050219E+02  0.10566000000E+00 0. -1.
         22    1    1    0    0    0 -0.22443727589E+02 -0.69315227376E+01  0.18833159734E+02  0.30107388148E+02  0.00000000000E+00 0. -1.
</event>
<event>
 5    1  0.9041167E-005  0.9118800E+02  0.7818608E-02  0.1130116E+00
         25   -1    0    0    0    0  0.00000000000E+00  0.00000000000E+00  0.99999998245E-14  0.12500000000E+03  0.12500000000E+03 0.  0.
        -13    1    3    3    0    0  0.14300240772E+02 -0.14456491919E+01 -0.34464021389E+02  0.37341220147E+02  0.10566000000E+00 0. -1.
         23    2    1    0    0    0  0.21334648083E+02 -0.14748573427E+01  0.22044951561E+02  0.94286447579E+02  0.89143770924E+02 0.  0.
         13    1    3    3    0    0  0.70344073111E+01 -0.29208150761E-01  0.56508972950E+02  0.56945227432E+02  0.10566000000E+00 0.  1.
         22    1    1    0    0    0 -0.21334648083E+02  0.14748573427E+01 -0.22044951561E+02  0.30713552421E+02  0.00000000000E+00 0.  1.
</event>
<event>
 5    1  0.9041167E-005  0.9118800E+02  0.7818608E-02  0.1130116E+00
         25   -1    0    0    0    0  0.00000000000E+00  0.00000000000E+00  0.99999998245E-14  0.12500000000E+03  0.12500000000E+03 0.  0.
        -13    1    3    3    0    0  0.68668990063E+01  0.50182943500E+02  0.12988086797E+01  0.50667348345E+02  0.10566000000E+00 0. -1.
         23    2    1    0    0    0  0.89550638904E+01  0.26169827027E+02 -0.25967964123E+02  0.87060730415E+02  0.78359317275E+02 0.  0.
         13    1    3    3    0    0  0.20881648841E+01 -0.24013116473E+02 -0.27266772803E+02  0.36393382070E+02  0.10566000000E+00 0.  1.
         22    1    1    0    0    0 -0.89550638904E+01 -0.26169827027E+02  0.25967964123E+02  0.37939269585E+02  0.00000000000E+00 0.  1.
</event>
<event>
 5    1  0.9041167E-005  0.9118800E+02  0.7818608E-02  0.1130116E+00
         25   -1    0    0    0    0  0.00000000000E+00  0.00000000000E+00  0.99999998245E-14  0.12500000000E+03  0.12500000000E+03 0.  0.
        -13    1    3    3    0    0 -0.32488863345E+02  0.41712289492E+02  0.74738022986E+01  0.53397661194E+02  0.10566000000E+00 0. -1.
         23    2    1    0    0    0  0.49473543462E+01  0.23201085640E+02  0.16472399269E+02  0.96119095797E+02  0.91677554228E+02 0.  0.
         13    1    3    3    0    0  0.37436217691E+02 -0.18511203852E+02  0.89985969707E+01  0.42721434603E+02  0.10566000000E+00 0.  1.
         22    1    1    0    0    0 -0.49473543462E+01 -0.23201085640E+02 -0.16472399269E+02  0.28880904203E+02  0.00000000000E+00 0. -1.
</event>
<event>
 5    1  0.9041167E-005  0.9118800E+02  0.7818608E-02  0.1130116E+00
         25   -1    0    0    0    0  0.00000000000E+00  0.00000000000E+00  0.99999998245E-14  0.12500000000E+03  0.12500000000E+03 0.  0.
        -13    1    3    3    0    0 -0.41232751118E+00 -0.53352462541E+02  0.24889514430E+02  0.58874055116E+02  0.10566000000E+00 0.  1.
         23    2    1    0    0    0 -0.61849984251E+01 -0.27845955814E+02 -0.20277304517E+01  0.96403441615E+02  0.92064436150E+02 0.  0.
         13    1    3    3    0    0 -0.57726709140E+01  0.25506506728E+02 -0.26917244882E+02  0.37529386499E+02  0.10566000000E+00 0. -1.
         22    1    1    0    0    0  0.61849984251E+01  0.27845955814E+02  0.20277304517E+01  0.28596558385E+02  0.00000000000E+00 0.  1.
</event>
<event>
 5    1  0.9041167E-005  0.9118800E+02  0.7818608E-02  0.1130116E+00
         25   -1    0    0    0    0  0.00000000000E+00  0.00000000000E+00  0.99999998245E-14  0.12500000000E+03  0.12500000000E+03 0.  0.
        -13    1    3    3    0    0 -0.50904594304E+02  0.20815320207E+02  0.28719339044E+02  0.62043266159E+02  0.10566000000E+00 0.  1.
         23    2    1    0    0    0 -0.21153650798E+02  0.13606225783E+02  0.99473971042E+01  0.97952689019E+02  0.94144422324E+02 0.  0.
         13    1    3    3    0    0  0.29750943506E+02 -0.72090944242E+01 -0.18771941940E+02  0.35909422860E+02  0.10566000000E+00 0. -1.
         22    1    1    0    0    0  0.21153650798E+02 -0.13606225783E+02 -0.99473971042E+01  0.27047310981E+02  0.00000000000E+00 0.  1.
</event>
<event>
 5    1  0.9041167E-005  0.9118800E+02  0.7818608E-02  0.1130116E+00
         25   -1    0    0    0    0  0.00000000000E+00  0.00000000000E+00  0.99999998245E-14  0.12500000000E+03  0.12500000000E+03 0.  0.
        -13    1    3    3    0    0 -0.50517225701E+02  0.51409675434E+01 -0.14151847603E+02  0.52713428976E+02  0.10566000000E+00 0.  1.
         23    2    1    0    0    0 -0.12149581541E+02  0.23632361415E+02 -0.13233295831E+02  0.95314633972E+02  0.90574049777E+02 0.  0.
         13    1    3    3    0    0  0.38367644160E+02  0.18491393872E+02  0.91855177247E+00  0.42601204996E+02  0.10566000000E+00 0. -1.
         22    1    1    0    0    0  0.12149581541E+02 -0.23632361415E+02  0.13233295831E+02  0.29685366028E+02  0.00000000000E+00 0.  1.
</event>
<event>
 5    1  0.9041167E-005  0.9118800E+02  0.7818608E-02  0.1130116E+00
         25   -1    0    0    0    0  0.00000000000E+00  0.00000000000E+00  0.99999998245E-14  0.12500000000E+03  0.12500000000E+03 0.  0.
        -13    1    3    3    0    0 -0.48568904241E+01  0.37725671018E+02  0.12149684157E+02  0.39930459896E+02  0.10566000000E+00 0. -1.
         23    2    1    0    0    0  0.20319511549E+02 -0.11714687411E+02  0.17595976062E+02  0.95678764960E+02  0.91075195525E+02 0.  0.
         13    1    3    3    0    0  0.25176401973E+02 -0.49440358429E+02  0.54462919055E+01  0.55748305064E+02  0.10566000000E+00 0.  1.
         22    1    1    0    0    0 -0.20319511549E+02  0.11714687411E+02 -0.17595976062E+02  0.29321235040E+02  0.00000000000E+00 0.  1.
</event>
<event>
 5    1  0.9041167E-005  0.9118800E+02  0.7818608E-02  0.1130116E+00
         25   -1    0    0    0    0  0.00000000000E+00  0.00000000000E+00  0.99999998245E-14  0.12500000000E+03  0.12500000000E+03 0.  0.
        -13    1    3    3    0    0 -0.43745419005E+02 -0.31425910412E+02 -0.24115868948E+02  0.59015555816E+02  0.10566000000E+00 0.  1.
         23    2    1    0    0    0 -0.26109155055E+02 -0.97031150882E+00 -0.12131094115E+02  0.96193873455E+02  0.91779455019E+02 0.  0.
         13    1    3    3    0    0  0.17636263949E+02  0.30455598903E+02  0.11984774833E+02  0.37178317639E+02  0.10566000000E+00 0. -1.
         22    1    1    0    0    0  0.26109155055E+02  0.97031150882E+00  0.12131094115E+02  0.28806126545E+02  0.00000000000E+00 0.  1.
</event>
<event>
 5    1  0.9041167E-005  0.9118800E+02  0.7818608E-02  0.1130116E+00
         25   -1    0    0    0    0  0.00000000000E+00  0.00000000000E+00  0.99999998245E-14  0.12500000000E+03  0.12500000000E+03 0.  0.
        -13    1    3    3    0    0  0.26130811083E+02 -0.30560199003E+02 -0.33992591190E+02  0.52652183913E+02  0.10566000000E+00 0. -1.
         23    2    1    0    0    0  0.88667604801E+01 -0.29507118471E+02  0.35480946162E+01  0.93985834571E+02  0.88721241215E+02 0.  0.
         13    1    3    3    0    0 -0.17264050603E+02  0.10530805326E+01  0.37540685807E+02  0.41333650658E+02  0.10566000000E+00 0.  1.
         22    1    1    0    0    0 -0.88667604801E+01  0.29507118471E+02 -0.35480946162E+01  0.31014165429E+02  0.00000000000E+00 0. -1.
</event>
<event>
 5    1  0.9041167E-005  0.9118800E+02  0.7818608E-02  0.1130116E+00
         25   -1    0    0    0    0  0.00000000000E+00  0.00000000000E+00  0.99999998245E-14  0.12500000000E+03  0.12500000000E+03 0.  0.
        -13    1    3    3    0    0 -0.14084696620E+02 -0.47432738783E+02  0.17698296503E+01  0.49511481985E+02  0.10566000000E+00 0. -1.
         23    2    1    0    0    0 -0.73528742389E+01 -0.16134423866E+02 -0.27096341713E+02  0.92617965980E+02  0.86772642549E+02 0.  0.
         13    1    3    3    0    0  0.67318223811E+01  0.31298314917E+02 -0.28866171363E+02  0.43106483995E+02  0.10566000000E+00 0.  1.
         22    1    1    0    0    0  0.73528742389E+01  0.16134423866E+02  0.27096341713E+02  0.32382034020E+02  0.00000000000E+00 0. -1.
</event>
<event>
 5    1  0.9041167E-005  0.9118800E+02  0.7818608E-02  0.1130116E+00
         25   -1    0    0    0    0  0.00000000000E+00  0.00000000000E+00  0.99999998245E-14  0.12500000000E+03  0.12500000000E+03 0.  0.
        -13    1    3    3    0    0 -0.24543305294E+02 -0.18724441798E+02  0.30175463308E+02  0.43168834884E+02  0.10566000000E+00 0.  1.
         23    2    1    0    0    0  0.12319965011E+02  0.17073963189E+02  0.20802611491E+02  0.95401851381E+02  0.90694337448E+02 0.  0.
         13    1    3    3    0    0  0.36863270304E+02  0.35798404987E+02 -0.93728518167E+01  0.52233016496E+02  0.10566000000E+00 0. -1.
         22    1    1    0    0    0 -0.12319965011E+02 -0.17073963189E+02 -0.20802611491E+02  0.29598148619E+02  0.00000000000E+00 0.  1.
</event>
<event>
 5    1  0.9041167E-005  0.9118800E+02  0.7818608E-02  0.1130116E+00
         25   -1    0    0    0    0  0.00000000000E+00  0.00000000000E+00  0.99999998245E-14  0.12500000000E+03  0.12500000000E+03 0.  0.
        -13    1    3    3    0    0  0.24114327543E+02  0.40979006047E+02 -0.39514368628E+02  0.61823751274E+02  0.10566000000E+00 0. -1.
         23    2    1    0    0    0  0.17727134600E+02  0.18882577036E+02 -0.16938894271E+02  0.94052800519E+02  0.88815539911E+02 0.  0.
         13    1    3    3    0    0 -0.63871929426E+01 -0.22096429011E+02  0.22575474357E+02  0.32229049245E+02  0.10566000000E+00 0.  1.
         22    1    1    0    0    0 -0.17727134600E+02 -0.18882577036E+02  0.16938894271E+02  0.30947199481E+02  0.00000000000E+00 0. -1.
</event>
<event>
 5    1  0.9041167E-005  0.9118800E+02  0.7818608E-02  0.1130116E+00
         25   -1    0    0    0    0  0.00000000000E+00  0.00000000000E+00  0.99999998245E-14  0.12500000000E+03  0.12500000000E+03 0.  0.
        -13    1    3    3    0    0 -0.98313253652E+01  0.35784824605E+02  0.48024423442E+02  0.60692380423E+02  0.10566000000E+00 0.  1.
         23    2    1    0    0    0 -0.12995276485E+02  0.19993934684E+02  0.16784955848E+02  0.95838906435E+02  0.91294723882E+02 0.  0.
         13    1    3    3    0    0 -0.31639511199E+01 -0.15790889921E+02 -0.31239467593E+02  0.35146526012E+02  0.10566000000E+00 0. -1.
         22    1    1    0    0    0  0.12995276485E+02 -0.19993934684E+02 -0.16784955848E+02  0.29161093565E+02  0.00000000000E+00 0.  1.
</event>
<event>
 5    1  0.9041167E-005  0.9118800E+02  0.7818608E-02  0.1130116E+00
         25   -1    0    0    0    0  0.00000000000E+00  0.00000000000E+00  0.99999998245E-14  0.12500000000E+03  0.12500000000E+03 0.  0.
        -13    1    3    3    0    0 -0.14950809687E+02 -0.24225245465E+02 -0.23672931169E+02  0.37024425212E+02  0.10566000000E+00 0.  1.
         23    2    1    0    0    0  0.22082741007E+02 -0.25315238447E+02  0.12834345942E+02  0.89038504150E+02  0.81453213795E+02 0.  0.
         13    1    3    3    0    0  0.37033550694E+02 -0.10899929827E+01  0.36507277110E+02  0.52014078938E+02  0.10566000000E+00 0. -1.
         22    1    1    0    0    0 -0.22082741007E+02  0.25315238447E+02 -0.12834345942E+02  0.35961495850E+02  0.00000000000E+00 0. -1.
</event>
<event>
 5    1  0.9041167E-005  0.9118800E+02  0.7818608E-02  0.1130116E+00
         25   -1    0    0    0    0  0.00000000000E+00  0.00000000000E+00  0.99999998245E-14  0.12500000000E+03  0.12500000000E+03 0.  0.
        -13    1    3    3    0    0  0.22022430496E+02 -0.31374624305E+02 -0.21388163400E+02  0.43895548668E+02  0.10566000000E+00 0.  1.
         23    2    1    0    0    0  0.22002939133E+02  0.18188567735E+02 -0.56381586264E+01  0.95901165669E+02  0.91379928962E+02 0.  0.
         13    1    3    3    0    0 -0.19491362338E-01  0.49563192041E+02  0.15750004774E+02  0.52005617000E+02  0.10566000000E+00 0. -1.
         22    1    1    0    0    0 -0.22002939133E+02 -0.18188567735E+02  0.56381586264E+01  0.29098834331E+02  0.00000000000E+00 0. -1.
</event>
<event>
 5    1  0.9041167E-005  0.9118800E+02  0.7818608E-02  0.1130116E+00
         25   -1    0    0    0    0  0.00000000000E+00  0.00000000000E+00  0.99999998245E-14  0.12500000000E+03  0.12500000000E+03 0.  0.
        -13    1    3    3    0    0 -0.30984071818E+02 -0.12759328480E+02 -0.37263395564E+02  0.50113720504E+02  0.10566000000E+00 0. -1.
         23    2    1    0    0    0 -0.14298454315E+02  0.22036929898E+02 -0.13089649178E+02  0.95650196070E+02  0.91035976501E+02 0.  0.
         13    1    3    3    0    0  0.16685617503E+02  0.34796258378E+02  0.24173746386E+02  0.45536475566E+02  0.10566000000E+00 0.  1.
         22    1    1    0    0    0  0.14298454315E+02 -0.22036929898E+02  0.13089649178E+02  0.29349803930E+02  0.00000000000E+00 0. -1.
</event>
<event>
 5    1  0.9041167E-005  0.9118800E+02  0.7818608E-02  0.1130116E+00
         25   -1    0    0    0    0  0.00000000000E+00  0.00000000000E+00  0.99999998245E-14  0.12500000000E+03  0.12500000000E+03 0.  0.
        -13    1    3    3    0    0  0.39072041926E+02  0.45650533301E+01 -0.27690244013E+02  0.48106391984E+02  0.10566000000E+00 0.  1.
         23    2    1    0    0    0  0.97234080528E+01  0.27613934485E+02  0.17986466522E+01  0.95668972543E+02  0.91061754517E+02 0.  0.
         13    1    3    3    0    0 -0.29348633873E+02  0.23048881155E+02  0.29488890665E+02  0.47562580559E+02  0.10566000000E+00 0. -1.
         22    1    1    0    0    0 -0.97234080528E+01 -0.27613934485E+02 -0.17986466522E+01  0.29331027457E+02  0.00000000000E+00 0. -1.
</event>
<event>
 5    1  0.9041167E-005  0.9118800E+02  0.7818608E-02  0.1130116E+00
         25   -1    0    0    0    0  0.00000000000E+00  0.00000000000E+00  0.99999998245E-14  0.12500000000E+03  0.12500000000E+03 0.  0.
        -13    1    3    3    0    0  0.28761509677E+02 -0.29044820875E+02 -0.40497521896E+01  0.41075999262E+02  0.10566000000E+00 0.  1.
         23    2    1    0    0    0 -0.13125202105E+02 -0.73398174739E+01  0.24525075944E+02  0.96231558942E+02  0.91830766823E+02 0.  0.
         13    1    3    3    0    0 -0.41886711783E+02  0.21705003401E+02  0.28574828134E+02  0.55155559679E+02  0.10566000000E+00 0. -1.
         22    1    1    0    0    0  0.13125202105E+02  0.73398174739E+01 -0.24525075944E+02  0.28768441058E+02  0.00000000000E+00 0. -1.
</event>
<event>
 5    1  0.9041167E-005  0.9118800E+02  0.7818608E-02  0.1130116E+00
         25   -1    0    0    0    0  0.00000000000E+00  0.00000000000E+00  0.99999998245E-14  0.12500000000E+03  0.12500000000E+03 0.  0.
        -13    1    3    3    0    0  0.45808520653E+01 -0.55782023199E+02 -0.63236201124E+01  0.56325994471E+02  0.10566000000E+00 0.  1.
         23    2    1    0    0    0  0.16297532479E+02 -0.20675480808E+02 -0.15490040790E+02  0.94454518579E+02  0.89379134280E+02 0.  0.
         13    1    3    3    0    0  0.11716680414E+02  0.35106542391E+02 -0.91664206773E+01  0.38128524108E+02  0.10566000000E+00 0. -1.
         22    1    1    0    0    0 -0.16297532479E+02  0.20675480808E+02  0.15490040790E+02  0.30545481421E+02  0.00000000000E+00 0.  1.
</event>
<event>
 5    1  0.9041167E-005  0.9118800E+02  0.7818608E-02  0.1130116E+00
         25   -1    0    0    0    0  0.00000000000E+00  0.00000000000E+00  0.99999998245E-14  0.12500000000E+03  0.12500000000E+03 0.  0.
        -13    1    3    3    0    0 -0.20614159436E+02  0.27375305624E+02 -0.21569479400E+02  0.40492030485E+02  0.10566000000E+00 0. -1.
         23    2    1    0    0    0 -0.21766478934E+02 -0.15732735568E+02  0.12429472140E+02  0.95406244724E+02  0.90700392398E+02 0.  0.
         13    1    3    3    0    0 -0.11523194982E+01 -0.43108041192E+02  0.33998951540E+02  0.54914214239E+02  0.10566000000E+00 0.  1.
         22    1    1    0    0    0  0.21766478934E+02  0.15732735568E+02 -0.12429472140E+02  0.29593755276E+02  0.00000000000E+00 0. -1.
</event>
<event>
 5    1  0.9041167E-005  0.9118800E+02  0.7818608E-02  0.1130116E+00
         25   -1    0    0    0    0  0.00000000000E+00  0.00000000000E+00  0.99999998245E-14  0.12500000000E+03  0.12500000000E+03 0.  0.
        -13    1    3    3    0    0  0.33150202592E+02  0.50534258294E+01 -0.20349830818E+01  0.33595019939E+02  0.10566000000E+00 0. -1.
         23    2    1    0    0    0 -0.27155102690E+02 -0.27052656095E+01  0.10648897384E+02  0.95706364521E+02  0.91113067834E+02 0.  0.
         13    1    3    3    0    0 -0.60305305282E+02 -0.77586914389E+01  0.12683880466E+02  0.62111344581E+02  0.10566000000E+00 0.  1.
         22    1    1    0    0    0  0.27155102690E+02  0.27052656095E+01 -0.10648897384E+02  0.29293635479E+02  0.00000000000E+00 0.  1.
</event>
<event>
 5    1  0.9041167E-005  0.9118800E+02  0.7818608E-02  0.1130116E+00
         25   -1    0    0    0    0  0.00000000000E+00  0.00000000000E+00  0.99999998245E-14  0.12500000000E+03  0.12500000000E+03 0.  0.
        -13    1    3    3    0    0 -0.20479641592E+00  0.13131013074E+02 -0.37608320516E+02  0.39835441280E+02  0.10566000000E+00 0.  1.
         23    2    1    0    0    0  0.13991136078E+02 -0.27372281314E+02 -0.47367377768E+01  0.93896457471E+02  0.88595227680E+02 0.  0.
         13    1    3    3    0    0  0.14195932494E+02 -0.40503294388E+02  0.32871582740E+02  0.54061016190E+02  0.10566000000E+00 0. -1.
         22    1    1    0    0    0 -0.13991136078E+02  0.27372281314E+02  0.47367377768E+01  0.31103542529E+02  0.00000000000E+00 0. -1.
</event>
<event>
 5    1  0.9041167E-005  0.9118800E+02  0.7818608E-02  0.1130116E+00
         25   -1    0    0    0    0  0.00000000000E+00  0.00000000000E+00  0.99999998245E-14  0.12500000000E+03  0.12500000000E+03 0.  0.
        -13    1    3    3    0    0 -0.18100746506E+01 -0.34993232043E+01 -0.60526122545E+02  0.60654301641E+02  0.10566000000E+00 0.  1.
         23    2    1    0    0    0  0.25946376043E+01  0.85673316596E+01 -0.26836107114E+02  0.96710285242E+02  0.92480113054E+02 0.  0.
         13    1    3    3    0    0  0.44047122549E+01  0.12066654864E+02  0.33690015431E+02  0.36055983601E+02  0.10566000000E+00 0. -1.
         22    1    1    0    0    0 -0.25946376043E+01 -0.85673316596E+01  0.26836107114E+02  0.28289714758E+02  0.00000000000E+00 0.  1.
</event>
<event>
 5    1  0.9041167E-005  0.9118800E+02  0.7818608E-02  0.1130116E+00
         25   -1    0    0    0    0  0.00000000000E+00  0.00000000000E+00  0.99999998245E-14  0.12500000000E+03  0.12500000000E+03 0.  0.
        -13    1    3    3    0    0 -0.24422129180E+02  0.45016873789E+02  0.23311926802E+02  0.56270919796E+02  0.10566000000E+00 0.  1.
         23    2    1    0    0    0  0.67832068253E+01  0.28598945423E+02  0.10830048276E+02  0.93675863622E+02  0.88283440721E+02 0.  0.
         13    1    3    3    0    0  0.31205336005E+02 -0.16417928367E+02 -0.12481878526E+02  0.37404943826E+02  0.10566000000E+00 0. -1.
         22    1    1    0    0    0 -0.67832068253E+01 -0.28598945423E+02 -0.10830048276E+02  0.31324136378E+02  0.00000000000E+00 0.  1.
</event>
<event>
 5    1  0.9041167E-005  0.9118800E+02  0.7818608E-02  0.1130116E+00
         25   -1    0    0    0    0  0.00000000000E+00  0.00000000000E+00  0.99999998245E-14  0.12500000000E+03  0.12500000000E+03 0.  0.
        -13    1    3    3    0    0  0.26313004052E+02 -0.37955873166E+02  0.21366050201E+02  0.50887540275E+02  0.10566000000E+00 0.  1.
         23    2    1    0    0    0  0.27243812179E+02  0.52539382689E+01  0.84030498635E+01  0.96009649599E+02  0.91528205487E+02 0.  0.
         13    1    3    3    0    0  0.93080812719E+00  0.43209811435E+02 -0.12963000337E+02  0.45122109323E+02  0.10566000000E+00 0. -1.
         22    1    1    0    0    0 -0.27243812179E+02 -0.52539382689E+01 -0.84030498635E+01  0.28990350401E+02  0.00000000000E+00 0. -1.
</event>
<event>
 5    1  0.9041167E-005  0.9118800E+02  0.7818608E-02  0.1130116E+00
         25   -1    0    0    0    0  0.00000000000E+00  0.00000000000E+00  0.99999998245E-14  0.12500000000E+03  0.12500000000E+03 0.  0.
        -13    1    3    3    0    0 -0.17609986479E+02  0.45562620747E+02  0.23990142541E+02  0.54420603969E+02  0.10566000000E+00 0.  1.
         23    2    1    0    0    0 -0.23482755452E+02  0.58885450763E+01  0.17682835140E+02  0.95020049611E+02  0.90166581408E+02 0.  0.
         13    1    3    3    0    0 -0.58727689733E+01 -0.39674075671E+02 -0.63073074016E+01  0.40599445642E+02  0.10566000000E+00 0. -1.
         22    1    1    0    0    0  0.23482755452E+02 -0.58885450763E+01 -0.17682835140E+02  0.29979950389E+02  0.00000000000E+00 0.  1.
</event>
<event>
 5    1  0.9041167E-005  0.9118800E+02  0.7818608E-02  0.1130116E+00
         25   -1    0    0    0    0  0.00000000000E+00  0.00000000000E+00  0.99999998245E-14  0.12500000000E+03  0.12500000000E+03 0.  0.
        -13    1    3    3    0    0  0.11216665025E+02 -0.25536137355E+02 -0.23245367968E+02  0.36307935514E+02  0.10566000000E+00 0.  1.
         23    2    1    0    0    0  0.12980114167E+02  0.63256515488E+01  0.26158107292E+02  0.95121181275E+02  0.90306673721E+02 0.  0.
         13    1    3    3    0    0  0.17634491420E+01  0.31861788904E+02  0.49403475260E+02  0.58813245760E+02  0.10566000000E+00 0. -1.
         22    1    1    0    0    0 -0.12980114167E+02 -0.63256515488E+01 -0.26158107292E+02  0.29878818725E+02  0.00000000000E+00 0. -1.
</event>
<event>
 5    1  0.9041167E-005  0.9118800E+02  0.7818608E-02  0.1130116E+00
         25   -1    0    0    0    0  0.00000000000E+00  0.00000000000E+00  0.99999998245E-14  0.12500000000E+03  0.12500000000E+03 0.  0.
        -13    1    3    3    0    0  0.47810746041E+02 -0.10604830261E+02 -0.34793417619E+02  0.60074311777E+02  0.10566000000E+00 0.  1.
         23    2    1    0    0    0  0.28795593499E+02 -0.29785743592E+01 -0.59628829605E+01  0.95443036634E+02  0.90751083512E+02 0.  0.
         13    1    3    3    0    0 -0.19015152541E+02  0.76262559022E+01  0.28830534659E+02  0.35368724857E+02  0.10566000000E+00 0. -1.
         22    1    1    0    0    0 -0.28795593499E+02  0.29785743592E+01  0.59628829605E+01  0.29556963366E+02  0.00000000000E+00 0.  1.
</event>
<event>
 5    1  0.9041167E-005  0.9118800E+02  0.7818608E-02  0.1130116E+00
         25   -1    0    0    0    0  0.00000000000E+00  0.00000000000E+00  0.99999998245E-14  0.12500000000E+03  0.12500000000E+03 0.  0.
        -13    1    3    3    0    0 -0.32463673322E+02  0.22811688223E+02 -0.19705821444E+02  0.44301171180E+02  0.10566000000E+00 0. -1.
         23    2    1    0    0    0  0.18028669025E+02  0.21027211533E+02 -0.81168585370E+01  0.96137222515E+02  0.91702266214E+02 0.  0.
         13    1    3    3    0    0  0.50492342346E+02 -0.17844766902E+01  0.11588962907E+02  0.51836051335E+02  0.10566000000E+00 0.  1.
         22    1    1    0    0    0 -0.18028669025E+02 -0.21027211533E+02  0.81168585370E+01  0.28862777485E+02  0.00000000000E+00 0.  1.
</event>
<event>
 5    1  0.9041167E-005  0.9118800E+02  0.7818608E-02  0.1130116E+00
         25   -1    0    0    0    0  0.00000000000E+00  0.00000000000E+00  0.99999998245E-14  0.12500000000E+03  0.12500000000E+03 0.  0.
        -13    1    3    3    0    0 -0.19948117168E+02  0.46281625190E+02  0.10906959797E+02  0.51564417430E+02  0.10566000000E+00 0.  1.
         23    2    1    0    0    0 -0.27990410321E+02  0.68270664788E+01 -0.65534175459E+01  0.95453101886E+02  0.90764946270E+02 0.  0.
         13    1    3    3    0    0 -0.80422931528E+01 -0.39454558712E+02 -0.17460377343E+02  0.43888684456E+02  0.10566000000E+00 0. -1.
         22    1    1    0    0    0  0.27990410321E+02 -0.68270664788E+01  0.65534175459E+01  0.29546898114E+02  0.00000000000E+00 0.  1.
</event>
<event>
 5    1  0.9041167E-005  0.9118800E+02  0.7818608E-02  0.1130116E+00
         25   -1    0    0    0    0  0.00000000000E+00  0.00000000000E+00  0.99999998245E-14  0.12500000000E+03  0.12500000000E+03 0.  0.
        -13    1    3    3    0    0  0.35026862938E+02 -0.25134499772E+02  0.25522274765E+02  0.50100118556E+02  0.10566000000E+00 0.  1.
         23    2    1    0    0    0  0.88538038588E+01 -0.20254210751E+02 -0.14784730663E+02  0.98406558014E+02  0.94745129180E+02 0.  0.
         13    1    3    3    0    0 -0.26173059079E+02  0.48802890215E+01 -0.40307005428E+02  0.48306439458E+02  0.10566000000E+00 0. -1.
         22    1    1    0    0    0 -0.88538038588E+01  0.20254210751E+02  0.14784730663E+02  0.26593441986E+02  0.00000000000E+00 0.  1.
</event>
<event>
 5    1  0.9041167E-005  0.9118800E+02  0.7818608E-02  0.1130116E+00
         25   -1    0    0    0    0  0.00000000000E+00  0.00000000000E+00  0.99999998245E-14  0.12500000000E+03  0.12500000000E+03 0.  0.
        -13    1    3    3    0    0 -0.85833994315E+01 -0.61101610074E+02 -0.85149330203E-01  0.61701701061E+02  0.10566000000E+00 0. -1.
         23    2    1    0    0    0 -0.31171377893E+01 -0.28570101804E+02 -0.70311117189E+01  0.95412776455E+02  0.90709393746E+02 0.  0.
         13    1    3    3    0    0  0.54662616422E+01  0.32531508270E+02 -0.69459623887E+01  0.33711075394E+02  0.10566000000E+00 0.  1.
         22    1    1    0    0    0  0.31171377893E+01  0.28570101804E+02  0.70311117189E+01  0.29587223545E+02  0.00000000000E+00 0. -1.
</event>
<event>
 5    1  0.9041167E-005  0.9118800E+02  0.7818608E-02  0.1130116E+00
         25   -1    0    0    0    0  0.00000000000E+00  0.00000000000E+00  0.99999998245E-14  0.12500000000E+03  0.12500000000E+03 0.  0.
        -13    1    3    3    0    0  0.15918432501E+02 -0.21135550172E+02 -0.41772618877E+02  0.49447657439E+02  0.10566000000E+00 0.  1.
         23    2    1    0    0    0  0.30483080263E+02  0.33383890811E+01 -0.86352801551E+01  0.93142016898E+02  0.87524306479E+02 0.  0.
         13    1    3    3    0    0  0.14564647762E+02  0.24473939253E+02  0.33137338722E+02  0.43694359459E+02  0.10566000000E+00 0. -1.
         22    1    1    0    0    0 -0.30483080263E+02 -0.33383890811E+01  0.86352801551E+01  0.31857983102E+02  0.00000000000E+00 0. -1.
</event>
<event>
 5    1  0.9041167E-005  0.9118800E+02  0.7818608E-02  0.1130116E+00
         25   -1    0    0    0    0  0.00000000000E+00  0.00000000000E+00  0.99999998245E-14  0.12500000000E+03  0.12500000000E+03 0.  0.
        -13    1    3    3    0    0 -0.39637645330E+02 -0.25636267701E+02 -0.71294048378E+01  0.47740975339E+02  0.10566000000E+00 0.  1.
         23    2    1    0    0    0 -0.19400736994E+02  0.91681936821E+00  0.24503339531E+02  0.93732719949E+02  0.88363906586E+02 0.  0.
         13    1    3    3    0    0  0.20236908336E+02  0.26553087069E+02  0.31632744368E+02  0.45991744609E+02  0.10566000000E+00 0. -1.
         22    1    1    0    0    0  0.19400736994E+02 -0.91681936821E+00 -0.24503339531E+02  0.31267280051E+02  0.00000000000E+00 0.  1.
</event>
<event>
 5    1  0.9041167E-005  0.9118800E+02  0.7818608E-02  0.1130116E+00
         25   -1    0    0    0    0  0.00000000000E+00  0.00000000000E+00  0.99999998245E-14  0.12500000000E+03  0.12500000000E+03 0.  0.
        -13    1    3    3    0    0 -0.35131550472E+02 -0.50842794088E+01 -0.51232736065E+01  0.35865510343E+02  0.10566000000E+00 0. -1.
         23    2    1    0    0    0  0.19990107159E+02 -0.12642120783E+02  0.17138228161E+02  0.95791328913E+02  0.91229557866E+02 0.  0.
         13    1    3    3    0    0  0.55121657632E+02 -0.75578413741E+01  0.22261501768E+02  0.59925818570E+02  0.10566000000E+00 0.  1.
         22    1    1    0    0    0 -0.19990107159E+02  0.12642120783E+02 -0.17138228161E+02  0.29208671087E+02  0.00000000000E+00 0.  1.
</event>
<event>
 5    1  0.9041167E-005  0.9118800E+02  0.7818608E-02  0.1130116E+00
         25   -1    0    0    0    0  0.00000000000E+00  0.00000000000E+00  0.99999998245E-14  0.12500000000E+03  0.12500000000E+03 0.  0.
        -13    1    3    3    0    0  0.11721963435E+02  0.60999184108E+02  0.10755492659E+01  0.62124655804E+02  0.10566000000E+00 0.  1.
         23    2    1    0    0    0  0.50749225057E+01  0.32009156352E+02 -0.41623227790E+01  0.92324843386E+02  0.86349353481E+02 0.  0.
         13    1    3    3    0    0 -0.66470409297E+01 -0.28990027756E+02 -0.52378720449E+01  0.30200187582E+02  0.10566000000E+00 0. -1.
         22    1    1    0    0    0 -0.50749225057E+01 -0.32009156352E+02  0.41623227790E+01  0.32675156614E+02  0.00000000000E+00 0.  1.
</event>
<event>
 5    1  0.9041167E-005  0.9118800E+02  0.7818608E-02  0.1130116E+00
         25   -1    0    0    0    0  0.00000000000E+00  0.00000000000E+00  0.99999998245E-14  0.12500000000E+03  0.12500000000E+03 0.  0.
        -13    1    3    3    0    0  0.15300894021E+02 -0.19921137268E+02 -0.33349889945E+02  0.41751591482E+02  0.10566000000E+00 0. -1.
         23    2    1    0    0    0  0.20237290886E+02  0.20369895086E+02  0.28557646016E+01  0.96144567934E+02  0.91712278259E+02 0.  0.
         13    1    3    3    0    0  0.49363968658E+01  0.40291032354E+02  0.36205654546E+02  0.54392976453E+02  0.10566000000E+00 0.  1.
         22    1    1    0    0    0 -0.20237290886E+02 -0.20369895086E+02 -0.28557646016E+01  0.28855432066E+02  0.00000000000E+00 0.  1.
</event>
<event>
 5    1  0.9041167E-005  0.9118800E+02  0.7818608E-02  0.1130116E+00
         25   -1    0    0    0    0  0.00000000000E+00  0.00000000000E+00  0.99999998245E-14  0.12500000000E+03  0.12500000000E+03 0.  0.
        -13    1    3    3    0    0  0.44762724050E+02 -0.68392676774E+01 -0.45305332985E+01  0.45508394201E+02  0.10566000000E+00 0.  1.
         23    2    1    0    0    0  0.10247232082E+02 -0.11713452565E+02 -0.31687767685E+02  0.89696666486E+02  0.82457059259E+02 0.  0.
         13    1    3    3    0    0 -0.34515491967E+02 -0.48741848874E+01 -0.27157234386E+02  0.44188272286E+02  0.10566000000E+00 0. -1.
         22    1    1    0    0    0 -0.10247232082E+02  0.11713452565E+02  0.31687767685E+02  0.35303333514E+02  0.00000000000E+00 0. -1.
</event>
<event>
 5    1  0.9041167E-005  0.9118800E+02  0.7818608E-02  0.1130116E+00
         25   -1    0    0    0    0  0.00000000000E+00  0.00000000000E+00  0.99999998245E-14  0.12500000000E+03  0.12500000000E+03 0.  0.
        -13    1    3    3    0    0  0.13901885037E+02 -0.16587893570E+02 -0.34636649885E+02  0.40842738644E+02  0.10566000000E+00 0. -1.
         23    2    1    0    0    0 -0.73994206102E+01  0.26811103750E+02 -0.79093263740E+01  0.96083842694E+02  0.91629474917E+02 0.  0.
         13    1    3    3    0    0 -0.21301305647E+02  0.43398997320E+02  0.26727323511E+02  0.55241104050E+02  0.10566000000E+00 0.  1.
         22    1    1    0    0    0  0.73994206102E+01 -0.26811103750E+02  0.79093263740E+01  0.28916157306E+02  0.00000000000E+00 0.  1.
</event>
<event>
 5    1  0.9041167E-005  0.9118800E+02  0.7818608E-02  0.1130116E+00
         25   -1    0    0    0    0  0.00000000000E+00  0.00000000000E+00  0.99999998245E-14  0.12500000000E+03  0.12500000000E+03 0.  0.
        -13    1    3    3    0    0  0.13862045376E+02 -0.50772925313E+02  0.11541663330E+02  0.53881976609E+02  0.10566000000E+00 0.  1.
         23    2    1    0    0    0  0.26295568848E+02 -0.11041534316E+02  0.37797209455E+01  0.96230941769E+02  0.91829926725E+02 0.  0.
         13    1    3    3    0    0  0.12433523472E+02  0.39731390997E+02 -0.77619423842E+01  0.42348965160E+02  0.10566000000E+00 0. -1.
         22    1    1    0    0    0 -0.26295568848E+02  0.11041534316E+02 -0.37797209455E+01  0.28769058231E+02  0.00000000000E+00 0.  1.
</event>
<event>
 5    1  0.9041167E-005  0.9118800E+02  0.7818608E-02  0.1130116E+00
         25   -1    0    0    0    0  0.00000000000E+00  0.00000000000E+00  0.99999998245E-14  0.12500000000E+03  0.12500000000E+03 0.  0.
        -13    1    3    3    0    0 -0.21000711015E+02 -0.72509994657E+01 -0.45818633647E+02  0.50921166618E+02  0.10566000000E+00 0. -1.
         23    2    1    0    0    0  0.17225834369E+02 -0.36029594685E+00 -0.23948381648E+02  0.95497726080E+02  0.90826381190E+02 0.  0.
         13    1    3    3    0    0  0.38226545384E+02  0.68907035189E+01  0.21870251999E+02  0.44576559462E+02  0.10566000000E+00 0.  1.
         22    1    1    0    0    0 -0.17225834369E+02  0.36029594685E+00  0.23948381648E+02  0.29502273920E+02  0.00000000000E+00 0. -1.
</event>
<event>
 5    1  0.9041167E-005  0.9118800E+02  0.7818608E-02  0.1130116E+00
         25   -1    0    0    0    0  0.00000000000E+00  0.00000000000E+00  0.99999998245E-14  0.12500000000E+03  0.12500000000E+03 0.  0.
        -13    1    3    3    0    0 -0.38577463265E+01  0.30166780591E+02  0.37487934000E+02  0.48272903554E+02  0.10566000000E+00 0. -1.
         23    2    1    0    0    0  0.26106992874E+02  0.12969943716E+02  0.55445161882E+01  0.95326170172E+02  0.90589969329E+02 0.  0.
         13    1    3    3    0    0  0.29964739200E+02 -0.17196836875E+02 -0.31943417812E+02  0.47053266618E+02  0.10566000000E+00 0.  1.
         22    1    1    0    0    0 -0.26106992874E+02 -0.12969943716E+02 -0.55445161882E+01  0.29673829828E+02  0.00000000000E+00 0. -1.
</event>
<event>
 5    1  0.9041167E-005  0.9118800E+02  0.7818608E-02  0.1130116E+00
         25   -1    0    0    0    0  0.00000000000E+00  0.00000000000E+00  0.99999998245E-14  0.12500000000E+03  0.12500000000E+03 0.  0.
        -13    1    3    3    0    0 -0.52747530131E+02 -0.26337167966E+02  0.57165647879E+01  0.59233762572E+02  0.10566000000E+00 0.  1.
         23    2    1    0    0    0 -0.27313010407E+02  0.47238020888E+00 -0.38651610934E+01  0.97410814603E+02  0.93422179651E+02 0.  0.
         13    1    3    3    0    0  0.25434519724E+02  0.26809548175E+02 -0.95817258813E+01  0.38177052031E+02  0.10566000000E+00 0. -1.
         22    1    1    0    0    0  0.27313010407E+02 -0.47238020888E+00  0.38651610934E+01  0.27589185397E+02  0.00000000000E+00 0.  1.
</event>
<event>
 5    1  0.9041167E-005  0.9118800E+02  0.7818608E-02  0.1130116E+00
         25   -1    0    0    0    0  0.00000000000E+00  0.00000000000E+00  0.99999998245E-14  0.12500000000E+03  0.12500000000E+03 0.  0.
        -13    1    3    3    0    0 -0.40543246105E+02 -0.23892187976E+02 -0.37410885398E+02  0.60118025261E+02  0.10566000000E+00 0.  1.
         23    2    1    0    0    0 -0.27068209902E+02 -0.47374093016E+01 -0.11044350304E+02  0.95383978866E+02  0.90669701204E+02 0.  0.
         13    1    3    3    0    0  0.13475036203E+02  0.19154778674E+02  0.26366535095E+02  0.35265953605E+02  0.10566000000E+00 0. -1.
         22    1    1    0    0    0  0.27068209902E+02  0.47374093016E+01  0.11044350304E+02  0.29616021134E+02  0.00000000000E+00 0.  1.
</event>
<event>
 5    1  0.9041167E-005  0.9118800E+02  0.7818608E-02  0.1130116E+00
         25   -1    0    0    0    0  0.00000000000E+00  0.00000000000E+00  0.99999998245E-14  0.12500000000E+03  0.12500000000E+03 0.  0.
        -13    1    3    3    0    0  0.43568170294E+02  0.36706351842E+02 -0.86882685870E+01  0.57628455674E+02  0.10566000000E+00 0.  1.
         23    2    1    0    0    0  0.12262443042E+02  0.25728363397E+02  0.88531742072E+01  0.95155488176E+02  0.90354147907E+02 0.  0.
         13    1    3    3    0    0 -0.31305727251E+02 -0.10977988445E+02  0.17541442794E+02  0.37527032502E+02  0.10566000000E+00 0. -1.
         22    1    1    0    0    0 -0.12262443042E+02 -0.25728363397E+02 -0.88531742072E+01  0.29844511824E+02  0.00000000000E+00 0.  1.
</event>
<event>
 5    1  0.9041167E-005  0.9118800E+02  0.7818608E-02  0.1130116E+00
         25   -1    0    0    0    0  0.00000000000E+00  0.00000000000E+00  0.99999998245E-14  0.12500000000E+03  0.12500000000E+03 0.  0.
        -13    1    3    3    0    0 -0.27175261786E+02  0.34970448673E+02  0.41182341403E+01  0.44479187830E+02  0.10566000000E+00 0.  1.
         23    2    1    0    0    0  0.30298717738E+01  0.12967197403E+01  0.28801083284E+02  0.96010967533E+02  0.91530005372E+02 0.  0.
         13    1    3    3    0    0  0.30205133560E+02 -0.33673728933E+02  0.24682849143E+02  0.51531779704E+02  0.10566000000E+00 0. -1.
         22    1    1    0    0    0 -0.30298717738E+01 -0.12967197403E+01 -0.28801083284E+02  0.28989032467E+02  0.00000000000E+00 0. -1.
</event>
<event>
 5    1  0.9041167E-005  0.9118800E+02  0.7818608E-02  0.1130116E+00
         25   -1    0    0    0    0  0.00000000000E+00  0.00000000000E+00  0.99999998245E-14  0.12500000000E+03  0.12500000000E+03 0.  0.
        -13    1    3    3    0    0 -0.38902911874E+02 -0.46489549804E+01 -0.26242593182E+02  0.47156486252E+02  0.10566000000E+00 0. -1.
         23    2    1    0    0    0 -0.14093544113E+02 -0.23616388346E+02  0.10663940229E+02  0.95502857674E+02  0.90833443282E+02 0.  0.
         13    1    3    3    0    0  0.24809367761E+02 -0.18967433366E+02  0.36906533411E+02  0.48346371422E+02  0.10566000000E+00 0.  1.
         22    1    1    0    0    0  0.14093544113E+02  0.23616388346E+02 -0.10663940229E+02  0.29497142326E+02  0.00000000000E+00 0.  1.
</event>
<event>
 5    1  0.9041167E-005  0.9118800E+02  0.7818608E-02  0.1130116E+00
         25   -1    0    0    0    0  0.00000000000E+00  0.00000000000E+00  0.99999998245E-14  0.12500000000E+03  0.12500000000E+03 0.  0.
        -13    1    3    3    0    0  0.45679018502E+02  0.30291508720E+02  0.27213321013E+02  0.61194151979E+02  0.10566000000E+00 0.  1.
         23    2    1    0    0    0  0.20633160934E+02  0.21459806133E+02  0.74118164905E+01  0.94321251116E+02  0.89192560110E+02 0.  0.
         13    1    3    3    0    0 -0.25045857568E+02 -0.88317025868E+01 -0.19801504522E+02  0.33127099138E+02  0.10566000000E+00 0. -1.
         22    1    1    0    0    0 -0.20633160934E+02 -0.21459806133E+02 -0.74118164905E+01  0.30678748884E+02  0.00000000000E+00 0.  1.
</event>
<event>
 5    1  0.9041167E-005  0.9118800E+02  0.7818608E-02  0.1130116E+00
         25   -1    0    0    0    0  0.00000000000E+00  0.00000000000E+00  0.99999998245E-14  0.12500000000E+03  0.12500000000E+03 0.  0.
        -13    1    3    3    0    0 -0.29484009468E+02  0.64054369255E+01 -0.42898398263E+01  0.30475405268E+02  0.10566000000E+00 0.  1.
         23    2    1    0    0    0  0.20468692697E+02  0.30588864640E+02  0.80381142121E+01  0.87326968522E+02  0.78782879679E+02 0.  0.
         13    1    3    3    0    0  0.49952702165E+02  0.24183427714E+02  0.12327954038E+02  0.56851563254E+02  0.10566000000E+00 0. -1.
         22    1    1    0    0    0 -0.20468692697E+02 -0.30588864640E+02 -0.80381142121E+01  0.37673031478E+02  0.00000000000E+00 0. -1.
</event>
<event>
 5    1  0.9041167E-005  0.9118800E+02  0.7818608E-02  0.1130116E+00
         25   -1    0    0    0    0  0.00000000000E+00  0.00000000000E+00  0.99999998245E-14  0.12500000000E+03  0.12500000000E+03 0.  0.
        -13    1    3    3    0    0 -0.29047890843E+02 -0.10541896266E+02 -0.47917120934E+02  0.57017305986E+02  0.10566000000E+00 0. -1.
         23    2    1    0    0    0 -0.27729386046E+02 -0.33388537709E+01 -0.10472320648E+02  0.95171552258E+02  0.90376368949E+02 0.  0.
         13    1    3    3    0    0  0.13185047969E+01  0.72030424947E+01  0.37444800286E+02  0.38154246272E+02  0.10566000000E+00 0.  1.
         22    1    1    0    0    0  0.27729386046E+02  0.33388537709E+01  0.10472320648E+02  0.29828447742E+02  0.00000000000E+00 0. -1.
</event>
<event>
 5    1  0.9041167E-005  0.9118800E+02  0.7818608E-02  0.1130116E+00
         25   -1    0    0    0    0  0.00000000000E+00  0.00000000000E+00  0.99999998245E-14  0.12500000000E+03  0.12500000000E+03 0.  0.
        -13    1    3    3    0    0 -0.45545505434E+02 -0.20606426066E+02 -0.65288045026E+01  0.50414822351E+02  0.10566000000E+00 0.  1.
         23    2    1    0    0    0 -0.17230135648E+02 -0.35028717827E+01  0.23878109589E+02  0.95346807883E+02  0.90618441670E+02 0.  0.
         13    1    3    3    0    0  0.28315369786E+02  0.17103554284E+02  0.30406914091E+02  0.44931985532E+02  0.10566000000E+00 0. -1.
         22    1    1    0    0    0  0.17230135648E+02  0.35028717827E+01 -0.23878109589E+02  0.29653192117E+02  0.00000000000E+00 0.  1.
</event>
<event>
 5    1  0.9041167E-005  0.9118800E+02  0.7818608E-02  0.1130116E+00
         25   -1    0    0    0    0  0.00000000000E+00  0.00000000000E+00  0.99999998245E-14  0.12500000000E+03  0.12500000000E+03 0.  0.
        -13    1    3    3    0    0  0.17741818490E+01  0.43145217654E+02  0.33657181785E+00  0.43183121382E+02  0.10566000000E+00 0.  1.
         23    2    1    0    0    0 -0.23185756666E+02  0.27935790795E+00 -0.17557370206E+02  0.95915320157E+02  0.91399289052E+02 0.  0.
         13    1    3    3    0    0 -0.24959938515E+02 -0.42865859746E+02 -0.17893942024E+02  0.52732198775E+02  0.10566000000E+00 0. -1.
         22    1    1    0    0    0  0.23185756666E+02 -0.27935790795E+00  0.17557370206E+02  0.29084679843E+02  0.00000000000E+00 0. -1.
</event>
<event>
 5    1  0.9041167E-005  0.9118800E+02  0.7818608E-02  0.1130116E+00
         25   -1    0    0    0    0  0.00000000000E+00  0.00000000000E+00  0.99999998245E-14  0.12500000000E+03  0.12500000000E+03 0.  0.
        -13    1    3    3    0    0  0.15599450920E+02  0.30067489429E+02 -0.73940713488E+01  0.34671028896E+02  0.10566000000E+00 0. -1.
         23    2    1    0    0    0 -0.62029337635E+01 -0.27634804577E+02 -0.14548168722E+01  0.96640252057E+02  0.92385404768E+02 0.  0.
         13    1    3    3    0    0 -0.21802384684E+02 -0.57702294005E+02  0.59392544765E+01  0.61969223161E+02  0.10566000000E+00 0.  1.
         22    1    1    0    0    0  0.62029337635E+01  0.27634804577E+02  0.14548168722E+01  0.28359747943E+02  0.00000000000E+00 0.  1.
</event>
<event>
 5    1  0.9041167E-005  0.9118800E+02  0.7818608E-02  0.1130116E+00
         25   -1    0    0    0    0  0.00000000000E+00  0.00000000000E+00  0.99999998245E-14  0.12500000000E+03  0.12500000000E+03 0.  0.
        -13    1    3    3    0    0 -0.28554291438E+02 -0.48398308631E+02 -0.13902881544E+02  0.57888212247E+02  0.10566000000E+00 0.  1.
         23    2    1    0    0    0 -0.16376882428E+02 -0.19777301867E+02 -0.23243699168E+02  0.90364562971E+02  0.83463409604E+02 0.  0.
         13    1    3    3    0    0  0.12177409011E+02  0.28621006765E+02 -0.93408176237E+01  0.32476350724E+02  0.10566000000E+00 0. -1.
         22    1    1    0    0    0  0.16376882428E+02  0.19777301867E+02  0.23243699168E+02  0.34635437029E+02  0.00000000000E+00 0.  1.
</event>
<event>
 5    1  0.9041167E-005  0.9118800E+02  0.7818608E-02  0.1130116E+00
         25   -1    0    0    0    0  0.00000000000E+00  0.00000000000E+00  0.99999998245E-14  0.12500000000E+03  0.12500000000E+03 0.  0.
        -13    1    3    3    0    0 -0.56523122536E+02 -0.59186629531E+01  0.11760130379E+02  0.58036245424E+02  0.10566000000E+00 0. -1.
         23    2    1    0    0    0 -0.22353522261E+02  0.44340137757E+01  0.20001121037E+02  0.94678633303E+02  0.89692019298E+02 0.  0.
         13    1    3    3    0    0  0.34169600275E+02  0.10352676729E+02  0.82409906582E+01  0.36642387879E+02  0.10566000000E+00 0.  1.
         22    1    1    0    0    0  0.22353522261E+02 -0.44340137757E+01 -0.20001121037E+02  0.30321366697E+02  0.00000000000E+00 0. -1.
</event>
<event>
 5    1  0.9041167E-005  0.9118800E+02  0.7818608E-02  0.1130116E+00
         25   -1    0    0    0    0  0.00000000000E+00  0.00000000000E+00  0.99999998245E-14  0.12500000000E+03  0.12500000000E+03 0.  0.
        -13    1    3    3    0    0  0.48412983661E+02 -0.14991680030E+01  0.23927915957E+02  0.54024261381E+02  0.10566000000E+00 0. -1.
         23    2    1    0    0    0  0.19481185497E+02  0.21321929598E+02  0.42223508176E+01  0.95811483139E+02  0.91257168402E+02 0.  0.
         13    1    3    3    0    0 -0.28931798165E+02  0.22821097601E+02 -0.19705565140E+02  0.41787221758E+02  0.10566000000E+00 0.  1.
         22    1    1    0    0    0 -0.19481185497E+02 -0.21321929598E+02 -0.42223508176E+01  0.29188516861E+02  0.00000000000E+00 0. -1.
</event>
<event>
 5    1  0.9041167E-005  0.9118800E+02  0.7818608E-02  0.1130116E+00
         25   -1    0    0    0    0  0.00000000000E+00  0.00000000000E+00  0.99999998245E-14  0.12500000000E+03  0.12500000000E+03 0.  0.
        -13    1    3    3    0    0 -0.39957377111E+02  0.65834114531E+01 -0.36690536500E+02  0.54645584676E+02  0.10566000000E+00 0. -1.
         23    2    1    0    0    0 -0.46436558710E+01  0.79663362515E-01 -0.34032989705E+02  0.90651575373E+02  0.83892156029E+02 0.  0.
         13    1    3    3    0    0  0.35313721240E+02 -0.65037480906E+01  0.26575467947E+01  0.36005990696E+02  0.10566000000E+00 0.  1.
         22    1    1    0    0    0  0.46436558710E+01 -0.79663362515E-01  0.34032989705E+02  0.34348424627E+02  0.00000000000E+00 0. -1.
</event>
<event>
 5    1  0.9041167E-005  0.9118800E+02  0.7818608E-02  0.1130116E+00
         25   -1    0    0    0    0  0.00000000000E+00  0.00000000000E+00  0.99999998245E-14  0.12500000000E+03  0.12500000000E+03 0.  0.
        -13    1    3    3    0    0 -0.24323180154E+02  0.24503165388E+02  0.68881967810E+01  0.35206258332E+02  0.10566000000E+00 0. -1.
         23    2    1    0    0    0  0.22932027185E+02 -0.12977949444E+02  0.12603064501E+02  0.95791400626E+02  0.91229656124E+02 0.  0.
         13    1    3    3    0    0  0.47255207339E+02 -0.37481114832E+02  0.57148677199E+01  0.60585142294E+02  0.10566000000E+00 0.  1.
         22    1    1    0    0    0 -0.22932027185E+02  0.12977949444E+02 -0.12603064501E+02  0.29208599374E+02  0.00000000000E+00 0.  1.
</event>
<event>
 5    1  0.9041167E-005  0.9118800E+02  0.7818608E-02  0.1130116E+00
         25   -1    0    0    0    0  0.00000000000E+00  0.00000000000E+00  0.99999998245E-14  0.12500000000E+03  0.12500000000E+03 0.  0.
        -13    1    3    3    0    0  0.34333743029E+02  0.11767333820E+01  0.37417657835E+02  0.50796485053E+02  0.10566000000E+00 0. -1.
         23    2    1    0    0    0  0.52948762070E+01  0.25330792903E+02  0.11048377364E+02  0.96861922142E+02  0.92684845231E+02 0.  0.
         13    1    3    3    0    0 -0.29038866822E+02  0.24154059521E+02 -0.26369280471E+02  0.46065437089E+02  0.10566000000E+00 0.  1.
         22    1    1    0    0    0 -0.52948762070E+01 -0.25330792903E+02 -0.11048377364E+02  0.28138077858E+02  0.00000000000E+00 0. -1.
</event>
<event>
 5    1  0.9041167E-005  0.9118800E+02  0.7818608E-02  0.1130116E+00
         25   -1    0    0    0    0  0.00000000000E+00  0.00000000000E+00  0.99999998245E-14  0.12500000000E+03  0.12500000000E+03 0.  0.
        -13    1    3    3    0    0 -0.19772577002E+01 -0.50014267687E+02 -0.31669466432E+02  0.59230927634E+02  0.10566000000E+00 0. -1.
         23    2    1    0    0    0 -0.14805970931E+02 -0.19445142351E+02 -0.14793794903E+02  0.96431018501E+02  0.92101870911E+02 0.  0.
         13    1    3    3    0    0 -0.12828713230E+02  0.30569125336E+02  0.16875671529E+02  0.37200090867E+02  0.10566000000E+00 0.  1.
         22    1    1    0    0    0  0.14805970931E+02  0.19445142351E+02  0.14793794903E+02  0.28568981499E+02  0.00000000000E+00 0. -1.
</event>
<event>
 5    1  0.9041167E-005  0.9118800E+02  0.7818608E-02  0.1130116E+00
         25   -1    0    0    0    0  0.00000000000E+00  0.00000000000E+00  0.99999998245E-14  0.12500000000E+03  0.12500000000E+03 0.  0.
        -13    1    3    3    0    0 -0.40780394577E+02 -0.66486995872E+01 -0.39720347486E+01  0.41509444855E+02  0.10566000000E+00 0.  1.
         23    2    1    0    0    0 -0.86895230468E+00  0.29505067673E+02 -0.24081983706E+01  0.95384066520E+02  0.90669822047E+02 0.  0.
         13    1    3    3    0    0  0.39911442273E+02  0.36153767260E+02  0.15638363779E+01  0.53874621666E+02  0.10566000000E+00 0. -1.
         22    1    1    0    0    0  0.86895230468E+00 -0.29505067673E+02  0.24081983706E+01  0.29615933480E+02  0.00000000000E+00 0. -1.
</event>
<event>
 5    1  0.9041167E-005  0.9118800E+02  0.7818608E-02  0.1130116E+00
         25   -1    0    0    0    0  0.00000000000E+00  0.00000000000E+00  0.99999998245E-14  0.12500000000E+03  0.12500000000E+03 0.  0.
        -13    1    3    3    0    0 -0.13533282996E+02  0.21877265484E+02  0.21121962639E+02  0.33285326549E+02  0.10566000000E+00 0. -1.
         23    2    1    0    0    0  0.16977113990E+02 -0.26794416528E+02  0.56024579019E+01  0.92788966315E+02  0.87018627769E+02 0.  0.
         13    1    3    3    0    0  0.30510396986E+02 -0.48671682012E+02 -0.15519504737E+02  0.59503639766E+02  0.10566000000E+00 0.  1.
         22    1    1    0    0    0 -0.16977113990E+02  0.26794416528E+02 -0.56024579019E+01  0.32211033685E+02  0.00000000000E+00 0.  1.
</event>
<event>
 5    1  0.9041167E-005  0.9118800E+02  0.7818608E-02  0.1130116E+00
         25   -1    0    0    0    0  0.00000000000E+00  0.00000000000E+00  0.99999998245E-14  0.12500000000E+03  0.12500000000E+03 0.  0.
        -13    1    3    3    0    0 -0.27369129854E+02  0.35905273334E+02 -0.56132997138E+01  0.45494815307E+02  0.10566000000E+00 0.  1.
         23    2    1    0    0    0  0.18926622719E+02  0.19231909759E+02 -0.12644158912E+02  0.95201373268E+02  0.90417605128E+02 0.  0.
         13    1    3    3    0    0  0.46295752573E+02 -0.16673363575E+02 -0.70308591987E+01  0.49706557961E+02  0.10566000000E+00 0. -1.
         22    1    1    0    0    0 -0.18926622719E+02 -0.19231909759E+02  0.12644158912E+02  0.29798626732E+02  0.00000000000E+00 0. -1.
</event>
<event>
 5    1  0.9041167E-005  0.9118800E+02  0.7818608E-02  0.1130116E+00
         25   -1    0    0    0    0  0.00000000000E+00  0.00000000000E+00  0.99999998245E-14  0.12500000000E+03  0.12500000000E+03 0.  0.
        -13    1    3    3    0    0  0.19332461677E+01 -0.49611727836E+01 -0.32985346953E+02  0.33412496970E+02  0.10566000000E+00 0.  1.
         23    2    1    0    0    0  0.18168470069E+02 -0.23696180921E+02  0.18020470623E+02  0.90123938635E+02  0.83102254233E+02 0.  0.
         13    1    3    3    0    0  0.16235223901E+02 -0.18735008137E+02  0.51005817576E+02  0.56711441665E+02  0.10566000000E+00 0. -1.
         22    1    1    0    0    0 -0.18168470069E+02  0.23696180921E+02 -0.18020470623E+02  0.34876061365E+02  0.00000000000E+00 0. -1.
</event>
<event>
 5    1  0.9041167E-005  0.9118800E+02  0.7818608E-02  0.1130116E+00
         25   -1    0    0    0    0  0.00000000000E+00  0.00000000000E+00  0.99999998245E-14  0.12500000000E+03  0.12500000000E+03 0.  0.
        -13    1    3    3    0    0  0.54956440301E+02  0.28140137199E+01 -0.19164196494E+02  0.58270117514E+02  0.10566000000E+00 0. -1.
         23    2    1    0    0    0  0.23873362185E+02 -0.12841162219E+02 -0.22798953588E+00  0.97891240375E+02  0.94062798671E+02 0.  0.
         13    1    3    3    0    0 -0.31083078116E+02 -0.15655175939E+02  0.18936206958E+02  0.39621122862E+02  0.10566000000E+00 0.  1.
         22    1    1    0    0    0 -0.23873362185E+02  0.12841162219E+02  0.22798953588E+00  0.27108759625E+02  0.00000000000E+00 0. -1.
</event>
<event>
 5    1  0.9041167E-005  0.9118800E+02  0.7818608E-02  0.1130116E+00
         25   -1    0    0    0    0  0.00000000000E+00  0.00000000000E+00  0.99999998245E-14  0.12500000000E+03  0.12500000000E+03 0.  0.
        -13    1    3    3    0    0  0.89271213173E+01  0.16870343638E+02 -0.32428173653E+02  0.37628441370E+02  0.10566000000E+00 0. -1.
         23    2    1    0    0    0 -0.25408889748E+02  0.10035000173E+02  0.12806330152E+02  0.94828573142E+02  0.89900741295E+02 0.  0.
         13    1    3    3    0    0 -0.34336011065E+02 -0.68353434647E+01  0.45234503805E+02  0.57200131771E+02  0.10566000000E+00 0.  1.
         22    1    1    0    0    0  0.25408889748E+02 -0.10035000173E+02 -0.12806330152E+02  0.30171426858E+02  0.00000000000E+00 0.  1.
</event>
<event>
 5    1  0.9041167E-005  0.9118800E+02  0.7818608E-02  0.1130116E+00
         25   -1    0    0    0    0  0.00000000000E+00  0.00000000000E+00  0.99999998245E-14  0.12500000000E+03  0.12500000000E+03 0.  0.
        -13    1    3    3    0    0 -0.29855302895E+02  0.88479965984E+01 -0.18899001346E+02  0.36425397330E+02  0.10566000000E+00 0.  1.
         23    2    1    0    0    0  0.25002148670E+02  0.13717878749E+02  0.42515463060E+01  0.96166629030E+02  0.91742341683E+02 0.  0.
         13    1    3    3    0    0  0.54857451565E+02  0.48698821502E+01  0.23150547652E+02  0.59741231700E+02  0.10566000000E+00 0. -1.
         22    1    1    0    0    0 -0.25002148670E+02 -0.13717878749E+02 -0.42515463060E+01  0.28833370970E+02  0.00000000000E+00 0. -1.
</event>
<event>
 5    1  0.9041167E-005  0.9118800E+02  0.7818608E-02  0.1130116E+00
         25   -1    0    0    0    0  0.00000000000E+00  0.00000000000E+00  0.99999998245E-14  0.12500000000E+03  0.12500000000E+03 0.  0.
        -13    1    3    3    0    0 -0.43619622538E-01 -0.10693645567E+02 -0.34968382036E+02  0.36567128195E+02  0.10566000000E+00 0.  1.
         23    2    1    0    0    0  0.19722253401E+02  0.69117016626E+01  0.19049905423E+02  0.96722132405E+02  0.92496124790E+02 0.  0.
         13    1    3    3    0    0  0.19765873024E+02  0.17605347229E+02  0.54018287459E+02  0.60155004210E+02  0.10566000000E+00 0. -1.
         22    1    1    0    0    0 -0.19722253401E+02 -0.69117016626E+01 -0.19049905423E+02  0.28277867595E+02  0.00000000000E+00 0. -1.
</event>
<event>
 5    1  0.9041167E-005  0.9118800E+02  0.7818608E-02  0.1130116E+00
         25   -1    0    0    0    0  0.00000000000E+00  0.00000000000E+00  0.99999998245E-14  0.12500000000E+03  0.12500000000E+03 0.  0.
        -13    1    3    3    0    0 -0.11853538904E+02  0.34370260114E+02  0.60908100196E+01  0.36863671760E+02  0.10566000000E+00 0.  1.
         23    2    1    0    0    0 -0.16948185445E+02 -0.23969203938E+02  0.14656541995E+01  0.95607622254E+02  0.90977500315E+02 0.  0.
         13    1    3    3    0    0 -0.50946465411E+01 -0.58339464053E+02 -0.46251558202E+01  0.58743950495E+02  0.10566000000E+00 0. -1.
         22    1    1    0    0    0  0.16948185445E+02  0.23969203938E+02 -0.14656541995E+01  0.29392377746E+02  0.00000000000E+00 0. -1.
</event>
<event>
 5    1  0.9041167E-005  0.9118800E+02  0.7818608E-02  0.1130116E+00
         25   -1    0    0    0    0  0.00000000000E+00  0.00000000000E+00  0.99999998245E-14  0.12500000000E+03  0.12500000000E+03 0.  0.
        -13    1    3    3    0    0  0.38408705425E+02 -0.21165111050E+02 -0.37752183449E+01  0.44016519805E+02  0.10566000000E+00 0.  1.
         23    2    1    0    0    0 -0.17520109330E+02 -0.68966412006E+01 -0.12510429711E+02  0.10239405515E+03  0.99867481137E+02 0.  0.
         13    1    3    3    0    0 -0.55928814756E+02  0.14268469849E+02 -0.87352113661E+01  0.58377535349E+02  0.10566000000E+00 0. -1.
         22    1    1    0    0    0  0.17520109330E+02  0.68966412006E+01  0.12510429711E+02  0.22605944845E+02  0.00000000000E+00 0. -1.
</event>
<event>
 5    1  0.9041167E-005  0.9118800E+02  0.7818608E-02  0.1130116E+00
         25   -1    0    0    0    0  0.00000000000E+00  0.00000000000E+00  0.99999998245E-14  0.12500000000E+03  0.12500000000E+03 0.  0.
        -13    1    3    3    0    0  0.31285699296E+02  0.14598942602E+02  0.25579795480E+02  0.42968141761E+02  0.10566000000E+00 0. -1.
         23    2    1    0    0    0 -0.11265934738E+02 -0.19022713951E+02  0.15163700079E+02  0.98190995325E+02  0.94460302939E+02 0.  0.
         13    1    3    3    0    0 -0.42551634034E+02 -0.33621656553E+02 -0.10416095402E+02  0.55222853564E+02  0.10566000000E+00 0.  1.
         22    1    1    0    0    0  0.11265934738E+02  0.19022713951E+02 -0.15163700079E+02  0.26809004675E+02  0.00000000000E+00 0. -1.
</event>
<event>
 5    1  0.9041167E-005  0.9118800E+02  0.7818608E-02  0.1130116E+00
         25   -1    0    0    0    0  0.00000000000E+00  0.00000000000E+00  0.99999998245E-14  0.12500000000E+03  0.12500000000E+03 0.  0.
        -13    1    3    3    0    0 -0.22344544588E+02 -0.30941138854E+02  0.15419205122E+02  0.41163039211E+02  0.10566000000E+00 0.  1.
         23    2    1    0    0    0 -0.60043432475E+00  0.18581221459E+02  0.22613797881E+02  0.95725332335E+02  0.91139086477E+02 0.  0.
         13    1    3    3    0    0  0.21744110263E+02  0.49522360313E+02  0.71945927588E+01  0.54562293125E+02  0.10566000000E+00 0. -1.
         22    1    1    0    0    0  0.60043432475E+00 -0.18581221459E+02 -0.22613797881E+02  0.29274667665E+02  0.00000000000E+00 0. -1.
</event>
<event>
 5    1  0.9041167E-005  0.9118800E+02  0.7818608E-02  0.1130116E+00
         25   -1    0    0    0    0  0.00000000000E+00  0.00000000000E+00  0.99999998245E-14  0.12500000000E+03  0.12500000000E+03 0.  0.
        -13    1    3    3    0    0 -0.27543495142E+02  0.16273149750E+02  0.38775691192E+02  0.50269522764E+02  0.10566000000E+00 0.  1.
         23    2    1    0    0    0  0.13191007087E+02  0.81790903301E-01  0.25864225883E+02  0.95966096745E+02  0.91468706049E+02 0.  0.
         13    1    3    3    0    0  0.40734502228E+02 -0.16191358847E+02 -0.12911465310E+02  0.45696573981E+02  0.10566000000E+00 0. -1.
         22    1    1    0    0    0 -0.13191007087E+02 -0.81790903301E-01 -0.25864225883E+02  0.29033903255E+02  0.00000000000E+00 0. -1.
</event>
<event>
 5    1  0.9041167E-005  0.9118800E+02  0.7818608E-02  0.1130116E+00
         25   -1    0    0    0    0  0.00000000000E+00  0.00000000000E+00  0.99999998245E-14  0.12500000000E+03  0.12500000000E+03 0.  0.
        -13    1    3    3    0    0  0.14032147255E+02 -0.43743066515E+02  0.24999362304E+02  0.52300442678E+02  0.10566000000E+00 0. -1.
         23    2    1    0    0    0 -0.35596006319E+01 -0.45993957236E+01  0.29019487452E+02  0.95403448686E+02  0.90696538917E+02 0.  0.
         13    1    3    3    0    0 -0.17591747887E+02  0.39143670791E+02  0.40201251480E+01  0.43103006008E+02  0.10566000000E+00 0.  1.
         22    1    1    0    0    0  0.35596006319E+01  0.45993957236E+01 -0.29019487452E+02  0.29596551314E+02  0.00000000000E+00 0.  1.
</event>
<event>
 5    1  0.9041167E-005  0.9118800E+02  0.7818608E-02  0.1130116E+00
         25   -1    0    0    0    0  0.00000000000E+00  0.00000000000E+00  0.99999998245E-14  0.12500000000E+03  0.12500000000E+03 0.  0.
        -13    1    3    3    0    0  0.36274242658E+02  0.61938481146E+01 -0.50234070303E+02  0.62270839228E+02  0.10566000000E+00 0.  1.
         23    2    1    0    0    0  0.13523149237E+02  0.51081988453E+00 -0.23915095222E+02  0.97521494188E+02  0.93570153077E+02 0.  0.
         13    1    3    3    0    0 -0.22751093421E+02 -0.56830282301E+01  0.26318975082E+02  0.35250654960E+02  0.10566000000E+00 0. -1.
         22    1    1    0    0    0 -0.13523149237E+02 -0.51081988453E+00  0.23915095222E+02  0.27478505812E+02  0.00000000000E+00 0.  1.
</event>
<event>
 5    1  0.9041167E-005  0.9118800E+02  0.7818608E-02  0.1130116E+00
         25   -1    0    0    0    0  0.00000000000E+00  0.00000000000E+00  0.99999998245E-14  0.12500000000E+03  0.12500000000E+03 0.  0.
        -13    1    3    3    0    0 -0.86365508707E+01 -0.37099972495E+02 -0.16575387736E+02  0.41542178719E+02  0.10566000000E+00 0.  1.
         23    2    1    0    0    0 -0.66199666499E+00  0.16912725038E+02 -0.22919904189E+02  0.96507886779E+02  0.92206136969E+02 0.  0.
         13    1    3    3    0    0  0.79745542057E+01  0.54012697533E+02 -0.63445164525E+01  0.54965708060E+02  0.10566000000E+00 0. -1.
         22    1    1    0    0    0  0.66199666499E+00 -0.16912725038E+02  0.22919904189E+02  0.28492113221E+02  0.00000000000E+00 0.  1.
</event>
<event>
 5    1  0.9041167E-005  0.9118800E+02  0.7818608E-02  0.1130116E+00
         25   -1    0    0    0    0  0.00000000000E+00  0.00000000000E+00  0.99999998245E-14  0.12500000000E+03  0.12500000000E+03 0.  0.
        -13    1    3    3    0    0  0.23478754128E+02 -0.25280579199E+02  0.82131315180E+01  0.35465846576E+02  0.10566000000E+00 0.  1.
         23    2    1    0    0    0 -0.52967298186E+00  0.22206035924E+02 -0.19483659345E+02  0.95453400087E+02  0.90765356948E+02 0.  0.
         13    1    3    3    0    0 -0.24008427110E+02  0.47486615123E+02 -0.27696790863E+02  0.59987553511E+02  0.10566000000E+00 0. -1.
         22    1    1    0    0    0  0.52967298186E+00 -0.22206035924E+02  0.19483659345E+02  0.29546599913E+02  0.00000000000E+00 0. -1.
</event>
<event>
 5    1  0.9041167E-005  0.9118800E+02  0.7818608E-02  0.1130116E+00
         25   -1    0    0    0    0  0.00000000000E+00  0.00000000000E+00  0.99999998245E-14  0.12500000000E+03  0.12500000000E+03 0.  0.
        -13    1    3    3    0    0  0.18344513577E+02  0.35243866737E+02 -0.19707343050E+02  0.44351345584E+02  0.10566000000E+00 0. -1.
         23    2    1    0    0    0 -0.13976898144E+02 -0.13078604699E+01 -0.27843760887E+02  0.93817645998E+02  0.88483961821E+02 0.  0.
         13    1    3    3    0    0 -0.32321411720E+02 -0.36551727207E+02 -0.81364178378E+01  0.49466300415E+02  0.10566000000E+00 0.  1.
         22    1    1    0    0    0  0.13976898144E+02  0.13078604699E+01  0.27843760887E+02  0.31182354002E+02  0.00000000000E+00 0.  1.
</event>
<event>
 5    1  0.9041167E-005  0.9118800E+02  0.7818608E-02  0.1130116E+00
         25   -1    0    0    0    0  0.00000000000E+00  0.00000000000E+00  0.99999998245E-14  0.12500000000E+03  0.12500000000E+03 0.  0.
        -13    1    3    3    0    0 -0.39800991613E+02 -0.42494241959E+01 -0.17813155846E+02  0.43812055699E+02  0.10566000000E+00 0.  1.
         23    2    1    0    0    0  0.16913644517E+02 -0.15697049371E+01 -0.17529263401E+02  0.10059077183E+03  0.97584286428E+02 0.  0.
         13    1    3    3    0    0  0.56714636130E+02  0.26797192588E+01  0.28389244426E+00  0.56778716132E+02  0.10566000000E+00 0. -1.
         22    1    1    0    0    0 -0.16913644517E+02  0.15697049371E+01  0.17529263401E+02  0.24409228169E+02  0.00000000000E+00 0. -1.
</event>
<event>
 5    1  0.9041167E-005  0.9118800E+02  0.7818608E-02  0.1130116E+00
         25   -1    0    0    0    0  0.00000000000E+00  0.00000000000E+00  0.99999998245E-14  0.12500000000E+03  0.12500000000E+03 0.  0.
        -13    1    3    3    0    0 -0.26067167690E+02  0.11320287309E+01 -0.22790808494E+02  0.34644059178E+02  0.10566000000E+00 0. -1.
         23    2    1    0    0    0  0.25890082844E+02  0.22021191173E+01  0.11161712048E+02  0.96720510363E+02  0.92493932724E+02 0.  0.
         13    1    3    3    0    0  0.51957250534E+02  0.10700903865E+01  0.33952520543E+02  0.62076451185E+02  0.10566000000E+00 0.  1.
         22    1    1    0    0    0 -0.25890082844E+02 -0.22021191173E+01 -0.11161712048E+02  0.28279489637E+02  0.00000000000E+00 0.  1.
</event>
<event>
 5    1  0.9041167E-005  0.9118800E+02  0.7818608E-02  0.1130116E+00
         25   -1    0    0    0    0  0.00000000000E+00  0.00000000000E+00  0.99999998245E-14  0.12500000000E+03  0.12500000000E+03 0.  0.
        -13    1    3    3    0    0 -0.18448290290E+02 -0.14482469702E+02  0.46054453597E+02  0.51682736029E+02  0.10566000000E+00 0. -1.
         23    2    1    0    0    0  0.35590482584E+01 -0.27689325881E+02  0.11310677783E+02  0.94878628448E+02  0.89970312393E+02 0.  0.
         13    1    3    3    0    0  0.22007338548E+02 -0.13206856179E+02 -0.34743775814E+02  0.43195892420E+02  0.10566000000E+00 0.  1.
         22    1    1    0    0    0 -0.35590482584E+01  0.27689325881E+02 -0.11310677783E+02  0.30121371552E+02  0.00000000000E+00 0. -1.
</event>
<event>
 5    1  0.9041167E-005  0.9118800E+02  0.7818608E-02  0.1130116E+00
         25   -1    0    0    0    0  0.00000000000E+00  0.00000000000E+00  0.99999998245E-14  0.12500000000E+03  0.12500000000E+03 0.  0.
        -13    1    3    3    0    0 -0.59673423303E+01 -0.41588878944E+02  0.13005153142E+02  0.43981691630E+02  0.10566000000E+00 0.  1.
         23    2    1    0    0    0 -0.28412064277E+02  0.44099620404E+01  0.57914152213E+01  0.95670259941E+02  0.91063521704E+02 0.  0.
         13    1    3    3    0    0 -0.22444721947E+02  0.45998840985E+02 -0.72137379208E+01  0.51688568311E+02  0.10566000000E+00 0. -1.
         22    1    1    0    0    0  0.28412064277E+02 -0.44099620404E+01 -0.57914152213E+01  0.29329740059E+02  0.00000000000E+00 0. -1.
</event>
<event>
 5    1  0.9041167E-005  0.9118800E+02  0.7818608E-02  0.1130116E+00
         25   -1    0    0    0    0  0.00000000000E+00  0.00000000000E+00  0.99999998245E-14  0.12500000000E+03  0.12500000000E+03 0.  0.
        -13    1    3    3    0    0  0.52644905083E+02 -0.30858888349E+02 -0.38240867883E+01  0.61142389756E+02  0.10566000000E+00 0.  1.
         23    2    1    0    0    0  0.20004660366E+02 -0.22378603412E+02 -0.20820935559E+01  0.94911406802E+02  0.90015841387E+02 0.  0.
         13    1    3    3    0    0 -0.32640244717E+02  0.84802849369E+01  0.17419932324E+01  0.33769017046E+02  0.10566000000E+00 0. -1.
         22    1    1    0    0    0 -0.20004660366E+02  0.22378603412E+02  0.20820935559E+01  0.30088593198E+02  0.00000000000E+00 0.  1.
</event>
<event>
 5    1  0.9041167E-005  0.9118800E+02  0.7818608E-02  0.1130116E+00
         25   -1    0    0    0    0  0.00000000000E+00  0.00000000000E+00  0.99999998245E-14  0.12500000000E+03  0.12500000000E+03 0.  0.
        -13    1    3    3    0    0  0.19155428940E+02  0.38328743275E+02 -0.22686536762E+02  0.48484153423E+02  0.10566000000E+00 0. -1.
         23    2    1    0    0    0  0.12999986145E+02 -0.91855323792E+01 -0.23752058091E+02  0.96407450124E+02  0.92069878522E+02 0.  0.
         13    1    3    3    0    0 -0.61554427951E+01 -0.47514275654E+02 -0.10655213287E+01  0.47923296701E+02  0.10566000000E+00 0.  1.
         22    1    1    0    0    0 -0.12999986145E+02  0.91855323792E+01  0.23752058091E+02  0.28592549876E+02  0.00000000000E+00 0.  1.
</event>
<event>
 5    1  0.9041167E-005  0.9118800E+02  0.7818608E-02  0.1130116E+00
         25   -1    0    0    0    0  0.00000000000E+00  0.00000000000E+00  0.99999998245E-14  0.12500000000E+03  0.12500000000E+03 0.  0.
        -13    1    3    3    0    0  0.98374893750E+01 -0.17874777275E+02  0.37091541353E+02  0.42332935923E+02  0.10566000000E+00 0. -1.
         23    2    1    0    0    0 -0.26329228986E+02  0.94405943011E+01  0.91776467606E+01  0.95562229707E+02  0.90915111102E+02 0.  0.
         13    1    3    3    0    0 -0.36166718361E+02  0.27315371576E+02 -0.27913894593E+02  0.53229293784E+02  0.10566000000E+00 0.  1.
         22    1    1    0    0    0  0.26329228986E+02 -0.94405943011E+01 -0.91776467606E+01  0.29437770293E+02  0.00000000000E+00 0.  1.
</event>
<event>
 5    1  0.9041167E-005  0.9118800E+02  0.7818608E-02  0.1130116E+00
         25   -1    0    0    0    0  0.00000000000E+00  0.00000000000E+00  0.99999998245E-14  0.12500000000E+03  0.12500000000E+03 0.  0.
        -13    1    3    3    0    0  0.89958895695E+01  0.41243424311E+02  0.41888458894E+02  0.59469321761E+02  0.10566000000E+00 0.  1.
         23    2    1    0    0    0  0.12996354437E+02  0.94967729063E+01  0.23923731213E+02  0.96165318808E+02  0.91740556473E+02 0.  0.
         13    1    3    3    0    0  0.40004648680E+01 -0.31746651405E+02 -0.17964727682E+02  0.36695997048E+02  0.10566000000E+00 0. -1.
         22    1    1    0    0    0 -0.12996354437E+02 -0.94967729063E+01 -0.23923731213E+02  0.28834681192E+02  0.00000000000E+00 0.  1.
</event>
<event>
 5    1  0.9041167E-005  0.9118800E+02  0.7818608E-02  0.1130116E+00
         25   -1    0    0    0    0  0.00000000000E+00  0.00000000000E+00  0.99999998245E-14  0.12500000000E+03  0.12500000000E+03 0.  0.
        -13    1    3    3    0    0  0.10336070644E+02  0.30133537345E+02  0.17580132715E+02  0.36385940411E+02  0.10566000000E+00 0.  1.
         23    2    1    0    0    0 -0.23796843687E+02 -0.16436829663E+02  0.31062370308E+01  0.95912066981E+02  0.91394839817E+02 0.  0.
         13    1    3    3    0    0 -0.34132914332E+02 -0.46570367008E+02 -0.14473895684E+02  0.59526126569E+02  0.10566000000E+00 0. -1.
         22    1    1    0    0    0  0.23796843687E+02  0.16436829663E+02 -0.31062370308E+01  0.29087933019E+02  0.00000000000E+00 0. -1.
</event>
<event>
 5    1  0.9041167E-005  0.9118800E+02  0.7818608E-02  0.1130116E+00
         25   -1    0    0    0    0  0.00000000000E+00  0.00000000000E+00  0.99999998245E-14  0.12500000000E+03  0.12500000000E+03 0.  0.
        -13    1    3    3    0    0  0.15252158109E+02 -0.63498378926E+01  0.26923218889E+02  0.31588283391E+02  0.10566000000E+00 0.  1.
         23    2    1    0    0    0 -0.86437196073E+01 -0.51946302058E+01 -0.30008425832E+02  0.93342399135E+02  0.87810020976E+02 0.  0.
         13    1    3    3    0    0 -0.23895877717E+02  0.11552076868E+01 -0.56931644721E+02  0.61754115744E+02  0.10566000000E+00 0. -1.
         22    1    1    0    0    0  0.86437196073E+01  0.51946302058E+01  0.30008425832E+02  0.31657600865E+02  0.00000000000E+00 0. -1.
</event>
<event>
 5    1  0.9041167E-005  0.9118800E+02  0.7818608E-02  0.1130116E+00
         25   -1    0    0    0    0  0.00000000000E+00  0.00000000000E+00  0.99999998245E-14  0.12500000000E+03  0.12500000000E+03 0.  0.
        -13    1    3    3    0    0 -0.72564655874E+01  0.39479431800E+01  0.61070591561E+02  0.61626868051E+02  0.10566000000E+00 0. -1.
         23    2    1    0    0    0  0.38455676984E+01  0.36828630959E+01  0.27577022317E+02  0.96913632642E+02  0.92754558705E+02 0.  0.
         13    1    3    3    0    0  0.11102033286E+02 -0.26508008413E+00 -0.33493569244E+02  0.35286764591E+02  0.10566000000E+00 0.  1.
         22    1    1    0    0    0 -0.38455676984E+01 -0.36828630959E+01 -0.27577022317E+02  0.28086367358E+02  0.00000000000E+00 0. -1.
</event>
<event>
 5    1  0.9041167E-005  0.9118800E+02  0.7818608E-02  0.1130116E+00
         25   -1    0    0    0    0  0.00000000000E+00  0.00000000000E+00  0.99999998245E-14  0.12500000000E+03  0.12500000000E+03 0.  0.
        -13    1    3    3    0    0  0.83624877400E+01 -0.28323263255E+02 -0.18070163834E+02  0.34621964526E+02  0.10566000000E+00 0. -1.
         23    2    1    0    0    0 -0.35984566100E+02 -0.14202043180E+02  0.39567896903E+01  0.86112428559E+02  0.76831680574E+02 0.  0.
         13    1    3    3    0    0 -0.44347053840E+02  0.14121220075E+02  0.22026953524E+02  0.51490464033E+02  0.10566000000E+00 0.  1.
         22    1    1    0    0    0  0.35984566100E+02  0.14202043180E+02 -0.39567896903E+01  0.38887571441E+02  0.00000000000E+00 0.  1.
</event>
<event>
 5    1  0.9041167E-005  0.9118800E+02  0.7818608E-02  0.1130116E+00
         25   -1    0    0    0    0  0.00000000000E+00  0.00000000000E+00  0.99999998245E-14  0.12500000000E+03  0.12500000000E+03 0.  0.
        -13    1    3    3    0    0  0.43838809950E+02  0.18942174996E+02  0.29253537653E+02  0.56003820233E+02  0.10566000000E+00 0.  1.
         23    2    1    0    0    0  0.29938273165E+02 -0.24150899522E+01 -0.21683144898E+00  0.94963690715E+02  0.90088415897E+02 0.  0.
         13    1    3    3    0    0 -0.13900536786E+02 -0.21357264948E+02 -0.29470369101E+02  0.38959870483E+02  0.10566000000E+00 0. -1.
         22    1    1    0    0    0 -0.29938273165E+02  0.24150899522E+01  0.21683144898E+00  0.30036309285E+02  0.00000000000E+00 0.  1.
</event>
<event>
 5    1  0.9041167E-005  0.9118800E+02  0.7818608E-02  0.1130116E+00
         25   -1    0    0    0    0  0.00000000000E+00  0.00000000000E+00  0.99999998245E-14  0.12500000000E+03  0.12500000000E+03 0.  0.
        -13    1    3    3    0    0 -0.23749546976E+02  0.15415022117E+01 -0.23096189431E+02  0.33164172549E+02  0.10566000000E+00 0.  1.
         23    2    1    0    0    0  0.18225500093E+02 -0.30097448489E+01  0.22885418605E+02  0.95589631040E+02  0.90952777637E+02 0.  0.
         13    1    3    3    0    0  0.41975047068E+02 -0.45512470605E+01  0.45981608035E+02  0.62425458490E+02  0.10566000000E+00 0. -1.
         22    1    1    0    0    0 -0.18225500093E+02  0.30097448489E+01 -0.22885418605E+02  0.29410368960E+02  0.00000000000E+00 0. -1.
</event>
<event>
 5    1  0.9041167E-005  0.9118800E+02  0.7818608E-02  0.1130116E+00
         25   -1    0    0    0    0  0.00000000000E+00  0.00000000000E+00  0.99999998245E-14  0.12500000000E+03  0.12500000000E+03 0.  0.
        -13    1    3    3    0    0  0.35628310751E+02  0.35126801794E+02 -0.20024268147E+02  0.53891105111E+02  0.10566000000E+00 0.  1.
         23    2    1    0    0    0  0.59330080272E+01  0.26175912869E+02  0.93199849880E+01  0.96588010999E+02  0.92314694116E+02 0.  0.
         13    1    3    3    0    0 -0.29695302723E+02 -0.89508889247E+01  0.29344253135E+02  0.42696905888E+02  0.10566000000E+00 0. -1.
         22    1    1    0    0    0 -0.59330080272E+01 -0.26175912869E+02 -0.93199849880E+01  0.28411989001E+02  0.00000000000E+00 0.  1.
</event>
<event>
 5    1  0.9041167E-005  0.9118800E+02  0.7818608E-02  0.1130116E+00
         25   -1    0    0    0    0  0.00000000000E+00  0.00000000000E+00  0.99999998245E-14  0.12500000000E+03  0.12500000000E+03 0.  0.
        -13    1    3    3    0    0  0.13843553137E+02  0.31029744181E+02 -0.10346182870E+02  0.35518215769E+02  0.10566000000E+00 0. -1.
         23    2    1    0    0    0  0.92610828748E+01 -0.27982832696E+02 -0.63843366738E+01  0.94840982501E+02  0.89917993891E+02 0.  0.
         13    1    3    3    0    0 -0.45824702625E+01 -0.59012576878E+02  0.39618461958E+01  0.59322766732E+02  0.10566000000E+00 0.  1.
         22    1    1    0    0    0 -0.92610828748E+01  0.27982832696E+02  0.63843366738E+01  0.30159017499E+02  0.00000000000E+00 0.  1.
</event>
<event>
 5    1  0.9041167E-005  0.9118800E+02  0.7818608E-02  0.1130116E+00
         25   -1    0    0    0    0  0.00000000000E+00  0.00000000000E+00  0.99999998245E-14  0.12500000000E+03  0.12500000000E+03 0.  0.
        -13    1    3    3    0    0  0.13986626683E+02  0.12754668577E+02  0.47955644369E+02  0.51556399093E+02  0.10566000000E+00 0.  1.
         23    2    1    0    0    0  0.18339559974E+02  0.24495358620E+02  0.80811496933E+01  0.93350876247E+02  0.87822087551E+02 0.  0.
         13    1    3    3    0    0  0.43529332912E+01  0.11740690043E+02 -0.39874494676E+02  0.41794477155E+02  0.10566000000E+00 0. -1.
         22    1    1    0    0    0 -0.18339559974E+02 -0.24495358620E+02 -0.80811496933E+01  0.31649123753E+02  0.00000000000E+00 0.  1.
</event>
<event>
 5    1  0.9041167E-005  0.9118800E+02  0.7818608E-02  0.1130116E+00
         25   -1    0    0    0    0  0.00000000000E+00  0.00000000000E+00  0.99999998245E-14  0.12500000000E+03  0.12500000000E+03 0.  0.
        -13    1    3    3    0    0  0.32821667332E+02 -0.60310326253E+01  0.36524232847E+02  0.49473891600E+02  0.10566000000E+00 0. -1.
         23    2    1    0    0    0  0.26826439497E+02  0.11111129508E+02 -0.56742874291E+01  0.95414317772E+02  0.90711517698E+02 0.  0.
         13    1    3    3    0    0 -0.59952278343E+01  0.17142162133E+02 -0.42198520276E+02  0.45940426172E+02  0.10566000000E+00 0.  1.
         22    1    1    0    0    0 -0.26826439497E+02 -0.11111129508E+02  0.56742874291E+01  0.29585682228E+02  0.00000000000E+00 0.  1.
</event>
<event>
 5    1  0.9041167E-005  0.9118800E+02  0.7818608E-02  0.1130116E+00
         25   -1    0    0    0    0  0.00000000000E+00  0.00000000000E+00  0.99999998245E-14  0.12500000000E+03  0.12500000000E+03 0.  0.
        -13    1    3    3    0    0  0.32275436219E+02 -0.14004790829E+02  0.56391560565E+01  0.35632137100E+02  0.10566000000E+00 0. -1.
         23    2    1    0    0    0 -0.26889363068E+02 -0.10917781362E+02  0.79067694599E+01  0.94920890981E+02  0.90029010576E+02 0.  0.
         13    1    3    3    0    0 -0.59164799287E+02  0.30870094668E+01  0.22676134034E+01  0.59288753881E+02  0.10566000000E+00 0.  1.
         22    1    1    0    0    0  0.26889363068E+02  0.10917781362E+02 -0.79067694599E+01  0.30079109019E+02  0.00000000000E+00 0.  1.
</event>
<event>
 5    1  0.9041167E-005  0.9118800E+02  0.7818608E-02  0.1130116E+00
         25   -1    0    0    0    0  0.00000000000E+00  0.00000000000E+00  0.99999998245E-14  0.12500000000E+03  0.12500000000E+03 0.  0.
        -13    1    3    3    0    0  0.26854219410E+02  0.58994737591E+01 -0.27988894442E+02  0.39234452550E+02  0.10566000000E+00 0. -1.
         23    2    1    0    0    0  0.87777927750E+00 -0.29410372256E+02  0.63263697112E+01  0.94904095853E+02  0.90005688505E+02 0.  0.
         13    1    3    3    0    0 -0.25976440132E+02 -0.35309846015E+02  0.34315264154E+02  0.55669643303E+02  0.10566000000E+00 0.  1.
         22    1    1    0    0    0 -0.87777927750E+00  0.29410372256E+02 -0.63263697112E+01  0.30095904147E+02  0.00000000000E+00 0.  1.
</event>
<event>
 5    1  0.9041167E-005  0.9118800E+02  0.7818608E-02  0.1130116E+00
         25   -1    0    0    0    0  0.00000000000E+00  0.00000000000E+00  0.99999998245E-14  0.12500000000E+03  0.12500000000E+03 0.  0.
        -13    1    3    3    0    0  0.55018763246E+02  0.28411652191E+02  0.27587422334E+00  0.61922318755E+02  0.10566000000E+00 0. -1.
         23    2    1    0    0    0  0.24372589651E+02  0.15104547805E+02 -0.54302119207E+01  0.95816825186E+02  0.91264485407E+02 0.  0.
         13    1    3    3    0    0 -0.30646173595E+02 -0.13307104386E+02 -0.57060861440E+01  0.33894506432E+02  0.10566000000E+00 0.  1.
         22    1    1    0    0    0 -0.24372589651E+02 -0.15104547805E+02  0.54302119207E+01  0.29183174814E+02  0.00000000000E+00 0. -1.
</event>
<event>
 5    1  0.9041167E-005  0.9118800E+02  0.7818608E-02  0.1130116E+00
         25   -1    0    0    0    0  0.00000000000E+00  0.00000000000E+00  0.99999998245E-14  0.12500000000E+03  0.12500000000E+03 0.  0.
        -13    1    3    3    0    0  0.40078357375E+02 -0.36835488220E+02 -0.40593231867E+01  0.54585869884E+02  0.10566000000E+00 0. -1.
         23    2    1    0    0    0  0.15510315957E+02 -0.12639100133E+02  0.20060667507E+02  0.96667207443E+02  0.92421868952E+02 0.  0.
         13    1    3    3    0    0 -0.24568041418E+02  0.24196388087E+02  0.24119990694E+02  0.42081337558E+02  0.10566000000E+00 0.  1.
         22    1    1    0    0    0 -0.15510315957E+02  0.12639100133E+02 -0.20060667507E+02  0.28332792557E+02  0.00000000000E+00 0. -1.
</event>
<event>
 5    1  0.9041167E-005  0.9118800E+02  0.7818608E-02  0.1130116E+00
         25   -1    0    0    0    0  0.00000000000E+00  0.00000000000E+00  0.99999998245E-14  0.12500000000E+03  0.12500000000E+03 0.  0.
        -13    1    3    3    0    0  0.53372440021E+01 -0.41800323723E+02  0.15523953243E+02  0.44908323562E+02  0.10566000000E+00 0. -1.
         23    2    1    0    0    0 -0.27280374256E+02 -0.80144630087E+01 -0.49500454542E+01  0.96139068157E+02  0.91704781986E+02 0.  0.
         13    1    3    3    0    0 -0.32617618258E+02  0.33785860714E+02 -0.20473998697E+02  0.51230744594E+02  0.10566000000E+00 0.  1.
         22    1    1    0    0    0  0.27280374256E+02  0.80144630087E+01  0.49500454542E+01  0.28860931843E+02  0.00000000000E+00 0. -1.
</event>
<event>
 5    1  0.9041167E-005  0.9118800E+02  0.7818608E-02  0.1130116E+00
         25   -1    0    0    0    0  0.00000000000E+00  0.00000000000E+00  0.99999998245E-14  0.12500000000E+03  0.12500000000E+03 0.  0.
        -13    1    3    3    0    0  0.19999702811E+02 -0.47686969612E+02 -0.23267483865E+02  0.56704692511E+02  0.10566000000E+00 0.  1.
         23    2    1    0    0    0  0.12459052919E+02 -0.92182519708E+01 -0.24596097222E+02  0.95928155071E+02  0.91416840723E+02 0.  0.
         13    1    3    3    0    0 -0.75406498924E+01  0.38468717641E+02 -0.13286133568E+01  0.39223462560E+02  0.10566000000E+00 0. -1.
         22    1    1    0    0    0 -0.12459052919E+02  0.92182519708E+01  0.24596097222E+02  0.29071844929E+02  0.00000000000E+00 0.  1.
</event>
<event>
 5    1  0.9041167E-005  0.9118800E+02  0.7818608E-02  0.1130116E+00
         25   -1    0    0    0    0  0.00000000000E+00  0.00000000000E+00  0.99999998245E-14  0.12500000000E+03  0.12500000000E+03 0.  0.
        -13    1    3    3    0    0  0.25633100062E+02 -0.28933163981E+02 -0.35870947963E+02  0.52734427735E+02  0.10566000000E+00 0.  1.
         23    2    1    0    0    0  0.18307945456E+02 -0.31591459292E+02 -0.99193129726E+00  0.88473501471E+02  0.80581482785E+02 0.  0.
         13    1    3    3    0    0 -0.73251546058E+01 -0.26582953114E+01  0.34879016665E+02  0.35739073737E+02  0.10566000000E+00 0. -1.
         22    1    1    0    0    0 -0.18307945456E+02  0.31591459292E+02  0.99193129726E+00  0.36526498529E+02  0.00000000000E+00 0.  1.
</event>
<event>
 5    1  0.9041167E-005  0.9118800E+02  0.7818608E-02  0.1130116E+00
         25   -1    0    0    0    0  0.00000000000E+00  0.00000000000E+00  0.99999998245E-14  0.12500000000E+03  0.12500000000E+03 0.  0.
        -13    1    3    3    0    0 -0.37698298042E+02 -0.37586762307E+02 -0.38101936461E+01  0.53370920131E+02  0.10566000000E+00 0.  1.
         23    2    1    0    0    0 -0.67740545991E+01 -0.19793976619E+02  0.19833498362E+02  0.96171941040E+02  0.91749579073E+02 0.  0.
         13    1    3    3    0    0  0.30924243443E+02  0.17792785688E+02  0.23643692008E+02  0.42801020909E+02  0.10566000000E+00 0. -1.
         22    1    1    0    0    0  0.67740545991E+01  0.19793976619E+02 -0.19833498362E+02  0.28828058960E+02  0.00000000000E+00 0.  1.
</event>
<event>
 5    1  0.9041167E-005  0.9118800E+02  0.7818608E-02  0.1130116E+00
         25   -1    0    0    0    0  0.00000000000E+00  0.00000000000E+00  0.99999998245E-14  0.12500000000E+03  0.12500000000E+03 0.  0.
        -13    1    3    3    0    0  0.93433639778E+01  0.19016093514E+02  0.35700382287E+02  0.41514319486E+02  0.10566000000E+00 0. -1.
         23    2    1    0    0    0 -0.11689922030E+02  0.22310942390E+02 -0.14425183492E+02  0.95973833422E+02  0.91479278285E+02 0.  0.
         13    1    3    3    0    0 -0.21033286008E+02  0.32948488760E+01 -0.50125565779E+02  0.54459513936E+02  0.10566000000E+00 0.  1.
         22    1    1    0    0    0  0.11689922030E+02 -0.22310942390E+02  0.14425183492E+02  0.29026166578E+02  0.00000000000E+00 0.  1.
</event>
<event>
 5    1  0.9041167E-005  0.9118800E+02  0.7818608E-02  0.1130116E+00
         25   -1    0    0    0    0  0.00000000000E+00  0.00000000000E+00  0.99999998245E-14  0.12500000000E+03  0.12500000000E+03 0.  0.
        -13    1    3    3    0    0  0.41064253253E+01  0.43355075421E+02 -0.83024526739E+01  0.44333589728E+02  0.10566000000E+00 0.  1.
         23    2    1    0    0    0  0.22059019947E+02 -0.24787265728E+01 -0.20212662324E+02  0.94978405028E+02  0.90108830072E+02 0.  0.
         13    1    3    3    0    0  0.17952594621E+02 -0.45833801994E+02 -0.11910209650E+02  0.50644815300E+02  0.10566000000E+00 0. -1.
         22    1    1    0    0    0 -0.22059019947E+02  0.24787265728E+01  0.20212662324E+02  0.30021594972E+02  0.00000000000E+00 0.  1.
</event>
<event>
 5    1  0.9041167E-005  0.9118800E+02  0.7818608E-02  0.1130116E+00
         25   -1    0    0    0    0  0.00000000000E+00  0.00000000000E+00  0.99999998245E-14  0.12500000000E+03  0.12500000000E+03 0.  0.
        -13    1    3    3    0    0 -0.46400900061E+02 -0.10967353695E+01  0.20823968831E+02  0.50871359299E+02  0.10566000000E+00 0.  1.
         23    2    1    0    0    0 -0.19108121652E+02  0.14989833305E+02 -0.13197637189E+02  0.97359575926E+02  0.93353596511E+02 0.  0.
         13    1    3    3    0    0  0.27292778409E+02  0.16086568675E+02 -0.34021606020E+02  0.46488216628E+02  0.10566000000E+00 0. -1.
         22    1    1    0    0    0  0.19108121652E+02 -0.14989833305E+02  0.13197637189E+02  0.27640424074E+02  0.00000000000E+00 0.  1.
</event>
<event>
 5    1  0.9041167E-005  0.9118800E+02  0.7818608E-02  0.1130116E+00
         25   -1    0    0    0    0  0.00000000000E+00  0.00000000000E+00  0.99999998245E-14  0.12500000000E+03  0.12500000000E+03 0.  0.
        -13    1    3    3    0    0 -0.17677180722E+02  0.15883333227E+02 -0.27350986970E+02  0.36233280902E+02  0.10566000000E+00 0. -1.
         23    2    1    0    0    0  0.27183542880E+02 -0.53944900752E+01  0.67612532504E+01  0.96473519807E+02  0.92159535328E+02 0.  0.
         13    1    3    3    0    0  0.44860723602E+02 -0.21277823302E+02  0.34112240220E+02  0.60240238905E+02  0.10566000000E+00 0.  1.
         22    1    1    0    0    0 -0.27183542880E+02  0.53944900752E+01 -0.67612532504E+01  0.28526480193E+02  0.00000000000E+00 0.  1.
</event>
<event>
 5    1  0.9041167E-005  0.9118800E+02  0.7818608E-02  0.1130116E+00
         25   -1    0    0    0    0  0.00000000000E+00  0.00000000000E+00  0.99999998245E-14  0.12500000000E+03  0.12500000000E+03 0.  0.
        -13    1    3    3    0    0  0.11826908950E+02  0.22088200184E+02  0.28629458088E+02  0.38044991748E+02  0.10566000000E+00 0.  1.
         23    2    1    0    0    0 -0.17844282517E+02 -0.20976931205E+02  0.43840264160E+00  0.97456538740E+02  0.93483339077E+02 0.  0.
         13    1    3    3    0    0 -0.29671191467E+02 -0.43065131390E+02 -0.28191055446E+02  0.59411546991E+02  0.10566000000E+00 0. -1.
         22    1    1    0    0    0  0.17844282517E+02  0.20976931205E+02 -0.43840264160E+00  0.27543461260E+02  0.00000000000E+00 0. -1.
</event>
<event>
 5    1  0.9041167E-005  0.9118800E+02  0.7818608E-02  0.1130116E+00
         25   -1    0    0    0    0  0.00000000000E+00  0.00000000000E+00  0.99999998245E-14  0.12500000000E+03  0.12500000000E+03 0.  0.
        -13    1    3    3    0    0  0.29513948342E+00 -0.31385379122E+02 -0.47534175108E+01  0.31744846385E+02  0.10566000000E+00 0. -1.
         23    2    1    0    0    0 -0.17668938904E+02  0.26773586487E+02 -0.44401478786E+01  0.92615879685E+02  0.86769637093E+02 0.  0.
         13    1    3    3    0    0 -0.17964078387E+02  0.58158965610E+02  0.31326963220E+00  0.60871033300E+02  0.10566000000E+00 0.  1.
         22    1    1    0    0    0  0.17668938904E+02 -0.26773586487E+02  0.44401478786E+01  0.32384120315E+02  0.00000000000E+00 0.  1.
</event>
<event>
 5    1  0.9041167E-005  0.9118800E+02  0.7818608E-02  0.1130116E+00
         25   -1    0    0    0    0  0.00000000000E+00  0.00000000000E+00  0.99999998245E-14  0.12500000000E+03  0.12500000000E+03 0.  0.
        -13    1    3    3    0    0  0.22170731210E+02 -0.22425750615E+02  0.17659652978E+02  0.36143189129E+02  0.10566000000E+00 0.  1.
         23    2    1    0    0    0 -0.21619074992E+02 -0.10054554039E+02 -0.18948342925E+02  0.94544817189E+02  0.89505331111E+02 0.  0.
         13    1    3    3    0    0 -0.43789806202E+02  0.12371196576E+02 -0.36607995904E+02  0.58401628060E+02  0.10566000000E+00 0. -1.
         22    1    1    0    0    0  0.21619074992E+02  0.10054554039E+02  0.18948342925E+02  0.30455182811E+02  0.00000000000E+00 0. -1.
</event>
<event>
 5    1  0.9041167E-005  0.9118800E+02  0.7818608E-02  0.1130116E+00
         25   -1    0    0    0    0  0.00000000000E+00  0.00000000000E+00  0.99999998245E-14  0.12500000000E+03  0.12500000000E+03 0.  0.
        -13    1    3    3    0    0  0.37184696387E+02 -0.39211577626E+02 -0.20795838994E+02  0.57902742153E+02  0.10566000000E+00 0. -1.
         23    2    1    0    0    0  0.25806033584E+02 -0.77270507219E+01  0.13261421107E+01  0.98029324534E+02  0.94246119991E+02 0.  0.
         13    1    3    3    0    0 -0.11378662803E+02  0.31484526904E+02  0.22121981105E+02  0.40126582381E+02  0.10566000000E+00 0.  1.
         22    1    1    0    0    0 -0.25806033584E+02  0.77270507219E+01 -0.13261421107E+01  0.26970675466E+02  0.00000000000E+00 0. -1.
</event>
<event>
 5    1  0.9041167E-005  0.9118800E+02  0.7818608E-02  0.1130116E+00
         25   -1    0    0    0    0  0.00000000000E+00  0.00000000000E+00  0.99999998245E-14  0.12500000000E+03  0.12500000000E+03 0.  0.
        -13    1    3    3    0    0  0.42451126618E+02 -0.16940094751E+02  0.55449367413E+01  0.46041529609E+02  0.10566000000E+00 0.  1.
         23    2    1    0    0    0  0.14674991367E+01 -0.15783702106E+02 -0.23759778072E+02  0.96437684619E+02  0.92110917674E+02 0.  0.
         13    1    3    3    0    0 -0.40983627481E+02  0.11563926447E+01 -0.29304714813E+02  0.50396155010E+02  0.10566000000E+00 0. -1.
         22    1    1    0    0    0 -0.14674991367E+01  0.15783702106E+02  0.23759778072E+02  0.28562315381E+02  0.00000000000E+00 0. -1.
</event>
<event>
 5    1  0.9041167E-005  0.9118800E+02  0.7818608E-02  0.1130116E+00
         25   -1    0    0    0    0  0.00000000000E+00  0.00000000000E+00  0.99999998245E-14  0.12500000000E+03  0.12500000000E+03 0.  0.
        -13    1    3    3    0    0 -0.53285208092E+02 -0.21931939805E+02 -0.17002793354E+02  0.60078528035E+02  0.10566000000E+00 0.  1.
         23    2    1    0    0    0 -0.18457264659E+02 -0.12347740219E+02 -0.18299948193E+02  0.96224569315E+02  0.91821252055E+02 0.  0.
         13    1    3    3    0    0  0.34827943433E+02  0.95841995860E+01 -0.12971548395E+01  0.36146041280E+02  0.10566000000E+00 0. -1.
         22    1    1    0    0    0  0.18457264659E+02  0.12347740219E+02  0.18299948193E+02  0.28775430685E+02  0.00000000000E+00 0.  1.
</event>
<event>
 5    1  0.9041167E-005  0.9118800E+02  0.7818608E-02  0.1130116E+00
         25   -1    0    0    0    0  0.00000000000E+00  0.00000000000E+00  0.99999998245E-14  0.12500000000E+03  0.12500000000E+03 0.  0.
        -13    1    3    3    0    0  0.50797891202E+02  0.48707781493E+01 -0.10973956803E+02  0.52197596902E+02  0.10566000000E+00 0.  1.
         23    2    1    0    0    0  0.12876338372E+02 -0.19980445992E+02 -0.13602764649E+02  0.97612895041E+02  0.93692175556E+02 0.  0.
         13    1    3    3    0    0 -0.37921552830E+02 -0.24851224141E+02 -0.26288078466E+01  0.45415298139E+02  0.10566000000E+00 0. -1.
         22    1    1    0    0    0 -0.12876338372E+02  0.19980445992E+02  0.13602764649E+02  0.27387104959E+02  0.00000000000E+00 0.  1.
</event>
<event>
 5    1  0.9041167E-005  0.9118800E+02  0.7818608E-02  0.1130116E+00
         25   -1    0    0    0    0  0.00000000000E+00  0.00000000000E+00  0.99999998245E-14  0.12500000000E+03  0.12500000000E+03 0.  0.
        -13    1    3    3    0    0  0.31091457965E+02 -0.11910887646E+02 -0.42605604832E+02  0.54072143753E+02  0.10566000000E+00 0.  1.
         23    2    1    0    0    0  0.27715526067E+02  0.77665606840E+01 -0.62545587475E+01  0.95545130196E+02  0.90891597791E+02 0.  0.
         13    1    3    3    0    0 -0.33759318975E+01  0.19677448330E+02  0.36351046085E+02  0.41472986443E+02  0.10566000000E+00 0. -1.
         22    1    1    0    0    0 -0.27715526067E+02 -0.77665606840E+01  0.62545587475E+01  0.29454869804E+02  0.00000000000E+00 0.  1.
</event>
<event>
 5    1  0.9041167E-005  0.9118800E+02  0.7818608E-02  0.1130116E+00
         25   -1    0    0    0    0  0.00000000000E+00  0.00000000000E+00  0.99999998245E-14  0.12500000000E+03  0.12500000000E+03 0.  0.
        -13    1    3    3    0    0 -0.20736355234E+02 -0.20120492153E+01 -0.44785818022E+02  0.49394589080E+02  0.10566000000E+00 0. -1.
         23    2    1    0    0    0 -0.21824782447E+02  0.14359922099E+02  0.18268450653E+01  0.98810959268E+02  0.95277173641E+02 0.  0.
         13    1    3    3    0    0 -0.10884272135E+01  0.16371971314E+02  0.46612663087E+02  0.49416370189E+02  0.10566000000E+00 0.  1.
         22    1    1    0    0    0  0.21824782447E+02 -0.14359922099E+02 -0.18268450653E+01  0.26189040732E+02  0.00000000000E+00 0. -1.
</event>
<event>
 5    1  0.9041167E-005  0.9118800E+02  0.7818608E-02  0.1130116E+00
         25   -1    0    0    0    0  0.00000000000E+00  0.00000000000E+00  0.99999998245E-14  0.12500000000E+03  0.12500000000E+03 0.  0.
        -13    1    3    3    0    0  0.30615705497E+02  0.34759203676E+00  0.30549976015E+02  0.43252218924E+02  0.10566000000E+00 0.  1.
         23    2    1    0    0    0 -0.14676640261E+02  0.20829399242E+02  0.15440371400E+02  0.95206163203E+02  0.90424226847E+02 0.  0.
         13    1    3    3    0    0 -0.45292345757E+02  0.20481807205E+02 -0.15109604615E+02  0.51953944280E+02  0.10566000000E+00 0. -1.
         22    1    1    0    0    0  0.14676640261E+02 -0.20829399242E+02 -0.15440371400E+02  0.29793836797E+02  0.00000000000E+00 0.  1.
</event>
<event>
 5    1  0.9041167E-005  0.9118800E+02  0.7818608E-02  0.1130116E+00
         25   -1    0    0    0    0  0.00000000000E+00  0.00000000000E+00  0.99999998245E-14  0.12500000000E+03  0.12500000000E+03 0.  0.
        -13    1    3    3    0    0  0.38814997727E+01 -0.42390228901E+02 -0.33049305633E+02  0.53891235963E+02  0.10566000000E+00 0.  1.
         23    2    1    0    0    0  0.23745671199E+02 -0.22528051721E+02 -0.85372853032E+01  0.91173157768E+02  0.84665751292E+02 0.  0.
         13    1    3    3    0    0  0.19864171427E+02  0.19862177179E+02  0.24512020330E+02  0.37281921805E+02  0.10566000000E+00 0. -1.
         22    1    1    0    0    0 -0.23745671199E+02  0.22528051721E+02  0.85372853032E+01  0.33826842232E+02  0.00000000000E+00 0.  1.
</event>
<event>
 5    1  0.9041167E-005  0.9118800E+02  0.7818608E-02  0.1130116E+00
         25   -1    0    0    0    0  0.00000000000E+00  0.00000000000E+00  0.99999998245E-14  0.12500000000E+03  0.12500000000E+03 0.  0.
        -13    1    3    3    0    0  0.33933655679E+02  0.13019897872E+02  0.38309625999E+01  0.36547204637E+02  0.10566000000E+00 0.  1.
         23    2    1    0    0    0 -0.10013613931E+02 -0.27076139640E+02  0.19139302930E+01  0.96068132951E+02  0.91608041337E+02 0.  0.
         13    1    3    3    0    0 -0.43947269610E+02 -0.40096037513E+02 -0.19170323069E+01  0.59520928313E+02  0.10566000000E+00 0. -1.
         22    1    1    0    0    0  0.10013613931E+02  0.27076139640E+02 -0.19139302930E+01  0.28931867049E+02  0.00000000000E+00 0. -1.
</event>
<event>
 5    1  0.9041167E-005  0.9118800E+02  0.7818608E-02  0.1130116E+00
         25   -1    0    0    0    0  0.00000000000E+00  0.00000000000E+00  0.99999998245E-14  0.12500000000E+03  0.12500000000E+03 0.  0.
        -13    1    3    3    0    0  0.25305982960E+02 -0.38450540279E+02  0.42074015183E+02  0.62362414473E+02  0.10566000000E+00 0.  1.
         23    2    1    0    0    0  0.12952928369E+02 -0.16135967758E+02  0.21792248039E+02  0.94949211601E+02  0.90068323512E+02 0.  0.
         13    1    3    3    0    0 -0.12353054590E+02  0.22314572521E+02 -0.20281767144E+02  0.32586797128E+02  0.10566000000E+00 0. -1.
         22    1    1    0    0    0 -0.12952928369E+02  0.16135967758E+02 -0.21792248039E+02  0.30050788399E+02  0.00000000000E+00 0.  1.
</event>
<event>
 5    1  0.9041167E-005  0.9118800E+02  0.7818608E-02  0.1130116E+00
         25   -1    0    0    0    0  0.00000000000E+00  0.00000000000E+00  0.99999998245E-14  0.12500000000E+03  0.12500000000E+03 0.  0.
        -13    1    3    3    0    0  0.49941269812E+01  0.12631077098E+02 -0.43864118129E+02  0.45919031308E+02  0.10566000000E+00 0.  1.
         23    2    1    0    0    0 -0.27780930606E+02 -0.24305357445E+01 -0.10059408254E+02  0.95354101400E+02  0.90628501864E+02 0.  0.
         13    1    3    3    0    0 -0.32775057587E+02 -0.15061612843E+02  0.33804709875E+02  0.49435070092E+02  0.10566000000E+00 0. -1.
         22    1    1    0    0    0  0.27780930606E+02  0.24305357445E+01  0.10059408254E+02  0.29645898600E+02  0.00000000000E+00 0.  1.
</event>
<event>
 5    1  0.9041167E-005  0.9118800E+02  0.7818608E-02  0.1130116E+00
         25   -1    0    0    0    0  0.00000000000E+00  0.00000000000E+00  0.99999998245E-14  0.12500000000E+03  0.12500000000E+03 0.  0.
        -13    1    3    3    0    0  0.18657466212E+02  0.25776388428E+02  0.26158712366E+02  0.41192385735E+02  0.10566000000E+00 0.  1.
         23    2    1    0    0    0 -0.96974509275E+01 -0.20099593971E+02  0.19180133254E+02  0.95573621631E+02  0.90930772612E+02 0.  0.
         13    1    3    3    0    0 -0.28354917140E+02 -0.45875982399E+02 -0.69785791128E+01  0.54381235896E+02  0.10566000000E+00 0. -1.
         22    1    1    0    0    0  0.96974509275E+01  0.20099593971E+02 -0.19180133254E+02  0.29426378369E+02  0.00000000000E+00 0.  1.
</event>
<event>
 5    1  0.9041167E-005  0.9118800E+02  0.7818608E-02  0.1130116E+00
         25   -1    0    0    0    0  0.00000000000E+00  0.00000000000E+00  0.99999998245E-14  0.12500000000E+03  0.12500000000E+03 0.  0.
        -13    1    3    3    0    0  0.24054242110E+02 -0.20172114126E+02 -0.41767407522E+02  0.52249863607E+02  0.10566000000E+00 0.  1.
         23    2    1    0    0    0 -0.56088181048E+00 -0.29741733998E+02 -0.98774062919E+01  0.93655965725E+02  0.88255262909E+02 0.  0.
         13    1    3    3    0    0 -0.24615123920E+02 -0.95696198714E+01  0.31890001230E+02  0.41406102118E+02  0.10566000000E+00 0. -1.
         22    1    1    0    0    0  0.56088181048E+00  0.29741733998E+02  0.98774062919E+01  0.31344034275E+02  0.00000000000E+00 0.  1.
</event>
<event>
 5    1  0.9041167E-005  0.9118800E+02  0.7818608E-02  0.1130116E+00
         25   -1    0    0    0    0  0.00000000000E+00  0.00000000000E+00  0.99999998245E-14  0.12500000000E+03  0.12500000000E+03 0.  0.
        -13    1    3    3    0    0  0.25285977355E+02  0.26909866214E+02 -0.15533017243E+02  0.40060046670E+02  0.10566000000E+00 0.  1.
         23    2    1    0    0    0 -0.27207533340E+01 -0.18889835165E+02 -0.23924192696E+02  0.94396154368E+02  0.89297472485E+02 0.  0.
         13    1    3    3    0    0 -0.28006730689E+02 -0.45799701379E+02 -0.83911754529E+01  0.54336107699E+02  0.10566000000E+00 0. -1.
         22    1    1    0    0    0  0.27207533340E+01  0.18889835165E+02  0.23924192696E+02  0.30603845632E+02  0.00000000000E+00 0. -1.
</event>
<event>
 5    1  0.9041167E-005  0.9118800E+02  0.7818608E-02  0.1130116E+00
         25   -1    0    0    0    0  0.00000000000E+00  0.00000000000E+00  0.99999998245E-14  0.12500000000E+03  0.12500000000E+03 0.  0.
        -13    1    3    3    0    0  0.14419235962E+02 -0.22597381820E+02  0.55566609942E+02  0.61694532459E+02  0.10566000000E+00 0.  1.
         23    2    1    0    0    0  0.83480484624E+01 -0.16763231717E+02  0.22957802516E+02  0.95373043573E+02  0.90654624224E+02 0.  0.
         13    1    3    3    0    0 -0.60711874992E+01  0.58341501030E+01 -0.32608807426E+02  0.33678511114E+02  0.10566000000E+00 0. -1.
         22    1    1    0    0    0 -0.83480484624E+01  0.16763231717E+02 -0.22957802516E+02  0.29626956427E+02  0.00000000000E+00 0.  1.
</event>
<event>
 5    1  0.9041167E-005  0.9118800E+02  0.7818608E-02  0.1130116E+00
         25   -1    0    0    0    0  0.00000000000E+00  0.00000000000E+00  0.99999998245E-14  0.12500000000E+03  0.12500000000E+03 0.  0.
        -13    1    3    3    0    0 -0.18461077730E+02  0.24866438983E+02 -0.53719906564E+02  0.62007989034E+02  0.10566000000E+00 0.  1.
         23    2    1    0    0    0 -0.13231896934E+02  0.11927721226E+02 -0.21789127214E+02  0.96855378936E+02  0.92676020274E+02 0.  0.
         13    1    3    3    0    0  0.52291807963E+01 -0.12938717757E+02  0.31930779351E+02  0.34847389902E+02  0.10566000000E+00 0. -1.
         22    1    1    0    0    0  0.13231896934E+02 -0.11927721226E+02  0.21789127214E+02  0.28144621064E+02  0.00000000000E+00 0.  1.
</event>
<event>
 5    1  0.9041167E-005  0.9118800E+02  0.7818608E-02  0.1130116E+00
         25   -1    0    0    0    0  0.00000000000E+00  0.00000000000E+00  0.99999998245E-14  0.12500000000E+03  0.12500000000E+03 0.  0.
        -13    1    3    3    0    0 -0.48556987475E+02  0.39931044013E+01 -0.27541213523E+02  0.55966557173E+02  0.10566000000E+00 0.  1.
         23    2    1    0    0    0 -0.28276357908E+02  0.76930385098E+01  0.57624293501E+01  0.95134621214E+02  0.90325274998E+02 0.  0.
         13    1    3    3    0    0  0.20280629567E+02  0.36999341085E+01  0.33303642873E+02  0.39168064041E+02  0.10566000000E+00 0. -1.
         22    1    1    0    0    0  0.28276357908E+02 -0.76930385098E+01 -0.57624293501E+01  0.29865378786E+02  0.00000000000E+00 0.  1.
</event>
<event>
 5    1  0.9041167E-005  0.9118800E+02  0.7818608E-02  0.1130116E+00
         25   -1    0    0    0    0  0.00000000000E+00  0.00000000000E+00  0.99999998245E-14  0.12500000000E+03  0.12500000000E+03 0.  0.
        -13    1    3    3    0    0 -0.41091730324E+02  0.30192703426E+02  0.14279858897E+02  0.52953330163E+02  0.10566000000E+00 0. -1.
         23    2    1    0    0    0 -0.18233085658E+01  0.30060683820E+02 -0.41404580876E+00  0.94881225128E+02  0.89973920010E+02 0.  0.
         13    1    3    3    0    0  0.39268421759E+02 -0.13201960577E+00 -0.14693904706E+02  0.41927894964E+02  0.10566000000E+00 0.  1.
         22    1    1    0    0    0  0.18233085658E+01 -0.30060683820E+02  0.41404580876E+00  0.30118774872E+02  0.00000000000E+00 0. -1.
</event>
<event>
 5    1  0.9041167E-005  0.9118800E+02  0.7818608E-02  0.1130116E+00
         25   -1    0    0    0    0  0.00000000000E+00  0.00000000000E+00  0.99999998245E-14  0.12500000000E+03  0.12500000000E+03 0.  0.
        -13    1    3    3    0    0  0.99931128331E+01 -0.23076521670E+02  0.36231459527E+02  0.44103491699E+02  0.10566000000E+00 0.  1.
         23    2    1    0    0    0 -0.20010046636E+02  0.10694382407E+02 -0.46899931697E+00  0.10230657052E+03  0.99757920131E+02 0.  0.
         13    1    3    3    0    0 -0.30003159469E+02  0.33770904077E+02 -0.36700458844E+02  0.58203078816E+02  0.10566000000E+00 0. -1.
         22    1    1    0    0    0  0.20010046636E+02 -0.10694382407E+02  0.46899931697E+00  0.22693429485E+02  0.00000000000E+00 0. -1.
</event>
<event>
 5    1  0.9041167E-005  0.9118800E+02  0.7818608E-02  0.1130116E+00
         25   -1    0    0    0    0  0.00000000000E+00  0.00000000000E+00  0.99999998245E-14  0.12500000000E+03  0.12500000000E+03 0.  0.
        -13    1    3    3    0    0 -0.22627910298E+02 -0.20327406285E+02  0.21944902979E+02  0.37507541929E+02  0.10566000000E+00 0. -1.
         23    2    1    0    0    0 -0.94439957215E+01  0.12795617353E+02 -0.24336596309E+02  0.95927903438E+02  0.91416496648E+02 0.  0.
         13    1    3    3    0    0  0.13183914576E+02  0.33123023638E+02 -0.46281499288E+02  0.58420361509E+02  0.10566000000E+00 0.  1.
         22    1    1    0    0    0  0.94439957215E+01 -0.12795617353E+02  0.24336596309E+02  0.29072096562E+02  0.00000000000E+00 0.  1.
</event>
<event>
 5    1  0.9041167E-005  0.9118800E+02  0.7818608E-02  0.1130116E+00
         25   -1    0    0    0    0  0.00000000000E+00  0.00000000000E+00  0.99999998245E-14  0.12500000000E+03  0.12500000000E+03 0.  0.
        -13    1    3    3    0    0  0.42620121478E+02 -0.65158675407E+01  0.94105178651E+01  0.44130491671E+02  0.10566000000E+00 0. -1.
         23    2    1    0    0    0  0.18661519856E+01  0.26220336752E+02  0.11180773791E+02  0.96434316301E+02  0.92106346553E+02 0.  0.
         13    1    3    3    0    0 -0.40753969492E+02  0.32736204293E+02  0.17702559257E+01  0.52303824630E+02  0.10566000000E+00 0.  1.
         22    1    1    0    0    0 -0.18661519856E+01 -0.26220336752E+02 -0.11180773791E+02  0.28565683699E+02  0.00000000000E+00 0. -1.
</event>
<event>
 5    1  0.9041167E-005  0.9118800E+02  0.7818608E-02  0.1130116E+00
         25   -1    0    0    0    0  0.00000000000E+00  0.00000000000E+00  0.99999998245E-14  0.12500000000E+03  0.12500000000E+03 0.  0.
        -13    1    3    3    0    0 -0.61775027027E+01  0.53723934896E+01 -0.39264205924E+02  0.40108766901E+02  0.10566000000E+00 0.  1.
         23    2    1    0    0    0  0.29957813520E+02 -0.93001095638E+01 -0.27891387149E+01  0.93508065738E+02  0.88045536142E+02 0.  0.
         13    1    3    3    0    0  0.36135316223E+02 -0.14672503053E+02  0.36475067209E+02  0.53399298837E+02  0.10566000000E+00 0. -1.
         22    1    1    0    0    0 -0.29957813520E+02  0.93001095638E+01  0.27891387149E+01  0.31491934262E+02  0.00000000000E+00 0. -1.
</event>
<event>
 5    1  0.9041167E-005  0.9118800E+02  0.7818608E-02  0.1130116E+00
         25   -1    0    0    0    0  0.00000000000E+00  0.00000000000E+00  0.99999998245E-14  0.12500000000E+03  0.12500000000E+03 0.  0.
        -13    1    3    3    0    0  0.30420499363E+02 -0.33057402180E+02 -0.16220327931E+01  0.44953762632E+02  0.10566000000E+00 0.  1.
         23    2    1    0    0    0 -0.14056189245E+02 -0.20430693578E+02  0.17144443848E+02  0.94851672500E+02  0.89932853424E+02 0.  0.
         13    1    3    3    0    0 -0.44476688608E+02  0.12626708601E+02  0.18766476642E+02  0.49897909868E+02  0.10566000000E+00 0. -1.
         22    1    1    0    0    0  0.14056189245E+02  0.20430693578E+02 -0.17144443848E+02  0.30148327500E+02  0.00000000000E+00 0. -1.
</event>
<event>
 5    1  0.9041167E-005  0.9118800E+02  0.7818608E-02  0.1130116E+00
         25   -1    0    0    0    0  0.00000000000E+00  0.00000000000E+00  0.99999998245E-14  0.12500000000E+03  0.12500000000E+03 0.  0.
        -13    1    3    3    0    0  0.18416911584E+02 -0.43795924638E+02  0.27210626377E+02  0.54751210024E+02  0.10566000000E+00 0. -1.
         23    2    1    0    0    0  0.20810440102E+02 -0.18910708590E+02 -0.59282863324E+01  0.96262674177E+02  0.91873111105E+02 0.  0.
         13    1    3    3    0    0  0.23935285179E+01  0.24885216048E+02 -0.33138912710E+02  0.41511464153E+02  0.10566000000E+00 0.  1.
         22    1    1    0    0    0 -0.20810440102E+02  0.18910708590E+02  0.59282863324E+01  0.28737325823E+02  0.00000000000E+00 0. -1.
</event>
<event>
 5    1  0.9041167E-005  0.9118800E+02  0.7818608E-02  0.1130116E+00
         25   -1    0    0    0    0  0.00000000000E+00  0.00000000000E+00  0.99999998245E-14  0.12500000000E+03  0.12500000000E+03 0.  0.
        -13    1    3    3    0    0  0.30881571324E+02 -0.30833466796E+02  0.13546292243E+02  0.45693405648E+02  0.10566000000E+00 0.  1.
         23    2    1    0    0    0 -0.13755674187E+02 -0.30187348198E+02  0.93589138634E+01  0.90531408031E+02  0.83712914224E+02 0.  0.
         13    1    3    3    0    0 -0.44637245511E+02  0.64611859770E+00 -0.41873783799E+01  0.44838002384E+02  0.10566000000E+00 0. -1.
         22    1    1    0    0    0  0.13755674187E+02  0.30187348198E+02 -0.93589138634E+01  0.34468591969E+02  0.00000000000E+00 0. -1.
</event>
<event>
 5    1  0.9041167E-005  0.9118800E+02  0.7818608E-02  0.1130116E+00
         25   -1    0    0    0    0  0.00000000000E+00  0.00000000000E+00  0.99999998245E-14  0.12500000000E+03  0.12500000000E+03 0.  0.
        -13    1    3    3    0    0  0.32464195659E+02 -0.77941979793E+01  0.11518831596E+02  0.35318099712E+02  0.10566000000E+00 0.  1.
         23    2    1    0    0    0 -0.12598808920E+02  0.12613907193E+02 -0.23190140511E+02  0.95748961423E+02  0.91171488722E+02 0.  0.
         13    1    3    3    0    0 -0.45063004578E+02  0.20408105172E+02 -0.34708972108E+02  0.60430861711E+02  0.10566000000E+00 0. -1.
         22    1    1    0    0    0  0.12598808920E+02 -0.12613907193E+02  0.23190140511E+02  0.29251038577E+02  0.00000000000E+00 0. -1.
</event>
<event>
 5    1  0.9041167E-005  0.9118800E+02  0.7818608E-02  0.1130116E+00
         25   -1    0    0    0    0  0.00000000000E+00  0.00000000000E+00  0.99999998245E-14  0.12500000000E+03  0.12500000000E+03 0.  0.
        -13    1    3    3    0    0 -0.41816427147E+02  0.30021298428E+02 -0.84373269699E+00  0.51484123645E+02  0.10566000000E+00 0.  1.
         23    2    1    0    0    0  0.19348943969E+01  0.28916585651E+02  0.48411513776E+01  0.95617190592E+02  0.90990645937E+02 0.  0.
         13    1    3    3    0    0  0.43751321544E+02 -0.11047127766E+01  0.56848840746E+01  0.44133066947E+02  0.10566000000E+00 0. -1.
         22    1    1    0    0    0 -0.19348943969E+01 -0.28916585651E+02 -0.48411513776E+01  0.29382809408E+02  0.00000000000E+00 0.  1.
</event>
<event>
 5    1  0.9041167E-005  0.9118800E+02  0.7818608E-02  0.1130116E+00
         25   -1    0    0    0    0  0.00000000000E+00  0.00000000000E+00  0.99999998245E-14  0.12500000000E+03  0.12500000000E+03 0.  0.
        -13    1    3    3    0    0 -0.39413531369E+02  0.69593440199E+01 -0.46036434729E+02  0.61001831209E+02  0.10566000000E+00 0.  1.
         23    2    1    0    0    0 -0.18553769231E+02  0.11971107282E+02 -0.16851167987E+02  0.97223901916E+02  0.93171752581E+02 0.  0.
         13    1    3    3    0    0  0.20859762138E+02  0.50117632624E+01  0.29185266743E+02  0.36222070707E+02  0.10566000000E+00 0. -1.
         22    1    1    0    0    0  0.18553769231E+02 -0.11971107282E+02  0.16851167987E+02  0.27776098084E+02  0.00000000000E+00 0.  1.
</event>
<event>
 5    1  0.9041167E-005  0.9118800E+02  0.7818608E-02  0.1130116E+00
         25   -1    0    0    0    0  0.00000000000E+00  0.00000000000E+00  0.99999998245E-14  0.12500000000E+03  0.12500000000E+03 0.  0.
        -13    1    3    3    0    0 -0.29346220234E+02  0.18747892883E+02 -0.44771899349E+01  0.35110404773E+02  0.10566000000E+00 0.  1.
         23    2    1    0    0    0  0.26658916975E+02 -0.44936816856E+01 -0.10396427431E+02  0.96034904925E+02  0.91562690170E+02 0.  0.
         13    1    3    3    0    0  0.56005137209E+02 -0.23241574568E+02 -0.59192374960E+01  0.60924500152E+02  0.10566000000E+00 0. -1.
         22    1    1    0    0    0 -0.26658916975E+02  0.44936816856E+01  0.10396427431E+02  0.28965095075E+02  0.00000000000E+00 0. -1.
</event>
<event>
 5    1  0.9041167E-005  0.9118800E+02  0.7818608E-02  0.1130116E+00
         25   -1    0    0    0    0  0.00000000000E+00  0.00000000000E+00  0.99999998245E-14  0.12500000000E+03  0.12500000000E+03 0.  0.
        -13    1    3    3    0    0  0.89167759857E+01 -0.37227799574E+02 -0.30958092448E+02  0.49232434504E+02  0.10566000000E+00 0.  1.
         23    2    1    0    0    0  0.45564387852E+01 -0.46791451180E+02 -0.44157991092E+01  0.77780297335E+02  0.61806749905E+02 0.  0.
         13    1    3    3    0    0 -0.43603372005E+01 -0.95636516061E+01  0.26542293339E+02  0.28547862832E+02  0.10566000000E+00 0. -1.
         22    1    1    0    0    0 -0.45564387852E+01  0.46791451180E+02  0.44157991092E+01  0.47219702665E+02  0.00000000000E+00 0.  1.
</event>
<event>
 5    1  0.9041167E-005  0.9118800E+02  0.7818608E-02  0.1130116E+00
         25   -1    0    0    0    0  0.00000000000E+00  0.00000000000E+00  0.99999998245E-14  0.12500000000E+03  0.12500000000E+03 0.  0.
        -13    1    3    3    0    0 -0.24390389062E+02  0.53224047823E+02  0.17711126686E+02  0.61166866176E+02  0.10566000000E+00 0.  1.
         23    2    1    0    0    0 -0.12235393725E+02  0.21308735480E+02  0.16618683826E+02  0.95336087253E+02  0.90603652318E+02 0.  0.
         13    1    3    3    0    0  0.12154995337E+02 -0.31915312343E+02 -0.10924428605E+01  0.34169221077E+02  0.10566000000E+00 0. -1.
         22    1    1    0    0    0  0.12235393725E+02 -0.21308735480E+02 -0.16618683826E+02  0.29663912747E+02  0.00000000000E+00 0.  1.
</event>
<event>
 5    1  0.9041167E-005  0.9118800E+02  0.7818608E-02  0.1130116E+00
         25   -1    0    0    0    0  0.00000000000E+00  0.00000000000E+00  0.99999998245E-14  0.12500000000E+03  0.12500000000E+03 0.  0.
        -13    1    3    3    0    0  0.40810865085E+02  0.16157215892E+01  0.30316535777E+01  0.40955333629E+02  0.10566000000E+00 0.  1.
         23    2    1    0    0    0 -0.73696500446E+01 -0.15811600397E+02  0.23161887884E+02  0.96003595064E+02  0.91519936439E+02 0.  0.
         13    1    3    3    0    0 -0.48180515129E+02 -0.17427321986E+02  0.20130234306E+02  0.55048261435E+02  0.10566000000E+00 0. -1.
         22    1    1    0    0    0  0.73696500446E+01  0.15811600397E+02 -0.23161887884E+02  0.28996404936E+02  0.00000000000E+00 0. -1.
</event>
<event>
 5    1  0.9041167E-005  0.9118800E+02  0.7818608E-02  0.1130116E+00
         25   -1    0    0    0    0  0.00000000000E+00  0.00000000000E+00  0.99999998245E-14  0.12500000000E+03  0.12500000000E+03 0.  0.
        -13    1    3    3    0    0  0.20094745854E+02  0.26524562975E+02 -0.41983323895E+01  0.33540846901E+02  0.10566000000E+00 0.  1.
         23    2    1    0    0    0 -0.70571485407E+01 -0.28575386035E+02  0.31164328684E+01  0.95401550946E+02  0.90693923371E+02 0.  0.
         13    1    3    3    0    0 -0.27151894395E+02 -0.55099949010E+02  0.73147652579E+01  0.61860704045E+02  0.10566000000E+00 0. -1.
         22    1    1    0    0    0  0.70571485407E+01  0.28575386035E+02 -0.31164328684E+01  0.29598449054E+02  0.00000000000E+00 0. -1.
</event>
<event>
 5    1  0.9041167E-005  0.9118800E+02  0.7818608E-02  0.1130116E+00
         25   -1    0    0    0    0  0.00000000000E+00  0.00000000000E+00  0.99999998245E-14  0.12500000000E+03  0.12500000000E+03 0.  0.
        -13    1    3    3    0    0  0.85731077202E+01 -0.51556447019E+02  0.28840080246E+02  0.59693607680E+02  0.10566000000E+00 0.  1.
         23    2    1    0    0    0 -0.11760712417E+01 -0.17029025441E+02  0.23482506380E+02  0.95969000070E+02  0.91472673611E+02 0.  0.
         13    1    3    3    0    0 -0.97491789620E+01  0.34527421578E+02 -0.53575738654E+01  0.36275392390E+02  0.10566000000E+00 0. -1.
         22    1    1    0    0    0  0.11760712417E+01  0.17029025441E+02 -0.23482506380E+02  0.29030999930E+02  0.00000000000E+00 0.  1.
</event>
<event>
 5    1  0.9041167E-005  0.9118800E+02  0.7818608E-02  0.1130116E+00
         25   -1    0    0    0    0  0.00000000000E+00  0.00000000000E+00  0.99999998245E-14  0.12500000000E+03  0.12500000000E+03 0.  0.
        -13    1    3    3    0    0 -0.51915518543E+01 -0.35863024310E+02 -0.52030128505E+01  0.36608622346E+02  0.10566000000E+00 0. -1.
         23    2    1    0    0    0 -0.94136048443E+01  0.14618854063E+02  0.24214931336E+02  0.95189100150E+02  0.90400636267E+02 0.  0.
         13    1    3    3    0    0 -0.42220529900E+01  0.50481878373E+02  0.29417944187E+02  0.58580477804E+02  0.10566000000E+00 0.  1.
         22    1    1    0    0    0  0.94136048443E+01 -0.14618854063E+02 -0.24214931336E+02  0.29810899850E+02  0.00000000000E+00 0.  1.
</event>
<event>
 5    1  0.9041167E-005  0.9118800E+02  0.7818608E-02  0.1130116E+00
         25   -1    0    0    0    0  0.00000000000E+00  0.00000000000E+00  0.99999998245E-14  0.12500000000E+03  0.12500000000E+03 0.  0.
        -13    1    3    3    0    0  0.45831977752E+01  0.44529921371E+02  0.11863767374E+02  0.46310687098E+02  0.10566000000E+00 0. -1.
         23    2    1    0    0    0 -0.20822154520E+02  0.16403182100E+01  0.19117587671E+02  0.96685076002E+02  0.92446032908E+02 0.  0.
         13    1    3    3    0    0 -0.25405352295E+02 -0.42889603161E+02  0.72538202973E+01  0.50374388904E+02  0.10566000000E+00 0.  1.
         22    1    1    0    0    0  0.20822154520E+02 -0.16403182100E+01 -0.19117587671E+02  0.28314923998E+02  0.00000000000E+00 0.  1.
</event>
<event>
 5    1  0.9041167E-005  0.9118800E+02  0.7818608E-02  0.1130116E+00
         25   -1    0    0    0    0  0.00000000000E+00  0.00000000000E+00  0.99999998245E-14  0.12500000000E+03  0.12500000000E+03 0.  0.
        -13    1    3    3    0    0  0.16559425192E+02 -0.36146827327E+02  0.69275042199E+01  0.40358507991E+02  0.10566000000E+00 0.  1.
         23    2    1    0    0    0 -0.27934919789E+02 -0.56896834525E+01 -0.61359704855E+01  0.95838683583E+02  0.91294418754E+02 0.  0.
         13    1    3    3    0    0 -0.44494344981E+02  0.30457143874E+02 -0.13063474705E+02  0.55480175592E+02  0.10566000000E+00 0. -1.
         22    1    1    0    0    0  0.27934919789E+02  0.56896834525E+01  0.61359704855E+01  0.29161316417E+02  0.00000000000E+00 0. -1.
</event>
<event>
 5    1  0.9041167E-005  0.9118800E+02  0.7818608E-02  0.1130116E+00
         25   -1    0    0    0    0  0.00000000000E+00  0.00000000000E+00  0.99999998245E-14  0.12500000000E+03  0.12500000000E+03 0.  0.
        -13    1    3    3    0    0 -0.13785748919E+02 -0.29848832472E+02  0.37445491650E+02  0.49831472808E+02  0.10566000000E+00 0.  1.
         23    2    1    0    0    0  0.18995269093E+02 -0.20515779354E+02  0.55834936963E+01  0.96488724121E+02  0.92180155295E+02 0.  0.
         13    1    3    3    0    0  0.32781018012E+02  0.93330531184E+01 -0.31861997954E+02  0.46657251313E+02  0.10566000000E+00 0. -1.
         22    1    1    0    0    0 -0.18995269093E+02  0.20515779354E+02 -0.55834936963E+01  0.28511275879E+02  0.00000000000E+00 0.  1.
</event>
<event>
 5    1  0.9041167E-005  0.9118800E+02  0.7818608E-02  0.1130116E+00
         25   -1    0    0    0    0  0.00000000000E+00  0.00000000000E+00  0.99999998245E-14  0.12500000000E+03  0.12500000000E+03 0.  0.
        -13    1    3    3    0    0 -0.35276315903E+01 -0.18075397674E+01  0.39112231043E+02  0.39312709979E+02  0.10566000000E+00 0.  1.
         23    2    1    0    0    0 -0.21901885143E+02 -0.15988352869E+02 -0.11922820952E+02  0.95377818113E+02  0.90661207405E+02 0.  0.
         13    1    3    3    0    0 -0.18374253553E+02 -0.14180813102E+02 -0.51035051995E+02  0.56065108134E+02  0.10566000000E+00 0. -1.
         22    1    1    0    0    0  0.21901885143E+02  0.15988352869E+02  0.11922820952E+02  0.29622181887E+02  0.00000000000E+00 0. -1.
</event>
<event>
 5    1  0.9041167E-005  0.9118800E+02  0.7818608E-02  0.1130116E+00
         25   -1    0    0    0    0  0.00000000000E+00  0.00000000000E+00  0.99999998245E-14  0.12500000000E+03  0.12500000000E+03 0.  0.
        -13    1    3    3    0    0  0.30805876121E+02  0.14501983238E+02 -0.13024314425E+02  0.36454813834E+02  0.10566000000E+00 0.  1.
         23    2    1    0    0    0 -0.19451987417E+02 -0.15921016176E+02 -0.15870244669E+02  0.95272517153E+02  0.90515906273E+02 0.  0.
         13    1    3    3    0    0 -0.50257863538E+02 -0.30422999414E+02 -0.28459302439E+01  0.58817703319E+02  0.10566000000E+00 0. -1.
         22    1    1    0    0    0  0.19451987417E+02  0.15921016176E+02  0.15870244669E+02  0.29727482847E+02  0.00000000000E+00 0. -1.
</event>
<event>
 5    1  0.9041167E-005  0.9118800E+02  0.7818608E-02  0.1130116E+00
         25   -1    0    0    0    0  0.00000000000E+00  0.00000000000E+00  0.99999998245E-14  0.12500000000E+03  0.12500000000E+03 0.  0.
        -13    1    3    3    0    0 -0.15623407843E+02  0.34765772055E+01  0.38176936591E+02  0.41396462568E+02  0.10566000000E+00 0.  1.
         23    2    1    0    0    0 -0.11793003017E+01  0.24208659772E+02 -0.12281955450E+02  0.97828390058E+02  0.93979239806E+02 0.  0.
         13    1    3    3    0    0  0.14444107541E+02  0.20732082566E+02 -0.50458892041E+02  0.56431927490E+02  0.10566000000E+00 0. -1.
         22    1    1    0    0    0  0.11793003017E+01 -0.24208659772E+02  0.12281955450E+02  0.27171609942E+02  0.00000000000E+00 0. -1.
</event>
<event>
 5    1  0.9041167E-005  0.9118800E+02  0.7818608E-02  0.1130116E+00
         25   -1    0    0    0    0  0.00000000000E+00  0.00000000000E+00  0.99999998245E-14  0.12500000000E+03  0.12500000000E+03 0.  0.
        -13    1    3    3    0    0  0.37784063268E+02  0.50864109982E+01 -0.19567058010E+02  0.42853097170E+02  0.10566000000E+00 0. -1.
         23    2    1    0    0    0  0.12285949036E+02 -0.12419572163E+02  0.23402236599E+02  0.95796318824E+02  0.91236394634E+02 0.  0.
         13    1    3    3    0    0 -0.25498114232E+02 -0.17505983161E+02  0.42969294609E+02  0.52943221654E+02  0.10566000000E+00 0.  1.
         22    1    1    0    0    0 -0.12285949036E+02  0.12419572163E+02 -0.23402236599E+02  0.29203681176E+02  0.00000000000E+00 0. -1.
</event>
<event>
 5    1  0.9041167E-005  0.9118800E+02  0.7818608E-02  0.1130116E+00
         25   -1    0    0    0    0  0.00000000000E+00  0.00000000000E+00  0.99999998245E-14  0.12500000000E+03  0.12500000000E+03 0.  0.
        -13    1    3    3    0    0  0.24357382852E+02  0.11742576607E+02  0.40158103753E+02  0.48413372799E+02  0.10566000000E+00 0. -1.
         23    2    1    0    0    0 -0.18237344605E+02  0.91001649635E+01  0.22616636461E+02  0.94554540808E+02  0.89518909745E+02 0.  0.
         13    1    3    3    0    0 -0.42594727457E+02 -0.26424116433E+01 -0.17541467292E+02  0.46141168009E+02  0.10566000000E+00 0.  1.
         22    1    1    0    0    0  0.18237344605E+02 -0.91001649635E+01 -0.22616636461E+02  0.30445459192E+02  0.00000000000E+00 0. -1.
</event>
<event>
 5    1  0.9041167E-005  0.9118800E+02  0.7818608E-02  0.1130116E+00
         25   -1    0    0    0    0  0.00000000000E+00  0.00000000000E+00  0.99999998245E-14  0.12500000000E+03  0.12500000000E+03 0.  0.
        -13    1    3    3    0    0 -0.48232970840E+02 -0.21206691575E+01  0.11068355641E+02  0.49532175143E+02  0.10566000000E+00 0.  1.
         23    2    1    0    0    0 -0.11359547834E+02 -0.71681606128E+01  0.30613275147E+02  0.91569557753E+02  0.85248984969E+02 0.  0.
         13    1    3    3    0    0  0.36873423006E+02 -0.50474914553E+01  0.19544919507E+02  0.42037382610E+02  0.10566000000E+00 0. -1.
         22    1    1    0    0    0  0.11359547834E+02  0.71681606128E+01 -0.30613275147E+02  0.33430442247E+02  0.00000000000E+00 0.  1.
</event>
<event>
 5    1  0.9041167E-005  0.9118800E+02  0.7818608E-02  0.1130116E+00
         25   -1    0    0    0    0  0.00000000000E+00  0.00000000000E+00  0.99999998245E-14  0.12500000000E+03  0.12500000000E+03 0.  0.
        -13    1    3    3    0    0 -0.16334119940E+02 -0.78374748902E+01 -0.45446960016E+02  0.48925114467E+02  0.10566000000E+00 0.  1.
         23    2    1    0    0    0  0.16233422096E+02  0.13936767296E+02 -0.20492504676E+02  0.95373994135E+02  0.90655934907E+02 0.  0.
         13    1    3    3    0    0  0.32567542036E+02  0.21774242186E+02  0.24954455340E+02  0.46448879668E+02  0.10566000000E+00 0. -1.
         22    1    1    0    0    0 -0.16233422096E+02 -0.13936767296E+02  0.20492504676E+02  0.29626005865E+02  0.00000000000E+00 0. -1.
</event>
<event>
 5    1  0.9041167E-005  0.9118800E+02  0.7818608E-02  0.1130116E+00
         25   -1    0    0    0    0  0.00000000000E+00  0.00000000000E+00  0.99999998245E-14  0.12500000000E+03  0.12500000000E+03 0.  0.
        -13    1    3    3    0    0  0.29423501778E+02  0.29982720093E+02 -0.12528372787E+02  0.43836939330E+02  0.10566000000E+00 0. -1.
         23    2    1    0    0    0  0.10724804000E+02 -0.49162036149E+01  0.24348835061E+02  0.97943462017E+02  0.94132170400E+02 0.  0.
         13    1    3    3    0    0 -0.18698697778E+02 -0.34898923708E+02  0.36877207848E+02  0.54106522687E+02  0.10566000000E+00 0.  1.
         22    1    1    0    0    0 -0.10724804000E+02  0.49162036149E+01 -0.24348835061E+02  0.27056537983E+02  0.00000000000E+00 0.  1.
</event>
<event>
 5    1  0.9041167E-005  0.9118800E+02  0.7818608E-02  0.1130116E+00
         25   -1    0    0    0    0  0.00000000000E+00  0.00000000000E+00  0.99999998245E-14  0.12500000000E+03  0.12500000000E+03 0.  0.
        -13    1    3    3    0    0  0.21061837034E+02 -0.98974763882E+01 -0.26986360464E+02  0.35634755973E+02  0.10566000000E+00 0. -1.
         23    2    1    0    0    0  0.17977985033E+02  0.27222316852E+02  0.12635232690E+02  0.90015552230E+02  0.82939062313E+02 0.  0.
         13    1    3    3    0    0 -0.30838520008E+01  0.37119793241E+02  0.39621593154E+02  0.54380796257E+02  0.10566000000E+00 0.  1.
         22    1    1    0    0    0 -0.17977985033E+02 -0.27222316852E+02 -0.12635232690E+02  0.34984447770E+02  0.00000000000E+00 0.  1.
</event>
<event>
 5    1  0.9041167E-005  0.9118800E+02  0.7818608E-02  0.1130116E+00
         25   -1    0    0    0    0  0.00000000000E+00  0.00000000000E+00  0.99999998245E-14  0.12500000000E+03  0.12500000000E+03 0.  0.
        -13    1    3    3    0    0  0.29773394680E+02  0.18240998433E+02 -0.16437996916E+02  0.38592848576E+02  0.10566000000E+00 0. -1.
         23    2    1    0    0    0  0.55737968197E+01 -0.17359456733E+01  0.29888400156E+02  0.94546803415E+02  0.89508104961E+02 0.  0.
         13    1    3    3    0    0 -0.24199597860E+02 -0.19976944106E+02  0.46326397072E+02  0.55953954839E+02  0.10566000000E+00 0.  1.
         22    1    1    0    0    0 -0.55737968197E+01  0.17359456733E+01 -0.29888400156E+02  0.30453196585E+02  0.00000000000E+00 0.  1.
</event>
<event>
 5    1  0.9041167E-005  0.9118800E+02  0.7818608E-02  0.1130116E+00
         25   -1    0    0    0    0  0.00000000000E+00  0.00000000000E+00  0.99999998245E-14  0.12500000000E+03  0.12500000000E+03 0.  0.
        -13    1    3    3    0    0  0.20330669497E+02 -0.32912921505E+02 -0.11375139619E+02  0.40323708777E+02  0.10566000000E+00 0.  1.
         23    2    1    0    0    0 -0.39051262159E+01  0.20858550914E+02  0.78724709046E+01  0.10236584538E+03  0.99832165889E+02 0.  0.
         13    1    3    3    0    0 -0.24235795713E+02  0.53771472419E+02  0.19247610523E+02  0.62042136608E+02  0.10566000000E+00 0. -1.
         22    1    1    0    0    0  0.39051262159E+01 -0.20858550914E+02 -0.78724709046E+01  0.22634154615E+02  0.00000000000E+00 0. -1.
</event>
<event>
 5    1  0.9041167E-005  0.9118800E+02  0.7818608E-02  0.1130116E+00
         25   -1    0    0    0    0  0.00000000000E+00  0.00000000000E+00  0.99999998245E-14  0.12500000000E+03  0.12500000000E+03 0.  0.
        -13    1    3    3    0    0  0.57945509442E+01  0.33111992367E+02  0.47412917853E+00  0.33618697501E+02  0.10566000000E+00 0.  1.
         23    2    1    0    0    0 -0.13398670065E+02 -0.25506059283E+02 -0.57781522674E+01  0.95615132070E+02  0.90987817962E+02 0.  0.
         13    1    3    3    0    0 -0.19193221009E+02 -0.58618051650E+02 -0.62522814459E+01  0.61996434569E+02  0.10566000000E+00 0. -1.
         22    1    1    0    0    0  0.13398670065E+02  0.25506059283E+02  0.57781522674E+01  0.29384867930E+02  0.00000000000E+00 0. -1.
</event>
<event>
 5    1  0.9041167E-005  0.9118800E+02  0.7818608E-02  0.1130116E+00
         25   -1    0    0    0    0  0.00000000000E+00  0.00000000000E+00  0.99999998245E-14  0.12500000000E+03  0.12500000000E+03 0.  0.
        -13    1    3    3    0    0  0.38921383639E+01 -0.32609442272E+02  0.53152190406E+02  0.62479524448E+02  0.10566000000E+00 0. -1.
         23    2    1    0    0    0  0.74766727768E+00 -0.15592821917E+02  0.24777431328E+02  0.95714914976E+02  0.91124797634E+02 0.  0.
         13    1    3    3    0    0 -0.31444710863E+01  0.17016620355E+02 -0.28374759078E+02  0.33235390527E+02  0.10566000000E+00 0.  1.
         22    1    1    0    0    0 -0.74766727768E+00  0.15592821917E+02 -0.24777431328E+02  0.29285085024E+02  0.00000000000E+00 0. -1.
</event>
<event>
 5    1  0.9041167E-005  0.9118800E+02  0.7818608E-02  0.1130116E+00
         25   -1    0    0    0    0  0.00000000000E+00  0.00000000000E+00  0.99999998245E-14  0.12500000000E+03  0.12500000000E+03 0.  0.
        -13    1    3    3    0    0  0.67783555819E+01  0.22507497791E+02 -0.40807695004E+02  0.47093658775E+02  0.10566000000E+00 0.  1.
         23    2    1    0    0    0  0.29951266432E+02 -0.21155497251E+00 -0.64369988521E+01  0.94364104867E+02  0.89252597816E+02 0.  0.
         13    1    3    3    0    0  0.23172910850E+02 -0.22719052764E+02  0.34370696152E+02  0.47270446092E+02  0.10566000000E+00 0. -1.
         22    1    1    0    0    0 -0.29951266432E+02  0.21155497251E+00  0.64369988521E+01  0.30635895133E+02  0.00000000000E+00 0.  1.
</event>
<event>
 5    1  0.9041167E-005  0.9118800E+02  0.7818608E-02  0.1130116E+00
         25   -1    0    0    0    0  0.00000000000E+00  0.00000000000E+00  0.99999998245E-14  0.12500000000E+03  0.12500000000E+03 0.  0.
        -13    1    3    3    0    0  0.35366574973E+02 -0.32712846327E+02  0.25652567847E+02  0.54580127714E+02  0.10566000000E+00 0.  1.
         23    2    1    0    0    0  0.17417546886E+02  0.33598918217E+01  0.24325518728E+02  0.94893677176E+02  0.89991217872E+02 0.  0.
         13    1    3    3    0    0 -0.17949028087E+02  0.36072738149E+02 -0.13270491188E+01  0.40313549462E+02  0.10566000000E+00 0. -1.
         22    1    1    0    0    0 -0.17417546886E+02 -0.33598918217E+01 -0.24325518728E+02  0.30106322824E+02  0.00000000000E+00 0.  1.
</event>
<event>
 5    1  0.9041167E-005  0.9118800E+02  0.7818608E-02  0.1130116E+00
         25   -1    0    0    0    0  0.00000000000E+00  0.00000000000E+00  0.99999998245E-14  0.12500000000E+03  0.12500000000E+03 0.  0.
        -13    1    3    3    0    0  0.14163015901E+02 -0.43485792521E+02  0.19027337358E+02  0.49534391099E+02  0.10566000000E+00 0.  1.
         23    2    1    0    0    0  0.29987064728E+02 -0.44082976608E+01  0.33869025739E+01  0.94501995995E+02  0.89445508544E+02 0.  0.
         13    1    3    3    0    0  0.15824048827E+02  0.39077494860E+02 -0.15640434784E+02  0.44967604896E+02  0.10566000000E+00 0. -1.
         22    1    1    0    0    0 -0.29987064728E+02  0.44082976608E+01 -0.33869025739E+01  0.30498004005E+02  0.00000000000E+00 0.  1.
</event>
<event>
 5    1  0.9041167E-005  0.9118800E+02  0.7818608E-02  0.1130116E+00
         25   -1    0    0    0    0  0.00000000000E+00  0.00000000000E+00  0.99999998245E-14  0.12500000000E+03  0.12500000000E+03 0.  0.
        -13    1    3    3    0    0  0.61613864633E+01  0.35614412985E+02 -0.15761294795E+02  0.39430681874E+02  0.10566000000E+00 0.  1.
         23    2    1    0    0    0  0.63963190387E+01 -0.20437639880E+02 -0.20071898292E+02  0.95648830992E+02  0.91034102115E+02 0.  0.
         13    1    3    3    0    0  0.23493257550E+00 -0.56052052865E+02 -0.43106034972E+01  0.56218149118E+02  0.10566000000E+00 0. -1.
         22    1    1    0    0    0 -0.63963190387E+01  0.20437639880E+02  0.20071898292E+02  0.29351169008E+02  0.00000000000E+00 0. -1.
</event>
<event>
 5    1  0.9041167E-005  0.9118800E+02  0.7818608E-02  0.1130116E+00
         25   -1    0    0    0    0  0.00000000000E+00  0.00000000000E+00  0.99999998245E-14  0.12500000000E+03  0.12500000000E+03 0.  0.
        -13    1    3    3    0    0  0.27620933972E+02 -0.56094781591E+01  0.10858304142E+02  0.30204240954E+02  0.10566000000E+00 0. -1.
         23    2    1    0    0    0 -0.11518684060E+02  0.35303428592E+02 -0.48873470504E-01  0.87864914953E+02  0.79631832443E+02 0.  0.
         13    1    3    3    0    0 -0.39139618032E+02  0.40912906752E+02 -0.10907177613E+02  0.57660673999E+02  0.10566000000E+00 0.  1.
         22    1    1    0    0    0  0.11518684060E+02 -0.35303428592E+02  0.48873470504E-01  0.37135085047E+02  0.00000000000E+00 0.  1.
</event>
<event>
 5    1  0.9041167E-005  0.9118800E+02  0.7818608E-02  0.1130116E+00
         25   -1    0    0    0    0  0.00000000000E+00  0.00000000000E+00  0.99999998245E-14  0.12500000000E+03  0.12500000000E+03 0.  0.
        -13    1    3    3    0    0 -0.43361536183E+00  0.13807813577E+00  0.44844648585E+02  0.44847081941E+02  0.10566000000E+00 0. -1.
         23    2    1    0    0    0 -0.26519751052E+02 -0.14871452648E+02  0.59628967267E+01  0.94015916391E+02  0.88763613592E+02 0.  0.
         13    1    3    3    0    0 -0.26086135690E+02 -0.15009530783E+02 -0.38881751859E+02  0.49168834450E+02  0.10566000000E+00 0.  1.
         22    1    1    0    0    0  0.26519751052E+02  0.14871452648E+02 -0.59628967267E+01  0.30984083609E+02  0.00000000000E+00 0. -1.
</event>
<event>
 5    1  0.9041167E-005  0.9118800E+02  0.7818608E-02  0.1130116E+00
         25   -1    0    0    0    0  0.00000000000E+00  0.00000000000E+00  0.99999998245E-14  0.12500000000E+03  0.12500000000E+03 0.  0.
        -13    1    3    3    0    0  0.20324362939E+02 -0.19501379252E+02 -0.21099510303E+02  0.35193522425E+02  0.10566000000E+00 0. -1.
         23    2    1    0    0    0  0.71217559434E+00  0.32032324004E+01  0.30199932380E+02  0.94622313985E+02  0.89613495056E+02 0.  0.
         13    1    3    3    0    0 -0.19612187345E+02  0.22704611652E+02  0.51299442683E+02  0.59428791560E+02  0.10566000000E+00 0.  1.
         22    1    1    0    0    0 -0.71217559434E+00 -0.32032324004E+01 -0.30199932380E+02  0.30377686015E+02  0.00000000000E+00 0.  1.
</event>
<event>
 5    1  0.9041167E-005  0.9118800E+02  0.7818608E-02  0.1130116E+00
         25   -1    0    0    0    0  0.00000000000E+00  0.00000000000E+00  0.99999998245E-14  0.12500000000E+03  0.12500000000E+03 0.  0.
        -13    1    3    3    0    0  0.14566575828E+02  0.25497856405E+02  0.23456014971E+02  0.37583528505E+02  0.10566000000E+00 0. -1.
         23    2    1    0    0    0 -0.19292101921E+01 -0.28064574789E+02  0.90281581487E+01  0.95455967614E+02  0.90768892818E+02 0.  0.
         13    1    3    3    0    0 -0.16495786020E+02 -0.53562431194E+02 -0.14427856822E+02  0.57872439108E+02  0.10566000000E+00 0.  1.
         22    1    1    0    0    0  0.19292101921E+01  0.28064574789E+02 -0.90281581487E+01  0.29544032386E+02  0.00000000000E+00 0. -1.
</event>
<event>
 5    1  0.9041167E-005  0.9118800E+02  0.7818608E-02  0.1130116E+00
         25   -1    0    0    0    0  0.00000000000E+00  0.00000000000E+00  0.99999998245E-14  0.12500000000E+03  0.12500000000E+03 0.  0.
        -13    1    3    3    0    0 -0.28793143449E+02 -0.13384816024E+02  0.34782835972E+02  0.47096233946E+02  0.10566000000E+00 0.  1.
         23    2    1    0    0    0 -0.15727293752E+02 -0.22244405897E+02 -0.11072664523E+02  0.95593108595E+02  0.90957556853E+02 0.  0.
         13    1    3    3    0    0  0.13065849697E+02 -0.88595898731E+01 -0.45855500494E+02  0.48496874648E+02  0.10566000000E+00 0. -1.
         22    1    1    0    0    0  0.15727293752E+02  0.22244405897E+02  0.11072664523E+02  0.29406891405E+02  0.00000000000E+00 0. -1.
</event>
<event>
 5    1  0.9041167E-005  0.9118800E+02  0.7818608E-02  0.1130116E+00
         25   -1    0    0    0    0  0.00000000000E+00  0.00000000000E+00  0.99999998245E-14  0.12500000000E+03  0.12500000000E+03 0.  0.
        -13    1    3    3    0    0 -0.15208538976E+02 -0.35006246072E+02  0.13759406346E+02  0.40571780204E+02  0.10566000000E+00 0.  1.
         23    2    1    0    0    0 -0.19573248217E+02  0.20056213076E+02  0.33993585598E+01  0.96770239687E+02  0.92561114523E+02 0.  0.
         13    1    3    3    0    0 -0.43647092410E+01  0.55062459148E+02 -0.10360047787E+02  0.56198459483E+02  0.10566000000E+00 0. -1.
         22    1    1    0    0    0  0.19573248217E+02 -0.20056213076E+02 -0.33993585598E+01  0.28229760313E+02  0.00000000000E+00 0. -1.
</event>
<event>
 5    1  0.9041167E-005  0.9118800E+02  0.7818608E-02  0.1130116E+00
         25   -1    0    0    0    0  0.00000000000E+00  0.00000000000E+00  0.99999998245E-14  0.12500000000E+03  0.12500000000E+03 0.  0.
        -13    1    3    3    0    0 -0.27614095473E+02  0.26886987314E+02  0.98911437347E+00  0.38554349520E+02  0.10566000000E+00 0.  1.
         23    2    1    0    0    0  0.68712242957E+01 -0.83909582106E+01 -0.27441120814E+02  0.95493441161E+02  0.90820483869E+02 0.  0.
         13    1    3    3    0    0  0.34485319769E+02 -0.35277945525E+02 -0.28430235187E+02  0.56939091641E+02  0.10566000000E+00 0. -1.
         22    1    1    0    0    0 -0.68712242957E+01  0.83909582106E+01  0.27441120814E+02  0.29506558839E+02  0.00000000000E+00 0. -1.
</event>
<event>
 5    1  0.9041167E-005  0.9118800E+02  0.7818608E-02  0.1130116E+00
         25   -1    0    0    0    0  0.00000000000E+00  0.00000000000E+00  0.99999998245E-14  0.12500000000E+03  0.12500000000E+03 0.  0.
        -13    1    3    3    0    0  0.40898227552E+02  0.36079507889E+02  0.78916228573E+01  0.55106122906E+02  0.10566000000E+00 0. -1.
         23    2    1    0    0    0  0.28151173581E+02 -0.30282191632E+01  0.30890013136E+01  0.96518416223E+02  0.92220410191E+02 0.  0.
         13    1    3    3    0    0 -0.12747053970E+02 -0.39107727052E+02 -0.48026215437E+01  0.41412293317E+02  0.10566000000E+00 0.  1.
         22    1    1    0    0    0 -0.28151173581E+02  0.30282191632E+01 -0.30890013136E+01  0.28481583777E+02  0.00000000000E+00 0.  1.
</event>
<event>
 5    1  0.9041167E-005  0.9118800E+02  0.7818608E-02  0.1130116E+00
         25   -1    0    0    0    0  0.00000000000E+00  0.00000000000E+00  0.99999998245E-14  0.12500000000E+03  0.12500000000E+03 0.  0.
        -13    1    3    3    0    0 -0.18134988155E+02 -0.54541764836E+02  0.14019519696E+02  0.59162826195E+02  0.10566000000E+00 0. -1.
         23    2    1    0    0    0  0.55905158284E+01 -0.28661033471E+02  0.70936904580E+01  0.94949556557E+02  0.90068802252E+02 0.  0.
         13    1    3    3    0    0  0.23725503983E+02  0.25880731366E+02 -0.69258292380E+01  0.35786730362E+02  0.10566000000E+00 0.  1.
         22    1    1    0    0    0 -0.55905158284E+01  0.28661033471E+02 -0.70936904580E+01  0.30050443443E+02  0.00000000000E+00 0.  1.
</event>
<event>
 5    1  0.9041167E-005  0.9118800E+02  0.7818608E-02  0.1130116E+00
         25   -1    0    0    0    0  0.00000000000E+00  0.00000000000E+00  0.99999998245E-14  0.12500000000E+03  0.12500000000E+03 0.  0.
        -13    1    3    3    0    0 -0.46606669776E+02  0.22930266017E+02 -0.12741216351E+02  0.53482039279E+02  0.10566000000E+00 0.  1.
         23    2    1    0    0    0 -0.13331428944E+02  0.37675085463E+00 -0.25973673256E+02  0.95802386376E+02  0.91244707211E+02 0.  0.
         13    1    3    3    0    0  0.33275240832E+02 -0.22553515163E+02 -0.13232456906E+02  0.42320347097E+02  0.10566000000E+00 0. -1.
         22    1    1    0    0    0  0.13331428944E+02 -0.37675085463E+00  0.25973673256E+02  0.29197613624E+02  0.00000000000E+00 0.  1.
</event>
<event>
 5    1  0.9041167E-005  0.9118800E+02  0.7818608E-02  0.1130116E+00
         25   -1    0    0    0    0  0.00000000000E+00  0.00000000000E+00  0.99999998245E-14  0.12500000000E+03  0.12500000000E+03 0.  0.
        -13    1    3    3    0    0 -0.75204527588E+01 -0.18165463812E+02  0.24062682125E+02  0.31073543735E+02  0.10566000000E+00 0.  1.
         23    2    1    0    0    0 -0.25325133376E+02 -0.43663288687E+02 -0.58034090885E+01  0.74191292907E+02  0.54063141110E+02 0.  0.
         13    1    3    3    0    0 -0.17804680617E+02 -0.25497824875E+02 -0.29866091213E+02  0.43117749171E+02  0.10566000000E+00 0. -1.
         22    1    1    0    0    0  0.25325133376E+02  0.43663288687E+02  0.58034090885E+01  0.50808707093E+02  0.00000000000E+00 0. -1.
</event>
<event>
 5    1  0.9041167E-005  0.9118800E+02  0.7818608E-02  0.1130116E+00
         25   -1    0    0    0    0  0.00000000000E+00  0.00000000000E+00  0.99999998245E-14  0.12500000000E+03  0.12500000000E+03 0.  0.
        -13    1    3    3    0    0 -0.35838266362E+02  0.28636297348E+02 -0.32866389561E+02  0.56432522436E+02  0.10566000000E+00 0.  1.
         23    2    1    0    0    0  0.21131135237E+00  0.15606381892E+02 -0.24944769605E+02  0.95574749978E+02  0.90932323705E+02 0.  0.
         13    1    3    3    0    0  0.36049577714E+02 -0.13029915456E+02  0.79216199563E+01  0.39142227542E+02  0.10566000000E+00 0. -1.
         22    1    1    0    0    0 -0.21131135237E+00 -0.15606381892E+02  0.24944769605E+02  0.29425250022E+02  0.00000000000E+00 0.  1.
</event>
<event>
 5    1  0.9041167E-005  0.9118800E+02  0.7818608E-02  0.1130116E+00
         25   -1    0    0    0    0  0.00000000000E+00  0.00000000000E+00  0.99999998245E-14  0.12500000000E+03  0.12500000000E+03 0.  0.
        -13    1    3    3    0    0 -0.86634493437E+01  0.18092174260E+02  0.19962251731E+02  0.28299907812E+02  0.10566000000E+00 0.  1.
         23    2    1    0    0    0  0.14544075642E+02 -0.25016904858E+02 -0.18581345760E+02  0.90610436537E+02  0.83830836416E+02 0.  0.
         13    1    3    3    0    0  0.23207524986E+02 -0.43109079118E+02 -0.38543597491E+02  0.62310528724E+02  0.10566000000E+00 0. -1.
         22    1    1    0    0    0 -0.14544075642E+02  0.25016904858E+02  0.18581345760E+02  0.34389563463E+02  0.00000000000E+00 0. -1.
</event>
<event>
 5    1  0.9041167E-005  0.9118800E+02  0.7818608E-02  0.1130116E+00
         25   -1    0    0    0    0  0.00000000000E+00  0.00000000000E+00  0.99999998245E-14  0.12500000000E+03  0.12500000000E+03 0.  0.
        -13    1    3    3    0    0 -0.35555076613E+02 -0.29080674307E+02 -0.27604618269E+02  0.53589879687E+02  0.10566000000E+00 0.  1.
         23    2    1    0    0    0 -0.22304451032E+02 -0.12515781616E+02  0.10620498484E+02  0.97306529410E+02  0.93282540448E+02 0.  0.
         13    1    3    3    0    0  0.13250625581E+02  0.16564892691E+02  0.38225116753E+02  0.43716649722E+02  0.10566000000E+00 0. -1.
         22    1    1    0    0    0  0.22304451032E+02  0.12515781616E+02 -0.10620498484E+02  0.27693470590E+02  0.00000000000E+00 0.  1.
</event>
<event>
 5    1  0.9041167E-005  0.9118800E+02  0.7818608E-02  0.1130116E+00
         25   -1    0    0    0    0  0.00000000000E+00  0.00000000000E+00  0.99999998245E-14  0.12500000000E+03  0.12500000000E+03 0.  0.
        -13    1    3    3    0    0  0.28614533567E+02 -0.15170036987E+02  0.27026641439E+02  0.42182603819E+02  0.10566000000E+00 0.  1.
         23    2    1    0    0    0  0.21403882060E+02  0.16860217149E+02 -0.13706188891E+02  0.94499955681E+02  0.89442657162E+02 0.  0.
         13    1    3    3    0    0 -0.72106515066E+01  0.32030254136E+02 -0.40732830329E+02  0.52317351862E+02  0.10566000000E+00 0. -1.
         22    1    1    0    0    0 -0.21403882060E+02 -0.16860217149E+02  0.13706188891E+02  0.30500044319E+02  0.00000000000E+00 0. -1.
</event>
<event>
 5    1  0.9041167E-005  0.9118800E+02  0.7818608E-02  0.1130116E+00
         25   -1    0    0    0    0  0.00000000000E+00  0.00000000000E+00  0.99999998245E-14  0.12500000000E+03  0.12500000000E+03 0.  0.
        -13    1    3    3    0    0 -0.59884489838E+01 -0.17866397856E+02 -0.30808342686E+02  0.36114191624E+02  0.10566000000E+00 0. -1.
         23    2    1    0    0    0 -0.25677158949E+02  0.10573343655E+02  0.14939894422E+02  0.93467278375E+02  0.87987610456E+02 0.  0.
         13    1    3    3    0    0 -0.19688709965E+02  0.28439741510E+02  0.45748237109E+02  0.57353086751E+02  0.10566000000E+00 0.  1.
         22    1    1    0    0    0  0.25677158949E+02 -0.10573343655E+02 -0.14939894422E+02  0.31532721625E+02  0.00000000000E+00 0.  1.
</event>
<event>
 5    1  0.9041167E-005  0.9118800E+02  0.7818608E-02  0.1130116E+00
         25   -1    0    0    0    0  0.00000000000E+00  0.00000000000E+00  0.99999998245E-14  0.12500000000E+03  0.12500000000E+03 0.  0.
        -13    1    3    3    0    0 -0.27554590727E+02 -0.14696677961E+02 -0.17554292041E+02  0.35824742097E+02  0.10566000000E+00 0.  1.
         23    2    1    0    0    0  0.27515731794E+02 -0.16838027789E+02 -0.48972060500E+01  0.92371526191E+02  0.86416905452E+02 0.  0.
         13    1    3    3    0    0  0.55070322521E+02 -0.21413498280E+01  0.12657085991E+02  0.56546784095E+02  0.10566000000E+00 0. -1.
         22    1    1    0    0    0 -0.27515731794E+02  0.16838027789E+02  0.48972060500E+01  0.32628473809E+02  0.00000000000E+00 0.  1.
</event>
<event>
 5    1  0.9041167E-005  0.9118800E+02  0.7818608E-02  0.1130116E+00
         25   -1    0    0    0    0  0.00000000000E+00  0.00000000000E+00  0.99999998245E-14  0.12500000000E+03  0.12500000000E+03 0.  0.
        -13    1    3    3    0    0 -0.37786311127E+02 -0.15556333894E+02  0.19735040732E+02  0.45379376698E+02  0.10566000000E+00 0.  1.
         23    2    1    0    0    0  0.95546784829E+01 -0.24937498543E+02 -0.18135882717E+01  0.98233232976E+02  0.94516179800E+02 0.  0.
         13    1    3    3    0    0  0.47340989610E+02 -0.93811646495E+01 -0.21548629004E+02  0.52853856278E+02  0.10566000000E+00 0. -1.
         22    1    1    0    0    0 -0.95546784829E+01  0.24937498543E+02  0.18135882717E+01  0.26766767024E+02  0.00000000000E+00 0. -1.
</event>
<event>
 5    1  0.9041167E-005  0.9118800E+02  0.7818608E-02  0.1130116E+00
         25   -1    0    0    0    0  0.00000000000E+00  0.00000000000E+00  0.99999998245E-14  0.12500000000E+03  0.12500000000E+03 0.  0.
        -13    1    3    3    0    0 -0.42486392043E+02  0.22155017928E+01 -0.85075535763E+01  0.43386536955E+02  0.10566000000E+00 0.  1.
         23    2    1    0    0    0 -0.69364516204E+00 -0.28964608147E+02 -0.16222080141E+01  0.95981708742E+02  0.91490038722E+02 0.  0.
         13    1    3    3    0    0  0.41792746881E+02 -0.31180109940E+02  0.68853455622E+01  0.52595171787E+02  0.10566000000E+00 0. -1.
         22    1    1    0    0    0  0.69364516204E+00  0.28964608147E+02  0.16222080141E+01  0.29018291258E+02  0.00000000000E+00 0. -1.
</event>
<event>
 5    1  0.9041167E-005  0.9118800E+02  0.7818608E-02  0.1130116E+00
         25   -1    0    0    0    0  0.00000000000E+00  0.00000000000E+00  0.99999998245E-14  0.12500000000E+03  0.12500000000E+03 0.  0.
        -13    1    3    3    0    0 -0.21599739943E+02 -0.12628820764E+02  0.57009101132E+02  0.62258209542E+02  0.10566000000E+00 0.  1.
         23    2    1    0    0    0 -0.63267184675E+01 -0.78729164273E+01  0.24839795405E+02  0.98185347002E+02  0.94452828177E+02 0.  0.
         13    1    3    3    0    0  0.15273021476E+02  0.47559043371E+01 -0.32169305727E+02  0.35927137460E+02  0.10566000000E+00 0. -1.
         22    1    1    0    0    0  0.63267184675E+01  0.78729164273E+01 -0.24839795405E+02  0.26814652998E+02  0.00000000000E+00 0.  1.
</event>
<event>
 5    1  0.9041167E-005  0.9118800E+02  0.7818608E-02  0.1130116E+00
         25   -1    0    0    0    0  0.00000000000E+00  0.00000000000E+00  0.99999998245E-14  0.12500000000E+03  0.12500000000E+03 0.  0.
        -13    1    3    3    0    0 -0.37906192961E+02 -0.41844654507E+02  0.20056091792E+02  0.59917547994E+02  0.10566000000E+00 0.  1.
         23    2    1    0    0    0 -0.70108312473E+01 -0.25882304364E+02  0.12045823867E+02  0.95603617457E+02  0.90971997693E+02 0.  0.
         13    1    3    3    0    0  0.30895361713E+02  0.15962350143E+02 -0.80102679249E+01  0.35686069463E+02  0.10566000000E+00 0. -1.
         22    1    1    0    0    0  0.70108312473E+01  0.25882304364E+02 -0.12045823867E+02  0.29396382543E+02  0.00000000000E+00 0.  1.
</event>
<event>
 5    1  0.9041167E-005  0.9118800E+02  0.7818608E-02  0.1130116E+00
         25   -1    0    0    0    0  0.00000000000E+00  0.00000000000E+00  0.99999998245E-14  0.12500000000E+03  0.12500000000E+03 0.  0.
        -13    1    3    3    0    0 -0.30121607889E+02  0.39760084075E+02  0.15912829930E+02  0.52358426904E+02  0.10566000000E+00 0.  1.
         23    2    1    0    0    0  0.50659456677E+00  0.10934704401E+02  0.27009061594E+02  0.95857011022E+02  0.91319509172E+02 0.  0.
         13    1    3    3    0    0  0.30628202456E+02 -0.28825379674E+02  0.11096231664E+02  0.43498584118E+02  0.10566000000E+00 0. -1.
         22    1    1    0    0    0 -0.50659456677E+00 -0.10934704401E+02 -0.27009061594E+02  0.29142988978E+02  0.00000000000E+00 0.  1.
</event>
<event>
 5    1  0.9041167E-005  0.9118800E+02  0.7818608E-02  0.1130116E+00
         25   -1    0    0    0    0  0.00000000000E+00  0.00000000000E+00  0.99999998245E-14  0.12500000000E+03  0.12500000000E+03 0.  0.
        -13    1    3    3    0    0 -0.45656268779E+01 -0.29627946304E+02  0.30570774637E+02  0.42816393787E+02  0.10566000000E+00 0. -1.
         23    2    1    0    0    0 -0.17458795031E+02 -0.18984333754E+02 -0.17579624938E+02  0.93786899145E+02  0.88440515524E+02 0.  0.
         13    1    3    3    0    0 -0.12893168153E+02  0.10643612550E+02 -0.48150399575E+02  0.50970505358E+02  0.10566000000E+00 0.  1.
         22    1    1    0    0    0  0.17458795031E+02  0.18984333754E+02  0.17579624938E+02  0.31213100855E+02  0.00000000000E+00 0.  1.
</event>
<event>
 5    1  0.9041167E-005  0.9118800E+02  0.7818608E-02  0.1130116E+00
         25   -1    0    0    0    0  0.00000000000E+00  0.00000000000E+00  0.99999998245E-14  0.12500000000E+03  0.12500000000E+03 0.  0.
        -13    1    3    3    0    0 -0.10543685345E+02  0.34791929263E+02  0.23402374505E+02  0.43235748392E+02  0.10566000000E+00 0.  1.
         23    2    1    0    0    0 -0.31534414827E+02  0.77220657200E+01 -0.99477749316E+01  0.91044030812E+02  0.84474893921E+02 0.  0.
         13    1    3    3    0    0 -0.20990729482E+02 -0.27069863543E+02 -0.33350149437E+02  0.47808282420E+02  0.10566000000E+00 0. -1.
         22    1    1    0    0    0  0.31534414827E+02 -0.77220657200E+01  0.99477749316E+01  0.33955969188E+02  0.00000000000E+00 0. -1.
</event>
<event>
 5    1  0.9041167E-005  0.9118800E+02  0.7818608E-02  0.1130116E+00
         25   -1    0    0    0    0  0.00000000000E+00  0.00000000000E+00  0.99999998245E-14  0.12500000000E+03  0.12500000000E+03 0.  0.
        -13    1    3    3    0    0  0.48126073171E+02 -0.32447817400E+02 -0.40691531071E+01  0.58185470213E+02  0.10566000000E+00 0.  1.
         23    2    1    0    0    0  0.38778754202E+02 -0.18674520341E+02 -0.16441242945E+02  0.78925669218E+02  0.64081333512E+02 0.  0.
         13    1    3    3    0    0 -0.93473189692E+01  0.13773297059E+02 -0.12372089838E+02  0.20740199005E+02  0.10566000000E+00 0. -1.
         22    1    1    0    0    0 -0.38778754202E+02  0.18674520341E+02  0.16441242945E+02  0.46074330782E+02  0.00000000000E+00 0.  1.
</event>
<event>
 5    1  0.9041167E-005  0.9118800E+02  0.7818608E-02  0.1130116E+00
         25   -1    0    0    0    0  0.00000000000E+00  0.00000000000E+00  0.99999998245E-14  0.12500000000E+03  0.12500000000E+03 0.  0.
        -13    1    3    3    0    0 -0.23242225912E+02 -0.36788308890E+02 -0.21665912590E+02  0.48610736147E+02  0.10566000000E+00 0.  1.
         23    2    1    0    0    0  0.18420183550E+02 -0.20121081116E+02 -0.14672301597E+02  0.94025211842E+02  0.88776702802E+02 0.  0.
         13    1    3    3    0    0  0.41662409462E+02  0.16667227774E+02  0.69936109928E+01  0.45414475695E+02  0.10566000000E+00 0. -1.
         22    1    1    0    0    0 -0.18420183550E+02  0.20121081116E+02  0.14672301597E+02  0.30974788158E+02  0.00000000000E+00 0. -1.
</event>
<event>
 5    1  0.9041167E-005  0.9118800E+02  0.7818608E-02  0.1130116E+00
         25   -1    0    0    0    0  0.00000000000E+00  0.00000000000E+00  0.99999998245E-14  0.12500000000E+03  0.12500000000E+03 0.  0.
        -13    1    3    3    0    0 -0.56993233347E+02  0.11337703712E+02  0.25885711616E+01  0.58167723331E+02  0.10566000000E+00 0. -1.
         23    2    1    0    0    0 -0.25462525022E+02 -0.19445575685E+01  0.15942229378E+02  0.94895579027E+02  0.89993859550E+02 0.  0.
         13    1    3    3    0    0  0.31530708325E+02 -0.13282261281E+02  0.13353658216E+02  0.36727855696E+02  0.10566000000E+00 0.  1.
         22    1    1    0    0    0  0.25462525022E+02  0.19445575685E+01 -0.15942229378E+02  0.30104420973E+02  0.00000000000E+00 0. -1.
</event>
<event>
 5    1  0.9041167E-005  0.9118800E+02  0.7818608E-02  0.1130116E+00
         25   -1    0    0    0    0  0.00000000000E+00  0.00000000000E+00  0.99999998245E-14  0.12500000000E+03  0.12500000000E+03 0.  0.
        -13    1    3    3    0    0  0.35049036787E+02 -0.17582774936E+02 -0.15083483293E+02  0.42013231088E+02  0.10566000000E+00 0.  1.
         23    2    1    0    0    0  0.13908149565E+02  0.19175966925E+02  0.17547827620E+02  0.95519827239E+02  0.90856792865E+02 0.  0.
         13    1    3    3    0    0 -0.21140887221E+02  0.36758741861E+02  0.32631310913E+02  0.53506596151E+02  0.10566000000E+00 0. -1.
         22    1    1    0    0    0 -0.13908149565E+02 -0.19175966925E+02 -0.17547827620E+02  0.29480172761E+02  0.00000000000E+00 0. -1.
</event>
<event>
 5    1  0.9041167E-005  0.9118800E+02  0.7818608E-02  0.1130116E+00
         25   -1    0    0    0    0  0.00000000000E+00  0.00000000000E+00  0.99999998245E-14  0.12500000000E+03  0.12500000000E+03 0.  0.
        -13    1    3    3    0    0  0.16116105885E+02 -0.50222752041E+02 -0.29144978227E+02  0.60261883570E+02  0.10566000000E+00 0. -1.
         23    2    1    0    0    0 -0.36419088800E+01 -0.26348000801E+02 -0.10670519693E+02  0.96340958895E+02  0.91979561446E+02 0.  0.
         13    1    3    3    0    0 -0.19758014765E+02  0.23874751239E+02  0.18474458534E+02  0.36079075326E+02  0.10566000000E+00 0.  1.
         22    1    1    0    0    0  0.36419088800E+01  0.26348000801E+02  0.10670519693E+02  0.28659041105E+02  0.00000000000E+00 0. -1.
</event>
<event>
 5    1  0.9041167E-005  0.9118800E+02  0.7818608E-02  0.1130116E+00
         25   -1    0    0    0    0  0.00000000000E+00  0.00000000000E+00  0.99999998245E-14  0.12500000000E+03  0.12500000000E+03 0.  0.
        -13    1    3    3    0    0 -0.39482749529E+02  0.16233674129E+02  0.11128619858E+01  0.42704441361E+02  0.10566000000E+00 0.  1.
         23    2    1    0    0    0 -0.12928029429E+02 -0.27917515025E+02  0.57820015165E+00  0.94228976203E+02  0.89063146423E+02 0.  0.
         13    1    3    3    0    0  0.26554720100E+02 -0.44151189155E+02 -0.53466183419E+00  0.51524534842E+02  0.10566000000E+00 0. -1.
         22    1    1    0    0    0  0.12928029429E+02  0.27917515025E+02 -0.57820015165E+00  0.30771023797E+02  0.00000000000E+00 0. -1.
</event>
<event>
 5    1  0.9041167E-005  0.9118800E+02  0.7818608E-02  0.1130116E+00
         25   -1    0    0    0    0  0.00000000000E+00  0.00000000000E+00  0.99999998245E-14  0.12500000000E+03  0.12500000000E+03 0.  0.
        -13    1    3    3    0    0  0.14332423320E+02 -0.55673391621E+02  0.36920696155E+01  0.57607182147E+02  0.10566000000E+00 0. -1.
         23    2    1    0    0    0  0.13072400182E+02 -0.28047593155E+02  0.18469835440E+02  0.88962658956E+02  0.81336736713E+02 0.  0.
         13    1    3    3    0    0 -0.12600231378E+01  0.27625798466E+02  0.14777765824E+02  0.31355476810E+02  0.10566000000E+00 0.  1.
         22    1    1    0    0    0 -0.13072400182E+02  0.28047593155E+02 -0.18469835440E+02  0.36037341044E+02  0.00000000000E+00 0. -1.
</event>
<event>
 5    1  0.9041167E-005  0.9118800E+02  0.7818608E-02  0.1130116E+00
         25   -1    0    0    0    0  0.00000000000E+00  0.00000000000E+00  0.99999998245E-14  0.12500000000E+03  0.12500000000E+03 0.  0.
        -13    1    3    3    0    0 -0.26173572384E+01 -0.83243378276E+01  0.43482576269E+02  0.44349642188E+02  0.10566000000E+00 0. -1.
         23    2    1    0    0    0  0.19208508796E+01  0.28480332875E+02  0.87872902373E+01  0.95133036671E+02  0.90323082143E+02 0.  0.
         13    1    3    3    0    0  0.45382081180E+01  0.36804670703E+02 -0.34695286031E+02  0.50783394484E+02  0.10566000000E+00 0.  1.
         22    1    1    0    0    0 -0.19208508796E+01 -0.28480332875E+02 -0.87872902373E+01  0.29866963329E+02  0.00000000000E+00 0.  1.
</event>
<event>
 5    1  0.9041167E-005  0.9118800E+02  0.7818608E-02  0.1130116E+00
         25   -1    0    0    0    0  0.00000000000E+00  0.00000000000E+00  0.99999998245E-14  0.12500000000E+03  0.12500000000E+03 0.  0.
        -13    1    3    3    0    0  0.50099155077E+02  0.11832488392E+02  0.23601416842E+02  0.56630125922E+02  0.10566000000E+00 0.  1.
         23    2    1    0    0    0  0.28473778100E+02  0.11721338754E+01 -0.70648000246E+01  0.95639459533E+02  0.91021233145E+02 0.  0.
         13    1    3    3    0    0 -0.21625376977E+02 -0.10660354517E+02 -0.30666216867E+02  0.39009333611E+02  0.10566000000E+00 0. -1.
         22    1    1    0    0    0 -0.28473778100E+02 -0.11721338754E+01  0.70648000246E+01  0.29360540467E+02  0.00000000000E+00 0.  1.
</event>
<event>
 5    1  0.9041167E-005  0.9118800E+02  0.7818608E-02  0.1130116E+00
         25   -1    0    0    0    0  0.00000000000E+00  0.00000000000E+00  0.99999998245E-14  0.12500000000E+03  0.12500000000E+03 0.  0.
        -13    1    3    3    0    0  0.28858816315E+02 -0.28775745655E+02  0.29655138858E+02  0.50401520233E+02  0.10566000000E+00 0. -1.
         23    2    1    0    0    0  0.52250564124E+01  0.10559703244E+02  0.26022629617E+02  0.96434534849E+02  0.92106643149E+02 0.  0.
         13    1    3    3    0    0 -0.23633759903E+02  0.39335448899E+02 -0.36325092414E+01  0.46033014616E+02  0.10566000000E+00 0.  1.
         22    1    1    0    0    0 -0.52250564124E+01 -0.10559703244E+02 -0.26022629617E+02  0.28565465151E+02  0.00000000000E+00 0. -1.
</event>
<event>
 5    1  0.9041167E-005  0.9118800E+02  0.7818608E-02  0.1130116E+00
         25   -1    0    0    0    0  0.00000000000E+00  0.00000000000E+00  0.99999998245E-14  0.12500000000E+03  0.12500000000E+03 0.  0.
        -13    1    3    3    0    0 -0.17739157334E+02 -0.19053463374E+01 -0.31182104753E+02  0.35925518346E+02  0.10566000000E+00 0.  1.
         23    2    1    0    0    0 -0.31411068519E+01 -0.20692143193E+02  0.22273245939E+02  0.94436478821E+02  0.89353901455E+02 0.  0.
         13    1    3    3    0    0  0.14598050483E+02 -0.18786796856E+02  0.53455350692E+02  0.58510960475E+02  0.10566000000E+00 0. -1.
         22    1    1    0    0    0  0.31411068519E+01  0.20692143193E+02 -0.22273245939E+02  0.30563521179E+02  0.00000000000E+00 0. -1.
</event>
<event>
 5    1  0.9041167E-005  0.9118800E+02  0.7818608E-02  0.1130116E+00
         25   -1    0    0    0    0  0.00000000000E+00  0.00000000000E+00  0.99999998245E-14  0.12500000000E+03  0.12500000000E+03 0.  0.
        -13    1    3    3    0    0 -0.19112057706E+02 -0.50714512994E+02 -0.22554463874E+02  0.58702194019E+02  0.10566000000E+00 0.  1.
         23    2    1    0    0    0  0.64176401099E+01 -0.26107045057E+02 -0.95807193855E+01  0.96459605992E+02  0.92140661480E+02 0.  0.
         13    1    3    3    0    0  0.25529697816E+02  0.24607467937E+02  0.12973744488E+02  0.37757411973E+02  0.10566000000E+00 0. -1.
         22    1    1    0    0    0 -0.64176401099E+01  0.26107045057E+02  0.95807193855E+01  0.28540394008E+02  0.00000000000E+00 0.  1.
</event>
<event>
 5    1  0.9041167E-005  0.9118800E+02  0.7818608E-02  0.1130116E+00
         25   -1    0    0    0    0  0.00000000000E+00  0.00000000000E+00  0.99999998245E-14  0.12500000000E+03  0.12500000000E+03 0.  0.
        -13    1    3    3    0    0 -0.41513317165E+02 -0.40913331119E+02  0.12034522606E+02  0.59515519519E+02  0.10566000000E+00 0.  1.
         23    2    1    0    0    0 -0.17167715217E+02 -0.23424828500E+02 -0.71313742584E+01  0.95094991475E+02  0.90270415247E+02 0.  0.
         13    1    3    3    0    0  0.24345601948E+02  0.17488502619E+02 -0.19165896864E+02  0.35579471956E+02  0.10566000000E+00 0. -1.
         22    1    1    0    0    0  0.17167715217E+02  0.23424828500E+02  0.71313742584E+01  0.29905008525E+02  0.00000000000E+00 0.  1.
</event>
<event>
 5    1  0.9041167E-005  0.9118800E+02  0.7818608E-02  0.1130116E+00
         25   -1    0    0    0    0  0.00000000000E+00  0.00000000000E+00  0.99999998245E-14  0.12500000000E+03  0.12500000000E+03 0.  0.
        -13    1    3    3    0    0  0.17833525884E+02 -0.49398511000E+02  0.31228399685E+02  0.61102141086E+02  0.10566000000E+00 0. -1.
         23    2    1    0    0    0  0.14637147947E+02 -0.18218711229E+02  0.19482397527E+02  0.94574166367E+02  0.89546309761E+02 0.  0.
         13    1    3    3    0    0 -0.31963779372E+01  0.31179799771E+02 -0.11746002158E+02  0.33472025281E+02  0.10566000000E+00 0.  1.
         22    1    1    0    0    0 -0.14637147947E+02  0.18218711229E+02 -0.19482397527E+02  0.30425833633E+02  0.00000000000E+00 0. -1.
</event>
<event>
 5    1  0.9041167E-005  0.9118800E+02  0.7818608E-02  0.1130116E+00
         25   -1    0    0    0    0  0.00000000000E+00  0.00000000000E+00  0.99999998245E-14  0.12500000000E+03  0.12500000000E+03 0.  0.
        -13    1    3    3    0    0  0.66087184275E+01  0.22363882911E+02 -0.18724407608E+02  0.29907073117E+02  0.10566000000E+00 0.  1.
         23    2    1    0    0    0 -0.34943720746E+02 -0.55588298389E+01  0.10772280972E+02  0.88013431545E+02  0.79864622245E+02 0.  0.
         13    1    3    3    0    0 -0.41552439173E+02 -0.27922712750E+02  0.29496688580E+02  0.58106358428E+02  0.10566000000E+00 0. -1.
         22    1    1    0    0    0  0.34943720746E+02  0.55588298389E+01 -0.10772280972E+02  0.36986568455E+02  0.00000000000E+00 0. -1.
</event>
<event>
 5    1  0.9041167E-005  0.9118800E+02  0.7818608E-02  0.1130116E+00
         25   -1    0    0    0    0  0.00000000000E+00  0.00000000000E+00  0.99999998245E-14  0.12500000000E+03  0.12500000000E+03 0.  0.
        -13    1    3    3    0    0 -0.26805008465E+01 -0.97911979181E+01  0.54546945039E+02  0.55483628383E+02  0.10566000000E+00 0.  1.
         23    2    1    0    0    0 -0.20431648990E+02  0.24500002980E+01  0.19393661088E+02  0.96723351112E+02  0.92497771746E+02 0.  0.
         13    1    3    3    0    0 -0.17751148144E+02  0.12241198216E+02 -0.35153283951E+02  0.41239722729E+02  0.10566000000E+00 0. -1.
         22    1    1    0    0    0  0.20431648990E+02 -0.24500002980E+01 -0.19393661088E+02  0.28276648888E+02  0.00000000000E+00 0.  1.
</event>
<event>
 5    1  0.9041167E-005  0.9118800E+02  0.7818608E-02  0.1130116E+00
         25   -1    0    0    0    0  0.00000000000E+00  0.00000000000E+00  0.99999998245E-14  0.12500000000E+03  0.12500000000E+03 0.  0.
        -13    1    3    3    0    0  0.32672348876E+00 -0.13808280358E+01  0.34556438449E+02  0.34585720125E+02  0.10566000000E+00 0. -1.
         23    2    1    0    0    0  0.10122931318E+02 -0.16789401344E+02 -0.22888614962E+02  0.94862872883E+02  0.89948419779E+02 0.  0.
         13    1    3    3    0    0  0.97962078296E+01 -0.15408573309E+02 -0.57445053410E+02  0.60277152758E+02  0.10566000000E+00 0.  1.
         22    1    1    0    0    0 -0.10122931318E+02  0.16789401344E+02  0.22888614962E+02  0.30137127117E+02  0.00000000000E+00 0.  1.
</event>
<event>
 5    1  0.9041167E-005  0.9118800E+02  0.7818608E-02  0.1130116E+00
         25   -1    0    0    0    0  0.00000000000E+00  0.00000000000E+00  0.99999998245E-14  0.12500000000E+03  0.12500000000E+03 0.  0.
        -13    1    3    3    0    0 -0.16220212106E+02  0.41529785138E+02 -0.32054619236E+02  0.54912003358E+02  0.10566000000E+00 0. -1.
         23    2    1    0    0    0 -0.22619688660E+02  0.39545390751E+01 -0.18980171220E+02  0.95208464392E+02  0.90427407891E+02 0.  0.
         13    1    3    3    0    0 -0.63994765547E+01 -0.37575246063E+02  0.13074448016E+02  0.40296461034E+02  0.10566000000E+00 0.  1.
         22    1    1    0    0    0  0.22619688660E+02 -0.39545390751E+01  0.18980171220E+02  0.29791535608E+02  0.00000000000E+00 0. -1.
</event>
<event>
 5    1  0.9041167E-005  0.9118800E+02  0.7818608E-02  0.1130116E+00
         25   -1    0    0    0    0  0.00000000000E+00  0.00000000000E+00  0.99999998245E-14  0.12500000000E+03  0.12500000000E+03 0.  0.
        -13    1    3    3    0    0 -0.11263261140E+02 -0.55525737000E+02  0.16525158088E+02  0.59017459576E+02  0.10566000000E+00 0.  1.
         23    2    1    0    0    0 -0.16067715544E+02 -0.18917984381E+02  0.15058978201E+02  0.95968388947E+02  0.91471838491E+02 0.  0.
         13    1    3    3    0    0 -0.48044544044E+01  0.36607752619E+02 -0.14661798870E+01  0.36950929372E+02  0.10566000000E+00 0. -1.
         22    1    1    0    0    0  0.16067715544E+02  0.18917984381E+02 -0.15058978201E+02  0.29031611053E+02  0.00000000000E+00 0.  1.
</event>
<event>
 5    1  0.9041167E-005  0.9118800E+02  0.7818608E-02  0.1130116E+00
         25   -1    0    0    0    0  0.00000000000E+00  0.00000000000E+00  0.99999998245E-14  0.12500000000E+03  0.12500000000E+03 0.  0.
        -13    1    3    3    0    0  0.36858691704E+02 -0.98565749299E+01 -0.19334367007E+02  0.42773170739E+02  0.10566000000E+00 0.  1.
         23    2    1    0    0    0 -0.13053435751E+02 -0.24606470212E+02 -0.76383061688E+01  0.96117232087E+02  0.91675013072E+02 0.  0.
         13    1    3    3    0    0 -0.49912127455E+02 -0.14749895282E+02  0.11696060838E+02  0.53344061348E+02  0.10566000000E+00 0. -1.
         22    1    1    0    0    0  0.13053435751E+02  0.24606470212E+02  0.76383061688E+01  0.28882767913E+02  0.00000000000E+00 0. -1.
</event>
<event>
 5    1  0.9041167E-005  0.9118800E+02  0.7818608E-02  0.1130116E+00
         25   -1    0    0    0    0  0.00000000000E+00  0.00000000000E+00  0.99999998245E-14  0.12500000000E+03  0.12500000000E+03 0.  0.
        -13    1    3    3    0    0  0.47917622676E+01 -0.37581140020E+02  0.19743840781E+02  0.42721581006E+02  0.10566000000E+00 0. -1.
         23    2    1    0    0    0 -0.55039806875E+01 -0.41451082669E+02 -0.16082881167E+02  0.80198826751E+02  0.66518468772E+02 0.  0.
         13    1    3    3    0    0 -0.10295742955E+02 -0.38699426491E+01 -0.35826721948E+02  0.37477245745E+02  0.10566000000E+00 0.  1.
         22    1    1    0    0    0  0.55039806875E+01  0.41451082669E+02  0.16082881167E+02  0.44801173249E+02  0.00000000000E+00 0. -1.
</event>
<event>
 5    1  0.9041167E-005  0.9118800E+02  0.7818608E-02  0.1130116E+00
         25   -1    0    0    0    0  0.00000000000E+00  0.00000000000E+00  0.99999998245E-14  0.12500000000E+03  0.12500000000E+03 0.  0.
        -13    1    3    3    0    0 -0.33019677875E+02  0.23650944690E+02  0.24442371305E+02  0.47403660098E+02  0.10566000000E+00 0.  1.
         23    2    1    0    0    0 -0.17731801054E+02  0.13329463118E+01 -0.19250719750E+02  0.98793441176E+02  0.95254187803E+02 0.  0.
         13    1    3    3    0    0  0.15287876821E+02 -0.22317998378E+02 -0.43693091055E+02  0.51389781078E+02  0.10566000000E+00 0. -1.
         22    1    1    0    0    0  0.17731801054E+02 -0.13329463118E+01  0.19250719750E+02  0.26206558824E+02  0.00000000000E+00 0. -1.
</event>
<event>
 5    1  0.9041167E-005  0.9118800E+02  0.7818608E-02  0.1130116E+00
         25   -1    0    0    0    0  0.00000000000E+00  0.00000000000E+00  0.99999998245E-14  0.12500000000E+03  0.12500000000E+03 0.  0.
        -13    1    3    3    0    0  0.32740945491E+02  0.20754165576E+02 -0.18148223458E+02  0.42802734482E+02  0.10566000000E+00 0.  1.
         23    2    1    0    0    0  0.12200453745E+01 -0.22709147565E+02 -0.17174259001E+02  0.96501770825E+02  0.92197845454E+02 0.  0.
         13    1    3    3    0    0 -0.31520900116E+02 -0.43463313142E+02  0.97396445699E+00  0.53699036343E+02  0.10566000000E+00 0. -1.
         22    1    1    0    0    0 -0.12200453745E+01  0.22709147565E+02  0.17174259001E+02  0.28498229175E+02  0.00000000000E+00 0. -1.
</event>
<event>
 5    1  0.9041167E-005  0.9118800E+02  0.7818608E-02  0.1130116E+00
         25   -1    0    0    0    0  0.00000000000E+00  0.00000000000E+00  0.99999998245E-14  0.12500000000E+03  0.12500000000E+03 0.  0.
        -13    1    3    3    0    0  0.18743652623E+02 -0.26763914525E+02 -0.35533824782E+02  0.48273134371E+02  0.10566000000E+00 0.  1.
         23    2    1    0    0    0 -0.17098966326E+02  0.20973201870E+01 -0.23541933308E+02  0.95828163835E+02  0.91280014016E+02 0.  0.
         13    1    3    3    0    0 -0.35842618949E+02  0.28861234712E+02  0.11991891474E+02  0.47555029464E+02  0.10566000000E+00 0. -1.
         22    1    1    0    0    0  0.17098966326E+02 -0.20973201870E+01  0.23541933308E+02  0.29171836165E+02  0.00000000000E+00 0.  1.
</event>
<event>
 5    1  0.9041167E-005  0.9118800E+02  0.7818608E-02  0.1130116E+00
         25   -1    0    0    0    0  0.00000000000E+00  0.00000000000E+00  0.99999998245E-14  0.12500000000E+03  0.12500000000E+03 0.  0.
        -13    1    3    3    0    0  0.29178534657E+01 -0.32610401156E+02  0.10829389177E+02  0.34485344226E+02  0.10566000000E+00 0. -1.
         23    2    1    0    0    0  0.15089617782E+02  0.25683921660E+02 -0.97436983597E+00  0.95195473612E+02  0.90409448638E+02 0.  0.
         13    1    3    3    0    0  0.12171764317E+02  0.58294322816E+02 -0.11803759013E+02  0.60710129386E+02  0.10566000000E+00 0.  1.
         22    1    1    0    0    0 -0.15089617782E+02 -0.25683921660E+02  0.97436983597E+00  0.29804526388E+02  0.00000000000E+00 0.  1.
</event>
<event>
 5    1  0.9041167E-005  0.9118800E+02  0.7818608E-02  0.1130116E+00
         25   -1    0    0    0    0  0.00000000000E+00  0.00000000000E+00  0.99999998245E-14  0.12500000000E+03  0.12500000000E+03 0.  0.
        -13    1    3    3    0    0 -0.29520059367E+02 -0.50888415451E+01  0.49550591431E+02  0.57901662225E+02  0.10566000000E+00 0.  1.
         23    2    1    0    0    0 -0.24835802792E+02 -0.87177522557E+01  0.11731013379E+02  0.96182765927E+02  0.91764325758E+02 0.  0.
         13    1    3    3    0    0  0.46842565750E+01 -0.36289107106E+01 -0.37819578051E+02  0.38281103702E+02  0.10566000000E+00 0. -1.
         22    1    1    0    0    0  0.24835802792E+02  0.87177522557E+01 -0.11731013379E+02  0.28817234073E+02  0.00000000000E+00 0.  1.
</event>
<event>
 5    1  0.9041167E-005  0.9118800E+02  0.7818608E-02  0.1130116E+00
         25   -1    0    0    0    0  0.00000000000E+00  0.00000000000E+00  0.99999998245E-14  0.12500000000E+03  0.12500000000E+03 0.  0.
        -13    1    3    3    0    0 -0.23014097763E+02  0.53181760981E+02  0.88526929273E+01  0.58620216078E+02  0.10566000000E+00 0.  1.
         23    2    1    0    0    0 -0.64174076299E+01  0.21287656720E+02  0.18754183765E+02  0.95912771565E+02  0.91395803467E+02 0.  0.
         13    1    3    3    0    0  0.16596690133E+02 -0.31894104261E+02  0.99014908374E+01  0.37292555488E+02  0.10566000000E+00 0. -1.
         22    1    1    0    0    0  0.64174076299E+01 -0.21287656720E+02 -0.18754183765E+02  0.29087228435E+02  0.00000000000E+00 0.  1.
</event>
<event>
 5    1  0.9041167E-005  0.9118800E+02  0.7818608E-02  0.1130116E+00
         25   -1    0    0    0    0  0.00000000000E+00  0.00000000000E+00  0.99999998245E-14  0.12500000000E+03  0.12500000000E+03 0.  0.
        -13    1    3    3    0    0  0.67588959821E+01 -0.32540738387E+02 -0.11441262681E+02  0.35149622835E+02  0.10566000000E+00 0. -1.
         23    2    1    0    0    0 -0.55709699991E+01  0.15378640639E+02  0.23959503740E+02  0.95989723991E+02  0.91500989054E+02 0.  0.
         13    1    3    3    0    0 -0.12329865981E+02  0.47919379027E+02  0.35400766421E+02  0.60840101156E+02  0.10566000000E+00 0.  1.
         22    1    1    0    0    0  0.55709699991E+01 -0.15378640639E+02 -0.23959503740E+02  0.29010276009E+02  0.00000000000E+00 0.  1.
</event>
<event>
 5    1  0.9041167E-005  0.9118800E+02  0.7818608E-02  0.1130116E+00
         25   -1    0    0    0    0  0.00000000000E+00  0.00000000000E+00  0.99999998245E-14  0.12500000000E+03  0.12500000000E+03 0.  0.
        -13    1    3    3    0    0 -0.54701890881E+00  0.37888716072E+02 -0.29564238824E+02  0.48061517002E+02  0.10566000000E+00 0. -1.
         23    2    1    0    0    0  0.21399352612E+02  0.18417443256E+02  0.79333490874E+01  0.95673006699E+02  0.91067292015E+02 0.  0.
         13    1    3    3    0    0  0.21946371521E+02 -0.19471272816E+02  0.37497587912E+02  0.47611489697E+02  0.10566000000E+00 0.  1.
         22    1    1    0    0    0 -0.21399352612E+02 -0.18417443256E+02 -0.79333490874E+01  0.29326993301E+02  0.00000000000E+00 0. -1.
</event>
<event>
 5    1  0.9041167E-005  0.9118800E+02  0.7818608E-02  0.1130116E+00
         25   -1    0    0    0    0  0.00000000000E+00  0.00000000000E+00  0.99999998245E-14  0.12500000000E+03  0.12500000000E+03 0.  0.
        -13    1    3    3    0    0  0.47523896882E+01 -0.10327093159E+02 -0.32720173878E+02  0.34638923244E+02  0.10566000000E+00 0.  1.
         23    2    1    0    0    0  0.72580920903E+01  0.20728698420E+02  0.19619526700E+02  0.95550302771E+02  0.90898711171E+02 0.  0.
         13    1    3    3    0    0  0.25057024022E+01  0.31055791579E+02  0.52339700578E+02  0.60911379526E+02  0.10566000000E+00 0. -1.
         22    1    1    0    0    0 -0.72580920903E+01 -0.20728698420E+02 -0.19619526700E+02  0.29449697229E+02  0.00000000000E+00 0. -1.
</event>
<event>
 5    1  0.9041167E-005  0.9118800E+02  0.7818608E-02  0.1130116E+00
         25   -1    0    0    0    0  0.00000000000E+00  0.00000000000E+00  0.99999998245E-14  0.12500000000E+03  0.12500000000E+03 0.  0.
        -13    1    3    3    0    0 -0.20430713458E+02  0.46337485386E+02  0.33823880870E+02  0.60898626302E+02  0.10566000000E+00 0.  1.
         23    2    1    0    0    0 -0.42907274981E+01  0.27896870096E+02  0.10057459495E+02  0.95036719220E+02  0.90189687908E+02 0.  0.
         13    1    3    3    0    0  0.16139985960E+02 -0.18440615290E+02 -0.23766421375E+02  0.34138092918E+02  0.10566000000E+00 0. -1.
         22    1    1    0    0    0  0.42907274981E+01 -0.27896870096E+02 -0.10057459495E+02  0.29963280780E+02  0.00000000000E+00 0.  1.
</event>
<event>
 5    1  0.9041167E-005  0.9118800E+02  0.7818608E-02  0.1130116E+00
         25   -1    0    0    0    0  0.00000000000E+00  0.00000000000E+00  0.99999998245E-14  0.12500000000E+03  0.12500000000E+03 0.  0.
        -13    1    3    3    0    0  0.27855390515E+02 -0.33037960481E+02 -0.33356356385E+01  0.43342441586E+02  0.10566000000E+00 0.  1.
         23    2    1    0    0    0 -0.22140556706E+02 -0.20049096630E+02 -0.27861522145E+01  0.95001113836E+02  0.90140326486E+02 0.  0.
         13    1    3    3    0    0 -0.49995947220E+02  0.12988863850E+02  0.54948342399E+00  0.51658672250E+02  0.10566000000E+00 0. -1.
         22    1    1    0    0    0  0.22140556706E+02  0.20049096630E+02  0.27861522145E+01  0.29998886164E+02  0.00000000000E+00 0. -1.
</event>
<event>
 5    1  0.9041167E-005  0.9118800E+02  0.7818608E-02  0.1130116E+00
         25   -1    0    0    0    0  0.00000000000E+00  0.00000000000E+00  0.99999998245E-14  0.12500000000E+03  0.12500000000E+03 0.  0.
        -13    1    3    3    0    0  0.54777775049E+01 -0.22429684426E+02 -0.35806571368E+02  0.42605381198E+02  0.10566000000E+00 0. -1.
         23    2    1    0    0    0 -0.11796049459E+02  0.22835376958E+02 -0.13945809025E+02  0.95758132532E+02  0.91184061836E+02 0.  0.
         13    1    3    3    0    0 -0.17273826964E+02  0.45265061384E+02  0.21860762343E+02  0.53152751334E+02  0.10566000000E+00 0.  1.
         22    1    1    0    0    0  0.11796049459E+02 -0.22835376958E+02  0.13945809025E+02  0.29241867468E+02  0.00000000000E+00 0.  1.
</event>
<event>
 5    1  0.9041167E-005  0.9118800E+02  0.7818608E-02  0.1130116E+00
         25   -1    0    0    0    0  0.00000000000E+00  0.00000000000E+00  0.99999998245E-14  0.12500000000E+03  0.12500000000E+03 0.  0.
        -13    1    3    3    0    0  0.50744059617E+02 -0.35367458380E+02 -0.68584975480E+00  0.61857079244E+02  0.10566000000E+00 0.  1.
         23    2    1    0    0    0  0.20716368161E+02 -0.20955157622E+02  0.30614580834E+01  0.95374688755E+02  0.90656892671E+02 0.  0.
         13    1    3    3    0    0 -0.30027691455E+02  0.14412300758E+02  0.37473078382E+01  0.33517609511E+02  0.10566000000E+00 0. -1.
         22    1    1    0    0    0 -0.20716368161E+02  0.20955157622E+02 -0.30614580834E+01  0.29625311245E+02  0.00000000000E+00 0.  1.
</event>
<event>
 5    1  0.9041167E-005  0.9118800E+02  0.7818608E-02  0.1130116E+00
         25   -1    0    0    0    0  0.00000000000E+00  0.00000000000E+00  0.99999998245E-14  0.12500000000E+03  0.12500000000E+03 0.  0.
        -13    1    3    3    0    0 -0.14793006228E+02  0.41944190942E+02 -0.40347268521E+02  0.60050490657E+02  0.10566000000E+00 0.  1.
         23    2    1    0    0    0 -0.10565378117E+02  0.10105751129E+02 -0.25878475403E+02  0.95277131535E+02  0.90522278383E+02 0.  0.
         13    1    3    3    0    0  0.42276281111E+01 -0.31838439813E+02  0.14468793118E+02  0.35226640878E+02  0.10566000000E+00 0. -1.
         22    1    1    0    0    0  0.10565378117E+02 -0.10105751129E+02  0.25878475403E+02  0.29722868465E+02  0.00000000000E+00 0.  1.
</event>
<event>
 5    1  0.9041167E-005  0.9118800E+02  0.7818608E-02  0.1130116E+00
         25   -1    0    0    0    0  0.00000000000E+00  0.00000000000E+00  0.99999998245E-14  0.12500000000E+03  0.12500000000E+03 0.  0.
        -13    1    3    3    0    0  0.38158036803E+02 -0.31684209080E+01  0.13948143887E+02  0.40750908525E+02  0.10566000000E+00 0. -1.
         23    2    1    0    0    0 -0.47373088657E+01  0.24321561397E+02  0.21422896020E+02  0.92244528427E+02  0.86233010540E+02 0.  0.
         13    1    3    3    0    0 -0.42895345668E+02  0.27489982305E+02  0.74747521333E+01  0.51493619902E+02  0.10566000000E+00 0.  1.
         22    1    1    0    0    0  0.47373088657E+01 -0.24321561397E+02 -0.21422896020E+02  0.32755471573E+02  0.00000000000E+00 0. -1.
</event>
<event>
 5    1  0.9041167E-005  0.9118800E+02  0.7818608E-02  0.1130116E+00
         25   -1    0    0    0    0  0.00000000000E+00  0.00000000000E+00  0.99999998245E-14  0.12500000000E+03  0.12500000000E+03 0.  0.
        -13    1    3    3    0    0  0.15351885404E+02 -0.12224986904E+02 -0.29113109009E+02  0.35110040878E+02  0.10566000000E+00 0.  1.
         23    2    1    0    0    0 -0.18038128363E+02  0.21638461946E+02  0.83138769207E+01  0.95627944239E+02  0.91005417749E+02 0.  0.
         13    1    3    3    0    0 -0.33390013766E+02  0.33863448849E+02  0.37426985930E+02  0.60517903360E+02  0.10566000000E+00 0. -1.
         22    1    1    0    0    0  0.18038128363E+02 -0.21638461946E+02 -0.83138769207E+01  0.29372055761E+02  0.00000000000E+00 0. -1.
</event>
<event>
 5    1  0.9041167E-005  0.9118800E+02  0.7818608E-02  0.1130116E+00
         25   -1    0    0    0    0  0.00000000000E+00  0.00000000000E+00  0.99999998245E-14  0.12500000000E+03  0.12500000000E+03 0.  0.
        -13    1    3    3    0    0  0.20882039427E+02 -0.34013523466E+02 -0.38839570534E+02  0.55691137109E+02  0.10566000000E+00 0.  1.
         23    2    1    0    0    0 -0.89727268997E+01 -0.10225363896E+02 -0.25445876749E+02  0.96145874847E+02  0.91714059510E+02 0.  0.
         13    1    3    3    0    0 -0.29854766327E+02  0.23788159570E+02  0.13393693785E+02  0.40454737738E+02  0.10566000000E+00 0. -1.
         22    1    1    0    0    0  0.89727268997E+01  0.10225363896E+02  0.25445876749E+02  0.28854125153E+02  0.00000000000E+00 0.  1.
</event>
<event>
 5    1  0.9041167E-005  0.9118800E+02  0.7818608E-02  0.1130116E+00
         25   -1    0    0    0    0  0.00000000000E+00  0.00000000000E+00  0.99999998245E-14  0.12500000000E+03  0.12500000000E+03 0.  0.
        -13    1    3    3    0    0  0.54067391681E-01 -0.30280130935E+02  0.45762865504E+02  0.54873857855E+02  0.10566000000E+00 0.  1.
         23    2    1    0    0    0  0.16479292125E+02  0.40918755983E+00  0.23857579871E+02  0.96001403126E+02  0.91516942592E+02 0.  0.
         13    1    3    3    0    0  0.16425224733E+02  0.30689318495E+02 -0.21905285634E+02  0.41127545270E+02  0.10566000000E+00 0. -1.
         22    1    1    0    0    0 -0.16479292125E+02 -0.40918755983E+00 -0.23857579871E+02  0.28998596874E+02  0.00000000000E+00 0.  1.
</event>
<event>
 5    1  0.9041167E-005  0.9118800E+02  0.7818608E-02  0.1130116E+00
         25   -1    0    0    0    0  0.00000000000E+00  0.00000000000E+00  0.99999998245E-14  0.12500000000E+03  0.12500000000E+03 0.  0.
        -13    1    3    3    0    0  0.74511944102E+01 -0.30814916989E+02 -0.10632314519E+02  0.33438550854E+02  0.10566000000E+00 0. -1.
         23    2    1    0    0    0  0.45402009988E+01  0.21299714138E+02  0.21225963370E+02  0.94588936742E+02  0.89566925734E+02 0.  0.
         13    1    3    3    0    0 -0.29109934114E+01  0.52114631127E+02  0.31858277890E+02  0.61150385888E+02  0.10566000000E+00 0.  1.
         22    1    1    0    0    0 -0.45402009988E+01 -0.21299714138E+02 -0.21225963370E+02  0.30411063258E+02  0.00000000000E+00 0.  1.
</event>
<event>
 5    1  0.9041167E-005  0.9118800E+02  0.7818608E-02  0.1130116E+00
         25   -1    0    0    0    0  0.00000000000E+00  0.00000000000E+00  0.99999998245E-14  0.12500000000E+03  0.12500000000E+03 0.  0.
        -13    1    3    3    0    0  0.16474553163E+01 -0.96676285303E+01 -0.37283079410E+02  0.38551476298E+02  0.10566000000E+00 0. -1.
         23    2    1    0    0    0  0.24215103928E+02  0.87914022443E+00  0.15025249613E+02  0.96488558933E+02  0.92179931293E+02 0.  0.
         13    1    3    3    0    0  0.22567648612E+02  0.10546768755E+02  0.52308329023E+02  0.57937082635E+02  0.10566000000E+00 0.  1.
         22    1    1    0    0    0 -0.24215103928E+02 -0.87914022443E+00 -0.15025249613E+02  0.28511441067E+02  0.00000000000E+00 0. -1.
</event>
<event>
 5    1  0.9041167E-005  0.9118800E+02  0.7818608E-02  0.1130116E+00
         25   -1    0    0    0    0  0.00000000000E+00  0.00000000000E+00  0.99999998245E-14  0.12500000000E+03  0.12500000000E+03 0.  0.
        -13    1    3    3    0    0 -0.25281159075E+02  0.14522517533E+02  0.26201641036E+02  0.39199205052E+02  0.10566000000E+00 0.  1.
         23    2    1    0    0    0 -0.11889716543E+02 -0.21239117597E+02 -0.15812284656E+02  0.95974255879E+02  0.91479855540E+02 0.  0.
         13    1    3    3    0    0  0.13391442532E+02 -0.35761635130E+02 -0.42013925692E+02  0.56775050827E+02  0.10566000000E+00 0. -1.
         22    1    1    0    0    0  0.11889716543E+02  0.21239117597E+02  0.15812284656E+02  0.29025744121E+02  0.00000000000E+00 0. -1.
</event>
<event>
 5    1  0.9041167E-005  0.9118800E+02  0.7818608E-02  0.1130116E+00
         25   -1    0    0    0    0  0.00000000000E+00  0.00000000000E+00  0.99999998245E-14  0.12500000000E+03  0.12500000000E+03 0.  0.
        -13    1    3    3    0    0  0.19973759455E+02  0.43673882665E+02  0.25783143050E+01  0.48093845370E+02  0.10566000000E+00 0. -1.
         23    2    1    0    0    0 -0.21307763708E+02  0.19900870401E+02  0.25668289356E+01  0.95731347012E+02  0.91147335414E+02 0.  0.
         13    1    3    3    0    0 -0.41281523163E+02 -0.23773012264E+02 -0.11485369403E-01  0.47637501642E+02  0.10566000000E+00 0.  1.
         22    1    1    0    0    0  0.21307763708E+02 -0.19900870401E+02 -0.25668289356E+01  0.29268652988E+02  0.00000000000E+00 0.  1.
</event>
<event>
 5    1  0.9041167E-005  0.9118800E+02  0.7818608E-02  0.1130116E+00
         25   -1    0    0    0    0  0.00000000000E+00  0.00000000000E+00  0.99999998245E-14  0.12500000000E+03  0.12500000000E+03 0.  0.
        -13    1    3    3    0    0  0.17358722520E+02  0.38618617325E+02 -0.17882633126E+02  0.45962186449E+02  0.10566000000E+00 0.  1.
         23    2    1    0    0    0  0.32470773557E+02 -0.26227723466E+01 -0.32351411055E+01  0.92263228502E+02  0.86260113178E+02 0.  0.
         13    1    3    3    0    0  0.15112051037E+02 -0.41241389672E+02  0.14647492021E+02  0.46301042052E+02  0.10566000000E+00 0. -1.
         22    1    1    0    0    0 -0.32470773557E+02  0.26227723466E+01  0.32351411055E+01  0.32736771498E+02  0.00000000000E+00 0. -1.
</event>
<event>
 5    1  0.9041167E-005  0.9118800E+02  0.7818608E-02  0.1130116E+00
         25   -1    0    0    0    0  0.00000000000E+00  0.00000000000E+00  0.99999998245E-14  0.12500000000E+03  0.12500000000E+03 0.  0.
        -13    1    3    3    0    0 -0.33025965606E+02 -0.49742471200E+02 -0.92034710027E+01  0.60413101955E+02  0.10566000000E+00 0. -1.
         23    2    1    0    0    0 -0.12509170184E+02 -0.26357866517E+02  0.62701756713E+01  0.95158224434E+02  0.90357933290E+02 0.  0.
         13    1    3    3    0    0  0.20516795422E+02  0.23384604684E+02  0.15473646674E+02  0.34745122478E+02  0.10566000000E+00 0.  1.
         22    1    1    0    0    0  0.12509170184E+02  0.26357866517E+02 -0.62701756713E+01  0.29841775566E+02  0.00000000000E+00 0. -1.
</event>
<event>
 5    1  0.9041167E-005  0.9118800E+02  0.7818608E-02  0.1130116E+00
         25   -1    0    0    0    0  0.00000000000E+00  0.00000000000E+00  0.99999998245E-14  0.12500000000E+03  0.12500000000E+03 0.  0.
        -13    1    3    3    0    0 -0.18023963943E+02 -0.61920573282E+00  0.24731776168E+02  0.30609126227E+02  0.10566000000E+00 0.  1.
         23    2    1    0    0    0 -0.28003886068E+02 -0.43712814743E+01 -0.28445249688E+02  0.84844577372E+02  0.74740513398E+02 0.  0.
         13    1    3    3    0    0 -0.99799221250E+01 -0.37520757415E+01 -0.53177025856E+02  0.54235451145E+02  0.10566000000E+00 0. -1.
         22    1    1    0    0    0  0.28003886068E+02  0.43712814743E+01  0.28445249688E+02  0.40155422628E+02  0.00000000000E+00 0.  1.
</event>
<event>
 5    1  0.9041167E-005  0.9118800E+02  0.7818608E-02  0.1130116E+00
         25   -1    0    0    0    0  0.00000000000E+00  0.00000000000E+00  0.99999998245E-14  0.12500000000E+03  0.12500000000E+03 0.  0.
        -13    1    3    3    0    0  0.18722836987E+02  0.58659737902E+02 -0.29249793462E+00  0.61576019639E+02  0.10566000000E+00 0. -1.
         23    2    1    0    0    0  0.17131604769E+01  0.22824301018E+02  0.49318735968E+01  0.10158617902E+03  0.98851124195E+02 0.  0.
         13    1    3    3    0    0 -0.17009676510E+02 -0.35835436884E+02  0.52243715314E+01  0.40010159379E+02  0.10566000000E+00 0.  1.
         22    1    1    0    0    0 -0.17131604769E+01 -0.22824301018E+02 -0.49318735968E+01  0.23413820982E+02  0.00000000000E+00 0. -1.
</event>
<event>
 5    1  0.9041167E-005  0.9118800E+02  0.7818608E-02  0.1130116E+00
         25   -1    0    0    0    0  0.00000000000E+00  0.00000000000E+00  0.99999998245E-14  0.12500000000E+03  0.12500000000E+03 0.  0.
        -13    1    3    3    0    0 -0.31160675045E+02  0.28667754337E+01  0.17430267751E+02  0.35819428647E+02  0.10566000000E+00 0. -1.
         23    2    1    0    0    0  0.11760607377E+02  0.14655559799E+02 -0.22548201859E+02  0.95648360762E+02  0.91033456435E+02 0.  0.
         13    1    3    3    0    0  0.42921282422E+02  0.11788784365E+02 -0.39978469611E+02  0.59828932115E+02  0.10566000000E+00 0.  1.
         22    1    1    0    0    0 -0.11760607377E+02 -0.14655559799E+02  0.22548201859E+02  0.29351639238E+02  0.00000000000E+00 0.  1.
</event>
<event>
 5    1  0.9041167E-005  0.9118800E+02  0.7818608E-02  0.1130116E+00
         25   -1    0    0    0    0  0.00000000000E+00  0.00000000000E+00  0.99999998245E-14  0.12500000000E+03  0.12500000000E+03 0.  0.
        -13    1    3    3    0    0 -0.24496588183E+02  0.22207263275E+02  0.41126831759E+02  0.52769999331E+02  0.10566000000E+00 0.  1.
         23    2    1    0    0    0 -0.37131587617E+02  0.77886576904E+01  0.17438071224E+02  0.83244709131E+02  0.72015118432E+02 0.  0.
         13    1    3    3    0    0 -0.12634999433E+02 -0.14418605585E+02 -0.23688760535E+02  0.30474709800E+02  0.10566000000E+00 0. -1.
         22    1    1    0    0    0  0.37131587617E+02 -0.77886576904E+01 -0.17438071224E+02  0.41755290869E+02  0.00000000000E+00 0.  1.
</event>
<event>
 5    1  0.9041167E-005  0.9118800E+02  0.7818608E-02  0.1130116E+00
         25   -1    0    0    0    0  0.00000000000E+00  0.00000000000E+00  0.99999998245E-14  0.12500000000E+03  0.12500000000E+03 0.  0.
        -13    1    3    3    0    0  0.11971425339E+02 -0.34315160831E+02  0.40649831714E+01  0.36570213832E+02  0.10566000000E+00 0.  1.
         23    2    1    0    0    0 -0.19264317683E+02  0.84550105603E+01 -0.21097416141E+02  0.95205669882E+02  0.90423544890E+02 0.  0.
         13    1    3    3    0    0 -0.31235743022E+02  0.42770171392E+02 -0.25162399312E+02  0.58635456050E+02  0.10566000000E+00 0. -1.
         22    1    1    0    0    0  0.19264317683E+02 -0.84550105603E+01  0.21097416141E+02  0.29794330118E+02  0.00000000000E+00 0. -1.
</event>
<event>
 5    1  0.9041167E-005  0.9118800E+02  0.7818608E-02  0.1130116E+00
         25   -1    0    0    0    0  0.00000000000E+00  0.00000000000E+00  0.99999998245E-14  0.12500000000E+03  0.12500000000E+03 0.  0.
        -13    1    3    3    0    0 -0.29532789013E+02 -0.20548113907E+02  0.16848612544E+02  0.39727792800E+02  0.10566000000E+00 0.  1.
         23    2    1    0    0    0  0.43202669295E+01 -0.63550028471E+01 -0.27008345957E+02  0.96919730791E+02  0.92762776466E+02 0.  0.
         13    1    3    3    0    0  0.33853055942E+02  0.14193111060E+02 -0.43856958501E+02  0.57191937991E+02  0.10566000000E+00 0. -1.
         22    1    1    0    0    0 -0.43202669295E+01  0.63550028471E+01  0.27008345957E+02  0.28080269209E+02  0.00000000000E+00 0. -1.
</event>
<event>
 5    1  0.9041167E-005  0.9118800E+02  0.7818608E-02  0.1130116E+00
         25   -1    0    0    0    0  0.00000000000E+00  0.00000000000E+00  0.99999998245E-14  0.12500000000E+03  0.12500000000E+03 0.  0.
        -13    1    3    3    0    0 -0.45726429355E+02 -0.29436376872E+02 -0.13464522139E+02  0.56024201425E+02  0.10566000000E+00 0. -1.
         23    2    1    0    0    0 -0.22038864306E+02 -0.11468055791E+02  0.13985520098E+02  0.96489955876E+02  0.92181825590E+02 0.  0.
         13    1    3    3    0    0  0.23687565049E+02  0.17968321080E+02  0.27450042238E+02  0.40465754451E+02  0.10566000000E+00 0.  1.
         22    1    1    0    0    0  0.22038864306E+02  0.11468055791E+02 -0.13985520098E+02  0.28510044124E+02  0.00000000000E+00 0. -1.
</event>
<event>
 5    1  0.9041167E-005  0.9118800E+02  0.7818608E-02  0.1130116E+00
         25   -1    0    0    0    0  0.00000000000E+00  0.00000000000E+00  0.99999998245E-14  0.12500000000E+03  0.12500000000E+03 0.  0.
        -13    1    3    3    0    0 -0.32006222061E+02 -0.10108491862E+02 -0.12786900636E+02  0.35917904314E+02  0.10566000000E+00 0. -1.
         23    2    1    0    0    0  0.91054712334E+01  0.27006541708E+02  0.85072351132E+01  0.95257169760E+02  0.90494709459E+02 0.  0.
         13    1    3    3    0    0  0.41111693295E+02  0.37115033570E+02  0.21294135750E+02  0.59339265447E+02  0.10566000000E+00 0.  1.
         22    1    1    0    0    0 -0.91054712334E+01 -0.27006541708E+02 -0.85072351132E+01  0.29742830240E+02  0.00000000000E+00 0.  1.
</event>
<event>
 5    1  0.9041167E-005  0.9118800E+02  0.7818608E-02  0.1130116E+00
         25   -1    0    0    0    0  0.00000000000E+00  0.00000000000E+00  0.99999998245E-14  0.12500000000E+03  0.12500000000E+03 0.  0.
        -13    1    3    3    0    0  0.39522701907E+02  0.79986456145E+01 -0.22802666687E+02  0.46324886074E+02  0.10566000000E+00 0. -1.
         23    2    1    0    0    0 -0.12671053880E+01 -0.21442072505E+02 -0.18212366544E+02  0.96838708756E+02  0.92653533063E+02 0.  0.
         13    1    3    3    0    0 -0.40789807295E+02 -0.29440718120E+02  0.45903001438E+01  0.50513822682E+02  0.10566000000E+00 0.  1.
         22    1    1    0    0    0  0.12671053880E+01  0.21442072505E+02  0.18212366544E+02  0.28161291244E+02  0.00000000000E+00 0. -1.
</event>
<event>
 5    1  0.9041167E-005  0.9118800E+02  0.7818608E-02  0.1130116E+00
         25   -1    0    0    0    0  0.00000000000E+00  0.00000000000E+00  0.99999998245E-14  0.12500000000E+03  0.12500000000E+03 0.  0.
        -13    1    3    3    0    0 -0.54860172411E+00  0.54643262683E+02  0.21773543457E+02  0.58824191276E+02  0.10566000000E+00 0.  1.
         23    2    1    0    0    0  0.39553438643E+01  0.17235715950E+02  0.22342197760E+02  0.96506343686E+02  0.92204045038E+02 0.  0.
         13    1    3    3    0    0  0.45039455884E+01 -0.37407546734E+02  0.56865430363E+00  0.37682152410E+02  0.10566000000E+00 0. -1.
         22    1    1    0    0    0 -0.39553438643E+01 -0.17235715950E+02 -0.22342197760E+02  0.28493656314E+02  0.00000000000E+00 0.  1.
</event>
<event>
 5    1  0.9041167E-005  0.9118800E+02  0.7818608E-02  0.1130116E+00
         25   -1    0    0    0    0  0.00000000000E+00  0.00000000000E+00  0.99999998245E-14  0.12500000000E+03  0.12500000000E+03 0.  0.
        -13    1    3    3    0    0  0.85308012291E+01  0.32940662638E+02  0.33765851849E+02  0.47937519124E+02  0.10566000000E+00 0. -1.
         23    2    1    0    0    0 -0.67947251196E+01 -0.12351217015E+02  0.24635996646E+02  0.96615969597E+02  0.92352544086E+02 0.  0.
         13    1    3    3    0    0 -0.15325526349E+02 -0.45291879653E+02 -0.91298552030E+01  0.48678450473E+02  0.10566000000E+00 0.  1.
         22    1    1    0    0    0  0.67947251196E+01  0.12351217015E+02 -0.24635996646E+02  0.28384030403E+02  0.00000000000E+00 0. -1.
</event>
<event>
 5    1  0.9041167E-005  0.9118800E+02  0.7818608E-02  0.1130116E+00
         25   -1    0    0    0    0  0.00000000000E+00  0.00000000000E+00  0.99999998245E-14  0.12500000000E+03  0.12500000000E+03 0.  0.
        -13    1    3    3    0    0  0.33329611107E+02 -0.48608765305E+02  0.18068326123E+02  0.61645361658E+02  0.10566000000E+00 0. -1.
         23    2    1    0    0    0  0.15527051227E+02 -0.19632560977E+02  0.15064088686E+02  0.95786072872E+02  0.91222355912E+02 0.  0.
         13    1    3    3    0    0 -0.17802559880E+02  0.28976204329E+02 -0.30042374376E+01  0.34140711214E+02  0.10566000000E+00 0.  1.
         22    1    1    0    0    0 -0.15527051227E+02  0.19632560977E+02 -0.15064088686E+02  0.29213927128E+02  0.00000000000E+00 0. -1.
</event>
<event>
 5    1  0.9041167E-005  0.9118800E+02  0.7818608E-02  0.1130116E+00
         25   -1    0    0    0    0  0.00000000000E+00  0.00000000000E+00  0.99999998245E-14  0.12500000000E+03  0.12500000000E+03 0.  0.
        -13    1    3    3    0    0 -0.14770083545E+02  0.38359818226E+02  0.23780650083E+02  0.47488540772E+02  0.10566000000E+00 0.  1.
         23    2    1    0    0    0 -0.29938308818E+01 -0.40263515658E+01  0.32312690731E+02  0.92300083906E+02  0.86313504022E+02 0.  0.
         13    1    3    3    0    0  0.11776252663E+02 -0.42386169792E+02  0.85320406479E+01  0.44811543134E+02  0.10566000000E+00 0. -1.
         22    1    1    0    0    0  0.29938308818E+01  0.40263515658E+01 -0.32312690731E+02  0.32699916094E+02  0.00000000000E+00 0.  1.
</event>
<event>
 5    1  0.9041167E-005  0.9118800E+02  0.7818608E-02  0.1130116E+00
         25   -1    0    0    0    0  0.00000000000E+00  0.00000000000E+00  0.99999998245E-14  0.12500000000E+03  0.12500000000E+03 0.  0.
        -13    1    3    3    0    0  0.89284134996E+01  0.33158552393E+02 -0.22057867386E+02  0.40813807004E+02  0.10566000000E+00 0.  1.
         23    2    1    0    0    0 -0.29662258848E+02  0.13431701067E+02  0.52180088895E+01  0.92022919925E+02  0.85911174949E+02 0.  0.
         13    1    3    3    0    0 -0.38590672348E+02 -0.19726851327E+02  0.27275876276E+02  0.51209112921E+02  0.10566000000E+00 0. -1.
         22    1    1    0    0    0  0.29662258848E+02 -0.13431701067E+02 -0.52180088895E+01  0.32977080075E+02  0.00000000000E+00 0. -1.
</event>
<event>
 5    1  0.9041167E-005  0.9118800E+02  0.7818608E-02  0.1130116E+00
         25   -1    0    0    0    0  0.00000000000E+00  0.00000000000E+00  0.99999998245E-14  0.12500000000E+03  0.12500000000E+03 0.  0.
        -13    1    3    3    0    0  0.13364693759E+02  0.34643660351E+02  0.30955380339E+01  0.37261129365E+02  0.10566000000E+00 0. -1.
         23    2    1    0    0    0  0.14031751951E+02 -0.21604649504E+02 -0.13506951232E+02  0.95912396547E+02  0.91395290562E+02 0.  0.
         13    1    3    3    0    0  0.66705819276E+00 -0.56248309856E+02 -0.16602489266E+02  0.58651267182E+02  0.10566000000E+00 0.  1.
         22    1    1    0    0    0 -0.14031751951E+02  0.21604649504E+02  0.13506951232E+02  0.29087603453E+02  0.00000000000E+00 0.  1.
</event>
<event>
 5    1  0.9041167E-005  0.9118800E+02  0.7818608E-02  0.1130116E+00
         25   -1    0    0    0    0  0.00000000000E+00  0.00000000000E+00  0.99999998245E-14  0.12500000000E+03  0.12500000000E+03 0.  0.
        -13    1    3    3    0    0  0.28013250227E+02  0.11072837977E+01  0.20117759786E+02  0.34506574570E+02  0.10566000000E+00 0.  1.
         23    2    1    0    0    0 -0.73540771831E+01  0.68875616003E+01 -0.28423577846E+02  0.94843396518E+02  0.89921349687E+02 0.  0.
         13    1    3    3    0    0 -0.35367327411E+02  0.57802778026E+01 -0.48541337632E+02  0.60336821948E+02  0.10566000000E+00 0. -1.
         22    1    1    0    0    0  0.73540771831E+01 -0.68875616003E+01  0.28423577846E+02  0.30156603482E+02  0.00000000000E+00 0. -1.
</event>
<event>
 5    1  0.9041167E-005  0.9118800E+02  0.7818608E-02  0.1130116E+00
         25   -1    0    0    0    0  0.00000000000E+00  0.00000000000E+00  0.99999998245E-14  0.12500000000E+03  0.12500000000E+03 0.  0.
        -13    1    3    3    0    0 -0.38208852899E+02 -0.18220268827E+02 -0.26753841246E+02  0.50076679417E+02  0.10566000000E+00 0. -1.
         23    2    1    0    0    0 -0.13857168102E+02  0.14515118426E+02 -0.27588482740E+02  0.90884986433E+02  0.84239222506E+02 0.  0.
         13    1    3    3    0    0  0.24351684797E+02  0.32735387253E+02 -0.83464149458E+00  0.40808307016E+02  0.10566000000E+00 0.  1.
         22    1    1    0    0    0  0.13857168102E+02 -0.14515118426E+02  0.27588482740E+02  0.34115013567E+02  0.00000000000E+00 0.  1.
</event>
<event>
 5    1  0.9041167E-005  0.9118800E+02  0.7818608E-02  0.1130116E+00
         25   -1    0    0    0    0  0.00000000000E+00  0.00000000000E+00  0.99999998245E-14  0.12500000000E+03  0.12500000000E+03 0.  0.
        -13    1    3    3    0    0 -0.29772857354E+02  0.21750634552E+02 -0.29439388180E+02  0.47182643831E+02  0.10566000000E+00 0.  1.
         23    2    1    0    0    0  0.14322769417E+01 -0.17444848795E+02 -0.20448008040E+02  0.98083551506E+02  0.94318014591E+02 0.  0.
         13    1    3    3    0    0  0.31205134296E+02 -0.39195483347E+02  0.89913801397E+01  0.50900907675E+02  0.10566000000E+00 0. -1.
         22    1    1    0    0    0 -0.14322769417E+01  0.17444848795E+02  0.20448008040E+02  0.26916448494E+02  0.00000000000E+00 0. -1.
</event>
<event>
 5    1  0.9041167E-005  0.9118800E+02  0.7818608E-02  0.1130116E+00
         25   -1    0    0    0    0  0.00000000000E+00  0.00000000000E+00  0.99999998245E-14  0.12500000000E+03  0.12500000000E+03 0.  0.
        -13    1    3    3    0    0 -0.45198014581E+02 -0.64148383304E+01 -0.36350279920E+02  0.58355502630E+02  0.10566000000E+00 0. -1.
         23    2    1    0    0    0 -0.75003758754E+01 -0.48443365077E+01 -0.26043539031E+02  0.97468397073E+02  0.93499193944E+02 0.  0.
         13    1    3    3    0    0  0.37697638705E+02  0.15705018226E+01  0.10306740889E+02  0.39112894443E+02  0.10566000000E+00 0.  1.
         22    1    1    0    0    0  0.75003758754E+01  0.48443365077E+01  0.26043539031E+02  0.27531602927E+02  0.00000000000E+00 0. -1.
</event>
<event>
 5    1  0.9041167E-005  0.9118800E+02  0.7818608E-02  0.1130116E+00
         25   -1    0    0    0    0  0.00000000000E+00  0.00000000000E+00  0.99999998245E-14  0.12500000000E+03  0.12500000000E+03 0.  0.
        -13    1    3    3    0    0 -0.26885082914E+02  0.16205626611E+02  0.15430983015E+01  0.31429641003E+02  0.10566000000E+00 0.  1.
         23    2    1    0    0    0  0.15142697170E+02 -0.28437866648E+02 -0.50798933522E+00  0.92777778006E+02  0.87002554569E+02 0.  0.
         13    1    3    3    0    0  0.42027780085E+02 -0.44643493259E+02 -0.20510876368E+01  0.61348137003E+02  0.10566000000E+00 0. -1.
         22    1    1    0    0    0 -0.15142697170E+02  0.28437866648E+02  0.50798933522E+00  0.32222221994E+02  0.00000000000E+00 0. -1.
</event>
<event>
 5    1  0.9041167E-005  0.9118800E+02  0.7818608E-02  0.1130116E+00
         25   -1    0    0    0    0  0.00000000000E+00  0.00000000000E+00  0.99999998245E-14  0.12500000000E+03  0.12500000000E+03 0.  0.
        -13    1    3    3    0    0  0.37547158265E+02 -0.21231317470E+02 -0.18702491814E+01  0.43174841416E+02  0.10566000000E+00 0.  1.
         23    2    1    0    0    0 -0.14148503231E+02 -0.23575547108E+02 -0.10364365220E+02  0.95616218223E+02  0.90989310118E+02 0.  0.
         13    1    3    3    0    0 -0.51695661496E+02 -0.23442296373E+01 -0.84941160388E+01  0.52441376807E+02  0.10566000000E+00 0. -1.
         22    1    1    0    0    0  0.14148503231E+02  0.23575547108E+02  0.10364365220E+02  0.29383781777E+02  0.00000000000E+00 0.  1.
</event>
<event>
 5    1  0.9041167E-005  0.9118800E+02  0.7818608E-02  0.1130116E+00
         25   -1    0    0    0    0  0.00000000000E+00  0.00000000000E+00  0.99999998245E-14  0.12500000000E+03  0.12500000000E+03 0.  0.
        -13    1    3    3    0    0  0.23253240756E+02 -0.68922094997E+00 -0.36628594057E+02  0.43391857505E+02  0.10566000000E+00 0. -1.
         23    2    1    0    0    0 -0.45730734697E+01  0.28440954547E+02 -0.26881271424E+01  0.96068582406E+02  0.91608654621E+02 0.  0.
         13    1    3    3    0    0 -0.27826314226E+02  0.29130175497E+02  0.33940466914E+02  0.52676724900E+02  0.10566000000E+00 0.  1.
         22    1    1    0    0    0  0.45730734697E+01 -0.28440954547E+02  0.26881271424E+01  0.28931417594E+02  0.00000000000E+00 0. -1.
</event>
<event>
 5    1  0.9041167E-005  0.9118800E+02  0.7818608E-02  0.1130116E+00
         25   -1    0    0    0    0  0.00000000000E+00  0.00000000000E+00  0.99999998245E-14  0.12500000000E+03  0.12500000000E+03 0.  0.
        -13    1    3    3    0    0 -0.27145363797E+02 -0.12171389323E+02  0.15569516417E+02  0.33577291422E+02  0.10566000000E+00 0.  1.
         23    2    1    0    0    0  0.18336391926E+02  0.24997694495E+02  0.15807331870E+01  0.93957984660E+02  0.88681994593E+02 0.  0.
         13    1    3    3    0    0  0.45481755724E+02  0.37169083818E+02 -0.13988783230E+02  0.60380693238E+02  0.10566000000E+00 0. -1.
         22    1    1    0    0    0 -0.18336391926E+02 -0.24997694495E+02 -0.15807331870E+01  0.31042015340E+02  0.00000000000E+00 0. -1.
</event>
<event>
 5    1  0.9041167E-005  0.9118800E+02  0.7818608E-02  0.1130116E+00
         25   -1    0    0    0    0  0.00000000000E+00  0.00000000000E+00  0.99999998245E-14  0.12500000000E+03  0.12500000000E+03 0.  0.
        -13    1    3    3    0    0  0.26076417299E+02 -0.93372695470E+01  0.34118659502E+02  0.43946083238E+02  0.10566000000E+00 0.  1.
         23    2    1    0    0    0 -0.12104805368E+01 -0.28954261522E+02 -0.50796444176E+01  0.95578624933E+02  0.90937650252E+02 0.  0.
         13    1    3    3    0    0 -0.27286897836E+02 -0.19616991975E+02 -0.39198303919E+02  0.51632541695E+02  0.10566000000E+00 0. -1.
         22    1    1    0    0    0  0.12104805368E+01  0.28954261522E+02  0.50796444176E+01  0.29421375067E+02  0.00000000000E+00 0. -1.
</event>
<event>
 5    1  0.9041167E-005  0.9118800E+02  0.7818608E-02  0.1130116E+00
         25   -1    0    0    0    0  0.00000000000E+00  0.00000000000E+00  0.99999998245E-14  0.12500000000E+03  0.12500000000E+03 0.  0.
        -13    1    3    3    0    0 -0.23828727627E+02 -0.39747373500E+02 -0.31598830480E+02  0.56090633908E+02  0.10566000000E+00 0. -1.
         23    2    1    0    0    0 -0.26302130901E+02 -0.56947393712E+01 -0.16584577644E+02  0.93388603921E+02  0.87875770155E+02 0.  0.
         13    1    3    3    0    0 -0.24734032737E+01  0.34052634129E+02  0.15014252836E+02  0.37297970013E+02  0.10566000000E+00 0.  1.
         22    1    1    0    0    0  0.26302130901E+02  0.56947393712E+01  0.16584577644E+02  0.31611396079E+02  0.00000000000E+00 0. -1.
</event>
<event>
 5    1  0.9041167E-005  0.9118800E+02  0.7818608E-02  0.1130116E+00
         25   -1    0    0    0    0  0.00000000000E+00  0.00000000000E+00  0.99999998245E-14  0.12500000000E+03  0.12500000000E+03 0.  0.
        -13    1    3    3    0    0  0.49762252539E+02  0.23827595797E+02 -0.71508083336E+01  0.55634353803E+02  0.10566000000E+00 0.  1.
         23    2    1    0    0    0  0.11998685228E+02  0.17425680296E+02 -0.19851678659E+02  0.95987728001E+02  0.91498262280E+02 0.  0.
         13    1    3    3    0    0 -0.37763567311E+02 -0.64019155010E+01 -0.12700870325E+02  0.40353374198E+02  0.10566000000E+00 0. -1.
         22    1    1    0    0    0 -0.11998685228E+02 -0.17425680296E+02  0.19851678659E+02  0.29012271999E+02  0.00000000000E+00 0.  1.
</event>
<event>
 5    1  0.9041167E-005  0.9118800E+02  0.7818608E-02  0.1130116E+00
         25   -1    0    0    0    0  0.00000000000E+00  0.00000000000E+00  0.99999998245E-14  0.12500000000E+03  0.12500000000E+03 0.  0.
        -13    1    3    3    0    0 -0.53143077255E+02  0.21710382895E+02 -0.22811141869E+02  0.61772864131E+02  0.10566000000E+00 0. -1.
         23    2    1    0    0    0 -0.27182747115E+02  0.52223982313E+01 -0.65732143030E+01  0.96550354479E+02  0.92263690690E+02 0.  0.
         13    1    3    3    0    0  0.25960330140E+02 -0.16487984663E+02  0.16237927566E+02  0.34777490348E+02  0.10566000000E+00 0.  1.
         22    1    1    0    0    0  0.27182747115E+02 -0.52223982313E+01  0.65732143030E+01  0.28449645521E+02  0.00000000000E+00 0. -1.
</event>
<event>
 5    1  0.9041167E-005  0.9118800E+02  0.7818608E-02  0.1130116E+00
         25   -1    0    0    0    0  0.00000000000E+00  0.00000000000E+00  0.99999998245E-14  0.12500000000E+03  0.12500000000E+03 0.  0.
        -13    1    3    3    0    0  0.35131509563E+02  0.12237679132E+02 -0.37177737943E+02  0.52594478012E+02  0.10566000000E+00 0.  1.
         23    2    1    0    0    0 -0.41846915028E+01  0.17059955620E+02 -0.25765089172E+02  0.93816774561E+02  0.88482730746E+02 0.  0.
         13    1    3    3    0    0 -0.39316201066E+02  0.48222764887E+01  0.11412648772E+02  0.41222296549E+02  0.10566000000E+00 0. -1.
         22    1    1    0    0    0  0.41846915028E+01 -0.17059955620E+02  0.25765089172E+02  0.31183225439E+02  0.00000000000E+00 0.  1.
</event>
<event>
 5    1  0.9041167E-005  0.9118800E+02  0.7818608E-02  0.1130116E+00
         25   -1    0    0    0    0  0.00000000000E+00  0.00000000000E+00  0.99999998245E-14  0.12500000000E+03  0.12500000000E+03 0.  0.
        -13    1    3    3    0    0 -0.31554926016E+02  0.13018450470E+02 -0.18229309096E+02  0.38697703842E+02  0.10566000000E+00 0.  1.
         23    2    1    0    0    0 -0.50346127893E-01 -0.24888135908E+02  0.12872835983E+02  0.96979797468E+02  0.92843682428E+02 0.  0.
         13    1    3    3    0    0  0.31504579888E+02 -0.37906586378E+02  0.31102145080E+02  0.58282093625E+02  0.10566000000E+00 0. -1.
         22    1    1    0    0    0  0.50346127893E-01  0.24888135908E+02 -0.12872835983E+02  0.28020202532E+02  0.00000000000E+00 0. -1.
</event>
<event>
 5    1  0.9041167E-005  0.9118800E+02  0.7818608E-02  0.1130116E+00
         25   -1    0    0    0    0  0.00000000000E+00  0.00000000000E+00  0.99999998245E-14  0.12500000000E+03  0.12500000000E+03 0.  0.
        -13    1    3    3    0    0  0.33918358592E+02 -0.91683881896E+01  0.16021780874E+02  0.38616356871E+02  0.10566000000E+00 0. -1.
         23    2    1    0    0    0 -0.14089471935E+02  0.22715717981E+02  0.95720451076E+01  0.96607375776E+02  0.92340911540E+02 0.  0.
         13    1    3    3    0    0 -0.48007830527E+02  0.31884106170E+02 -0.64497357667E+01  0.57991018905E+02  0.10566000000E+00 0.  1.
         22    1    1    0    0    0  0.14089471935E+02 -0.22715717981E+02 -0.95720451076E+01  0.28392624224E+02  0.00000000000E+00 0.  1.
</event>
<event>
 5    1  0.9041167E-005  0.9118800E+02  0.7818608E-02  0.1130116E+00
         25   -1    0    0    0    0  0.00000000000E+00  0.00000000000E+00  0.99999998245E-14  0.12500000000E+03  0.12500000000E+03 0.  0.
        -13    1    3    3    0    0 -0.46977091204E+02  0.82475981476E+01  0.87093007141E+01  0.48484358882E+02  0.10566000000E+00 0.  1.
         23    2    1    0    0    0 -0.10067605930E+02  0.29883292275E+02 -0.42353954542E+01  0.93183236793E+02  0.87583155904E+02 0.  0.
         13    1    3    3    0    0  0.36909485274E+02  0.21635694127E+02 -0.12944696168E+02  0.44698877911E+02  0.10566000000E+00 0. -1.
         22    1    1    0    0    0  0.10067605930E+02 -0.29883292275E+02  0.42353954542E+01  0.31816763207E+02  0.00000000000E+00 0.  1.
</event>
<event>
 5    1  0.9041167E-005  0.9118800E+02  0.7818608E-02  0.1130116E+00
         25   -1    0    0    0    0  0.00000000000E+00  0.00000000000E+00  0.99999998245E-14  0.12500000000E+03  0.12500000000E+03 0.  0.
        -13    1    3    3    0    0 -0.13191283842E+02  0.40988401439E+02 -0.99701409118E+01  0.44198120953E+02  0.10566000000E+00 0.  1.
         23    2    1    0    0    0  0.23455678036E+01 -0.36547018742E+01 -0.29382349796E+02  0.95298467823E+02  0.90551736349E+02 0.  0.
         13    1    3    3    0    0  0.15536851645E+02 -0.44643103313E+02 -0.19412208884E+02  0.51100346870E+02  0.10566000000E+00 0. -1.
         22    1    1    0    0    0 -0.23455678036E+01  0.36547018742E+01  0.29382349796E+02  0.29701532177E+02  0.00000000000E+00 0. -1.
</event>
<event>
 5    1  0.9041167E-005  0.9118800E+02  0.7818608E-02  0.1130116E+00
         25   -1    0    0    0    0  0.00000000000E+00  0.00000000000E+00  0.99999998245E-14  0.12500000000E+03  0.12500000000E+03 0.  0.
        -13    1    3    3    0    0 -0.35797060081E+02  0.26316182052E+01 -0.47016407405E+02  0.59151573555E+02  0.10566000000E+00 0.  1.
         23    2    1    0    0    0 -0.16973431827E+02  0.14697317309E+02 -0.15815935454E+02  0.97536345139E+02  0.93589990302E+02 0.  0.
         13    1    3    3    0    0  0.18823628253E+02  0.12065699103E+02  0.31200471951E+02  0.38384771583E+02  0.10566000000E+00 0. -1.
         22    1    1    0    0    0  0.16973431827E+02 -0.14697317309E+02  0.15815935454E+02  0.27463654861E+02  0.00000000000E+00 0.  1.
</event>
<event>
 5    1  0.9041167E-005  0.9118800E+02  0.7818608E-02  0.1130116E+00
         25   -1    0    0    0    0  0.00000000000E+00  0.00000000000E+00  0.99999998245E-14  0.12500000000E+03  0.12500000000E+03 0.  0.
        -13    1    3    3    0    0 -0.23792501310E+02  0.48480020539E+02 -0.92277468460E+01  0.54786476305E+02  0.10566000000E+00 0. -1.
         23    2    1    0    0    0 -0.24825133448E+02  0.74663338193E+01  0.57223819871E+01  0.98452325016E+02  0.94805491687E+02 0.  0.
         13    1    3    3    0    0 -0.10326321383E+01 -0.41013686720E+02  0.14950128833E+02  0.43665848711E+02  0.10566000000E+00 0.  1.
         22    1    1    0    0    0  0.24825133448E+02 -0.74663338193E+01 -0.57223819871E+01  0.26547674984E+02  0.00000000000E+00 0. -1.
</event>
<event>
 5    1  0.9041167E-005  0.9118800E+02  0.7818608E-02  0.1130116E+00
         25   -1    0    0    0    0  0.00000000000E+00  0.00000000000E+00  0.99999998245E-14  0.12500000000E+03  0.12500000000E+03 0.  0.
        -13    1    3    3    0    0 -0.49166019041E+02  0.12279176632E+02 -0.76026450742E+00  0.50681996540E+02  0.10566000000E+00 0. -1.
         23    2    1    0    0    0 -0.19738908561E+02 -0.20336276570E+02  0.81616757945E+01  0.95507600849E+02  0.90839970345E+02 0.  0.
         13    1    3    3    0    0  0.29427110480E+02 -0.32615453203E+02  0.89219403019E+01  0.44825604309E+02  0.10566000000E+00 0.  1.
         22    1    1    0    0    0  0.19738908561E+02  0.20336276570E+02 -0.81616757945E+01  0.29492399151E+02  0.00000000000E+00 0. -1.
</event>
<event>
 5    1  0.9041167E-005  0.9118800E+02  0.7818608E-02  0.1130116E+00
         25   -1    0    0    0    0  0.00000000000E+00  0.00000000000E+00  0.99999998245E-14  0.12500000000E+03  0.12500000000E+03 0.  0.
        -13    1    3    3    0    0  0.44021245782E+01  0.50340366278E+02 -0.20177194407E+02  0.54411961148E+02  0.10566000000E+00 0.  1.
         23    2    1    0    0    0  0.12490870702E+02  0.24638416214E+02  0.10685183127E+02  0.95381651922E+02  0.90666493152E+02 0.  0.
         13    1    3    3    0    0  0.80887461234E+01 -0.25701950064E+02  0.30862377534E+02  0.40969690773E+02  0.10566000000E+00 0. -1.
         22    1    1    0    0    0 -0.12490870702E+02 -0.24638416214E+02 -0.10685183127E+02  0.29618348078E+02  0.00000000000E+00 0.  1.
</event>
<event>
 5    1  0.9041167E-005  0.9118800E+02  0.7818608E-02  0.1130116E+00
         25   -1    0    0    0    0  0.00000000000E+00  0.00000000000E+00  0.99999998245E-14  0.12500000000E+03  0.12500000000E+03 0.  0.
        -13    1    3    3    0    0 -0.26530473486E+02 -0.17586882580E+02 -0.44557211408E+02  0.54758750121E+02  0.10566000000E+00 0. -1.
         23    2    1    0    0    0 -0.16791695366E+02 -0.22506592012E+02 -0.41483670535E+01  0.96614851304E+02  0.92351030454E+02 0.  0.
         13    1    3    3    0    0  0.97387781201E+01 -0.49197094327E+01  0.40408844354E+02  0.41856101183E+02  0.10566000000E+00 0.  1.
         22    1    1    0    0    0  0.16791695366E+02  0.22506592012E+02  0.41483670535E+01  0.28385148696E+02  0.00000000000E+00 0. -1.
</event>
<event>
 5    1  0.9041167E-005  0.9118800E+02  0.7818608E-02  0.1130116E+00
         25   -1    0    0    0    0  0.00000000000E+00  0.00000000000E+00  0.99999998245E-14  0.12500000000E+03  0.12500000000E+03 0.  0.
        -13    1    3    3    0    0 -0.21071471589E+01  0.33995017030E+02 -0.33961633500E+02  0.48098908159E+02  0.10566000000E+00 0. -1.
         23    2    1    0    0    0  0.27504860063E+02  0.62608534592E+01 -0.10960906096E+02  0.94736869369E+02  0.89773143770E+02 0.  0.
         13    1    3    3    0    0  0.29612007222E+02 -0.27734163571E+02  0.23000727405E+02  0.46637961211E+02  0.10566000000E+00 0.  1.
         22    1    1    0    0    0 -0.27504860063E+02 -0.62608534592E+01  0.10960906096E+02  0.30263130631E+02  0.00000000000E+00 0.  1.
</event>
<event>
 5    1  0.9041167E-005  0.9118800E+02  0.7818608E-02  0.1130116E+00
         25   -1    0    0    0    0  0.00000000000E+00  0.00000000000E+00  0.99999998245E-14  0.12500000000E+03  0.12500000000E+03 0.  0.
        -13    1    3    3    0    0 -0.13261083555E+02  0.30825228963E+02  0.12046892970E+02  0.35653749760E+02  0.10566000000E+00 0. -1.
         23    2    1    0    0    0  0.22413762919E+01 -0.27456155984E+02  0.89260635058E+01  0.96042464213E+02  0.91573009415E+02 0.  0.
         13    1    3    3    0    0  0.15502459847E+02 -0.58281384948E+02 -0.31208294643E+01  0.60388714453E+02  0.10566000000E+00 0.  1.
         22    1    1    0    0    0 -0.22413762919E+01  0.27456155984E+02 -0.89260635058E+01  0.28957535787E+02  0.00000000000E+00 0.  1.
</event>
<event>
 5    1  0.9041167E-005  0.9118800E+02  0.7818608E-02  0.1130116E+00
         25   -1    0    0    0    0  0.00000000000E+00  0.00000000000E+00  0.99999998245E-14  0.12500000000E+03  0.12500000000E+03 0.  0.
        -13    1    3    3    0    0 -0.11973350368E+02 -0.53905394264E+02  0.14750926063E+02  0.57155521462E+02  0.10566000000E+00 0.  1.
         23    2    1    0    0    0  0.27980975659E+01 -0.19786478796E+02  0.22260489873E+02  0.95085730787E+02  0.90257590799E+02 0.  0.
         13    1    3    3    0    0  0.14771447934E+02  0.34118915468E+02  0.75095638101E+01  0.37930209325E+02  0.10566000000E+00 0. -1.
         22    1    1    0    0    0 -0.27980975659E+01  0.19786478796E+02 -0.22260489873E+02  0.29914269213E+02  0.00000000000E+00 0.  1.
</event>
<event>
 5    1  0.9041167E-005  0.9118800E+02  0.7818608E-02  0.1130116E+00
         25   -1    0    0    0    0  0.00000000000E+00  0.00000000000E+00  0.99999998245E-14  0.12500000000E+03  0.12500000000E+03 0.  0.
        -13    1    3    3    0    0  0.37232373327E+01 -0.38557010052E+02  0.16310244794E+02  0.42030236374E+02  0.10566000000E+00 0.  1.
         23    2    1    0    0    0 -0.12383372032E+02  0.15812465829E+02  0.16919691953E+02  0.98738660463E+02  0.95182273118E+02 0.  0.
         13    1    3    3    0    0 -0.16106609365E+02  0.54369475881E+02  0.60944715860E+00  0.56708424089E+02  0.10566000000E+00 0. -1.
         22    1    1    0    0    0  0.12383372032E+02 -0.15812465829E+02 -0.16919691953E+02  0.26261339537E+02  0.00000000000E+00 0. -1.
</event>
<event>
 5    1  0.9041167E-005  0.9118800E+02  0.7818608E-02  0.1130116E+00
         25   -1    0    0    0    0  0.00000000000E+00  0.00000000000E+00  0.99999998245E-14  0.12500000000E+03  0.12500000000E+03 0.  0.
        -13    1    3    3    0    0 -0.23601764920E+02  0.13012389029E+02  0.32451244463E+02  0.42183646201E+02  0.10566000000E+00 0.  1.
         23    2    1    0    0    0  0.17549974161E+02 -0.17043825572E+02  0.16146524511E+02  0.95687821013E+02  0.91087624040E+02 0.  0.
         13    1    3    3    0    0  0.41151739081E+02 -0.30056214602E+02 -0.16304719952E+02  0.53504174812E+02  0.10566000000E+00 0. -1.
         22    1    1    0    0    0 -0.17549974161E+02  0.17043825572E+02 -0.16146524511E+02  0.29312178987E+02  0.00000000000E+00 0.  1.
</event>
<event>
 5    1  0.9041167E-005  0.9118800E+02  0.7818608E-02  0.1130116E+00
         25   -1    0    0    0    0  0.00000000000E+00  0.00000000000E+00  0.99999998245E-14  0.12500000000E+03  0.12500000000E+03 0.  0.
        -13    1    3    3    0    0  0.21971591359E+02  0.10268510498E+02  0.24947555136E+02  0.34793459242E+02  0.10566000000E+00 0.  1.
         23    2    1    0    0    0 -0.88067042564E+01  0.13957860960E+02 -0.25866697030E+02  0.94316683072E+02  0.89186157940E+02 0.  0.
         13    1    3    3    0    0 -0.30778295616E+02  0.36893504618E+01 -0.50814252167E+02  0.59523223830E+02  0.10566000000E+00 0. -1.
         22    1    1    0    0    0  0.88067042564E+01 -0.13957860960E+02  0.25866697030E+02  0.30683316928E+02  0.00000000000E+00 0. -1.
</event>
<event>
 5    1  0.9041167E-005  0.9118800E+02  0.7818608E-02  0.1130116E+00
         25   -1    0    0    0    0  0.00000000000E+00  0.00000000000E+00  0.99999998245E-14  0.12500000000E+03  0.12500000000E+03 0.  0.
        -13    1    3    3    0    0  0.65288719907E+01 -0.19695441514E+01  0.58841946226E+02  0.59235893454E+02  0.10566000000E+00 0.  1.
         23    2    1    0    0    0 -0.67184151511E+01  0.95512341824E+01  0.26645640747E+02  0.95907847323E+02  0.91389068442E+02 0.  0.
         13    1    3    3    0    0 -0.13247287142E+02  0.11520778334E+02 -0.32196305479E+02  0.36671953869E+02  0.10566000000E+00 0. -1.
         22    1    1    0    0    0  0.67184151511E+01 -0.95512341824E+01 -0.26645640747E+02  0.29092152677E+02  0.00000000000E+00 0.  1.
</event>
<event>
 5    1  0.9041167E-005  0.9118800E+02  0.7818608E-02  0.1130116E+00
         25   -1    0    0    0    0  0.00000000000E+00  0.00000000000E+00  0.99999998245E-14  0.12500000000E+03  0.12500000000E+03 0.  0.
        -13    1    3    3    0    0  0.39925436154E+02 -0.33667031517E+02  0.12666677423E+02  0.53739792930E+02  0.10566000000E+00 0. -1.
         23    2    1    0    0    0  0.28912207006E+01 -0.27325655683E+02 -0.76802823130E+01  0.96468660178E+02  0.92152943764E+02 0.  0.
         13    1    3    3    0    0 -0.37034215453E+02  0.63413758335E+01 -0.20346959736E+02  0.42728867247E+02  0.10566000000E+00 0.  1.
         22    1    1    0    0    0 -0.28912207006E+01  0.27325655683E+02  0.76802823130E+01  0.28531339822E+02  0.00000000000E+00 0. -1.
</event>
<event>
 5    1  0.9041167E-005  0.9118800E+02  0.7818608E-02  0.1130116E+00
         25   -1    0    0    0    0  0.00000000000E+00  0.00000000000E+00  0.99999998245E-14  0.12500000000E+03  0.12500000000E+03 0.  0.
        -13    1    3    3    0    0 -0.45878377167E+02 -0.23645977009E+02 -0.78263345314E+01  0.52203643517E+02  0.10566000000E+00 0.  1.
         23    2    1    0    0    0 -0.25904665716E+02  0.14139717692E+02 -0.11233590529E+01  0.95466201433E+02  0.90782984960E+02 0.  0.
         13    1    3    3    0    0  0.19973711451E+02  0.37785694701E+02  0.67029754785E+01  0.43262557916E+02  0.10566000000E+00 0. -1.
         22    1    1    0    0    0  0.25904665716E+02 -0.14139717692E+02  0.11233590529E+01  0.29533798567E+02  0.00000000000E+00 0. -1.
</event>
<event>
 5    1  0.9041167E-005  0.9118800E+02  0.7818608E-02  0.1130116E+00
         25   -1    0    0    0    0  0.00000000000E+00  0.00000000000E+00  0.99999998245E-14  0.12500000000E+03  0.12500000000E+03 0.  0.
        -13    1    3    3    0    0 -0.14182333138E+02 -0.23993937010E+02 -0.48180129143E+02  0.55661329438E+02  0.10566000000E+00 0. -1.
         23    2    1    0    0    0 -0.25458871658E+02 -0.86283757555E+01 -0.14257406856E+02  0.94571778486E+02  0.89542976393E+02 0.  0.
         13    1    3    3    0    0 -0.11276538520E+02  0.15365561254E+02  0.33922722288E+02  0.38910449048E+02  0.10566000000E+00 0.  1.
         22    1    1    0    0    0  0.25458871658E+02  0.86283757555E+01  0.14257406856E+02  0.30428221514E+02  0.00000000000E+00 0. -1.
</event>
<event>
 5    1  0.9041167E-005  0.9118800E+02  0.7818608E-02  0.1130116E+00
         25   -1    0    0    0    0  0.00000000000E+00  0.00000000000E+00  0.99999998245E-14  0.12500000000E+03  0.12500000000E+03 0.  0.
        -13    1    3    3    0    0 -0.11529055908E+02  0.97064953771E+01  0.56831527384E+02  0.58795993498E+02  0.10566000000E+00 0.  1.
         23    2    1    0    0    0  0.87868466779E+01  0.10134830810E+02  0.26388707148E+02  0.95397849148E+02  0.90688821180E+02 0.  0.
         13    1    3    3    0    0  0.20315902586E+02  0.42833543308E+00 -0.30442820235E+02  0.36601855650E+02  0.10566000000E+00 0. -1.
         22    1    1    0    0    0 -0.87868466779E+01 -0.10134830810E+02 -0.26388707148E+02  0.29602150852E+02  0.00000000000E+00 0.  1.
</event>
<event>
 5    1  0.9041167E-005  0.9118800E+02  0.7818608E-02  0.1130116E+00
         25   -1    0    0    0    0  0.00000000000E+00  0.00000000000E+00  0.99999998245E-14  0.12500000000E+03  0.12500000000E+03 0.  0.
        -13    1    3    3    0    0 -0.62036059816E+01 -0.41685236662E+02 -0.24242683779E+02  0.48619569759E+02  0.10566000000E+00 0.  1.
         23    2    1    0    0    0 -0.28789442517E+02 -0.55932824831E+01 -0.54001315336E+01  0.95179231566E+02  0.90386989614E+02 0.  0.
         13    1    3    3    0    0 -0.22585836536E+02  0.36091954179E+02  0.18842552245E+02  0.46559661807E+02  0.10566000000E+00 0. -1.
         22    1    1    0    0    0  0.28789442517E+02  0.55932824831E+01  0.54001315336E+01  0.29820768434E+02  0.00000000000E+00 0. -1.
</event>
<event>
 5    1  0.9041167E-005  0.9118800E+02  0.7818608E-02  0.1130116E+00
         25   -1    0    0    0    0  0.00000000000E+00  0.00000000000E+00  0.99999998245E-14  0.12500000000E+03  0.12500000000E+03 0.  0.
        -13    1    3    3    0    0 -0.97758450015E+01  0.60964543546E+01  0.34829283227E+02  0.36685474446E+02  0.10566000000E+00 0.  1.
         23    2    1    0    0    0 -0.39849220322E+01  0.14504563600E+02 -0.24153601504E+02  0.96545502387E+02  0.92257116781E+02 0.  0.
         13    1    3    3    0    0  0.57909229694E+01  0.84081092451E+01 -0.58982884731E+02  0.59860027941E+02  0.10566000000E+00 0. -1.
         22    1    1    0    0    0  0.39849220322E+01 -0.14504563600E+02  0.24153601504E+02  0.28454497613E+02  0.00000000000E+00 0. -1.
</event>
<event>
 5    1  0.9041167E-005  0.9118800E+02  0.7818608E-02  0.1130116E+00
         25   -1    0    0    0    0  0.00000000000E+00  0.00000000000E+00  0.99999998245E-14  0.12500000000E+03  0.12500000000E+03 0.  0.
        -13    1    3    3    0    0  0.30512033404E+02  0.45027773725E+02 -0.62042348044E+01  0.54744755754E+02  0.10566000000E+00 0. -1.
         23    2    1    0    0    0 -0.73295362789E+01  0.26301115049E+02 -0.63550149193E+01  0.96966859443E+02  0.92826261697E+02 0.  0.
         13    1    3    3    0    0 -0.37841569683E+02 -0.18726658676E+02 -0.15078011498E+00  0.42222103689E+02  0.10566000000E+00 0.  1.
         22    1    1    0    0    0  0.73295362789E+01 -0.26301115049E+02  0.63550149193E+01  0.28033140557E+02  0.00000000000E+00 0. -1.
</event>
<event>
 5    1  0.9041167E-005  0.9118800E+02  0.7818608E-02  0.1130116E+00
         25   -1    0    0    0    0  0.00000000000E+00  0.00000000000E+00  0.99999998245E-14  0.12500000000E+03  0.12500000000E+03 0.  0.
        -13    1    3    3    0    0  0.17342678447E+02  0.36217241384E+02 -0.24215353309E+01  0.40228498189E+02  0.10566000000E+00 0. -1.
         23    2    1    0    0    0 -0.24398992443E+02  0.33961769688E+01  0.15054007865E+02  0.96130154087E+02  0.91692630684E+02 0.  0.
         13    1    3    3    0    0 -0.41741670890E+02 -0.32821064415E+02  0.17475543196E+02  0.55901655897E+02  0.10566000000E+00 0.  1.
         22    1    1    0    0    0  0.24398992443E+02 -0.33961769688E+01 -0.15054007865E+02  0.28869845913E+02  0.00000000000E+00 0.  1.
</event>
<event>
 5    1  0.9041167E-005  0.9118800E+02  0.7818608E-02  0.1130116E+00
         25   -1    0    0    0    0  0.00000000000E+00  0.00000000000E+00  0.99999998245E-14  0.12500000000E+03  0.12500000000E+03 0.  0.
        -13    1    3    3    0    0  0.20074741488E+02  0.22463293668E+02 -0.53650403618E+02  0.61530250939E+02  0.10566000000E+00 0. -1.
         23    2    1    0    0    0  0.68398134174E+01  0.17351580219E+02 -0.22392457948E+02  0.95857547176E+02  0.91320243067E+02 0.  0.
         13    1    3    3    0    0 -0.13234928070E+02 -0.51117134486E+01  0.31257945670E+02  0.34327296237E+02  0.10566000000E+00 0.  1.
         22    1    1    0    0    0 -0.68398134174E+01 -0.17351580219E+02  0.22392457948E+02  0.29142452824E+02  0.00000000000E+00 0. -1.
</event>
<event>
 5    1  0.9041167E-005  0.9118800E+02  0.7818608E-02  0.1130116E+00
         25   -1    0    0    0    0  0.00000000000E+00  0.00000000000E+00  0.99999998245E-14  0.12500000000E+03  0.12500000000E+03 0.  0.
        -13    1    3    3    0    0 -0.17132752295E+01  0.24293337737E+02 -0.28286747695E+02  0.37326302115E+02  0.10566000000E+00 0. -1.
         23    2    1    0    0    0 -0.22281837566E+01  0.44259666316E+01  0.27764530588E+02  0.96796752984E+02  0.92596912724E+02 0.  0.
         13    1    3    3    0    0 -0.51490852712E+00 -0.19867371105E+02  0.56051278283E+02  0.59470450869E+02  0.10566000000E+00 0.  1.
         22    1    1    0    0    0  0.22281837566E+01 -0.44259666316E+01 -0.27764530588E+02  0.28203247016E+02  0.00000000000E+00 0.  1.
</event>
<event>
 5    1  0.9041167E-005  0.9118800E+02  0.7818608E-02  0.1130116E+00
         25   -1    0    0    0    0  0.00000000000E+00  0.00000000000E+00  0.99999998245E-14  0.12500000000E+03  0.12500000000E+03 0.  0.
        -13    1    3    3    0    0  0.31971189897E+02 -0.36841674293E+02 -0.35708922432E+02  0.60453322931E+02  0.10566000000E+00 0.  1.
         23    2    1    0    0    0  0.56195168906E+01 -0.17913026632E+02 -0.23028076120E+02  0.95288928276E+02  0.90538566749E+02 0.  0.
         13    1    3    3    0    0 -0.26351673006E+02  0.18928647661E+02  0.12680846312E+02  0.34835605345E+02  0.10566000000E+00 0. -1.
         22    1    1    0    0    0 -0.56195168906E+01  0.17913026632E+02  0.23028076120E+02  0.29711071724E+02  0.00000000000E+00 0.  1.
</event>
<event>
 5    1  0.9041167E-005  0.9118800E+02  0.7818608E-02  0.1130116E+00
         25   -1    0    0    0    0  0.00000000000E+00  0.00000000000E+00  0.99999998245E-14  0.12500000000E+03  0.12500000000E+03 0.  0.
        -13    1    3    3    0    0  0.11609862607E+01 -0.22375514390E+02 -0.16685520611E+02  0.27936164652E+02  0.10566000000E+00 0. -1.
         23    2    1    0    0    0 -0.38159927671E+01  0.34824336104E+02  0.55940993505E+01  0.89523386106E+02  0.82193956751E+02 0.  0.
         13    1    3    3    0    0 -0.49769790278E+01  0.57199850494E+02  0.22279619962E+02  0.61587221454E+02  0.10566000000E+00 0.  1.
         22    1    1    0    0    0  0.38159927671E+01 -0.34824336104E+02 -0.55940993505E+01  0.35476613894E+02  0.00000000000E+00 0.  1.
</event>
<event>
 5    1  0.9041167E-005  0.9118800E+02  0.7818608E-02  0.1130116E+00
         25   -1    0    0    0    0  0.00000000000E+00  0.00000000000E+00  0.99999998245E-14  0.12500000000E+03  0.12500000000E+03 0.  0.
        -13    1    3    3    0    0 -0.34815949636E+02 -0.16411701041E+02  0.23888072692E+02  0.45300612149E+02  0.10566000000E+00 0.  1.
         23    2    1    0    0    0 -0.87712065474E+01 -0.34474608344E+02 -0.60691762184E+01  0.88913055203E+02  0.81260468869E+02 0.  0.
         13    1    3    3    0    0  0.26044743089E+02 -0.18062907304E+02 -0.29957248911E+02  0.43612443054E+02  0.10566000000E+00 0. -1.
         22    1    1    0    0    0  0.87712065474E+01  0.34474608344E+02  0.60691762184E+01  0.36086944797E+02  0.00000000000E+00 0.  1.
</event>
<event>
 5    1  0.9041167E-005  0.9118800E+02  0.7818608E-02  0.1130116E+00
         25   -1    0    0    0    0  0.00000000000E+00  0.00000000000E+00  0.99999998245E-14  0.12500000000E+03  0.12500000000E+03 0.  0.
        -13    1    3    3    0    0  0.38202757123E+02 -0.23737084880E+02  0.36646443488E+01  0.45125831102E+02  0.10566000000E+00 0. -1.
         23    2    1    0    0    0  0.15831442726E+02  0.13312239800E+02 -0.21480109555E+02  0.95179781795E+02  0.90387750546E+02 0.  0.
         13    1    3    3    0    0 -0.22371314397E+02  0.37049324680E+02 -0.25144753904E+02  0.50053950693E+02  0.10566000000E+00 0.  1.
         22    1    1    0    0    0 -0.15831442726E+02 -0.13312239800E+02  0.21480109555E+02  0.29820218205E+02  0.00000000000E+00 0.  1.
</event>
<event>
 5    1  0.9041167E-005  0.9118800E+02  0.7818608E-02  0.1130116E+00
         25   -1    0    0    0    0  0.00000000000E+00  0.00000000000E+00  0.99999998245E-14  0.12500000000E+03  0.12500000000E+03 0.  0.
        -13    1    3    3    0    0 -0.17557165790E+01 -0.26234145868E+02  0.40038104456E+02  0.47899623408E+02  0.10566000000E+00 0.  1.
         23    2    1    0    0    0  0.12545002689E+02  0.15332111649E+02  0.21946898136E+02  0.95434528959E+02  0.90739364334E+02 0.  0.
         13    1    3    3    0    0  0.14300719268E+02  0.41566257518E+02 -0.18091206320E+02  0.47534905551E+02  0.10566000000E+00 0. -1.
         22    1    1    0    0    0 -0.12545002689E+02 -0.15332111649E+02 -0.21946898136E+02  0.29565471041E+02  0.00000000000E+00 0.  1.
</event>
<event>
 5    1  0.9041167E-005  0.9118800E+02  0.7818608E-02  0.1130116E+00
         25   -1    0    0    0    0  0.00000000000E+00  0.00000000000E+00  0.99999998245E-14  0.12500000000E+03  0.12500000000E+03 0.  0.
        -13    1    3    3    0    0  0.51391491124E+01  0.55550040008E+02 -0.26248476625E+01  0.55849071504E+02  0.10566000000E+00 0. -1.
         23    2    1    0    0    0 -0.12795788280E+02  0.24750367951E+02  0.12368737007E+02  0.94515601260E+02  0.89464519866E+02 0.  0.
         13    1    3    3    0    0 -0.17934937392E+02 -0.30799672057E+02  0.14993584670E+02  0.38666529756E+02  0.10566000000E+00 0.  1.
         22    1    1    0    0    0  0.12795788280E+02 -0.24750367951E+02 -0.12368737007E+02  0.30484398740E+02  0.00000000000E+00 0. -1.
</event>
<event>
 5    1  0.9041167E-005  0.9118800E+02  0.7818608E-02  0.1130116E+00
         25   -1    0    0    0    0  0.00000000000E+00  0.00000000000E+00  0.99999998245E-14  0.12500000000E+03  0.12500000000E+03 0.  0.
        -13    1    3    3    0    0 -0.41242868162E+01  0.18405437903E+02 -0.25644397659E+02  0.31834198301E+02  0.10566000000E+00 0.  1.
         23    2    1    0    0    0 -0.40247817694E+02  0.79171388538E+01  0.90362146829E+01  0.82997368028E+02  0.71584509546E+02 0.  0.
         13    1    3    3    0    0 -0.36123530878E+02 -0.10488299049E+02  0.34680612342E+02  0.51163169727E+02  0.10566000000E+00 0. -1.
         22    1    1    0    0    0  0.40247817694E+02 -0.79171388538E+01 -0.90362146829E+01  0.42002631972E+02  0.00000000000E+00 0. -1.
</event>
<event>
 5    1  0.9041167E-005  0.9118800E+02  0.7818608E-02  0.1130116E+00
         25   -1    0    0    0    0  0.00000000000E+00  0.00000000000E+00  0.99999998245E-14  0.12500000000E+03  0.12500000000E+03 0.  0.
        -13    1    3    3    0    0  0.16036604937E+02  0.38111802801E+02  0.40601601890E+02  0.57949835640E+02  0.10566000000E+00 0.  1.
         23    2    1    0    0    0  0.19562449236E+02  0.21283624942E+02  0.76830026612E+01  0.95088285895E+02  0.90261129362E+02 0.  0.
         13    1    3    3    0    0  0.35258442998E+01 -0.16828177859E+02 -0.32918599229E+02  0.37138450255E+02  0.10566000000E+00 0. -1.
         22    1    1    0    0    0 -0.19562449236E+02 -0.21283624942E+02 -0.76830026612E+01  0.29911714105E+02  0.00000000000E+00 0.  1.
</event>
<event>
 5    1  0.9041167E-005  0.9118800E+02  0.7818608E-02  0.1130116E+00
         25   -1    0    0    0    0  0.00000000000E+00  0.00000000000E+00  0.99999998245E-14  0.12500000000E+03  0.12500000000E+03 0.  0.
        -13    1    3    3    0    0 -0.44419631070E+02  0.77807070192E+01  0.36780690328E+02  0.58193413469E+02  0.10566000000E+00 0. -1.
         23    2    1    0    0    0 -0.21565066675E+02  0.17350070171E+02  0.79612219518E+01  0.96199685929E+02  0.91787371039E+02 0.  0.
         13    1    3    3    0    0  0.22854564395E+02  0.95693631519E+01 -0.28819468376E+02  0.38006272460E+02  0.10566000000E+00 0.  1.
         22    1    1    0    0    0  0.21565066675E+02 -0.17350070171E+02 -0.79612219518E+01  0.28800314071E+02  0.00000000000E+00 0. -1.
</event>
<event>
 5    1  0.9041167E-005  0.9118800E+02  0.7818608E-02  0.1130116E+00
         25   -1    0    0    0    0  0.00000000000E+00  0.00000000000E+00  0.99999998245E-14  0.12500000000E+03  0.12500000000E+03 0.  0.
        -13    1    3    3    0    0 -0.23441343383E+01 -0.28587027973E+01 -0.60256074403E+02  0.60369469220E+02  0.10566000000E+00 0.  1.
         23    2    1    0    0    0 -0.12040283858E+02 -0.46637444161E+01 -0.26756057401E+02  0.95291321891E+02  0.90541871378E+02 0.  0.
         13    1    3    3    0    0 -0.96961495199E+01 -0.18050416189E+01  0.33500017002E+02  0.34921852670E+02  0.10566000000E+00 0. -1.
         22    1    1    0    0    0  0.12040283858E+02  0.46637444161E+01  0.26756057401E+02  0.29708678109E+02  0.00000000000E+00 0.  1.
</event>
<event>
 5    1  0.9041167E-005  0.9118800E+02  0.7818608E-02  0.1130116E+00
         25   -1    0    0    0    0  0.00000000000E+00  0.00000000000E+00  0.99999998245E-14  0.12500000000E+03  0.12500000000E+03 0.  0.
        -13    1    3    3    0    0  0.34235091280E+01 -0.32244392012E+02  0.36209485312E+01  0.32627345330E+02  0.10566000000E+00 0. -1.
         23    2    1    0    0    0 -0.57930701867E+01  0.28299334738E+02  0.10523886354E+02  0.94256477222E+02  0.89101735704E+02 0.  0.
         13    1    3    3    0    0 -0.92165793147E+01  0.60543726751E+02  0.69029378226E+01  0.61629131892E+02  0.10566000000E+00 0.  1.
         22    1    1    0    0    0  0.57930701867E+01 -0.28299334738E+02 -0.10523886354E+02  0.30743522778E+02  0.00000000000E+00 0.  1.
</event>
<event>
 5    1  0.9041167E-005  0.9118800E+02  0.7818608E-02  0.1130116E+00
         25   -1    0    0    0    0  0.00000000000E+00  0.00000000000E+00  0.99999998245E-14  0.12500000000E+03  0.12500000000E+03 0.  0.
        -13    1    3    3    0    0  0.20753538684E+02  0.49874565681E+02 -0.20114241717E+02  0.57643521350E+02  0.10566000000E+00 0.  1.
         23    2    1    0    0    0 -0.10516602882E+01  0.18214991903E+02 -0.22347210516E+02  0.96150567818E+02  0.91720455485E+02 0.  0.
         13    1    3    3    0    0 -0.21805198972E+02 -0.31659573778E+02 -0.22329687990E+01  0.38507046468E+02  0.10566000000E+00 0. -1.
         22    1    1    0    0    0  0.10516602882E+01 -0.18214991903E+02  0.22347210516E+02  0.28849432182E+02  0.00000000000E+00 0.  1.
</event>
<event>
 5    1  0.9041167E-005  0.9118800E+02  0.7818608E-02  0.1130116E+00
         25   -1    0    0    0    0  0.00000000000E+00  0.00000000000E+00  0.99999998245E-14  0.12500000000E+03  0.12500000000E+03 0.  0.
        -13    1    3    3    0    0 -0.11685260808E+02  0.41804288359E+01  0.44618775507E+02  0.46312715286E+02  0.10566000000E+00 0.  1.
         23    2    1    0    0    0 -0.28969577288E+02  0.26587317716E+01 -0.17844993237E+01  0.95853993400E+02  0.91315378497E+02 0.  0.
         13    1    3    3    0    0 -0.17284316480E+02 -0.15216970642E+01 -0.46403274831E+02  0.49541278114E+02  0.10566000000E+00 0. -1.
         22    1    1    0    0    0  0.28969577288E+02 -0.26587317716E+01  0.17844993237E+01  0.29146006600E+02  0.00000000000E+00 0.  1.
</event>
<event>
 5    1  0.9041167E-005  0.9118800E+02  0.7818608E-02  0.1130116E+00
         25   -1    0    0    0    0  0.00000000000E+00  0.00000000000E+00  0.99999998245E-14  0.12500000000E+03  0.12500000000E+03 0.  0.
        -13    1    3    3    0    0  0.29238227537E+01  0.26768637857E+02 -0.44340660010E+02  0.51876912074E+02  0.10566000000E+00 0. -1.
         23    2    1    0    0    0 -0.41835132517E+01  0.34551136369E+02 -0.85855571684E+01  0.89153178671E+02  0.81629006289E+02 0.  0.
         13    1    3    3    0    0 -0.71073360054E+01  0.77824985118E+01  0.35755102841E+02  0.37276266597E+02  0.10566000000E+00 0.  1.
         22    1    1    0    0    0  0.41835132517E+01 -0.34551136369E+02  0.85855571684E+01  0.35846821329E+02  0.00000000000E+00 0.  1.
</event>
<event>
 5    1  0.9041167E-005  0.9118800E+02  0.7818608E-02  0.1130116E+00
         25   -1    0    0    0    0  0.00000000000E+00  0.00000000000E+00  0.99999998245E-14  0.12500000000E+03  0.12500000000E+03 0.  0.
        -13    1    3    3    0    0  0.38909701180E+02 -0.34412984868E+02  0.24005184209E+02  0.57223058346E+02  0.10566000000E+00 0.  1.
         23    2    1    0    0    0  0.10725732501E+02 -0.27477497409E+02 -0.93085552668E+00  0.95488634502E+02  0.90813868024E+02 0.  0.
         13    1    3    3    0    0 -0.28183968679E+02  0.69354874591E+01 -0.24936039736E+02  0.38265576156E+02  0.10566000000E+00 0. -1.
         22    1    1    0    0    0 -0.10725732501E+02  0.27477497409E+02  0.93085552668E+00  0.29511365498E+02  0.00000000000E+00 0.  1.
</event>
<event>
 5    1  0.9041167E-005  0.9118800E+02  0.7818608E-02  0.1130116E+00
         25   -1    0    0    0    0  0.00000000000E+00  0.00000000000E+00  0.99999998245E-14  0.12500000000E+03  0.12500000000E+03 0.  0.
        -13    1    3    3    0    0  0.16805584170E+02  0.11772427143E+02  0.33741247118E+02  0.39490513054E+02  0.10566000000E+00 0. -1.
         23    2    1    0    0    0  0.31741282704E+02  0.15010752475E+02 -0.12138885589E+02  0.87849168772E+02  0.79607111448E+02 0.  0.
         13    1    3    3    0    0  0.14935698534E+02  0.32383253320E+01 -0.45880132707E+02  0.48358655718E+02  0.10566000000E+00 0.  1.
         22    1    1    0    0    0 -0.31741282704E+02 -0.15010752475E+02  0.12138885589E+02  0.37150831228E+02  0.00000000000E+00 0. -1.
</event>
<event>
 5    1  0.9041167E-005  0.9118800E+02  0.7818608E-02  0.1130116E+00
         25   -1    0    0    0    0  0.00000000000E+00  0.00000000000E+00  0.99999998245E-14  0.12500000000E+03  0.12500000000E+03 0.  0.
        -13    1    3    3    0    0  0.39704199855E+02  0.47134374150E+01  0.11532437425E+02  0.41613077937E+02  0.10566000000E+00 0.  1.
         23    2    1    0    0    0  0.12221609472E+01  0.74335303271E+01 -0.27496301197E+02  0.96490394075E+02  0.92182419792E+02 0.  0.
         13    1    3    3    0    0 -0.38482038908E+02  0.27200929121E+01 -0.39028738622E+02  0.54877316137E+02  0.10566000000E+00 0. -1.
         22    1    1    0    0    0 -0.12221609472E+01 -0.74335303271E+01  0.27496301197E+02  0.28509605925E+02  0.00000000000E+00 0. -1.
</event>
<event>
 5    1  0.9041167E-005  0.9118800E+02  0.7818608E-02  0.1130116E+00
         25   -1    0    0    0    0  0.00000000000E+00  0.00000000000E+00  0.99999998245E-14  0.12500000000E+03  0.12500000000E+03 0.  0.
        -13    1    3    3    0    0  0.40741722938E+02  0.50658900949E+01  0.50842103596E+01  0.41369210646E+02  0.10566000000E+00 0.  1.
         23    2    1    0    0    0 -0.29667035370E+01 -0.27927313498E+02  0.65892425111E+01  0.96152915468E+02  0.91723654894E+02 0.  0.
         13    1    3    3    0    0 -0.43708426475E+02 -0.32993203593E+02  0.15050321515E+01  0.54783704823E+02  0.10566000000E+00 0. -1.
         22    1    1    0    0    0  0.29667035370E+01  0.27927313498E+02 -0.65892425111E+01  0.28847084532E+02  0.00000000000E+00 0. -1.
</event>
<event>
 5    1  0.9041167E-005  0.9118800E+02  0.7818608E-02  0.1130116E+00
         25   -1    0    0    0    0  0.00000000000E+00  0.00000000000E+00  0.99999998245E-14  0.12500000000E+03  0.12500000000E+03 0.  0.
        -13    1    3    3    0    0  0.11402677057E+01 -0.43984604990E+02 -0.22939839231E+02  0.49620490470E+02  0.10566000000E+00 0. -1.
         23    2    1    0    0    0 -0.21701307361E+02 -0.49878370611E+01 -0.20262345527E+02  0.94893723147E+02  0.89991281726E+02 0.  0.
         13    1    3    3    0    0 -0.22841575066E+02  0.38996767928E+02  0.26774937042E+01  0.45273232676E+02  0.10566000000E+00 0.  1.
         22    1    1    0    0    0  0.21701307361E+02  0.49878370611E+01  0.20262345527E+02  0.30106276853E+02  0.00000000000E+00 0. -1.
</event>
<event>
 5    1  0.9041167E-005  0.9118800E+02  0.7818608E-02  0.1130116E+00
         25   -1    0    0    0    0  0.00000000000E+00  0.00000000000E+00  0.99999998245E-14  0.12500000000E+03  0.12500000000E+03 0.  0.
        -13    1    3    3    0    0 -0.82485717406E+01  0.39627926960E+02  0.17696253662E+02  0.44176691690E+02  0.10566000000E+00 0.  1.
         23    2    1    0    0    0 -0.22378324773E+02 -0.89102745357E+01  0.18326590379E+02  0.94733742767E+02  0.89768790188E+02 0.  0.
         13    1    3    3    0    0 -0.14129753033E+02 -0.48538201496E+02  0.63033671726E+00  0.50557051078E+02  0.10566000000E+00 0. -1.
         22    1    1    0    0    0  0.22378324773E+02  0.89102745357E+01 -0.18326590379E+02  0.30266257233E+02  0.00000000000E+00 0. -1.
</event>
<event>
 5    1  0.9041167E-005  0.9118800E+02  0.7818608E-02  0.1130116E+00
         25   -1    0    0    0    0  0.00000000000E+00  0.00000000000E+00  0.99999998245E-14  0.12500000000E+03  0.12500000000E+03 0.  0.
        -13    1    3    3    0    0 -0.27720784829E+02 -0.21685504553E+02  0.13572926157E+02  0.37721857162E+02  0.10566000000E+00 0. -1.
         23    2    1    0    0    0  0.13645776480E+02  0.16781156429E+02  0.21189695030E+02  0.94721003942E+02  0.89751050052E+02 0.  0.
         13    1    3    3    0    0  0.41366561309E+02  0.38466660981E+02  0.76167688734E+01  0.56999146780E+02  0.10566000000E+00 0.  1.
         22    1    1    0    0    0 -0.13645776480E+02 -0.16781156429E+02 -0.21189695030E+02  0.30278996058E+02  0.00000000000E+00 0.  1.
</event>
<event>
 5    1  0.9041167E-005  0.9118800E+02  0.7818608E-02  0.1130116E+00
         25   -1    0    0    0    0  0.00000000000E+00  0.00000000000E+00  0.99999998245E-14  0.12500000000E+03  0.12500000000E+03 0.  0.
        -13    1    3    3    0    0  0.21122152827E+02 -0.52027334404E-01 -0.13750781688E+02  0.25204031581E+02  0.10566000000E+00 0. -1.
         23    2    1    0    0    0 -0.10038999113E+02  0.11345260300E+02  0.36534233422E+02  0.85449441898E+02  0.75745366027E+02 0.  0.
         13    1    3    3    0    0 -0.31161151940E+02  0.11397287634E+02  0.50285015110E+02  0.60245410317E+02  0.10566000000E+00 0.  1.
         22    1    1    0    0    0  0.10038999113E+02 -0.11345260300E+02 -0.36534233422E+02  0.39550558102E+02  0.00000000000E+00 0.  1.
</event>
<event>
 5    1  0.9041167E-005  0.9118800E+02  0.7818608E-02  0.1130116E+00
         25   -1    0    0    0    0  0.00000000000E+00  0.00000000000E+00  0.99999998245E-14  0.12500000000E+03  0.12500000000E+03 0.  0.
        -13    1    3    3    0    0  0.44045980399E+01 -0.37301667824E+02 -0.46785166798E+02  0.59997315796E+02  0.10566000000E+00 0. -1.
         23    2    1    0    0    0  0.13788607722E+02 -0.18369451496E+02 -0.17430755654E+02  0.96166101654E+02  0.91741623124E+02 0.  0.
         13    1    3    3    0    0  0.93840096822E+01  0.18932216328E+02  0.29354411144E+02  0.36168785858E+02  0.10566000000E+00 0.  1.
         22    1    1    0    0    0 -0.13788607722E+02  0.18369451496E+02  0.17430755654E+02  0.28833898346E+02  0.00000000000E+00 0. -1.
</event>
<event>
 5    1  0.9041167E-005  0.9118800E+02  0.7818608E-02  0.1130116E+00
         25   -1    0    0    0    0  0.00000000000E+00  0.00000000000E+00  0.99999998245E-14  0.12500000000E+03  0.12500000000E+03 0.  0.
        -13    1    3    3    0    0  0.18972310697E+02 -0.45630341786E+02  0.14463826318E+01  0.49438647346E+02  0.10566000000E+00 0. -1.
         23    2    1    0    0    0  0.11708628108E+02  0.10065649943E+02  0.10494722868E+02  0.10633054663E+03  0.10467873069E+03 0.  0.
         13    1    3    3    0    0 -0.72636825884E+01  0.55695991728E+02  0.90483402363E+01  0.56891899287E+02  0.10566000000E+00 0.  1.
         22    1    1    0    0    0 -0.11708628108E+02 -0.10065649943E+02 -0.10494722868E+02  0.18669453367E+02  0.00000000000E+00 0.  1.
</event>
<event>
 5    1  0.9041167E-005  0.9118800E+02  0.7818608E-02  0.1130116E+00
         25   -1    0    0    0    0  0.00000000000E+00  0.00000000000E+00  0.99999998245E-14  0.12500000000E+03  0.12500000000E+03 0.  0.
        -13    1    3    3    0    0  0.33234305080E+02 -0.41195301750E+02  0.25128374599E+02  0.58591964419E+02  0.10566000000E+00 0.  1.
         23    2    1    0    0    0  0.26362218410E+02 -0.14959700174E+02  0.13529318499E+01  0.94658780292E+02  0.89664346721E+02 0.  0.
         13    1    3    3    0    0 -0.68720866697E+01  0.26235601576E+02 -0.23775442749E+02  0.36066815873E+02  0.10566000000E+00 0. -1.
         22    1    1    0    0    0 -0.26362218410E+02  0.14959700174E+02 -0.13529318499E+01  0.30341219708E+02  0.00000000000E+00 0.  1.
</event>
<event>
 5    1  0.9041167E-005  0.9118800E+02  0.7818608E-02  0.1130116E+00
         25   -1    0    0    0    0  0.00000000000E+00  0.00000000000E+00  0.99999998245E-14  0.12500000000E+03  0.12500000000E+03 0.  0.
        -13    1    3    3    0    0  0.11112680019E+02 -0.35392585675E+02 -0.33448135342E+02  0.49949131123E+02  0.10566000000E+00 0. -1.
         23    2    1    0    0    0 -0.13287878541E+02 -0.24729345671E+02  0.47648327147E+01  0.96525241278E+02  0.92229660736E+02 0.  0.
         13    1    3    3    0    0 -0.24400558561E+02  0.10663240004E+02  0.38212968057E+02  0.46576110156E+02  0.10566000000E+00 0.  1.
         22    1    1    0    0    0  0.13287878541E+02  0.24729345671E+02 -0.47648327147E+01  0.28474758722E+02  0.00000000000E+00 0.  1.
</event>
<event>
 5    1  0.9041167E-005  0.9118800E+02  0.7818608E-02  0.1130116E+00
         25   -1    0    0    0    0  0.00000000000E+00  0.00000000000E+00  0.99999998245E-14  0.12500000000E+03  0.12500000000E+03 0.  0.
        -13    1    3    3    0    0  0.52987583118E+02 -0.11314423635E+02  0.51298317519E+01  0.54424502613E+02  0.10566000000E+00 0.  1.
         23    2    1    0    0    0  0.13430807265E+02 -0.25105723493E+02  0.29841115200E+01  0.96371537634E+02  0.92021108494E+02 0.  0.
         13    1    3    3    0    0 -0.39556775853E+02 -0.13791299858E+02 -0.21457202319E+01  0.41947035021E+02  0.10566000000E+00 0. -1.
         22    1    1    0    0    0 -0.13430807265E+02  0.25105723493E+02 -0.29841115200E+01  0.28628462366E+02  0.00000000000E+00 0.  1.
</event>
<event>
 5    1  0.9041167E-005  0.9118800E+02  0.7818608E-02  0.1130116E+00
         25   -1    0    0    0    0  0.00000000000E+00  0.00000000000E+00  0.99999998245E-14  0.12500000000E+03  0.12500000000E+03 0.  0.
        -13    1    3    3    0    0  0.96085027424E+01 -0.11379361269E+02  0.30927599402E+02  0.34326968358E+02  0.10566000000E+00 0. -1.
         23    2    1    0    0    0  0.10007339628E+02  0.67218624937E+01 -0.27220876637E+02  0.95229101345E+02  0.90455930355E+02 0.  0.
         13    1    3    3    0    0  0.39883688510E+00  0.18101223763E+02 -0.58148476040E+02  0.60902132987E+02  0.10566000000E+00 0.  1.
         22    1    1    0    0    0 -0.10007339628E+02 -0.67218624937E+01  0.27220876637E+02  0.29770898655E+02  0.00000000000E+00 0.  1.
</event>
<event>
 5    1  0.9041167E-005  0.9118800E+02  0.7818608E-02  0.1130116E+00
         25   -1    0    0    0    0  0.00000000000E+00  0.00000000000E+00  0.99999998245E-14  0.12500000000E+03  0.12500000000E+03 0.  0.
        -13    1    3    3    0    0 -0.21551421198E+02 -0.20762959213E+02 -0.11674987656E+02  0.32122900425E+02  0.10566000000E+00 0. -1.
         23    2    1    0    0    0  0.15853411984E+02  0.24717218881E+02  0.86005832451E+01  0.94401934491E+02  0.89305563224E+02 0.  0.
         13    1    3    3    0    0  0.37404833182E+02  0.45480178093E+02  0.20275570901E+02  0.62279034066E+02  0.10566000000E+00 0.  1.
         22    1    1    0    0    0 -0.15853411984E+02 -0.24717218881E+02 -0.86005832451E+01  0.30598065509E+02  0.00000000000E+00 0.  1.
</event>
<event>
 5    1  0.9041167E-005  0.9118800E+02  0.7818608E-02  0.1130116E+00
         25   -1    0    0    0    0  0.00000000000E+00  0.00000000000E+00  0.99999998245E-14  0.12500000000E+03  0.12500000000E+03 0.  0.
        -13    1    3    3    0    0  0.37527864333E+02  0.95870047514E-01  0.24473599629E+02  0.44803102965E+02  0.10566000000E+00 0. -1.
         23    2    1    0    0    0  0.62392842567E+01 -0.25560228855E+02 -0.88701903074E+01  0.97234297357E+02  0.93185698148E+02 0.  0.
         13    1    3    3    0    0 -0.31288580076E+02 -0.25656098903E+02 -0.33343789936E+02  0.52431194392E+02  0.10566000000E+00 0.  1.
         22    1    1    0    0    0 -0.62392842567E+01  0.25560228855E+02  0.88701903074E+01  0.27765702643E+02  0.00000000000E+00 0.  1.
</event>
<event>
 5    1  0.9041167E-005  0.9118800E+02  0.7818608E-02  0.1130116E+00
         25   -1    0    0    0    0  0.00000000000E+00  0.00000000000E+00  0.99999998245E-14  0.12500000000E+03  0.12500000000E+03 0.  0.
        -13    1    3    3    0    0 -0.37508418846E+02  0.10658997539E+01 -0.20540455742E+02  0.42777787609E+02  0.10566000000E+00 0.  1.
         23    2    1    0    0    0  0.15392534396E+02 -0.14882438873E+02 -0.16105199481E+02  0.98208311881E+02  0.94483215283E+02 0.  0.
         13    1    3    3    0    0  0.52900953242E+02 -0.15948338627E+02  0.44352562606E+01  0.55430524272E+02  0.10566000000E+00 0. -1.
         22    1    1    0    0    0 -0.15392534396E+02  0.14882438873E+02  0.16105199481E+02  0.26791688119E+02  0.00000000000E+00 0. -1.
</event>
<event>
 5    1  0.9041167E-005  0.9118800E+02  0.7818608E-02  0.1130116E+00
         25   -1    0    0    0    0  0.00000000000E+00  0.00000000000E+00  0.99999998245E-14  0.12500000000E+03  0.12500000000E+03 0.  0.
        -13    1    3    3    0    0  0.23781322848E+02 -0.23053928178E+02 -0.11853995143E+02  0.35179017691E+02  0.10566000000E+00 0.  1.
         23    2    1    0    0    0 -0.69126656963E+01  0.24938491596E+02  0.11413777829E+02  0.96715947348E+02  0.92487765877E+02 0.  0.
         13    1    3    3    0    0 -0.30693988544E+02  0.47992419774E+02  0.23267772972E+02  0.61536929657E+02  0.10566000000E+00 0. -1.
         22    1    1    0    0    0  0.69126656963E+01 -0.24938491596E+02 -0.11413777829E+02  0.28284052652E+02  0.00000000000E+00 0. -1.
</event>
<event>
 5    1  0.9041167E-005  0.9118800E+02  0.7818608E-02  0.1130116E+00
         25   -1    0    0    0    0  0.00000000000E+00  0.00000000000E+00  0.99999998245E-14  0.12500000000E+03  0.12500000000E+03 0.  0.
        -13    1    3    3    0    0  0.36063539085E+02  0.19517945151E+01  0.17796860209E+01  0.36160293134E+02  0.10566000000E+00 0. -1.
         23    2    1    0    0    0 -0.20135661680E+02  0.10108603776E+02 -0.17860569849E+02  0.96248848772E+02  0.91854298718E+02 0.  0.
         13    1    3    3    0    0 -0.56199200766E+02  0.81568092611E+01 -0.19640255870E+02  0.60088555638E+02  0.10566000000E+00 0.  1.
         22    1    1    0    0    0  0.20135661680E+02 -0.10108603776E+02  0.17860569849E+02  0.28751151228E+02  0.00000000000E+00 0.  1.
</event>
<event>
 5    1  0.9041167E-005  0.9118800E+02  0.7818608E-02  0.1130116E+00
         25   -1    0    0    0    0  0.00000000000E+00  0.00000000000E+00  0.99999998245E-14  0.12500000000E+03  0.12500000000E+03 0.  0.
        -13    1    3    3    0    0  0.46151964498E+02 -0.32451614428E+02  0.20768976670E+02  0.60120484545E+02  0.10566000000E+00 0.  1.
         23    2    1    0    0    0  0.15853339119E+02 -0.23972513495E+02  0.34001112237E+01  0.96059189355E+02  0.91595836907E+02 0.  0.
         13    1    3    3    0    0 -0.30298625379E+02  0.84791009328E+01 -0.17368865446E+02  0.35938704810E+02  0.10566000000E+00 0. -1.
         22    1    1    0    0    0 -0.15853339119E+02  0.23972513495E+02 -0.34001112237E+01  0.28940810645E+02  0.00000000000E+00 0.  1.
</event>
<event>
 5    1  0.9041167E-005  0.9118800E+02  0.7818608E-02  0.1130116E+00
         25   -1    0    0    0    0  0.00000000000E+00  0.00000000000E+00  0.99999998245E-14  0.12500000000E+03  0.12500000000E+03 0.  0.
        -13    1    3    3    0    0 -0.22141039760E+02  0.63862419122E+01  0.26195882825E+02  0.34889040807E+02  0.10566000000E+00 0.  1.
         23    2    1    0    0    0  0.15492602477E+02  0.75990512894E+01 -0.22626383803E+02  0.96544428384E+02  0.92255661593E+02 0.  0.
         13    1    3    3    0    0  0.37633642236E+02  0.12128093772E+01 -0.48822266628E+02  0.61655387577E+02  0.10566000000E+00 0. -1.
         22    1    1    0    0    0 -0.15492602477E+02 -0.75990512894E+01  0.22626383803E+02  0.28455571616E+02  0.00000000000E+00 0. -1.
</event>
<event>
 5    1  0.9041167E-005  0.9118800E+02  0.7818608E-02  0.1130116E+00
         25   -1    0    0    0    0  0.00000000000E+00  0.00000000000E+00  0.99999998245E-14  0.12500000000E+03  0.12500000000E+03 0.  0.
        -13    1    3    3    0    0 -0.50639981660E+02 -0.19371632637E+02 -0.22423673850E+02  0.58672823407E+02  0.10566000000E+00 0.  1.
         23    2    1    0    0    0 -0.16480188849E+02 -0.22627433776E+02 -0.80838779515E+01  0.95863314078E+02  0.91328136517E+02 0.  0.
         13    1    3    3    0    0  0.34159792811E+02 -0.32558011381E+01  0.14339795899E+02  0.37190490672E+02  0.10566000000E+00 0. -1.
         22    1    1    0    0    0  0.16480188849E+02  0.22627433776E+02  0.80838779515E+01  0.29136685922E+02  0.00000000000E+00 0.  1.
</event>
<event>
 5    1  0.9041167E-005  0.9118800E+02  0.7818608E-02  0.1130116E+00
         25   -1    0    0    0    0  0.00000000000E+00  0.00000000000E+00  0.99999998245E-14  0.12500000000E+03  0.12500000000E+03 0.  0.
        -13    1    3    3    0    0  0.43575077982E+02 -0.24077335826E+02 -0.35070336320E+02  0.60897004649E+02  0.10566000000E+00 0.  1.
         23    2    1    0    0    0  0.20202786829E+02 -0.18932852833E+02 -0.99854273557E+01  0.95566782855E+02  0.90921371050E+02 0.  0.
         13    1    3    3    0    0 -0.23372291153E+02  0.51444829931E+01  0.25084908964E+02  0.34669778205E+02  0.10566000000E+00 0. -1.
         22    1    1    0    0    0 -0.20202786829E+02  0.18932852833E+02  0.99854273557E+01  0.29433217145E+02  0.00000000000E+00 0.  1.
</event>
<event>
 5    1  0.9041167E-005  0.9118800E+02  0.7818608E-02  0.1130116E+00
         25   -1    0    0    0    0  0.00000000000E+00  0.00000000000E+00  0.99999998245E-14  0.12500000000E+03  0.12500000000E+03 0.  0.
        -13    1    3    3    0    0  0.25018132577E+02 -0.12037821430E+02 -0.10901255931E+02  0.29827246727E+02  0.10566000000E+00 0.  1.
         23    2    1    0    0    0 -0.24757600993E+02  0.17387447947E+02  0.12579239038E+02  0.92235699186E+02  0.86220211068E+02 0.  0.
         13    1    3    3    0    0 -0.49775733570E+02  0.29425269377E+02  0.23480494969E+02  0.62408452459E+02  0.10566000000E+00 0. -1.
         22    1    1    0    0    0  0.24757600993E+02 -0.17387447947E+02 -0.12579239038E+02  0.32764300814E+02  0.00000000000E+00 0. -1.
</event>
<event>
 5    1  0.9041167E-005  0.9118800E+02  0.7818608E-02  0.1130116E+00
         25   -1    0    0    0    0  0.00000000000E+00  0.00000000000E+00  0.99999998245E-14  0.12500000000E+03  0.12500000000E+03 0.  0.
        -13    1    3    3    0    0  0.26748055734E+02 -0.23663413599E+02 -0.66289614739E+01  0.36323132064E+02  0.10566000000E+00 0. -1.
         23    2    1    0    0    0  0.35220625712E+01  0.28034797582E+02  0.94002126472E+01  0.95222176069E+02  0.90446359890E+02 0.  0.
         13    1    3    3    0    0 -0.23225993162E+02  0.51698211181E+02  0.16029174121E+02  0.58899044005E+02  0.10566000000E+00 0.  1.
         22    1    1    0    0    0 -0.35220625712E+01 -0.28034797582E+02 -0.94002126472E+01  0.29777823931E+02  0.00000000000E+00 0.  1.
</event>
<event>
 5    1  0.9041167E-005  0.9118800E+02  0.7818608E-02  0.1130116E+00
         25   -1    0    0    0    0  0.00000000000E+00  0.00000000000E+00  0.99999998245E-14  0.12500000000E+03  0.12500000000E+03 0.  0.
        -13    1    3    3    0    0 -0.11034193178E+02 -0.85471541717E+01  0.38097255573E+02  0.40573628255E+02  0.10566000000E+00 0.  1.
         23    2    1    0    0    0  0.27277868636E+02  0.12935214279E+02  0.81678955475E+01  0.93725147428E+02  0.88353193813E+02 0.  0.
         13    1    3    3    0    0  0.38312061814E+02  0.21482368451E+02 -0.29929360026E+02  0.53151519172E+02  0.10566000000E+00 0. -1.
         22    1    1    0    0    0 -0.27277868636E+02 -0.12935214279E+02 -0.81678955475E+01  0.31274852572E+02  0.00000000000E+00 0. -1.
</event>
<event>
 5    1  0.9041167E-005  0.9118800E+02  0.7818608E-02  0.1130116E+00
         25   -1    0    0    0    0  0.00000000000E+00  0.00000000000E+00  0.99999998245E-14  0.12500000000E+03  0.12500000000E+03 0.  0.
        -13    1    3    3    0    0  0.31258381804E+02 -0.35012103310E+02  0.55381718916E+01  0.47261150252E+02  0.10566000000E+00 0.  1.
         23    2    1    0    0    0 -0.55399559913E+01 -0.11669118664E+02  0.26425613816E+02  0.95586185077E+02  0.90948041591E+02 0.  0.
         13    1    3    3    0    0 -0.36798337795E+02  0.23342984646E+02  0.20887441924E+02  0.48325034825E+02  0.10566000000E+00 0. -1.
         22    1    1    0    0    0  0.55399559913E+01  0.11669118664E+02 -0.26425613816E+02  0.29413814923E+02  0.00000000000E+00 0. -1.
</event>
<event>
 5    1  0.9041167E-005  0.9118800E+02  0.7818608E-02  0.1130116E+00
         25   -1    0    0    0    0  0.00000000000E+00  0.00000000000E+00  0.99999998245E-14  0.12500000000E+03  0.12500000000E+03 0.  0.
        -13    1    3    3    0    0 -0.29694602278E+02  0.10139780723E+02 -0.14896189801E+02  0.34734596474E+02  0.10566000000E+00 0.  1.
         23    2    1    0    0    0  0.19104769341E+02 -0.90752074667E+01  0.18490882638E+02  0.96906151156E+02  0.92744475787E+02 0.  0.
         13    1    3    3    0    0  0.48799371619E+02 -0.19214988190E+02  0.33387072439E+02  0.62171554682E+02  0.10566000000E+00 0. -1.
         22    1    1    0    0    0 -0.19104769341E+02  0.90752074667E+01 -0.18490882638E+02  0.28093848844E+02  0.00000000000E+00 0. -1.
</event>
<event>
 5    1  0.9041167E-005  0.9118800E+02  0.7818608E-02  0.1130116E+00
         25   -1    0    0    0    0  0.00000000000E+00  0.00000000000E+00  0.99999998245E-14  0.12500000000E+03  0.12500000000E+03 0.  0.
        -13    1    3    3    0    0 -0.10041775308E+02  0.49127948304E+02  0.16614419452E+02  0.52824640592E+02  0.10566000000E+00 0. -1.
         23    2    1    0    0    0 -0.26538839223E+02  0.13013425340E+02  0.11941431241E+01  0.95418160906E+02  0.90716813362E+02 0.  0.
         13    1    3    3    0    0 -0.16497063915E+02 -0.36114522964E+02 -0.15420276328E+02  0.42593520314E+02  0.10566000000E+00 0.  1.
         22    1    1    0    0    0  0.26538839223E+02 -0.13013425340E+02 -0.11941431241E+01  0.29581839094E+02  0.00000000000E+00 0. -1.
</event>
<event>
 5    1  0.9041167E-005  0.9118800E+02  0.7818608E-02  0.1130116E+00
         25   -1    0    0    0    0  0.00000000000E+00  0.00000000000E+00  0.99999998245E-14  0.12500000000E+03  0.12500000000E+03 0.  0.
        -13    1    3    3    0    0 -0.30808001701E+02  0.46618865918E+02  0.14079761871E+02  0.57625536758E+02  0.10566000000E+00 0.  1.
         23    2    1    0    0    0 -0.28471788806E+01  0.29377755778E+02 -0.41502332186E+01  0.95194238847E+02  0.90407741437E+02 0.  0.
         13    1    3    3    0    0  0.27960822820E+02 -0.17241110139E+02 -0.18229995090E+02  0.37568702089E+02  0.10566000000E+00 0. -1.
         22    1    1    0    0    0  0.28471788806E+01 -0.29377755778E+02  0.41502332186E+01  0.29805761153E+02  0.00000000000E+00 0.  1.
</event>
<event>
 5    1  0.9041167E-005  0.9118800E+02  0.7818608E-02  0.1130116E+00
         25   -1    0    0    0    0  0.00000000000E+00  0.00000000000E+00  0.99999998245E-14  0.12500000000E+03  0.12500000000E+03 0.  0.
        -13    1    3    3    0    0  0.24437587209E+02  0.18170951154E+02  0.16321989621E+02  0.34551376871E+02  0.10566000000E+00 0.  1.
         23    2    1    0    0    0 -0.26645073797E+02  0.10601953737E+02 -0.12530024294E+02  0.93705225844E+02  0.88325004732E+02 0.  0.
         13    1    3    3    0    0 -0.51082661006E+02 -0.75689974174E+01 -0.28852013915E+02  0.59153848973E+02  0.10566000000E+00 0. -1.
         22    1    1    0    0    0  0.26645073797E+02 -0.10601953737E+02  0.12530024294E+02  0.31294774156E+02  0.00000000000E+00 0. -1.
</event>
<event>
 5    1  0.9041167E-005  0.9118800E+02  0.7818608E-02  0.1130116E+00
         25   -1    0    0    0    0  0.00000000000E+00  0.00000000000E+00  0.99999998245E-14  0.12500000000E+03  0.12500000000E+03 0.  0.
        -13    1    3    3    0    0  0.13093096286E+02 -0.74972442533E+01 -0.32487227012E+02  0.35819951489E+02  0.10566000000E+00 0. -1.
         23    2    1    0    0    0 -0.16887009069E+02 -0.87906353624E+01  0.20692454256E+02  0.96881962932E+02  0.92711869429E+02 0.  0.
         13    1    3    3    0    0 -0.29980105355E+02 -0.12933911091E+01  0.53179681268E+02  0.61062011443E+02  0.10566000000E+00 0.  1.
         22    1    1    0    0    0  0.16887009069E+02  0.87906353624E+01 -0.20692454256E+02  0.28118037068E+02  0.00000000000E+00 0.  1.
</event>
<event>
 5    1  0.9041167E-005  0.9118800E+02  0.7818608E-02  0.1130116E+00
         25   -1    0    0    0    0  0.00000000000E+00  0.00000000000E+00  0.99999998245E-14  0.12500000000E+03  0.12500000000E+03 0.  0.
        -13    1    3    3    0    0  0.44511822908E+02 -0.52260750905E+01 -0.72680969093E+01  0.45403200725E+02  0.10566000000E+00 0. -1.
         23    2    1    0    0    0 -0.47086337720E+01 -0.22636434021E+02 -0.13885410382E+02  0.98029942554E+02  0.94246939677E+02 0.  0.
         13    1    3    3    0    0 -0.49220456680E+02 -0.17410358930E+02 -0.66173134731E+01  0.52626741828E+02  0.10566000000E+00 0.  1.
         22    1    1    0    0    0  0.47086337720E+01  0.22636434021E+02  0.13885410382E+02  0.26970057446E+02  0.00000000000E+00 0. -1.
</event>
<event>
 5    1  0.9041167E-005  0.9118800E+02  0.7818608E-02  0.1130116E+00
         25   -1    0    0    0    0  0.00000000000E+00  0.00000000000E+00  0.99999998245E-14  0.12500000000E+03  0.12500000000E+03 0.  0.
        -13    1    3    3    0    0 -0.94371274576E+01  0.37354928482E+02  0.35907688597E+02  0.52667099037E+02  0.10566000000E+00 0. -1.
         23    2    1    0    0    0 -0.26896655955E+02  0.96592974849E+01  0.90226003555E+01  0.95031025265E+02  0.90181795925E+02 0.  0.
         13    1    3    3    0    0 -0.17459528498E+02 -0.27695630997E+02 -0.26885088241E+02  0.42363926228E+02  0.10566000000E+00 0.  1.
         22    1    1    0    0    0  0.26896655955E+02 -0.96592974849E+01 -0.90226003555E+01  0.29968974735E+02  0.00000000000E+00 0. -1.
</event>
<event>
 5    1  0.9041167E-005  0.9118800E+02  0.7818608E-02  0.1130116E+00
         25   -1    0    0    0    0  0.00000000000E+00  0.00000000000E+00  0.99999998245E-14  0.12500000000E+03  0.12500000000E+03 0.  0.
        -13    1    3    3    0    0  0.18113873769E+02  0.23563384447E+02 -0.46259864102E+02  0.54984831547E+02  0.10566000000E+00 0.  1.
         23    2    1    0    0    0  0.75179510585E+01 -0.10830207649E+02 -0.24873200545E+02  0.96848817233E+02  0.92667169527E+02 0.  0.
         13    1    3    3    0    0 -0.10595922711E+02 -0.34393592096E+02  0.21386663556E+02  0.41863985685E+02  0.10566000000E+00 0. -1.
         22    1    1    0    0    0 -0.75179510585E+01  0.10830207649E+02  0.24873200545E+02  0.28151182767E+02  0.00000000000E+00 0.  1.
</event>
<event>
 5    1  0.9041167E-005  0.9118800E+02  0.7818608E-02  0.1130116E+00
         25   -1    0    0    0    0  0.00000000000E+00  0.00000000000E+00  0.99999998245E-14  0.12500000000E+03  0.12500000000E+03 0.  0.
        -13    1    3    3    0    0 -0.26851800718E+02  0.45730759474E+02 -0.31578051753E+02  0.61721196363E+02  0.10566000000E+00 0. -1.
         23    2    1    0    0    0 -0.23851579471E+01  0.16378056190E+02 -0.80617273002E+01  0.10659018876E+03  0.10498831930E+03 0.  0.
         13    1    3    3    0    0  0.24466642771E+02 -0.29352703285E+02  0.23516324453E+02  0.44868992393E+02  0.10566000000E+00 0.  1.
         22    1    1    0    0    0  0.23851579471E+01 -0.16378056190E+02  0.80617273002E+01  0.18409811244E+02  0.00000000000E+00 0. -1.
</event>
<event>
 5    1  0.9041167E-005  0.9118800E+02  0.7818608E-02  0.1130116E+00
         25   -1    0    0    0    0  0.00000000000E+00  0.00000000000E+00  0.99999998245E-14  0.12500000000E+03  0.12500000000E+03 0.  0.
        -13    1    3    3    0    0  0.22200032883E+02  0.39627209959E+02  0.12965220212E+01  0.45440613580E+02  0.10566000000E+00 0. -1.
         23    2    1    0    0    0  0.13753152172E+02 -0.26209312922E+01  0.26264523903E+02  0.95236873629E+02  0.90466670146E+02 0.  0.
         13    1    3    3    0    0 -0.84468807108E+01 -0.42248141251E+02  0.24968001882E+02  0.49796260049E+02  0.10566000000E+00 0.  1.
         22    1    1    0    0    0 -0.13753152172E+02  0.26209312922E+01 -0.26264523903E+02  0.29763126371E+02  0.00000000000E+00 0.  1.
</event>
<event>
 5    1  0.9041167E-005  0.9118800E+02  0.7818608E-02  0.1130116E+00
         25   -1    0    0    0    0  0.00000000000E+00  0.00000000000E+00  0.99999998245E-14  0.12500000000E+03  0.12500000000E+03 0.  0.
        -13    1    3    3    0    0 -0.37059026534E+02  0.43760119974E+02  0.13738169854E+02  0.58966668744E+02  0.10566000000E+00 0. -1.
         23    2    1    0    0    0 -0.91117241313E+01  0.25054993241E+02 -0.55971474543E+01  0.97758409324E+02  0.93886113622E+02 0.  0.
         13    1    3    3    0    0  0.27947302403E+02 -0.18705126734E+02 -0.19335317309E+02  0.38791740579E+02  0.10566000000E+00 0.  1.
         22    1    1    0    0    0  0.91117241313E+01 -0.25054993241E+02  0.55971474543E+01  0.27241590676E+02  0.00000000000E+00 0. -1.
</event>
<event>
 5    1  0.9041167E-005  0.9118800E+02  0.7818608E-02  0.1130116E+00
         25   -1    0    0    0    0  0.00000000000E+00  0.00000000000E+00  0.99999998245E-14  0.12500000000E+03  0.12500000000E+03 0.  0.
        -13    1    3    3    0    0 -0.56888246923E+02  0.11177630892E+02 -0.11009129320E+02  0.59012067942E+02  0.10566000000E+00 0. -1.
         23    2    1    0    0    0 -0.35901939958E+02  0.20945434037E+02 -0.10330380714E+02  0.82170369305E+02  0.70125546887E+02 0.  0.
         13    1    3    3    0    0  0.20986306965E+02  0.97678031455E+01  0.67874860671E+00  0.23158301363E+02  0.10566000000E+00 0.  1.
         22    1    1    0    0    0  0.35901939958E+02 -0.20945434037E+02  0.10330380714E+02  0.42829630695E+02  0.00000000000E+00 0. -1.
</event>
<event>
 5    1  0.9041167E-005  0.9118800E+02  0.7818608E-02  0.1130116E+00
         25   -1    0    0    0    0  0.00000000000E+00  0.00000000000E+00  0.99999998245E-14  0.12500000000E+03  0.12500000000E+03 0.  0.
        -13    1    3    3    0    0  0.38697461415E+02  0.17701051077E+02  0.39267701795E+02  0.57903232185E+02  0.10566000000E+00 0. -1.
         23    2    1    0    0    0  0.24578773646E+02 -0.70964677896E+01  0.15131494629E+02  0.95277313400E+02  0.90522529516E+02 0.  0.
         13    1    3    3    0    0 -0.14118687770E+02 -0.24797518866E+02 -0.24136207166E+02  0.37374081215E+02  0.10566000000E+00 0.  1.
         22    1    1    0    0    0 -0.24578773646E+02  0.70964677896E+01 -0.15131494629E+02  0.29722686600E+02  0.00000000000E+00 0. -1.
</event>
<event>
 5    1  0.9041167E-005  0.9118800E+02  0.7818608E-02  0.1130116E+00
         25   -1    0    0    0    0  0.00000000000E+00  0.00000000000E+00  0.99999998245E-14  0.12500000000E+03  0.12500000000E+03 0.  0.
        -13    1    3    3    0    0 -0.74864379193E+00 -0.21658279334E+02  0.32445909105E+02  0.39017812765E+02  0.10566000000E+00 0. -1.
         23    2    1    0    0    0  0.26630465087E+02 -0.19198476127E+01 -0.12738769836E+02  0.95417171492E+02  0.90715450024E+02 0.  0.
         13    1    3    3    0    0  0.27379108879E+02  0.19738431721E+02 -0.45184678941E+02  0.56399358727E+02  0.10566000000E+00 0.  1.
         22    1    1    0    0    0 -0.26630465087E+02  0.19198476127E+01  0.12738769836E+02  0.29582828508E+02  0.00000000000E+00 0. -1.
</event>
<event>
 5    1  0.9041167E-005  0.9118800E+02  0.7818608E-02  0.1130116E+00
         25   -1    0    0    0    0  0.00000000000E+00  0.00000000000E+00  0.99999998245E-14  0.12500000000E+03  0.12500000000E+03 0.  0.
        -13    1    3    3    0    0  0.32208358484E+02 -0.22847653009E+01 -0.18209760474E+02  0.37070271772E+02  0.10566000000E+00 0.  1.
         23    2    1    0    0    0 -0.25821727779E+02 -0.68206964166E+01 -0.12361720757E+02  0.95570496688E+02  0.90926476739E+02 0.  0.
         13    1    3    3    0    0 -0.58030086263E+02 -0.45359311156E+01  0.58480397163E+01  0.58500224917E+02  0.10566000000E+00 0. -1.
         22    1    1    0    0    0  0.25821727779E+02  0.68206964166E+01  0.12361720757E+02  0.29429503312E+02  0.00000000000E+00 0. -1.
</event>
<event>
 5    1  0.9041167E-005  0.9118800E+02  0.7818608E-02  0.1130116E+00
         25   -1    0    0    0    0  0.00000000000E+00  0.00000000000E+00  0.99999998245E-14  0.12500000000E+03  0.12500000000E+03 0.  0.
        -13    1    3    3    0    0 -0.63415576022E+01 -0.33223573551E+02 -0.19366966316E+01  0.33878948482E+02  0.10566000000E+00 0. -1.
         23    2    1    0    0    0  0.23209998568E+02  0.19508389953E+02  0.30224513723E+01  0.94530071802E+02  0.89484735852E+02 0.  0.
         13    1    3    3    0    0  0.29551556170E+02  0.52731963504E+02  0.49591480039E+01  0.60651123321E+02  0.10566000000E+00 0.  1.
         22    1    1    0    0    0 -0.23209998568E+02 -0.19508389953E+02 -0.30224513723E+01  0.30469928198E+02  0.00000000000E+00 0.  1.
</event>
<event>
 5    1  0.9041167E-005  0.9118800E+02  0.7818608E-02  0.1130116E+00
         25   -1    0    0    0    0  0.00000000000E+00  0.00000000000E+00  0.99999998245E-14  0.12500000000E+03  0.12500000000E+03 0.  0.
        -13    1    3    3    0    0 -0.93398687865E+01  0.26007564654E+02 -0.52949884406E+02  0.59727112694E+02  0.10566000000E+00 0.  1.
         23    2    1    0    0    0 -0.84948750083E+01  0.19803066712E+02 -0.13717882992E+02  0.99455829111E+02  0.96119494786E+02 0.  0.
         13    1    3    3    0    0  0.84499377821E+00 -0.62044979425E+01  0.39232001413E+02  0.39728716417E+02  0.10566000000E+00 0. -1.
         22    1    1    0    0    0  0.84948750083E+01 -0.19803066712E+02  0.13717882992E+02  0.25544170889E+02  0.00000000000E+00 0.  1.
</event>
<event>
 5    1  0.9041167E-005  0.9118800E+02  0.7818608E-02  0.1130116E+00
         25   -1    0    0    0    0  0.00000000000E+00  0.00000000000E+00  0.99999998245E-14  0.12500000000E+03  0.12500000000E+03 0.  0.
        -13    1    3    3    0    0  0.43925297341E+02 -0.90519791614E+01  0.24595986818E+01  0.44915819741E+02  0.10566000000E+00 0.  1.
         23    2    1    0    0    0 -0.13208609581E+01 -0.14889507707E+02  0.25053977631E+02  0.95825629252E+02  0.91276543060E+02 0.  0.
         13    1    3    3    0    0 -0.45246158299E+02 -0.58375285452E+01  0.22594378949E+02  0.50909809511E+02  0.10566000000E+00 0. -1.
         22    1    1    0    0    0  0.13208609581E+01  0.14889507707E+02 -0.25053977631E+02  0.29174370748E+02  0.00000000000E+00 0. -1.
</event>
<event>
 5    1  0.9041167E-005  0.9118800E+02  0.7818608E-02  0.1130116E+00
         25   -1    0    0    0    0  0.00000000000E+00  0.00000000000E+00  0.99999998245E-14  0.12500000000E+03  0.12500000000E+03 0.  0.
        -13    1    3    3    0    0  0.42978074512E+02  0.23961937394E+02  0.35889628434E+02  0.60904564078E+02  0.10566000000E+00 0.  1.
         23    2    1    0    0    0  0.15893057510E+02  0.44977206217E+01  0.23047298060E+02  0.96645164157E+02  0.92392050736E+02 0.  0.
         13    1    3    3    0    0 -0.27085017001E+02 -0.19464216772E+02 -0.12842330374E+02  0.35740600079E+02  0.10566000000E+00 0. -1.
         22    1    1    0    0    0 -0.15893057510E+02 -0.44977206217E+01 -0.23047298060E+02  0.28354835843E+02  0.00000000000E+00 0.  1.
</event>
<event>
 5    1  0.9041167E-005  0.9118800E+02  0.7818608E-02  0.1130116E+00
         25   -1    0    0    0    0  0.00000000000E+00  0.00000000000E+00  0.99999998245E-14  0.12500000000E+03  0.12500000000E+03 0.  0.
        -13    1    3    3    0    0  0.34692188109E+02  0.13840353518E+02 -0.23721305435E+01  0.37426480847E+02  0.10566000000E+00 0.  1.
         23    2    1    0    0    0 -0.63404483607E+00 -0.29266803048E+02  0.91329769574E+01  0.94334725803E+02  0.89211442375E+02 0.  0.
         13    1    3    3    0    0 -0.35326232945E+02 -0.43107156566E+02  0.11505107501E+02  0.56908244955E+02  0.10566000000E+00 0. -1.
         22    1    1    0    0    0  0.63404483607E+00  0.29266803048E+02 -0.91329769574E+01  0.30665274197E+02  0.00000000000E+00 0. -1.
</event>
<event>
 5    1  0.9041167E-005  0.9118800E+02  0.7818608E-02  0.1130116E+00
         25   -1    0    0    0    0  0.00000000000E+00  0.00000000000E+00  0.99999998245E-14  0.12500000000E+03  0.12500000000E+03 0.  0.
        -13    1    3    3    0    0  0.17532161530E+02  0.15843552240E+02 -0.17974716241E+02  0.29690005448E+02  0.10566000000E+00 0.  1.
         23    2    1    0    0    0  0.12012847237E+02 -0.21985769677E+02  0.26630679467E+02  0.88436689757E+02  0.80524359291E+02 0.  0.
         13    1    3    3    0    0 -0.55193142932E+01 -0.37829321917E+02  0.44605395708E+02  0.58746684309E+02  0.10566000000E+00 0. -1.
         22    1    1    0    0    0 -0.12012847237E+02  0.21985769677E+02 -0.26630679467E+02  0.36563310243E+02  0.00000000000E+00 0. -1.
</event>
<event>
 5    1  0.9041167E-005  0.9118800E+02  0.7818608E-02  0.1130116E+00
         25   -1    0    0    0    0  0.00000000000E+00  0.00000000000E+00  0.99999998245E-14  0.12500000000E+03  0.12500000000E+03 0.  0.
        -13    1    3    3    0    0  0.59174470367E+01  0.21327909548E+02  0.27094652104E+02  0.34986100694E+02  0.10566000000E+00 0.  1.
         23    2    1    0    0    0 -0.16432811386E+02 -0.16272971391E+02 -0.16381658185E+02  0.96659117642E+02  0.92410926899E+02 0.  0.
         13    1    3    3    0    0 -0.22350258423E+02 -0.37600880939E+02 -0.43476310290E+02  0.61673016947E+02  0.10566000000E+00 0. -1.
         22    1    1    0    0    0  0.16432811386E+02  0.16272971391E+02  0.16381658185E+02  0.28340882358E+02  0.00000000000E+00 0. -1.
</event>
<event>
 5    1  0.9041167E-005  0.9118800E+02  0.7818608E-02  0.1130116E+00
         25   -1    0    0    0    0  0.00000000000E+00  0.00000000000E+00  0.99999998245E-14  0.12500000000E+03  0.12500000000E+03 0.  0.
        -13    1    3    3    0    0 -0.19252162081E+02  0.25779022137E+02 -0.16755593107E+02  0.36276229015E+02  0.10566000000E+00 0. -1.
         23    2    1    0    0    0  0.21176617940E+01 -0.50961020940E+01  0.29007263271E+02  0.95472452346E+02  0.90791591496E+02 0.  0.
         13    1    3    3    0    0  0.21369823875E+02 -0.30875124231E+02  0.45762856378E+02  0.59196223331E+02  0.10566000000E+00 0.  1.
         22    1    1    0    0    0 -0.21176617940E+01  0.50961020940E+01 -0.29007263271E+02  0.29527547654E+02  0.00000000000E+00 0.  1.
</event>
<event>
 5    1  0.9041167E-005  0.9118800E+02  0.7818608E-02  0.1130116E+00
         25   -1    0    0    0    0  0.00000000000E+00  0.00000000000E+00  0.99999998245E-14  0.12500000000E+03  0.12500000000E+03 0.  0.
        -13    1    3    3    0    0  0.17125521448E+02  0.56293547884E+02  0.19404218505E+02  0.61957904081E+02  0.10566000000E+00 0.  1.
         23    2    1    0    0    0  0.78012283946E+01  0.23979220383E+02  0.14401997413E+02  0.95960721357E+02  0.91461359815E+02 0.  0.
         13    1    3    3    0    0 -0.93242930537E+01 -0.32314327501E+02 -0.50022210916E+01  0.34002817276E+02  0.10566000000E+00 0. -1.
         22    1    1    0    0    0 -0.78012283946E+01 -0.23979220383E+02 -0.14401997413E+02  0.29039278643E+02  0.00000000000E+00 0.  1.
</event>
<event>
 5    1  0.9041167E-005  0.9118800E+02  0.7818608E-02  0.1130116E+00
         25   -1    0    0    0    0  0.00000000000E+00  0.00000000000E+00  0.99999998245E-14  0.12500000000E+03  0.12500000000E+03 0.  0.
        -13    1    3    3    0    0 -0.41962157463E+02  0.76662076702E+01 -0.41735325766E+02  0.59677818155E+02  0.10566000000E+00 0.  1.
         23    2    1    0    0    0 -0.13347336671E+02 -0.70990024295E+01 -0.24528783988E+02  0.96186661498E+02  0.91769632093E+02 0.  0.
         13    1    3    3    0    0  0.28614820791E+02 -0.14765210100E+02  0.17206541778E+02  0.36508843343E+02  0.10566000000E+00 0. -1.
         22    1    1    0    0    0  0.13347336671E+02  0.70990024295E+01  0.24528783988E+02  0.28813338502E+02  0.00000000000E+00 0.  1.
</event>
<event>
 5    1  0.9041167E-005  0.9118800E+02  0.7818608E-02  0.1130116E+00
         25   -1    0    0    0    0  0.00000000000E+00  0.00000000000E+00  0.99999998245E-14  0.12500000000E+03  0.12500000000E+03 0.  0.
        -13    1    3    3    0    0  0.12722398785E+02  0.31424339934E+02  0.15077466442E+02  0.37103769748E+02  0.10566000000E+00 0.  1.
         23    2    1    0    0    0 -0.17536094388E+02 -0.19499985829E+02 -0.18467385560E+01  0.98709802264E+02  0.95144366969E+02 0.  0.
         13    1    3    3    0    0 -0.30258493172E+02 -0.50924325764E+02 -0.16924204998E+02  0.61606032516E+02  0.10566000000E+00 0. -1.
         22    1    1    0    0    0  0.17536094388E+02  0.19499985829E+02  0.18467385560E+01  0.26290197736E+02  0.00000000000E+00 0.  1.
</event>
<event>
 5    1  0.9041167E-005  0.9118800E+02  0.7818608E-02  0.1130116E+00
         25   -1    0    0    0    0  0.00000000000E+00  0.00000000000E+00  0.99999998245E-14  0.12500000000E+03  0.12500000000E+03 0.  0.
        -13    1    3    3    0    0  0.30914968759E+02 -0.23387018768E+01 -0.34409140443E+02  0.46316357045E+02  0.10566000000E+00 0.  1.
         23    2    1    0    0    0  0.11916561754E+02 -0.27901840741E+02  0.18819858638E+01  0.94601660710E+02  0.89584681601E+02 0.  0.
         13    1    3    3    0    0 -0.18998407005E+02 -0.25563138864E+02  0.36291126307E+02  0.48285303665E+02  0.10566000000E+00 0. -1.
         22    1    1    0    0    0 -0.11916561754E+02  0.27901840741E+02 -0.18819858638E+01  0.30398339290E+02  0.00000000000E+00 0. -1.
</event>
<event>
 5    1  0.9041167E-005  0.9118800E+02  0.7818608E-02  0.1130116E+00
         25   -1    0    0    0    0  0.00000000000E+00  0.00000000000E+00  0.99999998245E-14  0.12500000000E+03  0.12500000000E+03 0.  0.
        -13    1    3    3    0    0 -0.17873719303E+02 -0.10536224649E+02 -0.15659251539E+00  0.20748917003E+02  0.10566000000E+00 0.  1.
         23    2    1    0    0    0  0.28912144296E+02  0.39404146406E+01  0.33802499832E+02  0.80345235974E+02  0.66793031025E+02 0.  0.
         13    1    3    3    0    0  0.46785863599E+02  0.14476639289E+02  0.33959092347E+02  0.59596318971E+02  0.10566000000E+00 0. -1.
         22    1    1    0    0    0 -0.28912144296E+02 -0.39404146406E+01 -0.33802499832E+02  0.44654764026E+02  0.00000000000E+00 0.  1.
</event>
<event>
 5    1  0.9041167E-005  0.9118800E+02  0.7818608E-02  0.1130116E+00
         25   -1    0    0    0    0  0.00000000000E+00  0.00000000000E+00  0.99999998245E-14  0.12500000000E+03  0.12500000000E+03 0.  0.
        -13    1    3    3    0    0 -0.82438896677E+01 -0.76937304525E+01 -0.32660635051E+02  0.34552618585E+02  0.10566000000E+00 0.  1.
         23    2    1    0    0    0 -0.24653362446E+02  0.26124479981E+02  0.61212269904E+01  0.88561748751E+02  0.80718258082E+02 0.  0.
         13    1    3    3    0    0 -0.16409472779E+02  0.33818210434E+02  0.38781862041E+02  0.54009130166E+02  0.10566000000E+00 0. -1.
         22    1    1    0    0    0  0.24653362446E+02 -0.26124479981E+02 -0.61212269904E+01  0.36438251249E+02  0.00000000000E+00 0.  1.
</event>
<event>
 5    1  0.9041167E-005  0.9118800E+02  0.7818608E-02  0.1130116E+00
         25   -1    0    0    0    0  0.00000000000E+00  0.00000000000E+00  0.99999998245E-14  0.12500000000E+03  0.12500000000E+03 0.  0.
        -13    1    3    3    0    0  0.61091905574E+02  0.28821288955E+01 -0.57245822597E+01  0.61427270815E+02  0.10566000000E+00 0.  1.
         23    2    1    0    0    0  0.25882103453E+02  0.40891944075E+01  0.51448726007E+01  0.98296545090E+02  0.94599874590E+02 0.  0.
         13    1    3    3    0    0 -0.35209802121E+02  0.12070655120E+01  0.10869454860E+02  0.36869274275E+02  0.10566000000E+00 0. -1.
         22    1    1    0    0    0 -0.25882103453E+02 -0.40891944075E+01 -0.51448726007E+01  0.26703454910E+02  0.00000000000E+00 0.  1.
</event>
<event>
 5    1  0.9041167E-005  0.9118800E+02  0.7818608E-02  0.1130116E+00
         25   -1    0    0    0    0  0.00000000000E+00  0.00000000000E+00  0.99999998245E-14  0.12500000000E+03  0.12500000000E+03 0.  0.
        -13    1    3    3    0    0  0.35002717481E+01  0.79842340464E+01  0.35721209434E+02  0.36769768330E+02  0.10566000000E+00 0. -1.
         23    2    1    0    0    0 -0.96096034551E+01 -0.25238418897E+02 -0.11221979706E+02  0.95755255249E+02  0.91180117418E+02 0.  0.
         13    1    3    3    0    0 -0.13109875203E+02 -0.33222652944E+02 -0.46943189140E+02  0.58985486919E+02  0.10566000000E+00 0.  1.
         22    1    1    0    0    0  0.96096034551E+01  0.25238418897E+02  0.11221979706E+02  0.29244744751E+02  0.00000000000E+00 0.  1.
</event>
<event>
 5    1  0.9041167E-005  0.9118800E+02  0.7818608E-02  0.1130116E+00
         25   -1    0    0    0    0  0.00000000000E+00  0.00000000000E+00  0.99999998245E-14  0.12500000000E+03  0.12500000000E+03 0.  0.
        -13    1    3    3    0    0  0.91933921826E+01 -0.36610301737E+02  0.35978529026E+02  0.52146892218E+02  0.10566000000E+00 0. -1.
         23    2    1    0    0    0 -0.54074897487E+01 -0.28289409102E+02 -0.43824109425E+01  0.95866906474E+02  0.91333053264E+02 0.  0.
         13    1    3    3    0    0 -0.14600881931E+02  0.83208926353E+01 -0.40360939968E+02  0.43720014256E+02  0.10566000000E+00 0.  1.
         22    1    1    0    0    0  0.54074897487E+01  0.28289409102E+02  0.43824109425E+01  0.29133093526E+02  0.00000000000E+00 0. -1.
</event>
<event>
 5    1  0.9041167E-005  0.9118800E+02  0.7818608E-02  0.1130116E+00
         25   -1    0    0    0    0  0.00000000000E+00  0.00000000000E+00  0.99999998245E-14  0.12500000000E+03  0.12500000000E+03 0.  0.
        -13    1    3    3    0    0 -0.33211755590E+02 -0.32146825141E+01 -0.15454868039E+02  0.36772530552E+02  0.10566000000E+00 0.  1.
         23    2    1    0    0    0  0.26274027461E+02 -0.64339613629E+01 -0.78811348616E+01  0.96824963806E+02  0.92634987729E+02 0.  0.
         13    1    3    3    0    0  0.59485783051E+02 -0.32192788488E+01  0.75737331773E+01  0.60052433254E+02  0.10566000000E+00 0. -1.
         22    1    1    0    0    0 -0.26274027461E+02  0.64339613629E+01  0.78811348616E+01  0.28175036194E+02  0.00000000000E+00 0. -1.
</event>
<event>
 5    1  0.9041167E-005  0.9118800E+02  0.7818608E-02  0.1130116E+00
         25   -1    0    0    0    0  0.00000000000E+00  0.00000000000E+00  0.99999998245E-14  0.12500000000E+03  0.12500000000E+03 0.  0.
        -13    1    3    3    0    0 -0.34705357063E+01 -0.34747682514E+02 -0.39270483787E+01  0.35140844202E+02  0.10566000000E+00 0. -1.
         23    2    1    0    0    0 -0.87489891568E+01  0.25329174920E+02 -0.11337348302E+02  0.95902794294E+02  0.91382156756E+02 0.  0.
         13    1    3    3    0    0 -0.52784534504E+01  0.60076857434E+02 -0.74102999238E+01  0.60761950092E+02  0.10566000000E+00 0.  1.
         22    1    1    0    0    0  0.87489891568E+01 -0.25329174920E+02  0.11337348302E+02  0.29097205706E+02  0.00000000000E+00 0.  1.
</event>
<event>
 5    1  0.9041167E-005  0.9118800E+02  0.7818608E-02  0.1130116E+00
         25   -1    0    0    0    0  0.00000000000E+00  0.00000000000E+00  0.99999998245E-14  0.12500000000E+03  0.12500000000E+03 0.  0.
        -13    1    3    3    0    0  0.17983389639E+02  0.39891704356E+02 -0.38324523332E+02  0.58168123848E+02  0.10566000000E+00 0.  1.
         23    2    1    0    0    0  0.20927917896E+02  0.82079234194E+01 -0.20138075583E+02  0.94819048350E+02  0.89887496836E+02 0.  0.
         13    1    3    3    0    0  0.29445282573E+01 -0.31683780936E+02  0.18186447749E+02  0.36650924502E+02  0.10566000000E+00 0. -1.
         22    1    1    0    0    0 -0.20927917896E+02 -0.82079234194E+01  0.20138075583E+02  0.30180951650E+02  0.00000000000E+00 0.  1.
</event>
<event>
 5    1  0.9041167E-005  0.9118800E+02  0.7818608E-02  0.1130116E+00
         25   -1    0    0    0    0  0.00000000000E+00  0.00000000000E+00  0.99999998245E-14  0.12500000000E+03  0.12500000000E+03 0.  0.
        -13    1    3    3    0    0  0.14361183327E+02 -0.19353301808E+02 -0.23578273056E+02  0.33715575062E+02  0.10566000000E+00 0. -1.
         23    2    1    0    0    0  0.82091997330E+01  0.15393044058E+02  0.25463962028E+02  0.94133349262E+02  0.88928832869E+02 0.  0.
         13    1    3    3    0    0 -0.61519835941E+01  0.34746345866E+02  0.49042235084E+02  0.60417774200E+02  0.10566000000E+00 0.  1.
         22    1    1    0    0    0 -0.82091997330E+01 -0.15393044058E+02 -0.25463962028E+02  0.30866650738E+02  0.00000000000E+00 0.  1.
</event>
<event>
 5    1  0.9041167E-005  0.9118800E+02  0.7818608E-02  0.1130116E+00
         25   -1    0    0    0    0  0.00000000000E+00  0.00000000000E+00  0.99999998245E-14  0.12500000000E+03  0.12500000000E+03 0.  0.
        -13    1    3    3    0    0 -0.16559692108E+02  0.29816769249E+02  0.52358598498E+01  0.34506354829E+02  0.10566000000E+00 0.  1.
         23    2    1    0    0    0  0.12198556330E+02 -0.25189944477E+02 -0.16810691124E+01  0.96961382476E+02  0.92818886112E+02 0.  0.
         13    1    3    3    0    0  0.28758248438E+02 -0.55006713726E+02 -0.69169289622E+01  0.62455027648E+02  0.10566000000E+00 0. -1.
         22    1    1    0    0    0 -0.12198556330E+02  0.25189944477E+02  0.16810691124E+01  0.28038617524E+02  0.00000000000E+00 0. -1.
</event>
<event>
 5    1  0.9041167E-005  0.9118800E+02  0.7818608E-02  0.1130116E+00
         25   -1    0    0    0    0  0.00000000000E+00  0.00000000000E+00  0.99999998245E-14  0.12500000000E+03  0.12500000000E+03 0.  0.
        -13    1    3    3    0    0 -0.93592665050E+01  0.33376733920E+02  0.23222238456E+02  0.41723923109E+02  0.10566000000E+00 0.  1.
         23    2    1    0    0    0  0.26855194121E+02  0.65760920406E+01 -0.76175222718E+01  0.96321208475E+02  0.91952716755E+02 0.  0.
         13    1    3    3    0    0  0.36214460626E+02 -0.26800641879E+02 -0.30839760727E+02  0.54597285366E+02  0.10566000000E+00 0. -1.
         22    1    1    0    0    0 -0.26855194121E+02 -0.65760920406E+01  0.76175222718E+01  0.28678791525E+02  0.00000000000E+00 0. -1.
</event>
<event>
 5    1  0.9041167E-005  0.9118800E+02  0.7818608E-02  0.1130116E+00
         25   -1    0    0    0    0  0.00000000000E+00  0.00000000000E+00  0.99999998245E-14  0.12500000000E+03  0.12500000000E+03 0.  0.
        -13    1    3    3    0    0  0.14040126969E+02 -0.13355170617E+02 -0.30877971712E+02  0.36454712296E+02  0.10566000000E+00 0.  1.
         23    2    1    0    0    0 -0.33267969384E+01 -0.18246403191E+02  0.24255790775E+02  0.94465721011E+02  0.89394799920E+02 0.  0.
         13    1    3    3    0    0 -0.17366923907E+02 -0.48912325737E+01  0.55133762487E+02  0.58011008715E+02  0.10566000000E+00 0. -1.
         22    1    1    0    0    0  0.33267969384E+01  0.18246403191E+02 -0.24255790775E+02  0.30534278989E+02  0.00000000000E+00 0. -1.
</event>
<event>
 5    1  0.9041167E-005  0.9118800E+02  0.7818608E-02  0.1130116E+00
         25   -1    0    0    0    0  0.00000000000E+00  0.00000000000E+00  0.99999998245E-14  0.12500000000E+03  0.12500000000E+03 0.  0.
        -13    1    3    3    0    0  0.19004167993E+02  0.16933904502E+02 -0.53630121591E+02  0.59364270641E+02  0.10566000000E+00 0. -1.
         23    2    1    0    0    0  0.12615438983E+02  0.20997107685E+02 -0.21395751124E+02  0.92476070379E+02  0.86567994055E+02 0.  0.
         13    1    3    3    0    0 -0.63887290101E+01  0.40632031825E+01  0.32234370467E+02  0.33111799738E+02  0.10566000000E+00 0.  1.
         22    1    1    0    0    0 -0.12615438983E+02 -0.20997107685E+02  0.21395751124E+02  0.32523929621E+02  0.00000000000E+00 0. -1.
</event>
<event>
 5    1  0.9041167E-005  0.9118800E+02  0.7818608E-02  0.1130116E+00
         25   -1    0    0    0    0  0.00000000000E+00  0.00000000000E+00  0.99999998245E-14  0.12500000000E+03  0.12500000000E+03 0.  0.
        -13    1    3    3    0    0 -0.27009923086E+02 -0.43512442431E+02 -0.11301221070E+02  0.52446137638E+02  0.10566000000E+00 0. -1.
         23    2    1    0    0    0  0.95796932414E+01 -0.20477795400E+02 -0.17874682883E+02  0.96179609385E+02  0.91760025862E+02 0.  0.
         13    1    3    3    0    0  0.36589616327E+02  0.23034647031E+02 -0.65734618131E+01  0.43733471747E+02  0.10566000000E+00 0.  1.
         22    1    1    0    0    0 -0.95796932414E+01  0.20477795400E+02  0.17874682883E+02  0.28820390615E+02  0.00000000000E+00 0. -1.
</event>
<event>
 5    1  0.9041167E-005  0.9118800E+02  0.7818608E-02  0.1130116E+00
         25   -1    0    0    0    0  0.00000000000E+00  0.00000000000E+00  0.99999998245E-14  0.12500000000E+03  0.12500000000E+03 0.  0.
        -13    1    3    3    0    0  0.36685896129E+02  0.33881939398E+00  0.11415220278E+02  0.38422495902E+02  0.10566000000E+00 0. -1.
         23    2    1    0    0    0 -0.86892154639E+01  0.11106421259E+02 -0.24124535375E+02  0.97056337648E+02  0.92946675099E+02 0.  0.
         13    1    3    3    0    0 -0.45375111593E+02  0.10767601865E+02 -0.35539755653E+02  0.58633841746E+02  0.10566000000E+00 0.  1.
         22    1    1    0    0    0  0.86892154639E+01 -0.11106421259E+02  0.24124535375E+02  0.27943662352E+02  0.00000000000E+00 0.  1.
</event>
<event>
 5    1  0.9041167E-005  0.9118800E+02  0.7818608E-02  0.1130116E+00
         25   -1    0    0    0    0  0.00000000000E+00  0.00000000000E+00  0.99999998245E-14  0.12500000000E+03  0.12500000000E+03 0.  0.
        -13    1    3    3    0    0 -0.28349081617E+02  0.14194170686E+02 -0.32766849166E+02  0.45594105741E+02  0.10566000000E+00 0.  1.
         23    2    1    0    0    0 -0.25972346839E+02 -0.20701425672E+02 -0.27707946637E+01  0.91671496760E+02  0.85398326623E+02 0.  0.
         13    1    3    3    0    0  0.23767347781E+01 -0.34895596358E+02  0.29996054503E+02  0.46077391019E+02  0.10566000000E+00 0. -1.
         22    1    1    0    0    0  0.25972346839E+02  0.20701425672E+02  0.27707946637E+01  0.33328503240E+02  0.00000000000E+00 0. -1.
</event>
<event>
 5    1  0.9041167E-005  0.9118800E+02  0.7818608E-02  0.1130116E+00
         25   -1    0    0    0    0  0.00000000000E+00  0.00000000000E+00  0.99999998245E-14  0.12500000000E+03  0.12500000000E+03 0.  0.
        -13    1    3    3    0    0 -0.14611569654E+02 -0.10162190983E+02  0.36346716669E+02  0.40470521000E+02  0.10566000000E+00 0. -1.
         23    2    1    0    0    0  0.27311010188E+02 -0.12533162649E+02  0.17109883078E+01  0.94901845165E+02  0.90002562693E+02 0.  0.
         13    1    3    3    0    0  0.41922579842E+02 -0.23709716663E+01 -0.34635728362E+02  0.54431324165E+02  0.10566000000E+00 0.  1.
         22    1    1    0    0    0 -0.27311010188E+02  0.12533162649E+02 -0.17109883078E+01  0.30098154835E+02  0.00000000000E+00 0.  1.
</event>
<event>
 5    1  0.9041167E-005  0.9118800E+02  0.7818608E-02  0.1130116E+00
         25   -1    0    0    0    0  0.00000000000E+00  0.00000000000E+00  0.99999998245E-14  0.12500000000E+03  0.12500000000E+03 0.  0.
        -13    1    3    3    0    0 -0.47704033231E+02 -0.31081609733E+02 -0.65557024357E+01  0.57312561002E+02  0.10566000000E+00 0.  1.
         23    2    1    0    0    0 -0.12791164081E+02 -0.21837521822E+02 -0.16519327063E+02  0.94777832565E+02  0.89830162758E+02 0.  0.
         13    1    3    3    0    0  0.34912869149E+02  0.92440879115E+01 -0.99636246271E+01  0.37465271563E+02  0.10566000000E+00 0. -1.
         22    1    1    0    0    0  0.12791164081E+02  0.21837521822E+02  0.16519327063E+02  0.30222167435E+02  0.00000000000E+00 0.  1.
</event>
<event>
 5    1  0.9041167E-005  0.9118800E+02  0.7818608E-02  0.1130116E+00
         25   -1    0    0    0    0  0.00000000000E+00  0.00000000000E+00  0.99999998245E-14  0.12500000000E+03  0.12500000000E+03 0.  0.
        -13    1    3    3    0    0  0.10686221864E+02 -0.15904477608E+02 -0.27447575043E+02  0.33474292905E+02  0.10566000000E+00 0. -1.
         23    2    1    0    0    0 -0.10879992981E+02  0.28280264184E+02  0.74858648043E+01  0.93788050983E+02  0.88442143494E+02 0.  0.
         13    1    3    3    0    0 -0.21566214846E+02  0.44184741791E+02  0.34933439847E+02  0.60313758078E+02  0.10566000000E+00 0.  1.
         22    1    1    0    0    0  0.10879992981E+02 -0.28280264184E+02 -0.74858648043E+01  0.31211949017E+02  0.00000000000E+00 0.  1.
</event>
<event>
 5    1  0.9041167E-005  0.9118800E+02  0.7818608E-02  0.1130116E+00
         25   -1    0    0    0    0  0.00000000000E+00  0.00000000000E+00  0.99999998245E-14  0.12500000000E+03  0.12500000000E+03 0.  0.
        -13    1    3    3    0    0  0.62689925478E+01 -0.34888107563E+02  0.48396112742E+02  0.59988959063E+02  0.10566000000E+00 0.  1.
         23    2    1    0    0    0 -0.95820717050E+01 -0.16664211697E+02  0.20210594526E+02  0.97107703918E+02  0.93015729743E+02 0.  0.
         13    1    3    3    0    0 -0.15851064253E+02  0.18223895866E+02 -0.28185518216E+02  0.37118744855E+02  0.10566000000E+00 0. -1.
         22    1    1    0    0    0  0.95820717050E+01  0.16664211697E+02 -0.20210594526E+02  0.27892296082E+02  0.00000000000E+00 0.  1.
</event>
<event>
 5    1  0.9041167E-005  0.9118800E+02  0.7818608E-02  0.1130116E+00
         25   -1    0    0    0    0  0.00000000000E+00  0.00000000000E+00  0.99999998245E-14  0.12500000000E+03  0.12500000000E+03 0.  0.
        -13    1    3    3    0    0 -0.49231910701E+02  0.87432163983E+01  0.31447641896E+02  0.59069367773E+02  0.10566000000E+00 0.  1.
         23    2    1    0    0    0 -0.27869745394E+02  0.66087214923E+00  0.10355673894E+01  0.97103192654E+02  0.93009667043E+02 0.  0.
         13    1    3    3    0    0  0.21362165307E+02 -0.80823442491E+01 -0.30412074507E+02  0.38033824880E+02  0.10566000000E+00 0. -1.
         22    1    1    0    0    0  0.27869745394E+02 -0.66087214923E+00 -0.10355673894E+01  0.27896807346E+02  0.00000000000E+00 0.  1.
</event>
<event>
 5    1  0.9041167E-005  0.9118800E+02  0.7818608E-02  0.1130116E+00
         25   -1    0    0    0    0  0.00000000000E+00  0.00000000000E+00  0.99999998245E-14  0.12500000000E+03  0.12500000000E+03 0.  0.
        -13    1    3    3    0    0 -0.16728605657E+02  0.89375491774E+01 -0.17284024033E+02  0.25660761551E+02  0.10566000000E+00 0. -1.
         23    2    1    0    0    0  0.15567786332E+01  0.87571667121E+01  0.39081869631E+02  0.84918781675E+02  0.74864513749E+02 0.  0.
         13    1    3    3    0    0  0.18285384290E+02 -0.18038246532E+00  0.56365893664E+02  0.59258020125E+02  0.10566000000E+00 0.  1.
         22    1    1    0    0    0 -0.15567786332E+01 -0.87571667121E+01 -0.39081869631E+02  0.40081218325E+02  0.00000000000E+00 0.  1.
</event>
<event>
 5    1  0.9041167E-005  0.9118800E+02  0.7818608E-02  0.1130116E+00
         25   -1    0    0    0    0  0.00000000000E+00  0.00000000000E+00  0.99999998245E-14  0.12500000000E+03  0.12500000000E+03 0.  0.
        -13    1    3    3    0    0  0.45309450413E+01 -0.20052101984E+02  0.55921483746E+02  0.59580531765E+02  0.10566000000E+00 0. -1.
         23    2    1    0    0    0  0.42326305336E+01  0.51163782539E+01  0.23231738408E+02  0.10083791902E+03  0.97900356260E+02 0.  0.
         13    1    3    3    0    0 -0.29831450769E+00  0.25168480238E+02 -0.32689745339E+02  0.41257387258E+02  0.10566000000E+00 0.  1.
         22    1    1    0    0    0 -0.42326305336E+01 -0.51163782539E+01 -0.23231738408E+02  0.24162080977E+02  0.00000000000E+00 0. -1.
</event>
<event>
 5    1  0.9041167E-005  0.9118800E+02  0.7818608E-02  0.1130116E+00
         25   -1    0    0    0    0  0.00000000000E+00  0.00000000000E+00  0.99999998245E-14  0.12500000000E+03  0.12500000000E+03 0.  0.
        -13    1    3    3    0    0 -0.35077842607E+02 -0.35933883415E+02  0.21134767370E+01  0.50261088002E+02  0.10566000000E+00 0. -1.
         23    2    1    0    0    0  0.73712670664E+01 -0.30796609982E+02 -0.23162911215E+01  0.93248906018E+02  0.87676829918E+02 0.  0.
         13    1    3    3    0    0  0.42449109673E+02  0.51372734332E+01 -0.44297678585E+01  0.42987818015E+02  0.10566000000E+00 0.  1.
         22    1    1    0    0    0 -0.73712670664E+01  0.30796609982E+02  0.23162911215E+01  0.31751093982E+02  0.00000000000E+00 0. -1.
</event>
<event>
 5    1  0.9041167E-005  0.9118800E+02  0.7818608E-02  0.1130116E+00
         25   -1    0    0    0    0  0.00000000000E+00  0.00000000000E+00  0.99999998245E-14  0.12500000000E+03  0.12500000000E+03 0.  0.
        -13    1    3    3    0    0 -0.10807726528E+02 -0.26928791662E+01 -0.59909240217E+02  0.60935923546E+02  0.10566000000E+00 0.  1.
         23    2    1    0    0    0 -0.11432915723E+02 -0.81212570517E+01 -0.24451605954E+02  0.96812282608E+02  0.92617874366E+02 0.  0.
         13    1    3    3    0    0 -0.62518919461E+00 -0.54283778855E+01  0.35457634263E+02  0.35876359063E+02  0.10566000000E+00 0. -1.
         22    1    1    0    0    0  0.11432915723E+02  0.81212570517E+01  0.24451605954E+02  0.28187717392E+02  0.00000000000E+00 0.  1.
</event>
<event>
 5    1  0.9041167E-005  0.9118800E+02  0.7818608E-02  0.1130116E+00
         25   -1    0    0    0    0  0.00000000000E+00  0.00000000000E+00  0.99999998245E-14  0.12500000000E+03  0.12500000000E+03 0.  0.
        -13    1    3    3    0    0 -0.16588636862E+02 -0.51352821891E+02 -0.31408474445E+02  0.62440360506E+02  0.10566000000E+00 0. -1.
         23    2    1    0    0    0 -0.80497937024E+01 -0.22636320900E+02 -0.16050046603E+02  0.96106987030E+02  0.91661042747E+02 0.  0.
         13    1    3    3    0    0  0.85388431594E+01  0.28716500991E+02  0.15358427842E+02  0.33666626524E+02  0.10566000000E+00 0.  1.
         22    1    1    0    0    0  0.80497937024E+01  0.22636320900E+02  0.16050046603E+02  0.28893012970E+02  0.00000000000E+00 0. -1.
</event>
<event>
 5    1  0.9041167E-005  0.9118800E+02  0.7818608E-02  0.1130116E+00
         25   -1    0    0    0    0  0.00000000000E+00  0.00000000000E+00  0.99999998245E-14  0.12500000000E+03  0.12500000000E+03 0.  0.
        -13    1    3    3    0    0  0.38547437318E+02  0.30180155448E+02  0.37880428849E+02  0.61900603878E+02  0.10566000000E+00 0.  1.
         23    2    1    0    0    0  0.20120582937E+02  0.18895122038E+02  0.14194043240E+02  0.93962371900E+02  0.88688178327E+02 0.  0.
         13    1    3    3    0    0 -0.18426854380E+02 -0.11285033410E+02 -0.23686385609E+02  0.32061768022E+02  0.10566000000E+00 0. -1.
         22    1    1    0    0    0 -0.20120582937E+02 -0.18895122038E+02 -0.14194043240E+02  0.31037628100E+02  0.00000000000E+00 0.  1.
</event>
<event>
 5    1  0.9041167E-005  0.9118800E+02  0.7818608E-02  0.1130116E+00
         25   -1    0    0    0    0  0.00000000000E+00  0.00000000000E+00  0.99999998245E-14  0.12500000000E+03  0.12500000000E+03 0.  0.
        -13    1    3    3    0    0  0.19523683798E+02 -0.29654304854E+02  0.40794894668E+02  0.54081296400E+02  0.10566000000E+00 0.  1.
         23    2    1    0    0    0  0.27519009662E+02 -0.86661128763E+01  0.59434689110E+01  0.95542874752E+02  0.90888495906E+02 0.  0.
         13    1    3    3    0    0  0.79953258642E+01  0.20988191977E+02 -0.34851425757E+02  0.41461578352E+02  0.10566000000E+00 0. -1.
         22    1    1    0    0    0 -0.27519009662E+02  0.86661128763E+01 -0.59434689110E+01  0.29457125248E+02  0.00000000000E+00 0.  1.
</event>
<event>
 5    1  0.9041167E-005  0.9118800E+02  0.7818608E-02  0.1130116E+00
         25   -1    0    0    0    0  0.00000000000E+00  0.00000000000E+00  0.99999998245E-14  0.12500000000E+03  0.12500000000E+03 0.  0.
        -13    1    3    3    0    0 -0.20833803774E+02 -0.28793564571E+02 -0.46374385743E+02  0.58426976282E+02  0.10566000000E+00 0. -1.
         23    2    1    0    0    0  0.26326457656E+01 -0.67150314500E+01 -0.29167372746E+02  0.94954066764E+02  0.90075061427E+02 0.  0.
         13    1    3    3    0    0  0.23466449540E+02  0.22078533121E+02  0.17207012997E+02  0.36527090482E+02  0.10566000000E+00 0.  1.
         22    1    1    0    0    0 -0.26326457656E+01  0.67150314500E+01  0.29167372746E+02  0.30045933236E+02  0.00000000000E+00 0. -1.
</event>
<event>
 5    1  0.9041167E-005  0.9118800E+02  0.7818608E-02  0.1130116E+00
         25   -1    0    0    0    0  0.00000000000E+00  0.00000000000E+00  0.99999998245E-14  0.12500000000E+03  0.12500000000E+03 0.  0.
        -13    1    3    3    0    0 -0.37200746793E+01  0.13805638916E+02  0.59894721966E+02  0.61577784184E+02  0.10566000000E+00 0.  1.
         23    2    1    0    0    0  0.21731399033E+01  0.61320829703E+00  0.31326487607E+02  0.93592240015E+02  0.88164959048E+02 0.  0.
         13    1    3    3    0    0  0.58932145826E+01 -0.13192430619E+02 -0.28568234359E+02  0.32014455832E+02  0.10566000000E+00 0. -1.
         22    1    1    0    0    0 -0.21731399033E+01 -0.61320829703E+00 -0.31326487607E+02  0.31407759985E+02  0.00000000000E+00 0.  1.
</event>
<event>
 5    1  0.9041167E-005  0.9118800E+02  0.7818608E-02  0.1130116E+00
         25   -1    0    0    0    0  0.00000000000E+00  0.00000000000E+00  0.99999998245E-14  0.12500000000E+03  0.12500000000E+03 0.  0.
        -13    1    3    3    0    0 -0.43703614291E+01 -0.50317538267E+02 -0.17414942861E+02  0.53425144971E+02  0.10566000000E+00 0.  1.
         23    2    1    0    0    0  0.28850300026E+01 -0.25652280789E+02  0.15267954838E+02  0.95008778739E+02  0.90150954985E+02 0.  0.
         13    1    3    3    0    0  0.72553914317E+01  0.24665257478E+02  0.32682897699E+02  0.41583633768E+02  0.10566000000E+00 0. -1.
         22    1    1    0    0    0 -0.28850300026E+01  0.25652280789E+02 -0.15267954838E+02  0.29991221261E+02  0.00000000000E+00 0.  1.
</event>
<event>
 5    1  0.9041167E-005  0.9118800E+02  0.7818608E-02  0.1130116E+00
         25   -1    0    0    0    0  0.00000000000E+00  0.00000000000E+00  0.99999998245E-14  0.12500000000E+03  0.12500000000E+03 0.  0.
        -13    1    3    3    0    0  0.49729311111E+02  0.26387097012E+02  0.29706846271E+01  0.56374811783E+02  0.10566000000E+00 0.  1.
         23    2    1    0    0    0  0.94417388920E+01  0.25597328172E+02  0.68897017482E+01  0.96860390318E+02  0.92682779305E+02 0.  0.
         13    1    3    3    0    0 -0.40287572219E+02 -0.78976884023E+00  0.39190171211E+01  0.40485578536E+02  0.10566000000E+00 0. -1.
         22    1    1    0    0    0 -0.94417388920E+01 -0.25597328172E+02 -0.68897017482E+01  0.28139609682E+02  0.00000000000E+00 0. -1.
</event>
<event>
 5    1  0.9041167E-005  0.9118800E+02  0.7818608E-02  0.1130116E+00
         25   -1    0    0    0    0  0.00000000000E+00  0.00000000000E+00  0.99999998245E-14  0.12500000000E+03  0.12500000000E+03 0.  0.
        -13    1    3    3    0    0  0.25453840454E+02  0.89475905868E+01  0.28596989132E+02  0.39316107674E+02  0.10566000000E+00 0. -1.
         23    2    1    0    0    0  0.48079746410E+00  0.63584279517E+01 -0.25371786515E+02  0.98839183438E+02  0.95314195477E+02 0.  0.
         13    1    3    3    0    0 -0.24973042990E+02 -0.25891626352E+01 -0.53968775648E+02  0.59523075763E+02  0.10566000000E+00 0.  1.
         22    1    1    0    0    0 -0.48079746410E+00 -0.63584279517E+01  0.25371786515E+02  0.26160816562E+02  0.00000000000E+00 0.  1.
</event>
<event>
 5    1  0.9041167E-005  0.9118800E+02  0.7818608E-02  0.1130116E+00
         25   -1    0    0    0    0  0.00000000000E+00  0.00000000000E+00  0.99999998245E-14  0.12500000000E+03  0.12500000000E+03 0.  0.
        -13    1    3    3    0    0  0.23787809157E+02  0.19293136585E+01  0.46142749710E+02  0.51949462274E+02  0.10566000000E+00 0.  1.
         23    2    1    0    0    0 -0.78603044356E+01  0.15870515044E+02  0.30109259979E+02  0.90068278455E+02  0.83018489590E+02 0.  0.
         13    1    3    3    0    0 -0.31648113593E+02  0.13941201386E+02 -0.16033489731E+02  0.38118816181E+02  0.10566000000E+00 0. -1.
         22    1    1    0    0    0  0.78603044356E+01 -0.15870515044E+02 -0.30109259979E+02  0.34931721545E+02  0.00000000000E+00 0. -1.
</event>
<event>
 5    1  0.9041167E-005  0.9118800E+02  0.7818608E-02  0.1130116E+00
         25   -1    0    0    0    0  0.00000000000E+00  0.00000000000E+00  0.99999998245E-14  0.12500000000E+03  0.12500000000E+03 0.  0.
        -13    1    3    3    0    0  0.51646907379E+01 -0.54500016285E+01  0.39678978700E+02  0.40383277020E+02  0.10566000000E+00 0.  1.
         23    2    1    0    0    0 -0.32420322973E+02 -0.22193719337E+00  0.42444798818E+01  0.92302259906E+02  0.86316655267E+02 0.  0.
         13    1    3    3    0    0 -0.37585013711E+02  0.52280644352E+01 -0.35434498818E+02  0.51918982886E+02  0.10566000000E+00 0. -1.
         22    1    1    0    0    0  0.32420322973E+02  0.22193719337E+00 -0.42444798818E+01  0.32697740094E+02  0.00000000000E+00 0. -1.
</event>
<event>
 5    1  0.9041167E-005  0.9118800E+02  0.7818608E-02  0.1130116E+00
         25   -1    0    0    0    0  0.00000000000E+00  0.00000000000E+00  0.99999998245E-14  0.12500000000E+03  0.12500000000E+03 0.  0.
        -13    1    3    3    0    0 -0.33405207142E+02 -0.16604841249E+02 -0.21192345330E+01  0.37364835557E+02  0.10566000000E+00 0. -1.
         23    2    1    0    0    0  0.20766159091E+02  0.65376202379E+00 -0.19180271536E+02  0.96723798268E+02  0.92498376024E+02 0.  0.
         13    1    3    3    0    0  0.54171366234E+02  0.17258603273E+02 -0.17061037003E+02  0.59358962712E+02  0.10566000000E+00 0.  1.
         22    1    1    0    0    0 -0.20766159091E+02 -0.65376202379E+00  0.19180271536E+02  0.28276201732E+02  0.00000000000E+00 0.  1.
</event>
<event>
 5    1  0.9041167E-005  0.9118800E+02  0.7818608E-02  0.1130116E+00
         25   -1    0    0    0    0  0.00000000000E+00  0.00000000000E+00  0.99999998245E-14  0.12500000000E+03  0.12500000000E+03 0.  0.
        -13    1    3    3    0    0  0.92843101369E+01  0.34882691070E+02  0.68970233363E+01  0.36750246883E+02  0.10566000000E+00 0. -1.
         23    2    1    0    0    0  0.18064081699E+02 -0.21612733886E+02 -0.77797151105E+01  0.95777657847E+02  0.91210824258E+02 0.  0.
         13    1    3    3    0    0  0.87797715626E+01 -0.56495424956E+02 -0.14676738447E+02  0.59027410965E+02  0.10566000000E+00 0.  1.
         22    1    1    0    0    0 -0.18064081699E+02  0.21612733886E+02  0.77797151105E+01  0.29222342153E+02  0.00000000000E+00 0.  1.
</event>
<event>
 5    1  0.9041167E-005  0.9118800E+02  0.7818608E-02  0.1130116E+00
         25   -1    0    0    0    0  0.00000000000E+00  0.00000000000E+00  0.99999998245E-14  0.12500000000E+03  0.12500000000E+03 0.  0.
        -13    1    3    3    0    0 -0.41793601132E+02  0.34501310672E+02  0.17539810021E+02  0.56962282550E+02  0.10566000000E+00 0. -1.
         23    2    1    0    0    0 -0.98452308847E+01  0.22378949610E+02 -0.76138626783E+01  0.99393030994E+02  0.96037793334E+02 0.  0.
         13    1    3    3    0    0  0.31948370247E+02 -0.12122361063E+02 -0.25153672699E+02  0.42430748444E+02  0.10566000000E+00 0.  1.
         22    1    1    0    0    0  0.98452308847E+01 -0.22378949610E+02  0.76138626783E+01  0.25606969006E+02  0.00000000000E+00 0. -1.
</event>
<event>
 5    1  0.9041167E-005  0.9118800E+02  0.7818608E-02  0.1130116E+00
         25   -1    0    0    0    0  0.00000000000E+00  0.00000000000E+00  0.99999998245E-14  0.12500000000E+03  0.12500000000E+03 0.  0.
        -13    1    3    3    0    0 -0.29978458288E+02 -0.27474385540E+02 -0.25430197668E+02  0.47960983514E+02  0.10566000000E+00 0. -1.
         23    2    1    0    0    0 -0.78655414354E+01  0.15115079384E+02 -0.23480333510E+02  0.95988650004E+02  0.91499521862E+02 0.  0.
         13    1    3    3    0    0  0.22112916852E+02  0.42589464924E+02  0.19498641572E+01  0.48027666490E+02  0.10566000000E+00 0.  1.
         22    1    1    0    0    0  0.78655414354E+01 -0.15115079384E+02  0.23480333510E+02  0.29011349996E+02  0.00000000000E+00 0.  1.
</event>
<event>
 5    1  0.9041167E-005  0.9118800E+02  0.7818608E-02  0.1130116E+00
         25   -1    0    0    0    0  0.00000000000E+00  0.00000000000E+00  0.99999998245E-14  0.12500000000E+03  0.12500000000E+03 0.  0.
        -13    1    3    3    0    0 -0.19684572097E+02  0.27744791048E+02  0.21860762139E+01  0.34088794379E+02  0.10566000000E+00 0. -1.
         23    2    1    0    0    0  0.27225358430E+02 -0.11602556928E+02  0.23012978997E+01  0.95316074368E+02  0.90576037626E+02 0.  0.
         13    1    3    3    0    0  0.46909930527E+02 -0.39347347977E+02  0.11522168572E+00  0.61227279989E+02  0.10566000000E+00 0.  1.
         22    1    1    0    0    0 -0.27225358430E+02  0.11602556928E+02 -0.23012978997E+01  0.29683925632E+02  0.00000000000E+00 0.  1.
</event>
<event>
 5    1  0.9041167E-005  0.9118800E+02  0.7818608E-02  0.1130116E+00
         25   -1    0    0    0    0  0.00000000000E+00  0.00000000000E+00  0.99999998245E-14  0.12500000000E+03  0.12500000000E+03 0.  0.
        -13    1    3    3    0    0 -0.36416349836E+02 -0.25648576779E+02  0.11928673151E+02  0.46111868683E+02  0.10566000000E+00 0.  1.
         23    2    1    0    0    0 -0.51809419513E+01  0.76552510482E+01  0.28772339454E+02  0.94779269602E+02  0.89832162395E+02 0.  0.
         13    1    3    3    0    0  0.31235407885E+02  0.33303827828E+02  0.16843666303E+02  0.48667400920E+02  0.10566000000E+00 0. -1.
         22    1    1    0    0    0  0.51809419513E+01 -0.76552510482E+01 -0.28772339454E+02  0.30220730398E+02  0.00000000000E+00 0. -1.
</event>
<event>
 5    1  0.9041167E-005  0.9118800E+02  0.7818608E-02  0.1130116E+00
         25   -1    0    0    0    0  0.00000000000E+00  0.00000000000E+00  0.99999998245E-14  0.12500000000E+03  0.12500000000E+03 0.  0.
        -13    1    3    3    0    0  0.22321457193E+02 -0.85572159579E+01  0.36597866755E+02  0.43713709649E+02  0.10566000000E+00 0. -1.
         23    2    1    0    0    0 -0.23786744609E+02 -0.11160766665E+02  0.10998776576E+02  0.96515881306E+02  0.92216974177E+02 0.  0.
         13    1    3    3    0    0 -0.46108201802E+02 -0.26035507067E+01 -0.25599090179E+02  0.52802171657E+02  0.10566000000E+00 0.  1.
         22    1    1    0    0    0  0.23786744609E+02  0.11160766665E+02 -0.10998776576E+02  0.28484118694E+02  0.00000000000E+00 0.  1.
</event>
<event>
 5    1  0.9041167E-005  0.9118800E+02  0.7818608E-02  0.1130116E+00
         25   -1    0    0    0    0  0.00000000000E+00  0.00000000000E+00  0.99999998245E-14  0.12500000000E+03  0.12500000000E+03 0.  0.
        -13    1    3    3    0    0  0.36736416607E+01 -0.14126259637E+02  0.58075860578E+02  0.59882080795E+02  0.10566000000E+00 0.  1.
         23    2    1    0    0    0  0.89178169975E+01  0.39726991797E+01  0.27719816719E+02  0.95611260018E+02  0.90982498342E+02 0.  0.
         13    1    3    3    0    0  0.52441753368E+01  0.18098958816E+02 -0.30356043859E+02  0.35729179223E+02  0.10566000000E+00 0. -1.
         22    1    1    0    0    0 -0.89178169975E+01 -0.39726991797E+01 -0.27719816719E+02  0.29388739982E+02  0.00000000000E+00 0.  1.
</event>
<event>
 5    1  0.9041167E-005  0.9118800E+02  0.7818608E-02  0.1130116E+00
         25   -1    0    0    0    0  0.00000000000E+00  0.00000000000E+00  0.99999998245E-14  0.12500000000E+03  0.12500000000E+03 0.  0.
        -13    1    3    3    0    0  0.22335396830E+02 -0.17951734139E+02 -0.17291193829E+01  0.28707764247E+02  0.10566000000E+00 0.  1.
         23    2    1    0    0    0 -0.22908558109E+02  0.22239441060E+02 -0.13458519047E+02  0.90351385190E+02  0.83443671405E+02 0.  0.
         13    1    3    3    0    0 -0.45243954939E+02  0.40191175200E+02 -0.11729399664E+02  0.61643620943E+02  0.10566000000E+00 0. -1.
         22    1    1    0    0    0  0.22908558109E+02 -0.22239441060E+02  0.13458519047E+02  0.34648614810E+02  0.00000000000E+00 0. -1.
</event>
<event>
 5    1  0.9041167E-005  0.9118800E+02  0.7818608E-02  0.1130116E+00
         25   -1    0    0    0    0  0.00000000000E+00  0.00000000000E+00  0.99999998245E-14  0.12500000000E+03  0.12500000000E+03 0.  0.
        -13    1    3    3    0    0  0.61709825539E+01  0.55790003618E+02 -0.19550437554E+02  0.59437667367E+02  0.10566000000E+00 0.  1.
         23    2    1    0    0    0  0.48433269133E+01  0.28585653777E+02  0.43602666682E+01  0.95680904808E+02  0.91078132403E+02 0.  0.
         13    1    3    3    0    0 -0.13276556406E+01 -0.27204349841E+02  0.23910704223E+02  0.36243237442E+02  0.10566000000E+00 0. -1.
         22    1    1    0    0    0 -0.48433269133E+01 -0.28585653777E+02 -0.43602666682E+01  0.29319095192E+02  0.00000000000E+00 0.  1.
</event>
<event>
 5    1  0.9041167E-005  0.9118800E+02  0.7818608E-02  0.1130116E+00
         25   -1    0    0    0    0  0.00000000000E+00  0.00000000000E+00  0.99999998245E-14  0.12500000000E+03  0.12500000000E+03 0.  0.
        -13    1    3    3    0    0  0.37857369363E+02 -0.13499263392E+02 -0.10023288156E+02  0.41423278440E+02  0.10566000000E+00 0.  1.
         23    2    1    0    0    0  0.45216345984E+01  0.28755467351E+02 -0.48082234890E+01  0.95496761277E+02  0.90825053367E+02 0.  0.
         13    1    3    3    0    0 -0.33335734765E+02  0.42254730744E+02  0.52150646674E+01  0.54073482836E+02  0.10566000000E+00 0. -1.
         22    1    1    0    0    0 -0.45216345984E+01 -0.28755467351E+02  0.48082234890E+01  0.29503238723E+02  0.00000000000E+00 0. -1.
</event>
<event>
 5    1  0.9041167E-005  0.9118800E+02  0.7818608E-02  0.1130116E+00
         25   -1    0    0    0    0  0.00000000000E+00  0.00000000000E+00  0.99999998245E-14  0.12500000000E+03  0.12500000000E+03 0.  0.
        -13    1    3    3    0    0  0.66702744477E+01 -0.32308941025E+02  0.22124935253E+02  0.39722589988E+02  0.10566000000E+00 0. -1.
         23    2    1    0    0    0 -0.29611840509E+02  0.25661415444E+01 -0.13338564616E+01  0.95247263087E+02  0.90481024373E+02 0.  0.
         13    1    3    3    0    0 -0.36282114957E+02  0.34875082569E+02 -0.23458791715E+02  0.55524673099E+02  0.10566000000E+00 0.  1.
         22    1    1    0    0    0  0.29611840509E+02 -0.25661415444E+01  0.13338564616E+01  0.29752736913E+02  0.00000000000E+00 0.  1.
</event>
<event>
 5    1  0.9041167E-005  0.9118800E+02  0.7818608E-02  0.1130116E+00
         25   -1    0    0    0    0  0.00000000000E+00  0.00000000000E+00  0.99999998245E-14  0.12500000000E+03  0.12500000000E+03 0.  0.
        -13    1    3    3    0    0  0.10922078127E+02 -0.27120496190E+02 -0.29733094507E+02  0.41699894211E+02  0.10566000000E+00 0. -1.
         23    2    1    0    0    0 -0.17762484430E+02 -0.21880055599E+02  0.13423456438E+02  0.93784108712E+02  0.88436571496E+02 0.  0.
         13    1    3    3    0    0 -0.28684562557E+02  0.52404405907E+01  0.43156550945E+02  0.52084214501E+02  0.10566000000E+00 0.  1.
         22    1    1    0    0    0  0.17762484430E+02  0.21880055599E+02 -0.13423456438E+02  0.31215891288E+02  0.00000000000E+00 0.  1.
</event>
<event>
 5    1  0.9041167E-005  0.9118800E+02  0.7818608E-02  0.1130116E+00
         25   -1    0    0    0    0  0.00000000000E+00  0.00000000000E+00  0.99999998245E-14  0.12500000000E+03  0.12500000000E+03 0.  0.
        -13    1    3    3    0    0 -0.13443717063E+02 -0.32028442583E+02  0.54029484704E+01  0.35153345203E+02  0.10566000000E+00 0.  1.
         23    2    1    0    0    0  0.12962446707E+02  0.19530138446E+02  0.19198631058E+02  0.94700845443E+02  0.89722970084E+02 0.  0.
         13    1    3    3    0    0  0.26406163770E+02  0.51558581029E+02  0.13795682587E+02  0.59547500240E+02  0.10566000000E+00 0. -1.
         22    1    1    0    0    0 -0.12962446707E+02 -0.19530138446E+02 -0.19198631058E+02  0.30299154557E+02  0.00000000000E+00 0. -1.
</event>
<event>
 5    1  0.9041167E-005  0.9118800E+02  0.7818608E-02  0.1130116E+00
         25   -1    0    0    0    0  0.00000000000E+00  0.00000000000E+00  0.99999998245E-14  0.12500000000E+03  0.12500000000E+03 0.  0.
        -13    1    3    3    0    0  0.13623370869E+02 -0.36505773510E+02 -0.35477624662E+02  0.52696686320E+02  0.10566000000E+00 0. -1.
         23    2    1    0    0    0  0.43393146469E+00  0.31438093989E+01 -0.29991341134E+02  0.94841213932E+02  0.89918315615E+02 0.  0.
         13    1    3    3    0    0 -0.13189439404E+02  0.39649582909E+02  0.54862835279E+01  0.42144527612E+02  0.10566000000E+00 0.  1.
         22    1    1    0    0    0 -0.43393146469E+00 -0.31438093989E+01  0.29991341134E+02  0.30158786068E+02  0.00000000000E+00 0. -1.
</event>
<event>
 5    1  0.9041167E-005  0.9118800E+02  0.7818608E-02  0.1130116E+00
         25   -1    0    0    0    0  0.00000000000E+00  0.00000000000E+00  0.99999998245E-14  0.12500000000E+03  0.12500000000E+03 0.  0.
        -13    1    3    3    0    0 -0.29056091651E+02  0.57514681186E+01  0.45326237320E+02  0.54146235337E+02  0.10566000000E+00 0. -1.
         23    2    1    0    0    0 -0.16862453188E+02 -0.19338925890E+02  0.15323133225E+02  0.95114639136E+02  0.90297617821E+02 0.  0.
         13    1    3    3    0    0  0.12193638463E+02 -0.25090394009E+02 -0.30003104095E+02  0.40968403799E+02  0.10566000000E+00 0.  1.
         22    1    1    0    0    0  0.16862453188E+02  0.19338925890E+02 -0.15323133225E+02  0.29885360864E+02  0.00000000000E+00 0. -1.
</event>
<event>
 5    1  0.9041167E-005  0.9118800E+02  0.7818608E-02  0.1130116E+00
         25   -1    0    0    0    0  0.00000000000E+00  0.00000000000E+00  0.99999998245E-14  0.12500000000E+03  0.12500000000E+03 0.  0.
        -13    1    3    3    0    0 -0.52439953675E+02 -0.88932396344E+01 -0.19585823416E+01  0.53224859431E+02  0.10566000000E+00 0. -1.
         23    2    1    0    0    0 -0.15023948387E+02 -0.25880147341E+02  0.42219706437E+01  0.94778714659E+02  0.89831390198E+02 0.  0.
         13    1    3    3    0    0  0.37416005287E+02 -0.16986907706E+02  0.61805529853E+01  0.41553855228E+02  0.10566000000E+00 0.  1.
         22    1    1    0    0    0  0.15023948387E+02  0.25880147341E+02 -0.42219706437E+01  0.30221285341E+02  0.00000000000E+00 0. -1.
</event>
<event>
 4    1  0.9041167E-005  0.9118800E+02  0.7818608E-02  0.1130116E+00
         25   -1    0    0    0    0  0.00000000000E+00  0.00000000000E+00  0.99999998245E-14  0.12500000000E+03  0.12500000000E+03 0.  0.
        -13    1    1    0    0    0  0.13051333828E+02 -0.26178014824E+00 -0.63621798295E+01  0.14522201615E+02  0.10566000000E+00 0.  1.
         13    1    1    0    0    0 -0.40038662249E+02 -0.30164992027E+02 -0.27836050429E+02  0.57340021680E+02  0.10566000000E+00 0. -1.
         22    1    1    0    0    0  0.26987328421E+02  0.30426772175E+02  0.34198230259E+02  0.53137776705E+02  0.00000000000E+00 0. -1.
</event>
<event>
 5    1  0.9041167E-005  0.9118800E+02  0.7818608E-02  0.1130116E+00
         25   -1    0    0    0    0  0.00000000000E+00  0.00000000000E+00  0.99999998245E-14  0.12500000000E+03  0.12500000000E+03 0.  0.
        -13    1    3    3    0    0  0.10954628630E+02  0.33527717899E+01 -0.38067757542E+02  0.39754374544E+02  0.10566000000E+00 0. -1.
         23    2    1    0    0    0 -0.17950498460E+02 -0.24435942577E+02 -0.53763213987E+00  0.94674684950E+02  0.89686516475E+02 0.  0.
         13    1    3    3    0    0 -0.28905127090E+02 -0.27788714367E+02  0.37530125402E+02  0.54920310405E+02  0.10566000000E+00 0.  1.
         22    1    1    0    0    0  0.17950498460E+02  0.24435942577E+02  0.53763213987E+00  0.30325315050E+02  0.00000000000E+00 0.  1.
</event>
<event>
 5    1  0.9041167E-005  0.9118800E+02  0.7818608E-02  0.1130116E+00
         25   -1    0    0    0    0  0.00000000000E+00  0.00000000000E+00  0.99999998245E-14  0.12500000000E+03  0.12500000000E+03 0.  0.
        -13    1    3    3    0    0  0.82498953738E+01 -0.37036035143E+02 -0.39527492323E+01  0.38149234112E+02  0.10566000000E+00 0. -1.
         23    2    1    0    0    0  0.25921080771E+02 -0.96116809683E+01  0.29287847483E+02  0.84725133774E+02  0.74540481910E+02 0.  0.
         13    1    3    3    0    0  0.17671185397E+02  0.27424354175E+02  0.33240596715E+02  0.46575899661E+02  0.10566000000E+00 0.  1.
         22    1    1    0    0    0 -0.25921080771E+02  0.96116809683E+01 -0.29287847483E+02  0.40274866226E+02  0.00000000000E+00 0.  1.
</event>
<event>
 5    1  0.9041167E-005  0.9118800E+02  0.7818608E-02  0.1130116E+00
         25   -1    0    0    0    0  0.00000000000E+00  0.00000000000E+00  0.99999998245E-14  0.12500000000E+03  0.12500000000E+03 0.  0.
        -13    1    3    3    0    0 -0.10722921073E+02  0.27071487502E+02  0.34662413186E+02  0.45269642409E+02  0.10566000000E+00 0.  1.
         23    2    1    0    0    0 -0.24644850848E+02 -0.13241939042E+02  0.68178119981E+01  0.96204163784E+02  0.91793468973E+02 0.  0.
         13    1    3    3    0    0 -0.13921929775E+02 -0.40313426544E+02 -0.27844601188E+02  0.50934521375E+02  0.10566000000E+00 0. -1.
         22    1    1    0    0    0  0.24644850848E+02  0.13241939042E+02 -0.68178119981E+01  0.28795836216E+02  0.00000000000E+00 0.  1.
</event>
<event>
 5    1  0.9041167E-005  0.9118800E+02  0.7818608E-02  0.1130116E+00
         25   -1    0    0    0    0  0.00000000000E+00  0.00000000000E+00  0.99999998245E-14  0.12500000000E+03  0.12500000000E+03 0.  0.
        -13    1    3    3    0    0  0.20095570179E+02  0.21441447875E+02  0.48828620294E+02  0.56989586344E+02  0.10566000000E+00 0. -1.
         23    2    1    0    0    0  0.43403338900E+01  0.25900685320E+02  0.14553504335E+02  0.94975202137E+02  0.90104386876E+02 0.  0.
         13    1    3    3    0    0 -0.15755236289E+02  0.44592374448E+01 -0.34275115959E+02  0.37985615793E+02  0.10566000000E+00 0.  1.
         22    1    1    0    0    0 -0.43403338900E+01 -0.25900685320E+02 -0.14553504335E+02  0.30024797863E+02  0.00000000000E+00 0. -1.
</event>
<event>
 5    1  0.9041167E-005  0.9118800E+02  0.7818608E-02  0.1130116E+00
         25   -1    0    0    0    0  0.00000000000E+00  0.00000000000E+00  0.99999998245E-14  0.12500000000E+03  0.12500000000E+03 0.  0.
        -13    1    3    3    0    0  0.11125482695E+02  0.62690759859E+01 -0.52347140770E+02  0.53882390349E+02  0.10566000000E+00 0. -1.
         23    2    1    0    0    0  0.19492538404E+02 -0.12818345814E+02 -0.13294055596E+02  0.98148539015E+02  0.94404103480E+02 0.  0.
         13    1    3    3    0    0  0.83670557091E+01 -0.19087421800E+02  0.39053085173E+02  0.44266148667E+02  0.10566000000E+00 0.  1.
         22    1    1    0    0    0 -0.19492538404E+02  0.12818345814E+02  0.13294055596E+02  0.26851460985E+02  0.00000000000E+00 0. -1.
</event>
<event>
 5    1  0.9041167E-005  0.9118800E+02  0.7818608E-02  0.1130116E+00
         25   -1    0    0    0    0  0.00000000000E+00  0.00000000000E+00  0.99999998245E-14  0.12500000000E+03  0.12500000000E+03 0.  0.
        -13    1    3    3    0    0  0.30938197859E+02 -0.22759524609E+02  0.21890468809E+02  0.44208277911E+02  0.10566000000E+00 0.  1.
         23    2    1    0    0    0 -0.10471985684E+02 -0.32915691356E+02  0.14756712830E+02  0.87438506484E+02  0.78959651855E+02 0.  0.
         13    1    3    3    0    0 -0.41410183543E+02 -0.10156166747E+02 -0.71337559788E+01  0.43230228573E+02  0.10566000000E+00 0. -1.
         22    1    1    0    0    0  0.10471985684E+02  0.32915691356E+02 -0.14756712830E+02  0.37561493516E+02  0.00000000000E+00 0.  1.
</event>
<event>
 5    1  0.9041167E-005  0.9118800E+02  0.7818608E-02  0.1130116E+00
         25   -1    0    0    0    0  0.00000000000E+00  0.00000000000E+00  0.99999998245E-14  0.12500000000E+03  0.12500000000E+03 0.  0.
        -13    1    3    3    0    0 -0.21017837028E+02 -0.29947969309E+02 -0.17948556274E+02  0.40752818006E+02  0.10566000000E+00 0.  1.
         23    2    1    0    0    0 -0.98919993685E+01 -0.11461976747E+01  0.27531172243E+02  0.95723202605E+02  0.91136165441E+02 0.  0.
         13    1    3    3    0    0  0.11125837660E+02  0.28801771634E+02  0.45479728517E+02  0.54970384599E+02  0.10566000000E+00 0. -1.
         22    1    1    0    0    0  0.98919993685E+01  0.11461976747E+01 -0.27531172243E+02  0.29276797395E+02  0.00000000000E+00 0. -1.
</event>
<event>
 5    1  0.9041167E-005  0.9118800E+02  0.7818608E-02  0.1130116E+00
         25   -1    0    0    0    0  0.00000000000E+00  0.00000000000E+00  0.99999998245E-14  0.12500000000E+03  0.12500000000E+03 0.  0.
        -13    1    3    3    0    0  0.19249210288E+02 -0.63961866449E+01 -0.33473026115E+02  0.39139467826E+02  0.10566000000E+00 0. -1.
         23    2    1    0    0    0 -0.89516309522E+01  0.27381908261E+02  0.26499646605E+01  0.96070380068E+02  0.91611107498E+02 0.  0.
         13    1    3    3    0    0 -0.28200841240E+02  0.33778094906E+02  0.36122990776E+02  0.56930912242E+02  0.10566000000E+00 0.  1.
         22    1    1    0    0    0  0.89516309522E+01 -0.27381908261E+02 -0.26499646605E+01  0.28929619932E+02  0.00000000000E+00 0.  1.
</event>
<event>
 5    1  0.9041167E-005  0.9118800E+02  0.7818608E-02  0.1130116E+00
         25   -1    0    0    0    0  0.00000000000E+00  0.00000000000E+00  0.99999998245E-14  0.12500000000E+03  0.12500000000E+03 0.  0.
        -13    1    3    3    0    0  0.15237122386E+02 -0.46685502378E+02 -0.32325753842E+02  0.58793465252E+02  0.10566000000E+00 0.  1.
         23    2    1    0    0    0  0.18379988007E+01 -0.29963478746E+02 -0.34049583257E+01  0.94787717079E+02  0.89843916153E+02 0.  0.
         13    1    3    3    0    0 -0.13399123585E+02  0.16722023632E+02  0.28920795517E+02  0.35994251826E+02  0.10566000000E+00 0. -1.
         22    1    1    0    0    0 -0.18379988007E+01  0.29963478746E+02  0.34049583257E+01  0.30212282921E+02  0.00000000000E+00 0.  1.
</event>
<event>
 5    1  0.9041167E-005  0.9118800E+02  0.7818608E-02  0.1130116E+00
         25   -1    0    0    0    0  0.00000000000E+00  0.00000000000E+00  0.99999998245E-14  0.12500000000E+03  0.12500000000E+03 0.  0.
        -13    1    3    3    0    0 -0.33734347757E+02 -0.21241874716E+02 -0.40311498896E+02  0.56694369802E+02  0.10566000000E+00 0.  1.
         23    2    1    0    0    0 -0.29519246201E+02  0.35903127068E+01 -0.24832956600E+02  0.86257878541E+02  0.77067954658E+02 0.  0.
         13    1    3    3    0    0  0.42151015555E+01  0.24832187422E+02  0.15478542296E+02  0.29563508739E+02  0.10566000000E+00 0. -1.
         22    1    1    0    0    0  0.29519246201E+02 -0.35903127068E+01  0.24832956600E+02  0.38742121459E+02  0.00000000000E+00 0.  1.
</event>
<event>
 5    1  0.9041167E-005  0.9118800E+02  0.7818608E-02  0.1130116E+00
         25   -1    0    0    0    0  0.00000000000E+00  0.00000000000E+00  0.99999998245E-14  0.12500000000E+03  0.12500000000E+03 0.  0.
        -13    1    3    3    0    0 -0.67103869492E+01  0.23145974762E+02 -0.23069262092E+02  0.33361166919E+02  0.10566000000E+00 0.  1.
         23    2    1    0    0    0 -0.14686809002E+01 -0.21342447101E+02  0.20152923420E+02  0.95609569683E+02  0.90980175977E+02 0.  0.
         13    1    3    3    0    0  0.52417060491E+01 -0.44488421863E+02  0.43222185512E+02  0.62248402764E+02  0.10566000000E+00 0. -1.
         22    1    1    0    0    0  0.14686809002E+01  0.21342447101E+02 -0.20152923420E+02  0.29390430317E+02  0.00000000000E+00 0. -1.
</event>
<event>
 5    1  0.9041167E-005  0.9118800E+02  0.7818608E-02  0.1130116E+00
         25   -1    0    0    0    0  0.00000000000E+00  0.00000000000E+00  0.99999998245E-14  0.12500000000E+03  0.12500000000E+03 0.  0.
        -13    1    3    3    0    0 -0.36104609683E+02  0.92750493759E+01  0.41023842140E+02  0.55430462467E+02  0.10566000000E+00 0. -1.
         23    2    1    0    0    0 -0.24213576121E+02 -0.12899535826E+02  0.90649258503E+01  0.96105914554E+02  0.91659580179E+02 0.  0.
         13    1    3    3    0    0  0.11891033562E+02 -0.22174585202E+02 -0.31958916290E+02  0.40675452088E+02  0.10566000000E+00 0.  1.
         22    1    1    0    0    0  0.24213576121E+02  0.12899535826E+02 -0.90649258503E+01  0.28894085446E+02  0.00000000000E+00 0. -1.
</event>
<event>
 5    1  0.9041167E-005  0.9118800E+02  0.7818608E-02  0.1130116E+00
         25   -1    0    0    0    0  0.00000000000E+00  0.00000000000E+00  0.99999998245E-14  0.12500000000E+03  0.12500000000E+03 0.  0.
        -13    1    3    3    0    0  0.23848985201E+02  0.64768744465E+01 -0.39192654782E+02  0.46333566133E+02  0.10566000000E+00 0. -1.
         23    2    1    0    0    0  0.32306505470E+02  0.22530795314E+02 -0.46669491003E+01  0.85337329300E+02  0.75560123908E+02 0.  0.
         13    1    3    3    0    0  0.84575202685E+01  0.16053920868E+02  0.34525705681E+02  0.39003763167E+02  0.10566000000E+00 0.  1.
         22    1    1    0    0    0 -0.32306505470E+02 -0.22530795314E+02  0.46669491003E+01  0.39662670700E+02  0.00000000000E+00 0. -1.
</event>
<event>
 5    1  0.9041167E-005  0.9118800E+02  0.7818608E-02  0.1130116E+00
         25   -1    0    0    0    0  0.00000000000E+00  0.00000000000E+00  0.99999998245E-14  0.12500000000E+03  0.12500000000E+03 0.  0.
        -13    1    3    3    0    0  0.87498333100E+01  0.33420475903E+02 -0.13034942515E+01  0.34571636551E+02  0.10566000000E+00 0. -1.
         23    2    1    0    0    0 -0.53540929934E+01 -0.22397113679E+02  0.18507009646E+02  0.95456702639E+02  0.90769905033E+02 0.  0.
         13    1    3    3    0    0 -0.14103926303E+02 -0.55817589581E+02  0.19810503898E+02  0.60885066088E+02  0.10566000000E+00 0.  1.
         22    1    1    0    0    0  0.53540929934E+01  0.22397113679E+02 -0.18507009646E+02  0.29543297361E+02  0.00000000000E+00 0.  1.
</event>
<event>
 5    1  0.9041167E-005  0.9118800E+02  0.7818608E-02  0.1130116E+00
         25   -1    0    0    0    0  0.00000000000E+00  0.00000000000E+00  0.99999998245E-14  0.12500000000E+03  0.12500000000E+03 0.  0.
        -13    1    3    3    0    0  0.10716616275E+02  0.93983904964E+01  0.38850864785E+02  0.41383287290E+02  0.10566000000E+00 0. -1.
         23    2    1    0    0    0  0.17482343311E+02 -0.25712544760E+02  0.38082633345E+00  0.93904786311E+02  0.88606978155E+02 0.  0.
         13    1    3    3    0    0  0.67657270359E+01 -0.35110935256E+02 -0.38470038452E+02  0.52521499021E+02  0.10566000000E+00 0.  1.
         22    1    1    0    0    0 -0.17482343311E+02  0.25712544760E+02 -0.38082633345E+00  0.31095213689E+02  0.00000000000E+00 0.  1.
</event>
<event>
 5    1  0.9041167E-005  0.9118800E+02  0.7818608E-02  0.1130116E+00
         25   -1    0    0    0    0  0.00000000000E+00  0.00000000000E+00  0.99999998245E-14  0.12500000000E+03  0.12500000000E+03 0.  0.
        -13    1    3    3    0    0  0.41705978067E+02  0.35010569405E+02  0.14792064665E+02  0.56426455831E+02  0.10566000000E+00 0. -1.
         23    2    1    0    0    0  0.15975972322E+02  0.20195968725E+02 -0.12157199371E+02  0.96523582724E+02  0.92227412850E+02 0.  0.
         13    1    3    3    0    0 -0.25730005745E+02 -0.14814600681E+02 -0.26949264036E+02  0.40097126893E+02  0.10566000000E+00 0.  1.
         22    1    1    0    0    0 -0.15975972322E+02 -0.20195968725E+02  0.12157199371E+02  0.28476417276E+02  0.00000000000E+00 0.  1.
</event>
<event>
 5    1  0.9041167E-005  0.9118800E+02  0.7818608E-02  0.1130116E+00
         25   -1    0    0    0    0  0.00000000000E+00  0.00000000000E+00  0.99999998245E-14  0.12500000000E+03  0.12500000000E+03 0.  0.
        -13    1    3    3    0    0  0.19371846922E+02  0.20916424042E+01  0.54488995631E+02  0.57867998324E+02  0.10566000000E+00 0.  1.
         23    2    1    0    0    0 -0.78976332846E+01  0.21118802031E+01  0.27792813225E+02  0.96029789154E+02  0.91555705931E+02 0.  0.
         13    1    3    3    0    0 -0.27269480206E+02  0.20237798949E-01 -0.26696182406E+02  0.38161790830E+02  0.10566000000E+00 0. -1.
         22    1    1    0    0    0  0.78976332846E+01 -0.21118802031E+01 -0.27792813225E+02  0.28970210846E+02  0.00000000000E+00 0.  1.
</event>
<event>
 5    1  0.9041167E-005  0.9118800E+02  0.7818608E-02  0.1130116E+00
         25   -1    0    0    0    0  0.00000000000E+00  0.00000000000E+00  0.99999998245E-14  0.12500000000E+03  0.12500000000E+03 0.  0.
        -13    1    3    3    0    0 -0.23003608441E+02 -0.53881697102E+02  0.20195898470E+02  0.61970063441E+02  0.10566000000E+00 0. -1.
         23    2    1    0    0    0 -0.12754735470E+02 -0.26402199359E+02  0.41946871568E+01  0.95379824304E+02  0.90663973419E+02 0.  0.
         13    1    3    3    0    0  0.10248872970E+02  0.27479497743E+02 -0.16001211313E+02  0.33409760863E+02  0.10566000000E+00 0.  1.
         22    1    1    0    0    0  0.12754735470E+02  0.26402199359E+02 -0.41946871568E+01  0.29620175696E+02  0.00000000000E+00 0. -1.
</event>
<event>
 5    1  0.9041167E-005  0.9118800E+02  0.7818608E-02  0.1130116E+00
         25   -1    0    0    0    0  0.00000000000E+00  0.00000000000E+00  0.99999998245E-14  0.12500000000E+03  0.12500000000E+03 0.  0.
        -13    1    3    3    0    0  0.20513890252E+02 -0.21929704547E+02  0.24427082015E+02  0.38709496698E+02  0.10566000000E+00 0.  1.
         23    2    1    0    0    0 -0.28462412854E+02 -0.73376252665E+01 -0.57425811322E+00  0.95601369719E+02  0.90968909138E+02 0.  0.
         13    1    3    3    0    0 -0.48976303106E+02  0.14592079281E+02 -0.25001340128E+02  0.56891873021E+02  0.10566000000E+00 0. -1.
         22    1    1    0    0    0  0.28462412854E+02  0.73376252665E+01  0.57425811322E+00  0.29398630281E+02  0.00000000000E+00 0. -1.
</event>
<event>
 5    1  0.9041167E-005  0.9118800E+02  0.7818608E-02  0.1130116E+00
         25   -1    0    0    0    0  0.00000000000E+00  0.00000000000E+00  0.99999998245E-14  0.12500000000E+03  0.12500000000E+03 0.  0.
        -13    1    3    3    0    0  0.16198714417E+02  0.46081632686E+02  0.36587684630E+02  0.61029378585E+02  0.10566000000E+00 0.  1.
         23    2    1    0    0    0  0.12306180683E+02  0.26322563089E+02  0.10242361103E+02  0.94190498681E+02  0.89009126893E+02 0.  0.
         13    1    3    3    0    0 -0.38925337348E+01 -0.19759069598E+02 -0.26345323527E+02  0.33161120096E+02  0.10566000000E+00 0. -1.
         22    1    1    0    0    0 -0.12306180683E+02 -0.26322563089E+02 -0.10242361103E+02  0.30809501319E+02  0.00000000000E+00 0.  1.
</event>
<event>
 5    1  0.9041167E-005  0.9118800E+02  0.7818608E-02  0.1130116E+00
         25   -1    0    0    0    0  0.00000000000E+00  0.00000000000E+00  0.99999998245E-14  0.12500000000E+03  0.12500000000E+03 0.  0.
        -13    1    3    3    0    0 -0.22803112993E+02 -0.24038226212E+02  0.10111143296E+02  0.34641949488E+02  0.10566000000E+00 0. -1.
         23    2    1    0    0    0  0.20039127159E+02  0.19707047242E+02 -0.10208613094E+01  0.96875695811E+02  0.92703419315E+02 0.  0.
         13    1    3    3    0    0  0.42842240152E+02  0.43745273454E+02 -0.11132004605E+02  0.62233746323E+02  0.10566000000E+00 0.  1.
         22    1    1    0    0    0 -0.20039127159E+02 -0.19707047242E+02  0.10208613094E+01  0.28124304189E+02  0.00000000000E+00 0.  1.
</event>
<event>
 5    1  0.9041167E-005  0.9118800E+02  0.7818608E-02  0.1130116E+00
         25   -1    0    0    0    0  0.00000000000E+00  0.00000000000E+00  0.99999998245E-14  0.12500000000E+03  0.12500000000E+03 0.  0.
        -13    1    3    3    0    0 -0.39436169303E+02 -0.19977129298E+02 -0.32951809084E+02  0.55137374169E+02  0.10566000000E+00 0. -1.
         23    2    1    0    0    0 -0.28440077373E+02  0.67170958480E+00  0.11920572321E+01  0.96527026935E+02  0.92232080827E+02 0.  0.
         13    1    3    3    0    0  0.10996091931E+02  0.20648838883E+02  0.34143866316E+02  0.41389652765E+02  0.10566000000E+00 0.  1.
         22    1    1    0    0    0  0.28440077373E+02 -0.67170958480E+00 -0.11920572321E+01  0.28472973065E+02  0.00000000000E+00 0. -1.
</event>
<event>
 5    1  0.9041167E-005  0.9118800E+02  0.7818608E-02  0.1130116E+00
         25   -1    0    0    0    0  0.00000000000E+00  0.00000000000E+00  0.99999998245E-14  0.12500000000E+03  0.12500000000E+03 0.  0.
        -13    1    3    3    0    0  0.18948725767E+02  0.33900025464E+02  0.12417210128E+02  0.40773327140E+02  0.10566000000E+00 0.  1.
         23    2    1    0    0    0  0.19074820615E+02 -0.19043321534E+02 -0.69781043554E+01  0.97157751224E+02  0.93082961953E+02 0.  0.
         13    1    3    3    0    0  0.12609484770E+00 -0.52943346999E+02 -0.19395314483E+02  0.56384424084E+02  0.10566000000E+00 0. -1.
         22    1    1    0    0    0 -0.19074820615E+02  0.19043321534E+02  0.69781043554E+01  0.27842248776E+02  0.00000000000E+00 0. -1.
</event>
<event>
 5    1  0.9041167E-005  0.9118800E+02  0.7818608E-02  0.1130116E+00
         25   -1    0    0    0    0  0.00000000000E+00  0.00000000000E+00  0.99999998245E-14  0.12500000000E+03  0.12500000000E+03 0.  0.
        -13    1    3    3    0    0  0.90755654403E+01 -0.18041737692E+02 -0.32813158921E+02  0.38530309491E+02  0.10566000000E+00 0. -1.
         23    2    1    0    0    0  0.77066685901E+01 -0.14090725468E+02  0.24341340235E+02  0.95837659055E+02  0.91293015963E+02 0.  0.
         13    1    3    3    0    0 -0.13688968502E+01  0.39510122243E+01  0.57154499157E+02  0.57307349564E+02  0.10566000000E+00 0.  1.
         22    1    1    0    0    0 -0.77066685901E+01  0.14090725468E+02 -0.24341340235E+02  0.29162340945E+02  0.00000000000E+00 0.  1.
</event>
<event>
 5    1  0.9041167E-005  0.9118800E+02  0.7818608E-02  0.1130116E+00
         25   -1    0    0    0    0  0.00000000000E+00  0.00000000000E+00  0.99999998245E-14  0.12500000000E+03  0.12500000000E+03 0.  0.
        -13    1    3    3    0    0  0.13901009629E+01  0.45453591222E+02  0.15722142225E+02  0.48116091444E+02  0.10566000000E+00 0.  1.
         23    2    1    0    0    0 -0.17626035124E+01  0.17947385154E+02 -0.23034350935E+02  0.95745996376E+02  0.91167423426E+02 0.  0.
         13    1    3    3    0    0 -0.31527044753E+01 -0.27506206068E+02 -0.38756493160E+02  0.47629904932E+02  0.10566000000E+00 0. -1.
         22    1    1    0    0    0  0.17626035124E+01 -0.17947385154E+02  0.23034350935E+02  0.29254003624E+02  0.00000000000E+00 0.  1.
</event>
<event>
 5    1  0.9041167E-005  0.9118800E+02  0.7818608E-02  0.1130116E+00
         25   -1    0    0    0    0  0.00000000000E+00  0.00000000000E+00  0.99999998245E-14  0.12500000000E+03  0.12500000000E+03 0.  0.
        -13    1    3    3    0    0  0.29461761191E+02  0.19036416580E+02  0.13884379962E+02  0.37724894959E+02  0.10566000000E+00 0.  1.
         23    2    1    0    0    0 -0.27091469751E+02  0.80996652918E+01  0.12462437587E+01  0.96696193990E+02  0.92461064766E+02 0.  0.
         13    1    3    3    0    0 -0.56553230942E+02 -0.10936751289E+02 -0.12638136203E+02  0.58971299032E+02  0.10566000000E+00 0. -1.
         22    1    1    0    0    0  0.27091469751E+02 -0.80996652918E+01 -0.12462437587E+01  0.28303806010E+02  0.00000000000E+00 0. -1.
</event>
<event>
 5    1  0.9041167E-005  0.9118800E+02  0.7818608E-02  0.1130116E+00
         25   -1    0    0    0    0  0.00000000000E+00  0.00000000000E+00  0.99999998245E-14  0.12500000000E+03  0.12500000000E+03 0.  0.
        -13    1    3    3    0    0 -0.54265023059E+02  0.17876755909E+02  0.99408696917E+01  0.57992268310E+02  0.10566000000E+00 0.  1.
         23    2    1    0    0    0 -0.15913475024E+02  0.22019295629E+02  0.82626577511E+01  0.96603528732E+02  0.92335703729E+02 0.  0.
         13    1    3    3    0    0  0.38351548035E+02  0.41425397201E+01 -0.16782119406E+01  0.38611260422E+02  0.10566000000E+00 0. -1.
         22    1    1    0    0    0  0.15913475024E+02 -0.22019295629E+02 -0.82626577511E+01  0.28396471268E+02  0.00000000000E+00 0.  1.
</event>
<event>
 5    1  0.9041167E-005  0.9118800E+02  0.7818608E-02  0.1130116E+00
         25   -1    0    0    0    0  0.00000000000E+00  0.00000000000E+00  0.99999998245E-14  0.12500000000E+03  0.12500000000E+03 0.  0.
        -13    1    3    3    0    0 -0.76423692857E+01  0.18218311004E+02 -0.37243895767E+02  0.42159596773E+02  0.10566000000E+00 0.  1.
         23    2    1    0    0    0  0.17629180753E+00  0.26157507674E+02  0.14501429108E+02  0.95091176341E+02  0.90265132167E+02 0.  0.
         13    1    3    3    0    0  0.78186610932E+01  0.79391966697E+01  0.51745324875E+02  0.52931579568E+02  0.10566000000E+00 0. -1.
         22    1    1    0    0    0 -0.17629180753E+00 -0.26157507674E+02 -0.14501429108E+02  0.29908823659E+02  0.00000000000E+00 0. -1.
</event>
<event>
 5    1  0.9041167E-005  0.9118800E+02  0.7818608E-02  0.1130116E+00
         25   -1    0    0    0    0  0.00000000000E+00  0.00000000000E+00  0.99999998245E-14  0.12500000000E+03  0.12500000000E+03 0.  0.
        -13    1    3    3    0    0 -0.23319985904E+02  0.14236050496E+02  0.37929068971E+02  0.46745184922E+02  0.10566000000E+00 0.  1.
         23    2    1    0    0    0  0.94349297857E+01 -0.17924872302E+02  0.21396343708E+02  0.95536081877E+02  0.90879153106E+02 0.  0.
         13    1    3    3    0    0  0.32754915690E+02 -0.32160922798E+02 -0.16532725264E+02  0.48790896956E+02  0.10566000000E+00 0. -1.
         22    1    1    0    0    0 -0.94349297857E+01  0.17924872302E+02 -0.21396343708E+02  0.29463918123E+02  0.00000000000E+00 0.  1.
</event>
<event>
 5    1  0.9041167E-005  0.9118800E+02  0.7818608E-02  0.1130116E+00
         25   -1    0    0    0    0  0.00000000000E+00  0.00000000000E+00  0.99999998245E-14  0.12500000000E+03  0.12500000000E+03 0.  0.
        -13    1    3    3    0    0 -0.22084665164E+02  0.16318587715E+02 -0.22170966107E+02  0.35292940407E+02  0.10566000000E+00 0.  1.
         23    2    1    0    0    0  0.27429206561E+02 -0.72846811762E+01  0.44661291593E+01  0.96270672439E+02  0.91883992675E+02 0.  0.
         13    1    3    3    0    0  0.49513871725E+02 -0.23603268891E+02  0.26637095267E+02  0.60977732032E+02  0.10566000000E+00 0. -1.
         22    1    1    0    0    0 -0.27429206561E+02  0.72846811762E+01 -0.44661291593E+01  0.28729327561E+02  0.00000000000E+00 0. -1.
</event>
<event>
 5    1  0.9041167E-005  0.9118800E+02  0.7818608E-02  0.1130116E+00
         25   -1    0    0    0    0  0.00000000000E+00  0.00000000000E+00  0.99999998245E-14  0.12500000000E+03  0.12500000000E+03 0.  0.
        -13    1    3    3    0    0  0.14038839650E+02  0.12576256566E+02 -0.38801428507E+02  0.43137144854E+02  0.10566000000E+00 0.  1.
         23    2    1    0    0    0 -0.23263568836E+02  0.16697528206E+02 -0.10856652062E+01  0.96343765911E+02  0.91983376095E+02 0.  0.
         13    1    3    3    0    0 -0.37302408487E+02  0.41212716405E+01  0.37715763301E+02  0.53206621057E+02  0.10566000000E+00 0. -1.
         22    1    1    0    0    0  0.23263568836E+02 -0.16697528206E+02  0.10856652062E+01  0.28656234089E+02  0.00000000000E+00 0. -1.
</event>
<event>
 5    1  0.9041167E-005  0.9118800E+02  0.7818608E-02  0.1130116E+00
         25   -1    0    0    0    0  0.00000000000E+00  0.00000000000E+00  0.99999998245E-14  0.12500000000E+03  0.12500000000E+03 0.  0.
        -13    1    3    3    0    0 -0.35952765941E+01 -0.39612722139E+02  0.15715356264E+02  0.42767713939E+02  0.10566000000E+00 0. -1.
         23    2    1    0    0    0 -0.16259464752E+02 -0.35472748263E+02 -0.20189273246E+02  0.81064902213E+02  0.68126540740E+02 0.  0.
         13    1    3    3    0    0 -0.12664188158E+02  0.41399738758E+01 -0.35904629510E+02  0.38297188273E+02  0.10566000000E+00 0.  1.
         22    1    1    0    0    0  0.16259464752E+02  0.35472748263E+02  0.20189273246E+02  0.43935097787E+02  0.00000000000E+00 0. -1.
</event>
<event>
 5    1  0.9041167E-005  0.9118800E+02  0.7818608E-02  0.1130116E+00
         25   -1    0    0    0    0  0.00000000000E+00  0.00000000000E+00  0.99999998245E-14  0.12500000000E+03  0.12500000000E+03 0.  0.
        -13    1    3    3    0    0  0.87419970061E+01  0.48365212719E+02  0.24689938935E+02  0.55002005069E+02  0.10566000000E+00 0. -1.
         23    2    1    0    0    0  0.13035672575E+02  0.66279683918E+01  0.23916576055E+02  0.96966781585E+02  0.92826156854E+02 0.  0.
         13    1    3    3    0    0  0.42936755689E+01 -0.41737244327E+02 -0.77336287994E+00  0.41964776516E+02  0.10566000000E+00 0.  1.
         22    1    1    0    0    0 -0.13035672575E+02 -0.66279683918E+01 -0.23916576055E+02  0.28033218415E+02  0.00000000000E+00 0. -1.
</event>
<event>
 5    1  0.9041167E-005  0.9118800E+02  0.7818608E-02  0.1130116E+00
         25   -1    0    0    0    0  0.00000000000E+00  0.00000000000E+00  0.99999998245E-14  0.12500000000E+03  0.12500000000E+03 0.  0.
        -13    1    3    3    0    0 -0.13276175166E+02 -0.95411426498E+01 -0.33333609137E+02  0.37127225754E+02  0.10566000000E+00 0.  1.
         23    2    1    0    0    0  0.20339245467E+02 -0.14583636452E+01  0.17177561349E+02  0.98337660556E+02  0.94654187119E+02 0.  0.
         13    1    3    3    0    0  0.33615420634E+02  0.80827790046E+01  0.50511170486E+02  0.61210434802E+02  0.10566000000E+00 0. -1.
         22    1    1    0    0    0 -0.20339245467E+02  0.14583636452E+01 -0.17177561349E+02  0.26662339444E+02  0.00000000000E+00 0. -1.
</event>
<event>
 5    1  0.9041167E-005  0.9118800E+02  0.7818608E-02  0.1130116E+00
         25   -1    0    0    0    0  0.00000000000E+00  0.00000000000E+00  0.99999998245E-14  0.12500000000E+03  0.12500000000E+03 0.  0.
        -13    1    3    3    0    0  0.43956480760E+01 -0.32943879866E+02  0.14471956834E+02  0.36250098500E+02  0.10566000000E+00 0.  1.
         23    2    1    0    0    0 -0.22419252476E+02  0.18703434939E+02  0.22226332165E+01  0.95718923201E+02  0.91130295732E+02 0.  0.
         13    1    3    3    0    0 -0.26814900552E+02  0.51647314805E+02 -0.12249323618E+02  0.59468824701E+02  0.10566000000E+00 0. -1.
         22    1    1    0    0    0  0.22419252476E+02 -0.18703434939E+02 -0.22226332165E+01  0.29281076799E+02  0.00000000000E+00 0.  1.
</event>
<event>
 5    1  0.9041167E-005  0.9118800E+02  0.7818608E-02  0.1130116E+00
         25   -1    0    0    0    0  0.00000000000E+00  0.00000000000E+00  0.99999998245E-14  0.12500000000E+03  0.12500000000E+03 0.  0.
        -13    1    3    3    0    0 -0.15012086401E+02 -0.88335775996E+01 -0.40468282934E+02  0.44057779324E+02  0.10566000000E+00 0. -1.
         23    2    1    0    0    0 -0.22517080810E+02  0.14657918548E+01  0.12955472842E+02  0.98980550534E+02  0.95499411692E+02 0.  0.
         13    1    3    3    0    0 -0.75049944081E+01  0.10299369454E+02  0.53423755775E+02  0.54922771210E+02  0.10566000000E+00 0.  1.
         22    1    1    0    0    0  0.22517080810E+02 -0.14657918548E+01 -0.12955472842E+02  0.26019449466E+02  0.00000000000E+00 0.  1.
</event>
<event>
 5    1  0.9041167E-005  0.9118800E+02  0.7818608E-02  0.1130116E+00
         25   -1    0    0    0    0  0.00000000000E+00  0.00000000000E+00  0.99999998245E-14  0.12500000000E+03  0.12500000000E+03 0.  0.
        -13    1    3    3    0    0 -0.14897383019E+02  0.40400821486E+02 -0.19720403406E+02  0.47360995261E+02  0.10566000000E+00 0. -1.
         23    2    1    0    0    0 -0.16310397509E+02 -0.84520877463E+01 -0.22062768338E+02  0.96290548579E+02  0.91911028417E+02 0.  0.
         13    1    3    3    0    0 -0.14130144899E+01 -0.48852909232E+02 -0.23423649325E+01  0.48929553318E+02  0.10566000000E+00 0.  1.
         22    1    1    0    0    0  0.16310397509E+02  0.84520877463E+01  0.22062768338E+02  0.28709451421E+02  0.00000000000E+00 0.  1.
</event>
<event>
 5    1  0.9041167E-005  0.9118800E+02  0.7818608E-02  0.1130116E+00
         25   -1    0    0    0    0  0.00000000000E+00  0.00000000000E+00  0.99999998245E-14  0.12500000000E+03  0.12500000000E+03 0.  0.
        -13    1    3    3    0    0  0.21374554589E+02 -0.31862400314E+02 -0.38490594289E+01  0.38560479253E+02  0.10566000000E+00 0.  1.
         23    2    1    0    0    0  0.11811814806E+02  0.17654579712E+02  0.21302838902E+02  0.94916547753E+02  0.90022980056E+02 0.  0.
         13    1    3    3    0    0 -0.95627397836E+01  0.49516980026E+02  0.25151898331E+02  0.56356068500E+02  0.10566000000E+00 0. -1.
         22    1    1    0    0    0 -0.11811814806E+02 -0.17654579712E+02 -0.21302838902E+02  0.30083452247E+02  0.00000000000E+00 0. -1.
</event>
<event>
 5    1  0.9041167E-005  0.9118800E+02  0.7818608E-02  0.1130116E+00
         25   -1    0    0    0    0  0.00000000000E+00  0.00000000000E+00  0.99999998245E-14  0.12500000000E+03  0.12500000000E+03 0.  0.
        -13    1    3    3    0    0 -0.21912307501E+01  0.38206146587E+02 -0.31309585022E+02  0.49445044317E+02  0.10566000000E+00 0.  1.
         23    2    1    0    0    0 -0.55386211292E+01  0.38086818165E+02  0.52484553292E+01  0.86156360555E+02  0.76903121776E+02 0.  0.
         13    1    3    3    0    0 -0.33473903790E+01 -0.11932842229E+00  0.36558040351E+02  0.36711316238E+02  0.10566000000E+00 0. -1.
         22    1    1    0    0    0  0.55386211292E+01 -0.38086818165E+02 -0.52484553292E+01  0.38843639445E+02  0.00000000000E+00 0.  1.
</event>
<event>
 5    1  0.9041167E-005  0.9118800E+02  0.7818608E-02  0.1130116E+00
         25   -1    0    0    0    0  0.00000000000E+00  0.00000000000E+00  0.99999998245E-14  0.12500000000E+03  0.12500000000E+03 0.  0.
        -13    1    3    3    0    0  0.28958136007E+02 -0.19123540755E+02 -0.23260254874E+02  0.41777195608E+02  0.10566000000E+00 0.  1.
         23    2    1    0    0    0  0.22754233924E+02  0.40143922048E+00  0.23167752405E+02  0.92524454332E+02  0.86637829977E+02 0.  0.
         13    1    3    3    0    0 -0.62039020825E+01  0.19524979975E+02  0.46428007279E+02  0.50747258725E+02  0.10566000000E+00 0. -1.
         22    1    1    0    0    0 -0.22754233924E+02 -0.40143922048E+00 -0.23167752405E+02  0.32475545668E+02  0.00000000000E+00 0. -1.
</event>
<event>
 5    1  0.9041167E-005  0.9118800E+02  0.7818608E-02  0.1130116E+00
         25   -1    0    0    0    0  0.00000000000E+00  0.00000000000E+00  0.99999998245E-14  0.12500000000E+03  0.12500000000E+03 0.  0.
        -13    1    3    3    0    0 -0.24153909668E+02 -0.23791628936E+02 -0.21872499786E+02  0.40346875599E+02  0.10566000000E+00 0.  1.
         23    2    1    0    0    0 -0.54522637667E+01 -0.75906752122E+01  0.27707818807E+02  0.95758441331E+02  0.91184485154E+02 0.  0.
         13    1    3    3    0    0  0.18701645902E+02  0.16200953724E+02  0.49580318593E+02  0.55411565732E+02  0.10566000000E+00 0. -1.
         22    1    1    0    0    0  0.54522637667E+01  0.75906752122E+01 -0.27707818807E+02  0.29241558669E+02  0.00000000000E+00 0. -1.
</event>
<event>
 5    1  0.9041167E-005  0.9118800E+02  0.7818608E-02  0.1130116E+00
         25   -1    0    0    0    0  0.00000000000E+00  0.00000000000E+00  0.99999998245E-14  0.12500000000E+03  0.12500000000E+03 0.  0.
        -13    1    3    3    0    0 -0.17811707200E+02  0.25798815508E+02 -0.27996391408E+02  0.42031475002E+02  0.10566000000E+00 0.  1.
         23    2    1    0    0    0 -0.31608196069E+01  0.18287855552E+02  0.22899523271E+02  0.95524169099E+02  0.90862766163E+02 0.  0.
         13    1    3    3    0    0  0.14650887593E+02 -0.75109599561E+01  0.50895914678E+02  0.53492694097E+02  0.10566000000E+00 0. -1.
         22    1    1    0    0    0  0.31608196069E+01 -0.18287855552E+02 -0.22899523271E+02  0.29475830901E+02  0.00000000000E+00 0. -1.
</event>
<event>
 5    1  0.9041167E-005  0.9118800E+02  0.7818608E-02  0.1130116E+00
         25   -1    0    0    0    0  0.00000000000E+00  0.00000000000E+00  0.99999998245E-14  0.12500000000E+03  0.12500000000E+03 0.  0.
        -13    1    3    3    0    0 -0.16604025629E+02 -0.39326951858E+02  0.13798554662E+02  0.44863282139E+02  0.10566000000E+00 0.  1.
         23    2    1    0    0    0  0.25290336223E+02 -0.19109145886E+02  0.10933990850E+02  0.91469227288E+02  0.85101743942E+02 0.  0.
         13    1    3    3    0    0  0.41894361852E+02  0.20217805972E+02 -0.28645638127E+01  0.46605945148E+02  0.10566000000E+00 0. -1.
         22    1    1    0    0    0 -0.25290336223E+02  0.19109145886E+02 -0.10933990850E+02  0.33530772712E+02  0.00000000000E+00 0.  1.
</event>
<event>
 5    1  0.9041167E-005  0.9118800E+02  0.7818608E-02  0.1130116E+00
         25   -1    0    0    0    0  0.00000000000E+00  0.00000000000E+00  0.99999998245E-14  0.12500000000E+03  0.12500000000E+03 0.  0.
        -13    1    3    3    0    0 -0.40407129732E+02 -0.73117710104E+01 -0.31569020321E+02  0.51795871810E+02  0.10566000000E+00 0. -1.
         23    2    1    0    0    0 -0.68650813515E+01 -0.26310383026E+02 -0.16555015102E+02  0.93165519920E+02  0.87557866466E+02 0.  0.
         13    1    3    3    0    0  0.33542048380E+02 -0.18998612015E+02  0.15014005219E+02  0.41369648111E+02  0.10566000000E+00 0.  1.
         22    1    1    0    0    0  0.68650813515E+01  0.26310383026E+02  0.16555015102E+02  0.31834480080E+02  0.00000000000E+00 0. -1.
</event>
<event>
 5    1  0.9041167E-005  0.9118800E+02  0.7818608E-02  0.1130116E+00
         25   -1    0    0    0    0  0.00000000000E+00  0.00000000000E+00  0.99999998245E-14  0.12500000000E+03  0.12500000000E+03 0.  0.
        -13    1    3    3    0    0 -0.53137555651E+02  0.17987726957E+02  0.18193549270E+02  0.58976050569E+02  0.10566000000E+00 0.  1.
         23    2    1    0    0    0 -0.29122771758E+02 -0.99120039850E+00 -0.22328507465E+01  0.95774943361E+02  0.91207104110E+02 0.  0.
         13    1    3    3    0    0  0.24014783893E+02 -0.18978927356E+02 -0.20426400017E+02  0.36798892791E+02  0.10566000000E+00 0. -1.
         22    1    1    0    0    0  0.29122771758E+02  0.99120039850E+00  0.22328507465E+01  0.29225056639E+02  0.00000000000E+00 0.  1.
</event>
<event>
 5    1  0.9041167E-005  0.9118800E+02  0.7818608E-02  0.1130116E+00
         25   -1    0    0    0    0  0.00000000000E+00  0.00000000000E+00  0.99999998245E-14  0.12500000000E+03  0.12500000000E+03 0.  0.
        -13    1    3    3    0    0  0.15441010135E+02  0.80258238187E+01 -0.59547369960E+01  0.18393169892E+02  0.10566000000E+00 0.  1.
         23    2    1    0    0    0 -0.25137639989E+02  0.15532514074E+02  0.36793092720E+02  0.77810047578E+02  0.61866888515E+02 0.  0.
         13    1    3    3    0    0 -0.40578650124E+02  0.75066902554E+01  0.42747829716E+02  0.59416877686E+02  0.10566000000E+00 0. -1.
         22    1    1    0    0    0  0.25137639989E+02 -0.15532514074E+02 -0.36793092720E+02  0.47189952422E+02  0.00000000000E+00 0. -1.
</event>
<event>
 5    1  0.9041167E-005  0.9118800E+02  0.7818608E-02  0.1130116E+00
         25   -1    0    0    0    0  0.00000000000E+00  0.00000000000E+00  0.99999998245E-14  0.12500000000E+03  0.12500000000E+03 0.  0.
        -13    1    3    3    0    0 -0.29258690895E+02  0.30007520828E+02  0.14851482467E+02  0.44464592595E+02  0.10566000000E+00 0.  1.
         23    2    1    0    0    0  0.20364982879E+02  0.12809796190E+02 -0.46654044058E+01  0.10049307436E+03  0.97459061096E+02 0.  0.
         13    1    3    3    0    0  0.49623673774E+02 -0.17197724638E+02 -0.19516886873E+02  0.56028481764E+02  0.10566000000E+00 0. -1.
         22    1    1    0    0    0 -0.20364982879E+02 -0.12809796190E+02  0.46654044058E+01  0.24506925641E+02  0.00000000000E+00 0. -1.
</event>
<event>
 5    1  0.9041167E-005  0.9118800E+02  0.7818608E-02  0.1130116E+00
         25   -1    0    0    0    0  0.00000000000E+00  0.00000000000E+00  0.99999998245E-14  0.12500000000E+03  0.12500000000E+03 0.  0.
        -13    1    3    3    0    0 -0.50836683363E+02 -0.19619885533E+01 -0.31310684347E+02  0.59737658916E+02  0.10566000000E+00 0.  1.
         23    2    1    0    0    0 -0.17961627371E+02  0.10714848758E+02 -0.18011004684E+02  0.97398834600E+02  0.93406148888E+02 0.  0.
         13    1    3    3    0    0  0.32875055992E+02  0.12676837312E+02  0.13299679664E+02  0.37661175684E+02  0.10566000000E+00 0. -1.
         22    1    1    0    0    0  0.17961627371E+02 -0.10714848758E+02  0.18011004684E+02  0.27601165400E+02  0.00000000000E+00 0.  1.
</event>
<event>
 5    1  0.9041167E-005  0.9118800E+02  0.7818608E-02  0.1130116E+00
         25   -1    0    0    0    0  0.00000000000E+00  0.00000000000E+00  0.99999998245E-14  0.12500000000E+03  0.12500000000E+03 0.  0.
        -13    1    3    3    0    0  0.32591553303E+02 -0.24786579332E+02 -0.96320381727E+01  0.42063894079E+02  0.10566000000E+00 0. -1.
         23    2    1    0    0    0  0.69192913368E+01  0.22375796796E+02 -0.16714967854E+02  0.96226000882E+02  0.91823200884E+02 0.  0.
         13    1    3    3    0    0 -0.25672261966E+02  0.47162376128E+02 -0.70829296812E+01  0.54162106804E+02  0.10566000000E+00 0.  1.
         22    1    1    0    0    0 -0.69192913368E+01 -0.22375796796E+02  0.16714967854E+02  0.28773999118E+02  0.00000000000E+00 0.  1.
</event>
<event>
 5    1  0.9041167E-005  0.9118800E+02  0.7818608E-02  0.1130116E+00
         25   -1    0    0    0    0  0.00000000000E+00  0.00000000000E+00  0.99999998245E-14  0.12500000000E+03  0.12500000000E+03 0.  0.
        -13    1    3    3    0    0  0.15789660738E+02  0.48740933637E+02  0.43161346425E+01  0.51416263773E+02  0.10566000000E+00 0.  1.
         23    2    1    0    0    0  0.33316602351E+02  0.27418603434E+02 -0.70740675570E+01  0.81275656228E+02  0.68512145324E+02 0.  0.
         13    1    3    3    0    0  0.17526941613E+02 -0.21322330203E+02 -0.11390202200E+02  0.29859392455E+02  0.10566000000E+00 0. -1.
         22    1    1    0    0    0 -0.33316602351E+02 -0.27418603434E+02  0.70740675570E+01  0.43724343772E+02  0.00000000000E+00 0.  1.
</event>
<event>
 5    1  0.9041167E-005  0.9118800E+02  0.7818608E-02  0.1130116E+00
         25   -1    0    0    0    0  0.00000000000E+00  0.00000000000E+00  0.99999998245E-14  0.12500000000E+03  0.12500000000E+03 0.  0.
        -13    1    3    3    0    0  0.54760995932E+02  0.26553749576E+02 -0.67934067847E+01  0.61237487145E+02  0.10566000000E+00 0.  1.
         23    2    1    0    0    0  0.22617217918E+02  0.16862850026E+02 -0.10241179145E+02  0.94987069327E+02  0.90120848485E+02 0.  0.
         13    1    3    3    0    0 -0.32143778015E+02 -0.96908995505E+01 -0.34477723606E+01  0.33749582182E+02  0.10566000000E+00 0. -1.
         22    1    1    0    0    0 -0.22617217918E+02 -0.16862850026E+02  0.10241179145E+02  0.30012930673E+02  0.00000000000E+00 0.  1.
</event>
<event>
 5    1  0.9041167E-005  0.9118800E+02  0.7818608E-02  0.1130116E+00
         25   -1    0    0    0    0  0.00000000000E+00  0.00000000000E+00  0.99999998245E-14  0.12500000000E+03  0.12500000000E+03 0.  0.
        -13    1    3    3    0    0  0.10078220872E+02 -0.31269875098E+02 -0.42014790442E+02  0.53335067305E+02  0.10566000000E+00 0.  1.
         23    2    1    0    0    0  0.79200622160E+01 -0.31799835892E+02 -0.33565520945E+01  0.92057271057E+02  0.85961141013E+02 0.  0.
         13    1    3    3    0    0 -0.21581586565E+01 -0.52996079421E+00  0.38658238347E+02  0.38722203751E+02  0.10566000000E+00 0. -1.
         22    1    1    0    0    0 -0.79200622160E+01  0.31799835892E+02  0.33565520945E+01  0.32942728943E+02  0.00000000000E+00 0.  1.
</event>
<event>
 5    1  0.9041167E-005  0.9118800E+02  0.7818608E-02  0.1130116E+00
         25   -1    0    0    0    0  0.00000000000E+00  0.00000000000E+00  0.99999998245E-14  0.12500000000E+03  0.12500000000E+03 0.  0.
        -13    1    3    3    0    0  0.58152103474E+01 -0.14564753528E+02 -0.58142940388E+02  0.60220938200E+02  0.10566000000E+00 0. -1.
         23    2    1    0    0    0 -0.49864852833E+00 -0.17886445638E+02 -0.24213980434E+02  0.94892020387E+02  0.89988916522E+02 0.  0.
         13    1    3    3    0    0 -0.63138588758E+01 -0.33216921101E+01  0.33928959954E+02  0.34671082187E+02  0.10566000000E+00 0.  1.
         22    1    1    0    0    0  0.49864852833E+00  0.17886445638E+02  0.24213980434E+02  0.30107979613E+02  0.00000000000E+00 0. -1.
</event>
<event>
 5    1  0.9041167E-005  0.9118800E+02  0.7818608E-02  0.1130116E+00
         25   -1    0    0    0    0  0.00000000000E+00  0.00000000000E+00  0.99999998245E-14  0.12500000000E+03  0.12500000000E+03 0.  0.
        -13    1    3    3    0    0 -0.40940549597E+02  0.38903224100E+02  0.19544291185E+02  0.59762696798E+02  0.10566000000E+00 0. -1.
         23    2    1    0    0    0 -0.90200912417E+01  0.26376988557E+02  0.10345834564E+02  0.95265443266E+02  0.90506136899E+02 0.  0.
         13    1    3    3    0    0  0.31920458355E+02 -0.12526235542E+02 -0.91984566212E+01  0.35502746467E+02  0.10566000000E+00 0.  1.
         22    1    1    0    0    0  0.90200912417E+01 -0.26376988557E+02 -0.10345834564E+02  0.29734556734E+02  0.00000000000E+00 0. -1.
</event>
<event>
 5    1  0.9041167E-005  0.9118800E+02  0.7818608E-02  0.1130116E+00
         25   -1    0    0    0    0  0.00000000000E+00  0.00000000000E+00  0.99999998245E-14  0.12500000000E+03  0.12500000000E+03 0.  0.
        -13    1    3    3    0    0 -0.46493917821E+02  0.46794551268E+01  0.42448075824E-01  0.46728948848E+02  0.10566000000E+00 0. -1.
         23    2    1    0    0    0  0.43642982320E+01 -0.12589015205E+02 -0.17294847324E+02  0.10316786435E+03  0.10083137452E+03 0.  0.
         13    1    3    3    0    0  0.50858216053E+02 -0.17268470332E+02 -0.17337295400E+02  0.56438915506E+02  0.10566000000E+00 0.  1.
         22    1    1    0    0    0 -0.43642982320E+01  0.12589015205E+02  0.17294847324E+02  0.21832135646E+02  0.00000000000E+00 0. -1.
</event>
<event>
 5    1  0.9041167E-005  0.9118800E+02  0.7818608E-02  0.1130116E+00
         25   -1    0    0    0    0  0.00000000000E+00  0.00000000000E+00  0.99999998245E-14  0.12500000000E+03  0.12500000000E+03 0.  0.
        -13    1    3    3    0    0 -0.23979594122E+02 -0.80296938482E+01 -0.52207198244E+02  0.58009478795E+02  0.10566000000E+00 0.  1.
         23    2    1    0    0    0 -0.90604291207E+01 -0.17879757620E+02 -0.12976140728E+02  0.10112203240E+03  0.98262445016E+02 0.  0.
         13    1    3    3    0    0  0.14919165001E+02 -0.98500637721E+01  0.39231057516E+02  0.43112553607E+02  0.10566000000E+00 0. -1.
         22    1    1    0    0    0  0.90604291207E+01  0.17879757620E+02  0.12976140728E+02  0.23877967598E+02  0.00000000000E+00 0.  1.
</event>
<event>
 5    1  0.9041167E-005  0.9118800E+02  0.7818608E-02  0.1130116E+00
         25   -1    0    0    0    0  0.00000000000E+00  0.00000000000E+00  0.99999998245E-14  0.12500000000E+03  0.12500000000E+03 0.  0.
        -13    1    3    3    0    0  0.21263735822E+02 -0.10007574095E+02  0.26447655850E+02  0.35380611419E+02  0.10566000000E+00 0.  1.
         23    2    1    0    0    0 -0.26086339660E+02 -0.18755239638E+02 -0.44083169167E+01  0.92570239150E+02  0.86703862587E+02 0.  0.
         13    1    3    3    0    0 -0.47350075482E+02 -0.87476655432E+01 -0.30855972767E+02  0.57189627731E+02  0.10566000000E+00 0. -1.
         22    1    1    0    0    0  0.26086339660E+02  0.18755239638E+02  0.44083169167E+01  0.32429760850E+02  0.00000000000E+00 0. -1.
</event>
<event>
 5    1  0.9041167E-005  0.9118800E+02  0.7818608E-02  0.1130116E+00
         25   -1    0    0    0    0  0.00000000000E+00  0.00000000000E+00  0.99999998245E-14  0.12500000000E+03  0.12500000000E+03 0.  0.
        -13    1    3    3    0    0  0.32876442447E+02  0.22067814337E+02 -0.11895290362E+01  0.39614076298E+02  0.10566000000E+00 0.  1.
         23    2    1    0    0    0 -0.21985703530E+02  0.13096322892E+02  0.11980405546E+02  0.96743762634E+02  0.92525351437E+02 0.  0.
         13    1    3    3    0    0 -0.54862145977E+02 -0.89714914443E+01  0.13169934583E+02  0.57129686336E+02  0.10566000000E+00 0. -1.
         22    1    1    0    0    0  0.21985703530E+02 -0.13096322892E+02 -0.11980405546E+02  0.28256237366E+02  0.00000000000E+00 0. -1.
</event>
<event>
 5    1  0.9041167E-005  0.9118800E+02  0.7818608E-02  0.1130116E+00
         25   -1    0    0    0    0  0.00000000000E+00  0.00000000000E+00  0.99999998245E-14  0.12500000000E+03  0.12500000000E+03 0.  0.
        -13    1    3    3    0    0 -0.80342179944E+01 -0.28664532879E+02  0.30078393179E+02  0.42319321878E+02  0.10566000000E+00 0. -1.
         23    2    1    0    0    0  0.28168915746E+02 -0.62583384588E+01 -0.26526844010E+01  0.96022571730E+02  0.91545851531E+02 0.  0.
         13    1    3    3    0    0  0.36203133741E+02  0.22406194420E+02 -0.32731077580E+02  0.53703249852E+02  0.10566000000E+00 0.  1.
         22    1    1    0    0    0 -0.28168915746E+02  0.62583384588E+01  0.26526844010E+01  0.28977428270E+02  0.00000000000E+00 0.  1.
</event>
<event>
 5    1  0.9041167E-005  0.9118800E+02  0.7818608E-02  0.1130116E+00
         25   -1    0    0    0    0  0.00000000000E+00  0.00000000000E+00  0.99999998245E-14  0.12500000000E+03  0.12500000000E+03 0.  0.
        -13    1    3    3    0    0  0.18748518857E+02  0.12144806990E+02  0.31602617107E+02  0.38700644286E+02  0.10566000000E+00 0.  1.
         23    2    1    0    0    0  0.77521445659E+01 -0.18314413430E+02 -0.18157456786E+02  0.98070337514E+02  0.94300500415E+02 0.  0.
         13    1    3    3    0    0 -0.10996374291E+02 -0.30459220420E+02 -0.49760073893E+02  0.59369693228E+02  0.10566000000E+00 0. -1.
         22    1    1    0    0    0 -0.77521445659E+01  0.18314413430E+02  0.18157456786E+02  0.26929662486E+02  0.00000000000E+00 0. -1.
</event>
<event>
 5    1  0.9041167E-005  0.9118800E+02  0.7818608E-02  0.1130116E+00
         25   -1    0    0    0    0  0.00000000000E+00  0.00000000000E+00  0.99999998245E-14  0.12500000000E+03  0.12500000000E+03 0.  0.
        -13    1    3    3    0    0 -0.27345402061E+02 -0.14799717133E+02  0.20465062577E+02  0.37224086173E+02  0.10566000000E+00 0.  1.
         23    2    1    0    0    0  0.49290727411E+01  0.29245364005E+02  0.57961615658E+00  0.95336503430E+02  0.90604226489E+02 0.  0.
         13    1    3    3    0    0  0.32274474802E+02  0.44045081138E+02 -0.19885446420E+02  0.58112417258E+02  0.10566000000E+00 0. -1.
         22    1    1    0    0    0 -0.49290727411E+01 -0.29245364005E+02 -0.57961615658E+00  0.29663496570E+02  0.00000000000E+00 0. -1.
</event>
<event>
 5    1  0.9041167E-005  0.9118800E+02  0.7818608E-02  0.1130116E+00
         25   -1    0    0    0    0  0.00000000000E+00  0.00000000000E+00  0.99999998245E-14  0.12500000000E+03  0.12500000000E+03 0.  0.
        -13    1    3    3    0    0  0.31419813846E+02 -0.44667786086E+02  0.23947060860E+02  0.59631272867E+02  0.10566000000E+00 0.  1.
         23    2    1    0    0    0  0.13567672222E+02 -0.26237321406E+02 -0.10362304285E+01  0.95444077791E+02  0.90752517584E+02 0.  0.
         13    1    3    3    0    0 -0.17852141623E+02  0.18430464680E+02 -0.24983291289E+02  0.35812804924E+02  0.10566000000E+00 0. -1.
         22    1    1    0    0    0 -0.13567672222E+02  0.26237321406E+02  0.10362304285E+01  0.29555922209E+02  0.00000000000E+00 0.  1.
</event>
<event>
 5    1  0.9041167E-005  0.9118800E+02  0.7818608E-02  0.1130116E+00
         25   -1    0    0    0    0  0.00000000000E+00  0.00000000000E+00  0.99999998245E-14  0.12500000000E+03  0.12500000000E+03 0.  0.
        -13    1    3    3    0    0 -0.22903356124E+02 -0.98435034594E+01  0.22306192868E+02  0.33451990769E+02  0.10566000000E+00 0.  1.
         23    2    1    0    0    0  0.82275628790E+01  0.17140351547E+02 -0.23310727227E+02  0.94918868939E+02  0.90026203045E+02 0.  0.
         13    1    3    3    0    0  0.31130919003E+02  0.26983855007E+02 -0.45616920095E+02  0.61466878170E+02  0.10566000000E+00 0. -1.
         22    1    1    0    0    0 -0.82275628790E+01 -0.17140351547E+02  0.23310727227E+02  0.30081131061E+02  0.00000000000E+00 0. -1.
</event>
<event>
 5    1  0.9041167E-005  0.9118800E+02  0.7818608E-02  0.1130116E+00
         25   -1    0    0    0    0  0.00000000000E+00  0.00000000000E+00  0.99999998245E-14  0.12500000000E+03  0.12500000000E+03 0.  0.
        -13    1    3    3    0    0 -0.97971138475E+01 -0.13999937211E+02  0.43722126304E+02  0.46942700969E+02  0.10566000000E+00 0.  1.
         23    2    1    0    0    0 -0.33684305533E+01  0.24925436169E+02  0.15414866461E+02  0.95500138973E+02  0.90829701878E+02 0.  0.
         13    1    3    3    0    0  0.64286832942E+01  0.38925373380E+02 -0.28307259843E+02  0.48557438004E+02  0.10566000000E+00 0. -1.
         22    1    1    0    0    0  0.33684305533E+01 -0.24925436169E+02 -0.15414866461E+02  0.29499861027E+02  0.00000000000E+00 0.  1.
</event>
<event>
 5    1  0.9041167E-005  0.9118800E+02  0.7818608E-02  0.1130116E+00
         25   -1    0    0    0    0  0.00000000000E+00  0.00000000000E+00  0.99999998245E-14  0.12500000000E+03  0.12500000000E+03 0.  0.
        -13    1    3    3    0    0 -0.56194016767E+02  0.16628560134E+02  0.84779080429E+01  0.59212858581E+02  0.10566000000E+00 0.  1.
         23    2    1    0    0    0 -0.33811654460E+02  0.12655449935E+02 -0.88880378960E+01  0.87819553418E+02  0.79560595488E+02 0.  0.
         13    1    3    3    0    0  0.22382362307E+02 -0.39731101986E+01 -0.17365945939E+02  0.28606694837E+02  0.10566000000E+00 0. -1.
         22    1    1    0    0    0  0.33811654460E+02 -0.12655449935E+02  0.88880378960E+01  0.37180446582E+02  0.00000000000E+00 0.  1.
</event>
<event>
 5    1  0.9041167E-005  0.9118800E+02  0.7818608E-02  0.1130116E+00
         25   -1    0    0    0    0  0.00000000000E+00  0.00000000000E+00  0.99999998245E-14  0.12500000000E+03  0.12500000000E+03 0.  0.
        -13    1    3    3    0    0 -0.11951928215E+02 -0.57088682791E+02  0.53172106571E+01  0.58568337726E+02  0.10566000000E+00 0. -1.
         23    2    1    0    0    0  0.46523728500E+01 -0.24949020339E+02  0.14336807318E+02  0.95851376823E+02  0.91311796641E+02 0.  0.
         13    1    3    3    0    0  0.16604301065E+02  0.32139662451E+02  0.90195966611E+01  0.37283039097E+02  0.10566000000E+00 0.  1.
         22    1    1    0    0    0 -0.46523728500E+01  0.24949020339E+02 -0.14336807318E+02  0.29148623177E+02  0.00000000000E+00 0. -1.
</event>
<event>
 5    1  0.9041167E-005  0.9118800E+02  0.7818608E-02  0.1130116E+00
         25   -1    0    0    0    0  0.00000000000E+00  0.00000000000E+00  0.99999998245E-14  0.12500000000E+03  0.12500000000E+03 0.  0.
        -13    1    3    3    0    0  0.41735136245E+02  0.37506820722E+01 -0.10287483526E+02  0.43147800578E+02  0.10566000000E+00 0.  1.
         23    2    1    0    0    0  0.59476013935E+01 -0.24086277858E+02  0.15924952724E+02  0.95519042372E+02  0.90855713045E+02 0.  0.
         13    1    3    3    0    0 -0.35787534851E+02 -0.27836959930E+02  0.26212436250E+02  0.52371241794E+02  0.10566000000E+00 0. -1.
         22    1    1    0    0    0 -0.59476013935E+01  0.24086277858E+02 -0.15924952724E+02  0.29480957628E+02  0.00000000000E+00 0. -1.
</event>
<event>
 5    1  0.9041167E-005  0.9118800E+02  0.7818608E-02  0.1130116E+00
         25   -1    0    0    0    0  0.00000000000E+00  0.00000000000E+00  0.99999998245E-14  0.12500000000E+03  0.12500000000E+03 0.  0.
        -13    1    3    3    0    0  0.56896325835E+02 -0.22092125019E+02 -0.12822366931E+02  0.62367284206E+02  0.10566000000E+00 0.  1.
         23    2    1    0    0    0  0.26514895040E+02 -0.10586549297E+02 -0.30785207320E+01  0.96284290451E+02  0.91902516901E+02 0.  0.
         13    1    3    3    0    0 -0.30381430795E+02  0.11505575723E+02  0.97438461992E+01  0.33917006246E+02  0.10566000000E+00 0. -1.
         22    1    1    0    0    0 -0.26514895040E+02  0.10586549297E+02  0.30785207320E+01  0.28715709549E+02  0.00000000000E+00 0.  1.
</event>
<event>
 5    1  0.9041167E-005  0.9118800E+02  0.7818608E-02  0.1130116E+00
         25   -1    0    0    0    0  0.00000000000E+00  0.00000000000E+00  0.99999998245E-14  0.12500000000E+03  0.12500000000E+03 0.  0.
        -13    1    3    3    0    0 -0.12602639685E+02 -0.71081502646E+01 -0.30292290346E+02  0.33570617296E+02  0.10566000000E+00 0. -1.
         23    2    1    0    0    0  0.12904422197E+02  0.10623119137E+02  0.23781396454E+02  0.95932327411E+02  0.91422545648E+02 0.  0.
         13    1    3    3    0    0  0.25507061882E+02  0.17731269402E+02  0.54073686799E+02  0.62361710115E+02  0.10566000000E+00 0.  1.
         22    1    1    0    0    0 -0.12904422197E+02 -0.10623119137E+02 -0.23781396454E+02  0.29067672589E+02  0.00000000000E+00 0.  1.
</event>
<event>
 5    1  0.9041167E-005  0.9118800E+02  0.7818608E-02  0.1130116E+00
         25   -1    0    0    0    0  0.00000000000E+00  0.00000000000E+00  0.99999998245E-14  0.12500000000E+03  0.12500000000E+03 0.  0.
        -13    1    3    3    0    0 -0.48703912180E+01  0.44177510425E+02 -0.10876982226E+02  0.45756890676E+02  0.10566000000E+00 0.  1.
         23    2    1    0    0    0  0.27243323867E+02  0.83775514022E+01  0.42717789959E+01  0.96179344931E+02  0.91759665610E+02 0.  0.
         13    1    3    3    0    0  0.32113715085E+02 -0.35799959022E+02  0.15148761222E+02  0.50422454255E+02  0.10566000000E+00 0. -1.
         22    1    1    0    0    0 -0.27243323867E+02 -0.83775514022E+01 -0.42717789959E+01  0.28820655069E+02  0.00000000000E+00 0. -1.
</event>
<event>
 5    1  0.9041167E-005  0.9118800E+02  0.7818608E-02  0.1130116E+00
         25   -1    0    0    0    0  0.00000000000E+00  0.00000000000E+00  0.99999998245E-14  0.12500000000E+03  0.12500000000E+03 0.  0.
        -13    1    3    3    0    0  0.74612520719E+01  0.16786566803E+02  0.32108648769E+02  0.36992372150E+02  0.10566000000E+00 0.  1.
         23    2    1    0    0    0 -0.30728130729E+02  0.47870580266E+01 -0.71814188023E+01  0.93082814682E+02  0.87439714492E+02 0.  0.
         13    1    3    3    0    0 -0.38189382801E+02 -0.11999508776E+02 -0.39290067571E+02  0.56090442531E+02  0.10566000000E+00 0. -1.
         22    1    1    0    0    0  0.30728130729E+02 -0.47870580266E+01  0.71814188023E+01  0.31917185318E+02  0.00000000000E+00 0. -1.
</event>
<event>
 5    1  0.9041167E-005  0.9118800E+02  0.7818608E-02  0.1130116E+00
         25   -1    0    0    0    0  0.00000000000E+00  0.00000000000E+00  0.99999998245E-14  0.12500000000E+03  0.12500000000E+03 0.  0.
        -13    1    3    3    0    0  0.12959064444E+02  0.36523698566E+02 -0.44657170624E+02  0.59128605263E+02  0.10566000000E+00 0. -1.
         23    2    1    0    0    0  0.18673906357E+02  0.98066490480E+01 -0.20085584276E+02  0.95874137954E+02  0.91342949857E+02 0.  0.
         13    1    3    3    0    0  0.57148419132E+01 -0.26717049518E+02  0.24571586348E+02  0.36745532691E+02  0.10566000000E+00 0.  1.
         22    1    1    0    0    0 -0.18673906357E+02 -0.98066490480E+01  0.20085584276E+02  0.29125862046E+02  0.00000000000E+00 0. -1.
</event>
<event>
 5    1  0.9041167E-005  0.9118800E+02  0.7818608E-02  0.1130116E+00
         25   -1    0    0    0    0  0.00000000000E+00  0.00000000000E+00  0.99999998245E-14  0.12500000000E+03  0.12500000000E+03 0.  0.
        -13    1    3    3    0    0  0.44095573528E+02 -0.34862506905E+02  0.16482496329E+02  0.58578988056E+02  0.10566000000E+00 0.  1.
         23    2    1    0    0    0  0.25654090763E+02 -0.17003066099E+02 -0.70731821046E+01  0.93420472855E+02  0.87921090835E+02 0.  0.
         13    1    3    3    0    0 -0.18441482765E+02  0.17859440805E+02 -0.23555678434E+02  0.34841484798E+02  0.10566000000E+00 0. -1.
         22    1    1    0    0    0 -0.25654090763E+02  0.17003066099E+02  0.70731821046E+01  0.31579527145E+02  0.00000000000E+00 0.  1.
</event>
<event>
 5    1  0.9041167E-005  0.9118800E+02  0.7818608E-02  0.1130116E+00
         25   -1    0    0    0    0  0.00000000000E+00  0.00000000000E+00  0.99999998245E-14  0.12500000000E+03  0.12500000000E+03 0.  0.
        -13    1    3    3    0    0  0.54752539352E-01 -0.79959361281E+00  0.41241932145E+02  0.41249854289E+02  0.10566000000E+00 0.  1.
         23    2    1    0    0    0  0.19321459555E+02 -0.20612111505E+02 -0.61270480430E+01  0.96091201032E+02  0.91639512537E+02 0.  0.
         13    1    3    3    0    0  0.19266707016E+02 -0.19812517893E+02 -0.47368980188E+02  0.54841346743E+02  0.10566000000E+00 0. -1.
         22    1    1    0    0    0 -0.19321459555E+02  0.20612111505E+02  0.61270480430E+01  0.28908798968E+02  0.00000000000E+00 0. -1.
</event>
<event>
 5    1  0.9041167E-005  0.9118800E+02  0.7818608E-02  0.1130116E+00
         25   -1    0    0    0    0  0.00000000000E+00  0.00000000000E+00  0.99999998245E-14  0.12500000000E+03  0.12500000000E+03 0.  0.
        -13    1    3    3    0    0  0.53056002000E+02 -0.18092444856E+01 -0.26307490335E+02  0.59247851654E+02  0.10566000000E+00 0.  1.
         23    2    1    0    0    0  0.27649762233E+02  0.11261852270E+02 -0.53803385535E+01  0.94663772300E+02  0.89671305751E+02 0.  0.
         13    1    3    3    0    0 -0.25406239767E+02  0.13071096756E+02  0.20927151782E+02  0.35415920647E+02  0.10566000000E+00 0. -1.
         22    1    1    0    0    0 -0.27649762233E+02 -0.11261852270E+02  0.53803385535E+01  0.30336227700E+02  0.00000000000E+00 0.  1.
</event>
<event>
 5    1  0.9041167E-005  0.9118800E+02  0.7818608E-02  0.1130116E+00
         25   -1    0    0    0    0  0.00000000000E+00  0.00000000000E+00  0.99999998245E-14  0.12500000000E+03  0.12500000000E+03 0.  0.
        -13    1    3    3    0    0  0.26033166583E+02  0.24370931866E+02 -0.84639221006E+01  0.36651292252E+02  0.10566000000E+00 0.  1.
         23    2    1    0    0    0 -0.16991270324E+02  0.98566993145E+01 -0.31737669447E+02  0.87675243464E+02  0.79333541872E+02 0.  0.
         13    1    3    3    0    0 -0.43024436907E+02 -0.14514232551E+02 -0.23273747346E+02  0.51023951212E+02  0.10566000000E+00 0. -1.
         22    1    1    0    0    0  0.16991270324E+02 -0.98566993145E+01  0.31737669447E+02  0.37324756536E+02  0.00000000000E+00 0. -1.
</event>
<event>
 5    1  0.9041167E-005  0.9118800E+02  0.7818608E-02  0.1130116E+00
         25   -1    0    0    0    0  0.00000000000E+00  0.00000000000E+00  0.99999998245E-14  0.12500000000E+03  0.12500000000E+03 0.  0.
        -13    1    3    3    0    0 -0.29157050174E+02  0.30370817245E+02 -0.53991803098E+01  0.42446229833E+02  0.10566000000E+00 0.  1.
         23    2    1    0    0    0  0.13378611044E+02  0.49560878288E+01 -0.25389361302E+02  0.95876646701E+02  0.91346382935E+02 0.  0.
         13    1    3    3    0    0  0.42535661219E+02 -0.25414729416E+02 -0.19990180992E+02  0.53430416868E+02  0.10566000000E+00 0. -1.
         22    1    1    0    0    0 -0.13378611044E+02 -0.49560878288E+01  0.25389361302E+02  0.29123353299E+02  0.00000000000E+00 0.  1.
</event>
<event>
 5    1  0.9041167E-005  0.9118800E+02  0.7818608E-02  0.1130116E+00
         25   -1    0    0    0    0  0.00000000000E+00  0.00000000000E+00  0.99999998245E-14  0.12500000000E+03  0.12500000000E+03 0.  0.
        -13    1    3    3    0    0 -0.34213973211E+02  0.20440513909E+02 -0.31735228730E+02  0.50946506046E+02  0.10566000000E+00 0. -1.
         23    2    1    0    0    0  0.23105622774E+01  0.27821622545E+02 -0.54288709170E+01  0.96559641027E+02  0.92276271364E+02 0.  0.
         13    1    3    3    0    0  0.36524535488E+02  0.73811086357E+01  0.26306357813E+02  0.45613134981E+02  0.10566000000E+00 0.  1.
         22    1    1    0    0    0 -0.23105622774E+01 -0.27821622545E+02  0.54288709170E+01  0.28440358973E+02  0.00000000000E+00 0.  1.
</event>
<event>
 5    1  0.9041167E-005  0.9118800E+02  0.7818608E-02  0.1130116E+00
         25   -1    0    0    0    0  0.00000000000E+00  0.00000000000E+00  0.99999998245E-14  0.12500000000E+03  0.12500000000E+03 0.  0.
        -13    1    3    3    0    0  0.44530642554E+02  0.19546091780E+02  0.12111316286E+02  0.50117092656E+02  0.10566000000E+00 0.  1.
         23    2    1    0    0    0  0.19713653905E+02 -0.18017778556E+02  0.13321495300E+02  0.95154887646E+02  0.90353317103E+02 0.  0.
         13    1    3    3    0    0 -0.24816988649E+02 -0.37563870336E+02  0.12101790148E+01  0.45037794990E+02  0.10566000000E+00 0. -1.
         22    1    1    0    0    0 -0.19713653905E+02  0.18017778556E+02 -0.13321495300E+02  0.29845112354E+02  0.00000000000E+00 0.  1.
</event>
<event>
 5    1  0.9041167E-005  0.9118800E+02  0.7818608E-02  0.1130116E+00
         25   -1    0    0    0    0  0.00000000000E+00  0.00000000000E+00  0.99999998245E-14  0.12500000000E+03  0.12500000000E+03 0.  0.
        -13    1    3    3    0    0 -0.29613141553E+02 -0.26932939989E+02 -0.11274804877E+01  0.40045021980E+02  0.10566000000E+00 0.  1.
         23    2    1    0    0    0  0.19327040666E+02 -0.96974176329E+01 -0.20280955099E+02  0.95353894870E+02  0.90628217005E+02 0.  0.
         13    1    3    3    0    0  0.48940182220E+02  0.17235522356E+02 -0.19153474612E+02  0.55308872890E+02  0.10566000000E+00 0. -1.
         22    1    1    0    0    0 -0.19327040666E+02  0.96974176329E+01  0.20280955099E+02  0.29646105130E+02  0.00000000000E+00 0. -1.
</event>
<event>
 5    1  0.9041167E-005  0.9118800E+02  0.7818608E-02  0.1130116E+00
         25   -1    0    0    0    0  0.00000000000E+00  0.00000000000E+00  0.99999998245E-14  0.12500000000E+03  0.12500000000E+03 0.  0.
        -13    1    3    3    0    0 -0.18868106046E+02 -0.49839657614E+02 -0.23698369046E+02  0.58323415163E+02  0.10566000000E+00 0.  1.
         23    2    1    0    0    0 -0.20009198267E+02 -0.14538941156E+02 -0.18696252693E+02  0.93995182794E+02  0.88734411017E+02 0.  0.
         13    1    3    3    0    0 -0.11410922210E+01  0.35300716458E+02  0.50021163526E+01  0.35671767631E+02  0.10566000000E+00 0. -1.
         22    1    1    0    0    0  0.20009198267E+02  0.14538941156E+02  0.18696252693E+02  0.31004817206E+02  0.00000000000E+00 0.  1.
</event>
<event>
 5    1  0.9041167E-005  0.9118800E+02  0.7818608E-02  0.1130116E+00
         25   -1    0    0    0    0  0.00000000000E+00  0.00000000000E+00  0.99999998245E-14  0.12500000000E+03  0.12500000000E+03 0.  0.
        -13    1    3    3    0    0  0.47435710406E+02 -0.33335072512E+02  0.79707181152E+01  0.58522792076E+02  0.10566000000E+00 0. -1.
         23    2    1    0    0    0  0.27877911244E+02 -0.61828949163E+01 -0.76290343032E+01  0.95443134651E+02  0.90751218519E+02 0.  0.
         13    1    3    3    0    0 -0.19557799162E+02  0.27152177596E+02 -0.15599752418E+02  0.36920342574E+02  0.10566000000E+00 0.  1.
         22    1    1    0    0    0 -0.27877911244E+02  0.61828949163E+01  0.76290343032E+01  0.29556865349E+02  0.00000000000E+00 0. -1.
</event>
<event>
 5    1  0.9041167E-005  0.9118800E+02  0.7818608E-02  0.1130116E+00
         25   -1    0    0    0    0  0.00000000000E+00  0.00000000000E+00  0.99999998245E-14  0.12500000000E+03  0.12500000000E+03 0.  0.
        -13    1    3    3    0    0 -0.19585155518E+02  0.42643132825E+02 -0.16051041524E+02  0.49594981519E+02  0.10566000000E+00 0.  1.
         23    2    1    0    0    0 -0.13861711461E+02  0.21553144181E+02  0.20501825507E+02  0.92182170733E+02  0.86142571840E+02 0.  0.
         13    1    3    3    0    0  0.57234440576E+01 -0.21089988644E+02  0.36552867031E+02  0.42587189214E+02  0.10566000000E+00 0. -1.
         22    1    1    0    0    0  0.13861711461E+02 -0.21553144181E+02 -0.20501825507E+02  0.32817829267E+02  0.00000000000E+00 0.  1.
</event>
<event>
 5    1  0.9041167E-005  0.9118800E+02  0.7818608E-02  0.1130116E+00
         25   -1    0    0    0    0  0.00000000000E+00  0.00000000000E+00  0.99999998245E-14  0.12500000000E+03  0.12500000000E+03 0.  0.
        -13    1    3    3    0    0  0.22974979133E+02 -0.41041134243E+02 -0.62354762188E+01  0.47445934429E+02  0.10566000000E+00 0.  1.
         23    2    1    0    0    0  0.16229211465E+02 -0.28329181106E+01 -0.28427675084E+02  0.92143563180E+02  0.86086530857E+02 0.  0.
         13    1    3    3    0    0 -0.67457676681E+01  0.38208216133E+02 -0.22192198865E+02  0.44697628751E+02  0.10566000000E+00 0. -1.
         22    1    1    0    0    0 -0.16229211465E+02  0.28329181106E+01  0.28427675084E+02  0.32856436820E+02  0.00000000000E+00 0. -1.
</event>
<event>
 5    1  0.9041167E-005  0.9118800E+02  0.7818608E-02  0.1130116E+00
         25   -1    0    0    0    0  0.00000000000E+00  0.00000000000E+00  0.99999998245E-14  0.12500000000E+03  0.12500000000E+03 0.  0.
        -13    1    3    3    0    0  0.51753654380E+02  0.21289389252E+02 -0.18673783864E+02  0.58994916766E+02  0.10566000000E+00 0. -1.
         23    2    1    0    0    0  0.25896251496E+02 -0.37739926366E+01 -0.14037264658E+02  0.95303137185E+02  0.90558181830E+02 0.  0.
         13    1    3    3    0    0 -0.25857402884E+02 -0.25063381888E+02  0.46365192061E+01  0.36308220419E+02  0.10566000000E+00 0.  1.
         22    1    1    0    0    0 -0.25896251496E+02  0.37739926366E+01  0.14037264658E+02  0.29696862815E+02  0.00000000000E+00 0. -1.
</event>
<event>
 5    1  0.9041167E-005  0.9118800E+02  0.7818608E-02  0.1130116E+00
         25   -1    0    0    0    0  0.00000000000E+00  0.00000000000E+00  0.99999998245E-14  0.12500000000E+03  0.12500000000E+03 0.  0.
        -13    1    3    3    0    0 -0.45098478191E+02 -0.28646844159E+02  0.20057259869E+02  0.57068548719E+02  0.10566000000E+00 0.  1.
         23    2    1    0    0    0 -0.28708483930E+02  0.81927379813E+00  0.41593363660E-01  0.96279798241E+02  0.91896406677E+02 0.  0.
         13    1    3    3    0    0  0.16389994261E+02  0.29466117957E+02 -0.20015666506E+02  0.39211249522E+02  0.10566000000E+00 0. -1.
         22    1    1    0    0    0  0.28708483930E+02 -0.81927379813E+00 -0.41593363660E-01  0.28720201759E+02  0.00000000000E+00 0. -1.
</event>
<event>
 5    1  0.9041167E-005  0.9118800E+02  0.7818608E-02  0.1130116E+00
         25   -1    0    0    0    0  0.00000000000E+00  0.00000000000E+00  0.99999998245E-14  0.12500000000E+03  0.12500000000E+03 0.  0.
        -13    1    3    3    0    0 -0.19028971887E+02 -0.36883481507E+02  0.35553782723E+02  0.54649570988E+02  0.10566000000E+00 0.  1.
         23    2    1    0    0    0  0.83236435125E+01 -0.45969134074E+01  0.24987696039E+02  0.98264263475E+02  0.94557209501E+02 0.  0.
         13    1    3    3    0    0  0.27352615400E+02  0.32286568100E+02 -0.10566086684E+02  0.43614692487E+02  0.10566000000E+00 0. -1.
         22    1    1    0    0    0 -0.83236435125E+01  0.45969134074E+01 -0.24987696039E+02  0.26735736525E+02  0.00000000000E+00 0.  1.
</event>
<event>
 5    1  0.9041167E-005  0.9118800E+02  0.7818608E-02  0.1130116E+00
         25   -1    0    0    0    0  0.00000000000E+00  0.00000000000E+00  0.99999998245E-14  0.12500000000E+03  0.12500000000E+03 0.  0.
        -13    1    3    3    0    0  0.38551834719E+02 -0.70931802683E+01 -0.10787956777E+02  0.40656467407E+02  0.10566000000E+00 0. -1.
         23    2    1    0    0    0 -0.11754120202E+02 -0.26950700415E+02 -0.63346944404E+01  0.94922966432E+02  0.90031892172E+02 0.  0.
         13    1    3    3    0    0 -0.50305954922E+02 -0.19857520147E+02  0.44532623366E+01  0.54266499025E+02  0.10566000000E+00 0.  1.
         22    1    1    0    0    0  0.11754120202E+02  0.26950700415E+02  0.63346944404E+01  0.30077033568E+02  0.00000000000E+00 0.  1.
</event>
<event>
 5    1  0.9041167E-005  0.9118800E+02  0.7818608E-02  0.1130116E+00
         25   -1    0    0    0    0  0.00000000000E+00  0.00000000000E+00  0.99999998245E-14  0.12500000000E+03  0.12500000000E+03 0.  0.
        -13    1    3    3    0    0 -0.78858944970E+01 -0.18941590739E+02 -0.41502936257E+02  0.46297689724E+02  0.10566000000E+00 0.  1.
         23    2    1    0    0    0  0.21145734220E+02  0.11993933432E+02 -0.17543893008E+02  0.95020261897E+02  0.90166875704E+02 0.  0.
         13    1    3    3    0    0  0.29031628717E+02  0.30935524171E+02  0.23959043249E+02  0.48722572173E+02  0.10566000000E+00 0. -1.
         22    1    1    0    0    0 -0.21145734220E+02 -0.11993933432E+02  0.17543893008E+02  0.29979738103E+02  0.00000000000E+00 0. -1.
</event>
<event>
 5    1  0.9041167E-005  0.9118800E+02  0.7818608E-02  0.1130116E+00
         25   -1    0    0    0    0  0.00000000000E+00  0.00000000000E+00  0.99999998245E-14  0.12500000000E+03  0.12500000000E+03 0.  0.
        -13    1    3    3    0    0  0.22209982500E+02  0.36262479504E+01 -0.40755165378E+02  0.46555640537E+02  0.10566000000E+00 0. -1.
         23    2    1    0    0    0 -0.21273034621E+02  0.85482781023E+01 -0.17821411275E+02  0.95961787928E+02  0.91462817484E+02 0.  0.
         13    1    3    3    0    0 -0.43483017121E+02  0.49220301518E+01  0.22933754103E+02  0.49406147391E+02  0.10566000000E+00 0.  1.
         22    1    1    0    0    0  0.21273034621E+02 -0.85482781023E+01  0.17821411275E+02  0.29038212072E+02  0.00000000000E+00 0.  1.
</event>
<event>
 5    1  0.9041167E-005  0.9118800E+02  0.7818608E-02  0.1130116E+00
         25   -1    0    0    0    0  0.00000000000E+00  0.00000000000E+00  0.99999998245E-14  0.12500000000E+03  0.12500000000E+03 0.  0.
        -13    1    3    3    0    0 -0.39715138452E+02  0.92085926897E+01 -0.35577176048E+02  0.54109491045E+02  0.10566000000E+00 0.  1.
         23    2    1    0    0    0 -0.26057933333E+01  0.21601766183E+02 -0.87486744920E+01  0.10154865107E+03  0.98803657666E+02 0.  0.
         13    1    3    3    0    0  0.37109345119E+02  0.12393173494E+02  0.26828501556E+02  0.47439160028E+02  0.10566000000E+00 0. -1.
         22    1    1    0    0    0  0.26057933333E+01 -0.21601766183E+02  0.87486744920E+01  0.23451348927E+02  0.00000000000E+00 0.  1.
</event>
<event>
 5    1  0.9041167E-005  0.9118800E+02  0.7818608E-02  0.1130116E+00
         25   -1    0    0    0    0  0.00000000000E+00  0.00000000000E+00  0.99999998245E-14  0.12500000000E+03  0.12500000000E+03 0.  0.
        -13    1    3    3    0    0 -0.17964110216E+02 -0.27497036622E+02 -0.13002580323E+02  0.35325267698E+02  0.10566000000E+00 0.  1.
         23    2    1    0    0    0  0.46298993290E+01  0.11553295638E+02  0.26775651882E+02  0.95472891411E+02  0.90792195991E+02 0.  0.
         13    1    3    3    0    0  0.22594009545E+02  0.39050332260E+02  0.39778232205E+02  0.60147623713E+02  0.10566000000E+00 0. -1.
         22    1    1    0    0    0 -0.46298993290E+01 -0.11553295638E+02 -0.26775651882E+02  0.29527108589E+02  0.00000000000E+00 0. -1.
</event>
<event>
 5    1  0.9041167E-005  0.9118800E+02  0.7818608E-02  0.1130116E+00
         25   -1    0    0    0    0  0.00000000000E+00  0.00000000000E+00  0.99999998245E-14  0.12500000000E+03  0.12500000000E+03 0.  0.
        -13    1    3    3    0    0  0.42567376558E+02  0.36353193793E+02 -0.50940670132E+01  0.56209402494E+02  0.10566000000E+00 0.  1.
         23    2    1    0    0    0  0.18627339473E+02  0.11968010016E+02  0.17158626445E+02  0.96988761165E+02  0.92855749910E+02 0.  0.
         13    1    3    3    0    0 -0.23940037084E+02 -0.24385183778E+02  0.22252693458E+02  0.40779358671E+02  0.10566000000E+00 0. -1.
         22    1    1    0    0    0 -0.18627339473E+02 -0.11968010016E+02 -0.17158626445E+02  0.28011238835E+02  0.00000000000E+00 0.  1.
</event>
<event>
 5    1  0.9041167E-005  0.9118800E+02  0.7818608E-02  0.1130116E+00
         25   -1    0    0    0    0  0.00000000000E+00  0.00000000000E+00  0.99999998245E-14  0.12500000000E+03  0.12500000000E+03 0.  0.
        -13    1    3    3    0    0  0.20624052184E+02 -0.14259203721E+02  0.53570689137E+02  0.59148172566E+02  0.10566000000E+00 0.  1.
         23    2    1    0    0    0  0.21819203745E+02 -0.15023159497E+01  0.18958451744E+02  0.96055959200E+02  0.91591428639E+02 0.  0.
         13    1    3    3    0    0  0.11951515608E+01  0.12756887771E+02 -0.34612237393E+02  0.36907786634E+02  0.10566000000E+00 0. -1.
         22    1    1    0    0    0 -0.21819203745E+02  0.15023159497E+01 -0.18958451744E+02  0.28944040800E+02  0.00000000000E+00 0.  1.
</event>
<event>
 5    1  0.9041167E-005  0.9118800E+02  0.7818608E-02  0.1130116E+00
         25   -1    0    0    0    0  0.00000000000E+00  0.00000000000E+00  0.99999998245E-14  0.12500000000E+03  0.12500000000E+03 0.  0.
        -13    1    3    3    0    0 -0.50029076874E+01  0.25903351787E+02 -0.24277770990E+02  0.35852950330E+02  0.10566000000E+00 0.  1.
         23    2    1    0    0    0  0.16834435261E+02  0.70142436207E-01  0.24537428315E+02  0.95242840881E+02  0.90474914867E+02 0.  0.
         13    1    3    3    0    0  0.21837342948E+02 -0.25833209350E+02  0.48815199305E+02  0.59389890551E+02  0.10566000000E+00 0. -1.
         22    1    1    0    0    0 -0.16834435261E+02 -0.70142436207E-01 -0.24537428315E+02  0.29757159119E+02  0.00000000000E+00 0. -1.
</event>
<event>
 5    1  0.9041167E-005  0.9118800E+02  0.7818608E-02  0.1130116E+00
         25   -1    0    0    0    0  0.00000000000E+00  0.00000000000E+00  0.99999998245E-14  0.12500000000E+03  0.12500000000E+03 0.  0.
        -13    1    3    3    0    0  0.23880884019E+02  0.29842061320E+02 -0.20792512228E+02  0.43510745502E+02  0.10566000000E+00 0. -1.
         23    2    1    0    0    0 -0.16690984962E+02  0.22589627842E+02  0.10242242496E+02  0.95103782908E+02  0.90282588172E+02 0.  0.
         13    1    3    3    0    0 -0.40571868981E+02 -0.72524334778E+01  0.31034754725E+02  0.51593037406E+02  0.10566000000E+00 0.  1.
         22    1    1    0    0    0  0.16690984962E+02 -0.22589627842E+02 -0.10242242496E+02  0.29896217092E+02  0.00000000000E+00 0.  1.
</event>
<event>
 5    1  0.9041167E-005  0.9118800E+02  0.7818608E-02  0.1130116E+00
         25   -1    0    0    0    0  0.00000000000E+00  0.00000000000E+00  0.99999998245E-14  0.12500000000E+03  0.12500000000E+03 0.  0.
        -13    1    3    3    0    0 -0.28232040644E+01 -0.41083992435E+02 -0.12339888387E+02  0.42990102640E+02  0.10566000000E+00 0.  1.
         23    2    1    0    0    0 -0.17355324372E+02  0.74942905704E+01 -0.23430393105E+02  0.94894269710E+02  0.89992040913E+02 0.  0.
         13    1    3    3    0    0 -0.14532120307E+02  0.48578283005E+02 -0.11090504718E+02  0.51904167070E+02  0.10566000000E+00 0. -1.
         22    1    1    0    0    0  0.17355324372E+02 -0.74942905704E+01  0.23430393105E+02  0.30105730290E+02  0.00000000000E+00 0. -1.
</event>
<event>
 5    1  0.9041167E-005  0.9118800E+02  0.7818608E-02  0.1130116E+00
         25   -1    0    0    0    0  0.00000000000E+00  0.00000000000E+00  0.99999998245E-14  0.12500000000E+03  0.12500000000E+03 0.  0.
        -13    1    3    3    0    0 -0.36897420132E+02  0.12700976119E+01 -0.27151034628E+02  0.45828185713E+02  0.10566000000E+00 0. -1.
         23    2    1    0    0    0 -0.27173484114E+01  0.28485487109E+02 -0.18303786765E+01  0.96326715495E+02  0.91960202662E+02 0.  0.
         13    1    3    3    0    0  0.34180071721E+02  0.27215389497E+02  0.25320655951E+02  0.50498529782E+02  0.10566000000E+00 0.  1.
         22    1    1    0    0    0  0.27173484114E+01 -0.28485487109E+02  0.18303786765E+01  0.28673284505E+02  0.00000000000E+00 0. -1.
</event>
<event>
 5    1  0.9041167E-005  0.9118800E+02  0.7818608E-02  0.1130116E+00
         25   -1    0    0    0    0  0.00000000000E+00  0.00000000000E+00  0.99999998245E-14  0.12500000000E+03  0.12500000000E+03 0.  0.
        -13    1    3    3    0    0 -0.43560287081E+02  0.35650395024E+02  0.10545799093E+02  0.57268440860E+02  0.10566000000E+00 0. -1.
         23    2    1    0    0    0 -0.13820770050E+02  0.13352403166E+02  0.21639555451E+02  0.96059185997E+02  0.91595832324E+02 0.  0.
         13    1    3    3    0    0  0.29739517030E+02 -0.22297991859E+02  0.11093756357E+02  0.38790745137E+02  0.10566000000E+00 0.  1.
         22    1    1    0    0    0  0.13820770050E+02 -0.13352403166E+02 -0.21639555451E+02  0.28940814003E+02  0.00000000000E+00 0. -1.
</event>
<event>
 5    1  0.9041167E-005  0.9118800E+02  0.7818608E-02  0.1130116E+00
         25   -1    0    0    0    0  0.00000000000E+00  0.00000000000E+00  0.99999998245E-14  0.12500000000E+03  0.12500000000E+03 0.  0.
        -13    1    3    3    0    0  0.34367794521E+02  0.23249508712E+02  0.18352040845E+01  0.41533890904E+02  0.10566000000E+00 0. -1.
         23    2    1    0    0    0  0.10211180784E+02 -0.19346446972E+02 -0.20192640060E+02  0.95229277200E+02  0.90456173366E+02 0.  0.
         13    1    3    3    0    0 -0.24156613736E+02 -0.42595955684E+02 -0.22027844144E+02  0.53695386296E+02  0.10566000000E+00 0.  1.
         22    1    1    0    0    0 -0.10211180784E+02  0.19346446972E+02  0.20192640060E+02  0.29770722800E+02  0.00000000000E+00 0.  1.
</event>
<event>
 5    1  0.9041167E-005  0.9118800E+02  0.7818608E-02  0.1130116E+00
         25   -1    0    0    0    0  0.00000000000E+00  0.00000000000E+00  0.99999998245E-14  0.12500000000E+03  0.12500000000E+03 0.  0.
        -13    1    3    3    0    0  0.30428550765E+01  0.47255500504E+02  0.30574813059E+01  0.47452087951E+02  0.10566000000E+00 0.  1.
         23    2    1    0    0    0 -0.25602488348E+02  0.81255205971E+01  0.97875274398E+01  0.96411415075E+02  0.92075261438E+02 0.  0.
         13    1    3    3    0    0 -0.28645343425E+02 -0.39129979907E+02  0.67300461339E+01  0.48959327124E+02  0.10566000000E+00 0. -1.
         22    1    1    0    0    0  0.25602488348E+02 -0.81255205971E+01 -0.97875274398E+01  0.28588584925E+02  0.00000000000E+00 0. -1.
</event>
<event>
 5    1  0.9041167E-005  0.9118800E+02  0.7818608E-02  0.1130116E+00
         25   -1    0    0    0    0  0.00000000000E+00  0.00000000000E+00  0.99999998245E-14  0.12500000000E+03  0.12500000000E+03 0.  0.
        -13    1    3    3    0    0 -0.11371733657E+02 -0.65690904793E+00 -0.44163136872E+02  0.45608570229E+02  0.10566000000E+00 0.  1.
         23    2    1    0    0    0 -0.27617154656E+02 -0.32740777575E+01  0.43634494517E+01  0.96849218349E+02  0.92667710597E+02 0.  0.
         13    1    3    3    0    0 -0.16245420999E+02 -0.26171687096E+01  0.48526586324E+02  0.51240648120E+02  0.10566000000E+00 0. -1.
         22    1    1    0    0    0  0.27617154656E+02  0.32740777575E+01 -0.43634494517E+01  0.28150781651E+02  0.00000000000E+00 0. -1.
</event>
<event>
 5    1  0.9041167E-005  0.9118800E+02  0.7818608E-02  0.1130116E+00
         25   -1    0    0    0    0  0.00000000000E+00  0.00000000000E+00  0.99999998245E-14  0.12500000000E+03  0.12500000000E+03 0.  0.
        -13    1    3    3    0    0 -0.56654877648E+02  0.23789237439E+02 -0.40958763898E+01  0.61583198574E+02  0.10566000000E+00 0.  1.
         23    2    1    0    0    0 -0.28632112048E+02  0.54336180468E+01 -0.64020419691E+01  0.95161967444E+02  0.90363111174E+02 0.  0.
         13    1    3    3    0    0  0.28022765599E+02 -0.18355619392E+02 -0.23061655794E+01  0.33578768870E+02  0.10566000000E+00 0. -1.
         22    1    1    0    0    0  0.28632112048E+02 -0.54336180468E+01  0.64020419691E+01  0.29838032556E+02  0.00000000000E+00 0.  1.
</event>
<event>
 5    1  0.9041167E-005  0.9118800E+02  0.7818608E-02  0.1130116E+00
         25   -1    0    0    0    0  0.00000000000E+00  0.00000000000E+00  0.99999998245E-14  0.12500000000E+03  0.12500000000E+03 0.  0.
        -13    1    3    3    0    0  0.13244757715E+02  0.16057192033E+02 -0.48414553252E+02  0.52699498608E+02  0.10566000000E+00 0.  1.
         23    2    1    0    0    0  0.96624068567E+01 -0.17346440032E+02 -0.21382358615E+02  0.95820103702E+02  0.91268975700E+02 0.  0.
         13    1    3    3    0    0 -0.35823508579E+01 -0.33403632064E+02  0.27032194637E+02  0.43120605094E+02  0.10566000000E+00 0. -1.
         22    1    1    0    0    0 -0.96624068567E+01  0.17346440032E+02  0.21382358615E+02  0.29179896298E+02  0.00000000000E+00 0. -1.
</event>
<event>
 5    1  0.9041167E-005  0.9118800E+02  0.7818608E-02  0.1130116E+00
         25   -1    0    0    0    0  0.00000000000E+00  0.00000000000E+00  0.99999998245E-14  0.12500000000E+03  0.12500000000E+03 0.  0.
        -13    1    3    3    0    0  0.13406733144E+02  0.30042646715E+02 -0.13859241335E+02  0.35698611313E+02  0.10566000000E+00 0.  1.
         23    2    1    0    0    0  0.65813089288E+01 -0.24770180996E+02  0.12014075676E+02  0.96694284885E+02  0.92458483772E+02 0.  0.
         13    1    3    3    0    0 -0.68254242151E+01 -0.54812827711E+02  0.25873317011E+02  0.60995673573E+02  0.10566000000E+00 0. -1.
         22    1    1    0    0    0 -0.65813089288E+01  0.24770180996E+02 -0.12014075676E+02  0.28305715115E+02  0.00000000000E+00 0. -1.
</event>
<event>
 5    1  0.9041167E-005  0.9118800E+02  0.7818608E-02  0.1130116E+00
         25   -1    0    0    0    0  0.00000000000E+00  0.00000000000E+00  0.99999998245E-14  0.12500000000E+03  0.12500000000E+03 0.  0.
        -13    1    3    3    0    0  0.78125582928E+01  0.27781314015E+02  0.41488322062E+02  0.50538396364E+02  0.10566000000E+00 0. -1.
         23    2    1    0    0    0 -0.19859391524E+02  0.13154631844E+02  0.35252998955E+02  0.82453393720E+02  0.70628241023E+02 0.  0.
         13    1    3    3    0    0 -0.27671949816E+02 -0.14626682171E+02 -0.62353231070E+01  0.31914997356E+02  0.10566000000E+00 0.  1.
         22    1    1    0    0    0  0.19859391524E+02 -0.13154631844E+02 -0.35252998955E+02  0.42546606280E+02  0.00000000000E+00 0.  1.
</event>
<event>
 5    1  0.9041167E-005  0.9118800E+02  0.7818608E-02  0.1130116E+00
         25   -1    0    0    0    0  0.00000000000E+00  0.00000000000E+00  0.99999998245E-14  0.12500000000E+03  0.12500000000E+03 0.  0.
        -13    1    3    3    0    0 -0.41689926033E+01 -0.13929003495E+02  0.49974889187E+02  0.52047078217E+02  0.10566000000E+00 0.  1.
         23    2    1    0    0    0 -0.20064095912E+02  0.11310843917E+02  0.18057895738E+02  0.95732428639E+02  0.91148818751E+02 0.  0.
         13    1    3    3    0    0 -0.15895103309E+02  0.25239847412E+02 -0.31916993449E+02  0.43685350421E+02  0.10566000000E+00 0. -1.
         22    1    1    0    0    0  0.20064095912E+02 -0.11310843917E+02 -0.18057895738E+02  0.29267571361E+02  0.00000000000E+00 0. -1.
</event>
<event>
 5    1  0.9041167E-005  0.9118800E+02  0.7818608E-02  0.1130116E+00
         25   -1    0    0    0    0  0.00000000000E+00  0.00000000000E+00  0.99999998245E-14  0.12500000000E+03  0.12500000000E+03 0.  0.
        -13    1    3    3    0    0  0.43101458638E+02  0.66141052125E+01  0.22586987443E+02  0.49108708905E+02  0.10566000000E+00 0.  1.
         23    2    1    0    0    0  0.21405836398E+02  0.47156648874E+01 -0.18960404960E+02  0.96018207725E+02  0.91539892567E+02 0.  0.
         13    1    3    3    0    0 -0.21695622240E+02 -0.18984403251E+01 -0.41547392403E+02  0.46909498820E+02  0.10566000000E+00 0. -1.
         22    1    1    0    0    0 -0.21405836398E+02 -0.47156648874E+01  0.18960404960E+02  0.28981792275E+02  0.00000000000E+00 0.  1.
</event>
<event>
 5    1  0.9041167E-005  0.9118800E+02  0.7818608E-02  0.1130116E+00
         25   -1    0    0    0    0  0.00000000000E+00  0.00000000000E+00  0.99999998245E-14  0.12500000000E+03  0.12500000000E+03 0.  0.
        -13    1    3    3    0    0  0.16334333676E+02 -0.84042239840E+01 -0.32206868196E+02  0.37077418471E+02  0.10566000000E+00 0. -1.
         23    2    1    0    0    0 -0.97783863865E+01  0.26506902689E+02  0.71994155030E+01  0.95844137570E+02  0.91301886029E+02 0.  0.
         13    1    3    3    0    0 -0.26112720062E+02  0.34911126673E+02  0.39406283699E+02  0.58766719099E+02  0.10566000000E+00 0.  1.
         22    1    1    0    0    0  0.97783863865E+01 -0.26506902689E+02 -0.71994155030E+01  0.29155862430E+02  0.00000000000E+00 0.  1.
</event>
<event>
 5    1  0.9041167E-005  0.9118800E+02  0.7818608E-02  0.1130116E+00
         25   -1    0    0    0    0  0.00000000000E+00  0.00000000000E+00  0.99999998245E-14  0.12500000000E+03  0.12500000000E+03 0.  0.
        -13    1    3    3    0    0 -0.39673028605E+02  0.46703574801E+01 -0.90140927305E+01  0.40951513641E+02  0.10566000000E+00 0. -1.
         23    2    1    0    0    0  0.12827433460E+02  0.11644934243E+02 -0.23448952054E+02  0.95845225174E+02  0.91303375039E+02 0.  0.
         13    1    3    3    0    0  0.52500462066E+02  0.69745767633E+01 -0.14434859324E+02  0.54893711533E+02  0.10566000000E+00 0.  1.
         22    1    1    0    0    0 -0.12827433460E+02 -0.11644934243E+02  0.23448952054E+02  0.29154774826E+02  0.00000000000E+00 0.  1.
</event>
<event>
 5    1  0.9041167E-005  0.9118800E+02  0.7818608E-02  0.1130116E+00
         25   -1    0    0    0    0  0.00000000000E+00  0.00000000000E+00  0.99999998245E-14  0.12500000000E+03  0.12500000000E+03 0.  0.
        -13    1    3    3    0    0  0.29433499194E+02  0.47400890989E+02 -0.12486594024E+02  0.57176057364E+02  0.10566000000E+00 0.  1.
         23    2    1    0    0    0  0.27970701031E+00  0.34923852740E+02 -0.55631314355E+01  0.89634732327E+02  0.82363117242E+02 0.  0.
         13    1    3    3    0    0 -0.29153792183E+02 -0.12477038250E+02  0.69234625880E+01  0.32458674964E+02  0.10566000000E+00 0. -1.
         22    1    1    0    0    0 -0.27970701031E+00 -0.34923852740E+02  0.55631314355E+01  0.35365267673E+02  0.00000000000E+00 0.  1.
</event>
<event>
 5    1  0.9041167E-005  0.9118800E+02  0.7818608E-02  0.1130116E+00
         25   -1    0    0    0    0  0.00000000000E+00  0.00000000000E+00  0.99999998245E-14  0.12500000000E+03  0.12500000000E+03 0.  0.
        -13    1    3    3    0    0 -0.34827870728E+02  0.34855174032E+02  0.37948211343E+02  0.62192778073E+02  0.10566000000E+00 0. -1.
         23    2    1    0    0    0 -0.17198822296E+02  0.18936162146E+02  0.14379127525E+02  0.95654863545E+02  0.91042385108E+02 0.  0.
         13    1    3    3    0    0  0.17629048432E+02 -0.15919011886E+02 -0.23569083818E+02  0.33462085472E+02  0.10566000000E+00 0.  1.
         22    1    1    0    0    0  0.17198822296E+02 -0.18936162146E+02 -0.14379127525E+02  0.29345136455E+02  0.00000000000E+00 0. -1.
</event>
<event>
 5    1  0.9041167E-005  0.9118800E+02  0.7818608E-02  0.1130116E+00
         25   -1    0    0    0    0  0.00000000000E+00  0.00000000000E+00  0.99999998245E-14  0.12500000000E+03  0.12500000000E+03 0.  0.
        -13    1    3    3    0    0  0.23665288061E+02 -0.26335463532E+02  0.63076027698E+01  0.35963864019E+02  0.10566000000E+00 0. -1.
         23    2    1    0    0    0 -0.28403726762E+02  0.31295998198E+01  0.60430079885E+01  0.95792397658E+02  0.91231022216E+02 0.  0.
         13    1    3    3    0    0 -0.52069014823E+02  0.29465063352E+02 -0.26459478127E+00  0.59828533639E+02  0.10566000000E+00 0.  1.
         22    1    1    0    0    0  0.28403726762E+02 -0.31295998198E+01 -0.60430079885E+01  0.29207602342E+02  0.00000000000E+00 0.  1.
</event>
<event>
 5    1  0.9041167E-005  0.9118800E+02  0.7818608E-02  0.1130116E+00
         25   -1    0    0    0    0  0.00000000000E+00  0.00000000000E+00  0.99999998245E-14  0.12500000000E+03  0.12500000000E+03 0.  0.
        -13    1    3    3    0    0  0.20145498997E+02 -0.34131409227E+02  0.13094050472E+02  0.41740382694E+02  0.10566000000E+00 0.  1.
         23    2    1    0    0    0  0.21772334075E+02  0.99586957296E+01 -0.17425911743E+02  0.95387966098E+02  0.90675197957E+02 0.  0.
         13    1    3    3    0    0  0.16268350781E+01  0.44090104957E+02 -0.30519962215E+02  0.53647583404E+02  0.10566000000E+00 0. -1.
         22    1    1    0    0    0 -0.21772334075E+02 -0.99586957296E+01  0.17425911743E+02  0.29612033902E+02  0.00000000000E+00 0. -1.
</event>
<event>
 5    1  0.9041167E-005  0.9118800E+02  0.7818608E-02  0.1130116E+00
         25   -1    0    0    0    0  0.00000000000E+00  0.00000000000E+00  0.99999998245E-14  0.12500000000E+03  0.12500000000E+03 0.  0.
        -13    1    3    3    0    0 -0.44936434709E+02  0.83002749291E+01 -0.25872864387E+02  0.52512798477E+02  0.10566000000E+00 0. -1.
         23    2    1    0    0    0 -0.18390112803E+02 -0.21068669224E+02 -0.82816701946E+01  0.95833732961E+02  0.91287640128E+02 0.  0.
         13    1    3    3    0    0  0.26546321906E+02 -0.29368944154E+02  0.17591194192E+02  0.43320934484E+02  0.10566000000E+00 0.  1.
         22    1    1    0    0    0  0.18390112803E+02  0.21068669224E+02  0.82816701946E+01  0.29166267039E+02  0.00000000000E+00 0.  1.
</event>
<event>
 5    1  0.9041167E-005  0.9118800E+02  0.7818608E-02  0.1130116E+00
         25   -1    0    0    0    0  0.00000000000E+00  0.00000000000E+00  0.99999998245E-14  0.12500000000E+03  0.12500000000E+03 0.  0.
        -13    1    3    3    0    0 -0.47240961348E+02 -0.32212413539E+02 -0.67319365796E+01  0.57573241608E+02  0.10566000000E+00 0. -1.
         23    2    1    0    0    0 -0.30147667665E+02 -0.19537151415E+01 -0.11545423880E+02  0.92658143513E+02  0.86830500852E+02 0.  0.
         13    1    3    3    0    0  0.17093293683E+02  0.30258698398E+02 -0.48134873001E+01  0.35084901905E+02  0.10566000000E+00 0.  1.
         22    1    1    0    0    0  0.30147667665E+02  0.19537151415E+01  0.11545423880E+02  0.32341856487E+02  0.00000000000E+00 0. -1.
</event>
<event>
 5    1  0.9041167E-005  0.9118800E+02  0.7818608E-02  0.1130116E+00
         25   -1    0    0    0    0  0.00000000000E+00  0.00000000000E+00  0.99999998245E-14  0.12500000000E+03  0.12500000000E+03 0.  0.
        -13    1    3    3    0    0  0.45213811369E+02 -0.12443428045E+02  0.24185943726E+02  0.52764558919E+02  0.10566000000E+00 0.  1.
         23    2    1    0    0    0  0.16830889002E+02  0.17151296379E+02  0.19531755974E+02  0.94033319785E+02  0.88788118272E+02 0.  0.
         13    1    3    3    0    0 -0.28382922366E+02  0.29594724424E+02 -0.46541877518E+01  0.41268760866E+02  0.10566000000E+00 0. -1.
         22    1    1    0    0    0 -0.16830889002E+02 -0.17151296379E+02 -0.19531755974E+02  0.30966680215E+02  0.00000000000E+00 0.  1.
</event>
<event>
 5    1  0.9041167E-005  0.9118800E+02  0.7818608E-02  0.1130116E+00
         25   -1    0    0    0    0  0.00000000000E+00  0.00000000000E+00  0.99999998245E-14  0.12500000000E+03  0.12500000000E+03 0.  0.
        -13    1    3    3    0    0  0.37016105603E+02  0.83335365954E+00  0.20151845746E+02  0.42154413806E+02  0.10566000000E+00 0. -1.
         23    2    1    0    0    0  0.43649021683E+01 -0.27340202936E+02 -0.10845982548E+02  0.95264929713E+02  0.90505427618E+02 0.  0.
         13    1    3    3    0    0 -0.32651203434E+02 -0.28173556595E+02 -0.30997828295E+02  0.53110515907E+02  0.10566000000E+00 0.  1.
         22    1    1    0    0    0 -0.43649021683E+01  0.27340202936E+02  0.10845982548E+02  0.29735070287E+02  0.00000000000E+00 0.  1.
</event>
<event>
 5    1  0.9041167E-005  0.9118800E+02  0.7818608E-02  0.1130116E+00
         25   -1    0    0    0    0  0.00000000000E+00  0.00000000000E+00  0.99999998245E-14  0.12500000000E+03  0.12500000000E+03 0.  0.
        -13    1    3    3    0    0 -0.50571879377E+02 -0.25221376138E+02 -0.11622000681E+02  0.57695015919E+02  0.10566000000E+00 0. -1.
         23    2    1    0    0    0 -0.29820993448E+02  0.35350861412E+01 -0.10542757737E+02  0.93173309550E+02  0.87568986448E+02 0.  0.
         13    1    3    3    0    0  0.20750885928E+02  0.28756462279E+02  0.10792429434E+01  0.35478293632E+02  0.10566000000E+00 0.  1.
         22    1    1    0    0    0  0.29820993448E+02 -0.35350861412E+01  0.10542757737E+02  0.31826690450E+02  0.00000000000E+00 0.  1.
</event>
<event>
 5    1  0.9041167E-005  0.9118800E+02  0.7818608E-02  0.1130116E+00
         25   -1    0    0    0    0  0.00000000000E+00  0.00000000000E+00  0.99999998245E-14  0.12500000000E+03  0.12500000000E+03 0.  0.
        -13    1    3    3    0    0  0.22564450138E+02 -0.36685508154E+02 -0.44321169002E+02  0.61800955529E+02  0.10566000000E+00 0. -1.
         23    2    1    0    0    0  0.15911796869E+02 -0.17692245412E+02 -0.16902109516E+02  0.95812980053E+02  0.91259218784E+02 0.  0.
         13    1    3    3    0    0 -0.66526532688E+01  0.18993262742E+02  0.27419059486E+02  0.34012024524E+02  0.10566000000E+00 0.  1.
         22    1    1    0    0    0 -0.15911796869E+02  0.17692245412E+02  0.16902109516E+02  0.29187019947E+02  0.00000000000E+00 0. -1.
</event>
<event>
 5    1  0.9041167E-005  0.9118800E+02  0.7818608E-02  0.1130116E+00
         25   -1    0    0    0    0  0.00000000000E+00  0.00000000000E+00  0.99999998245E-14  0.12500000000E+03  0.12500000000E+03 0.  0.
        -13    1    3    3    0    0  0.29049019388E+01  0.61348029324E+02 -0.47785376652E+00  0.61418715922E+02  0.10566000000E+00 0. -1.
         23    2    1    0    0    0  0.95601256296E+01  0.29166062015E+02  0.63278243944E+00  0.94300560443E+02  0.89163558199E+02 0.  0.
         13    1    3    3    0    0  0.66552236907E+01 -0.32181967310E+02  0.11106362060E+01  0.32881844521E+02  0.10566000000E+00 0.  1.
         22    1    1    0    0    0 -0.95601256296E+01 -0.29166062015E+02 -0.63278243944E+00  0.30699439557E+02  0.00000000000E+00 0. -1.
</event>
<event>
 5    1  0.9041167E-005  0.9118800E+02  0.7818608E-02  0.1130116E+00
         25   -1    0    0    0    0  0.00000000000E+00  0.00000000000E+00  0.99999998245E-14  0.12500000000E+03  0.12500000000E+03 0.  0.
        -13    1    3    3    0    0 -0.20323115394E+02 -0.33980563817E+02  0.10813695056E+02  0.41044547767E+02  0.10566000000E+00 0. -1.
         23    2    1    0    0    0  0.26410236841E+02 -0.46201997215E+01  0.10414549946E+02  0.96237008048E+02  0.91838183845E+02 0.  0.
         13    1    3    3    0    0  0.46733352235E+02  0.29360364095E+02 -0.39914511007E+00  0.55192460280E+02  0.10566000000E+00 0.  1.
         22    1    1    0    0    0 -0.26410236841E+02  0.46201997215E+01 -0.10414549946E+02  0.28762991952E+02  0.00000000000E+00 0.  1.
</event>
<event>
 5    1  0.9041167E-005  0.9118800E+02  0.7818608E-02  0.1130116E+00
         25   -1    0    0    0    0  0.00000000000E+00  0.00000000000E+00  0.99999998245E-14  0.12500000000E+03  0.12500000000E+03 0.  0.
        -13    1    3    3    0    0 -0.47096741928E+02 -0.33240156753E+02  0.20120445134E+02  0.61056159375E+02  0.10566000000E+00 0.  1.
         23    2    1    0    0    0 -0.22359082419E+02 -0.22509533904E+02  0.27012778125E+01  0.93158131571E+02  0.87547318022E+02 0.  0.
         13    1    3    3    0    0  0.24737659509E+02  0.10730622849E+02 -0.17419167321E+02  0.32101972196E+02  0.10566000000E+00 0. -1.
         22    1    1    0    0    0  0.22359082419E+02  0.22509533904E+02 -0.27012778125E+01  0.31841868429E+02  0.00000000000E+00 0.  1.
</event>
<event>
 5    1  0.9041167E-005  0.9118800E+02  0.7818608E-02  0.1130116E+00
         25   -1    0    0    0    0  0.00000000000E+00  0.00000000000E+00  0.99999998245E-14  0.12500000000E+03  0.12500000000E+03 0.  0.
        -13    1    3    3    0    0 -0.27587864438E+02 -0.36884254744E+02  0.65143136071E+01  0.46518662471E+02  0.10566000000E+00 0.  1.
         23    2    1    0    0    0 -0.26446698885E+02  0.11902296650E+02 -0.14399237571E+01  0.95962680428E+02  0.91464037234E+02 0.  0.
         13    1    3    3    0    0  0.11411655530E+01  0.48786551394E+02 -0.79542373643E+01  0.49444017958E+02  0.10566000000E+00 0. -1.
         22    1    1    0    0    0  0.26446698885E+02 -0.11902296650E+02  0.14399237571E+01  0.29037319572E+02  0.00000000000E+00 0. -1.
</event>
<event>
 5    1  0.9041167E-005  0.9118800E+02  0.7818608E-02  0.1130116E+00
         25   -1    0    0    0    0  0.00000000000E+00  0.00000000000E+00  0.99999998245E-14  0.12500000000E+03  0.12500000000E+03 0.  0.
        -13    1    3    3    0    0  0.14744876776E+02 -0.35120578291E+02 -0.50865499221E+01  0.38428512394E+02  0.10566000000E+00 0. -1.
         23    2    1    0    0    0  0.14083614338E+02  0.10561030097E+02 -0.29813508877E+02  0.90377336020E+02  0.83482537126E+02 0.  0.
         13    1    3    3    0    0 -0.66126243802E+00  0.45681608388E+02 -0.24726958955E+02  0.51948823626E+02  0.10566000000E+00 0.  1.
         22    1    1    0    0    0 -0.14083614338E+02 -0.10561030097E+02  0.29813508877E+02  0.34622663980E+02  0.00000000000E+00 0.  1.
</event>
<event>
 5    1  0.9041167E-005  0.9118800E+02  0.7818608E-02  0.1130116E+00
         25   -1    0    0    0    0  0.00000000000E+00  0.00000000000E+00  0.99999998245E-14  0.12500000000E+03  0.12500000000E+03 0.  0.
        -13    1    3    3    0    0  0.48473562717E+02 -0.55041810079E+01 -0.38787617851E+02  0.62325538535E+02  0.10566000000E+00 0. -1.
         23    2    1    0    0    0  0.25529721797E+02 -0.47424083773E+01 -0.17084536028E+02  0.93917231405E+02  0.88624533010E+02 0.  0.
         13    1    3    3    0    0 -0.22943840920E+02  0.76177263059E+00  0.21703081823E+02  0.31591692870E+02  0.10566000000E+00 0.  1.
         22    1    1    0    0    0 -0.25529721797E+02  0.47424083773E+01  0.17084536028E+02  0.31082768595E+02  0.00000000000E+00 0. -1.
</event>
<event>
 5    1  0.9041167E-005  0.9118800E+02  0.7818608E-02  0.1130116E+00
         25   -1    0    0    0    0  0.00000000000E+00  0.00000000000E+00  0.99999998245E-14  0.12500000000E+03  0.12500000000E+03 0.  0.
        -13    1    3    3    0    0 -0.55069980185E+02  0.37225055724E+01 -0.99519663548E+01  0.56085760793E+02  0.10566000000E+00 0. -1.
         23    2    1    0    0    0 -0.23553200802E+02  0.19907158802E+02  0.34565732086E+01  0.93967820928E+02  0.88695858032E+02 0.  0.
         13    1    3    3    0    0  0.31516779383E+02  0.16184653230E+02  0.13408539563E+02  0.37882060136E+02  0.10566000000E+00 0.  1.
         22    1    1    0    0    0  0.23553200802E+02 -0.19907158802E+02 -0.34565732086E+01  0.31032179072E+02  0.00000000000E+00 0. -1.
</event>
<event>
 5    1  0.9041167E-005  0.9118800E+02  0.7818608E-02  0.1130116E+00
         25   -1    0    0    0    0  0.00000000000E+00  0.00000000000E+00  0.99999998245E-14  0.12500000000E+03  0.12500000000E+03 0.  0.
        -13    1    3    3    0    0  0.13895495113E+02  0.46740313190E+02  0.12865383469E+02  0.50430852832E+02  0.10566000000E+00 0. -1.
         23    2    1    0    0    0  0.11279275215E+02  0.18684392808E+02 -0.21154758968E+02  0.94605059452E+02  0.89589423834E+02 0.  0.
         13    1    3    3    0    0 -0.26162198985E+01 -0.28055920382E+02 -0.34020142437E+02  0.44174206620E+02  0.10566000000E+00 0.  1.
         22    1    1    0    0    0 -0.11279275215E+02 -0.18684392808E+02  0.21154758968E+02  0.30394940548E+02  0.00000000000E+00 0.  1.
</event>
<event>
 5    1  0.9041167E-005  0.9118800E+02  0.7818608E-02  0.1130116E+00
         25   -1    0    0    0    0  0.00000000000E+00  0.00000000000E+00  0.99999998245E-14  0.12500000000E+03  0.12500000000E+03 0.  0.
        -13    1    3    3    0    0 -0.18469585669E+02  0.58218053355E+02  0.36001788966E+01  0.61183656178E+02  0.10566000000E+00 0.  1.
         23    2    1    0    0    0 -0.79357392042E+00  0.18706437752E+02 -0.56429160660E+01  0.10544487089E+03  0.10361572140E+03 0.  0.
         13    1    3    3    0    0  0.17676011749E+02 -0.39511615602E+02 -0.92430949626E+01  0.44261214708E+02  0.10566000000E+00 0. -1.
         22    1    1    0    0    0  0.79357392042E+00 -0.18706437752E+02  0.56429160660E+01  0.19555129114E+02  0.00000000000E+00 0.  1.
</event>
<event>
 5    1  0.9041167E-005  0.9118800E+02  0.7818608E-02  0.1130116E+00
         25   -1    0    0    0    0  0.00000000000E+00  0.00000000000E+00  0.99999998245E-14  0.12500000000E+03  0.12500000000E+03 0.  0.
        -13    1    3    3    0    0  0.47813555722E+02 -0.30557942913E+01 -0.20758856559E+02  0.52215086701E+02  0.10566000000E+00 0. -1.
         23    2    1    0    0    0  0.19325239116E+02 -0.20890589624E+02  0.68700658440E+01  0.95724081459E+02  0.91137370846E+02 0.  0.
         13    1    3    3    0    0 -0.28488316606E+02 -0.17834795333E+02  0.27628922403E+02  0.43508994757E+02  0.10566000000E+00 0.  1.
         22    1    1    0    0    0 -0.19325239116E+02  0.20890589624E+02 -0.68700658440E+01  0.29275918541E+02  0.00000000000E+00 0. -1.
</event>
<event>
 4    1  0.9041167E-005  0.9118800E+02  0.7818608E-02  0.1130116E+00
         25   -1    0    0    0    0  0.00000000000E+00  0.00000000000E+00  0.99999998245E-14  0.12500000000E+03  0.12500000000E+03 0.  0.
        -13    1    1    0    0    0  0.47810555286E+02 -0.26440020401E+02  0.27423041837E+02  0.61130665489E+02  0.10566000000E+00 0. -1.
         13    1    1    0    0    0 -0.37966737454E+01  0.74453913984E+01 -0.95924345765E+01  0.12722992955E+02  0.10566000000E+00 0.  1.
         22    1    1    0    0    0 -0.44013881540E+02  0.18994629002E+02 -0.17830607261E+02  0.51146341555E+02  0.00000000000E+00 0. -1.
</event>
<event>
 5    1  0.9041167E-005  0.9118800E+02  0.7818608E-02  0.1130116E+00
         25   -1    0    0    0    0  0.00000000000E+00  0.00000000000E+00  0.99999998245E-14  0.12500000000E+03  0.12500000000E+03 0.  0.
        -13    1    3    3    0    0  0.29215112703E+02  0.66610090514E+01  0.31960886746E+02  0.43810972341E+02  0.10566000000E+00 0.  1.
         23    2    1    0    0    0  0.24172915106E+02  0.20172158561E+01 -0.18348360494E+02  0.94585179314E+02  0.89561681698E+02 0.  0.
         13    1    3    3    0    0 -0.50421975970E+01 -0.46437931953E+01 -0.50309247240E+02  0.50774206973E+02  0.10566000000E+00 0. -1.
         22    1    1    0    0    0 -0.24172915106E+02 -0.20172158561E+01  0.18348360494E+02  0.30414820686E+02  0.00000000000E+00 0. -1.
</event>
<event>
 5    1  0.9041167E-005  0.9118800E+02  0.7818608E-02  0.1130116E+00
         25   -1    0    0    0    0  0.00000000000E+00  0.00000000000E+00  0.99999998245E-14  0.12500000000E+03  0.12500000000E+03 0.  0.
        -13    1    3    3    0    0 -0.11297879731E+02  0.39495507108E+02  0.16739398831E+02  0.44359393655E+02  0.10566000000E+00 0. -1.
         23    2    1    0    0    0 -0.10874476992E+02  0.96980843263E+01 -0.25249054612E+02  0.95848295963E+02  0.91307579043E+02 0.  0.
         13    1    3    3    0    0  0.42340273897E+00 -0.29797422782E+02 -0.41988453443E+02  0.51488902308E+02  0.10566000000E+00 0.  1.
         22    1    1    0    0    0  0.10874476992E+02 -0.96980843263E+01  0.25249054612E+02  0.29151704037E+02  0.00000000000E+00 0.  1.
</event>
<event>
 5    1  0.9041167E-005  0.9118800E+02  0.7818608E-02  0.1130116E+00
         25   -1    0    0    0    0  0.00000000000E+00  0.00000000000E+00  0.99999998245E-14  0.12500000000E+03  0.12500000000E+03 0.  0.
        -13    1    3    3    0    0 -0.26740797105E+02  0.82597941712E+01  0.22660469014E+02  0.36011143408E+02  0.10566000000E+00 0.  1.
         23    2    1    0    0    0  0.21641584757E+02  0.23378344737E+02 -0.33180876413E+01  0.92970093677E+02  0.87278424707E+02 0.  0.
         13    1    3    3    0    0  0.48382381862E+02  0.15118550566E+02 -0.25978556655E+02  0.56958950270E+02  0.10566000000E+00 0. -1.
         22    1    1    0    0    0 -0.21641584757E+02 -0.23378344737E+02  0.33180876413E+01  0.32029906323E+02  0.00000000000E+00 0.  1.
</event>
<event>
 5    1  0.9041167E-005  0.9118800E+02  0.7818608E-02  0.1130116E+00
         25   -1    0    0    0    0  0.00000000000E+00  0.00000000000E+00  0.99999998245E-14  0.12500000000E+03  0.12500000000E+03 0.  0.
        -13    1    3    3    0    0 -0.14894213651E+02  0.33432265189E+02  0.24277747570E+01  0.36680501773E+02  0.10566000000E+00 0. -1.
         23    2    1    0    0    0  0.56761801318E+01 -0.19382185075E+02 -0.18996511808E+02  0.97273558107E+02  0.93238347941E+02 0.  0.
         13    1    3    3    0    0  0.20570393783E+02 -0.52814450264E+02 -0.21424286565E+02  0.60593056335E+02  0.10566000000E+00 0.  1.
         22    1    1    0    0    0 -0.56761801318E+01  0.19382185075E+02  0.18996511808E+02  0.27726441893E+02  0.00000000000E+00 0.  1.
</event>
<event>
 5    1  0.9041167E-005  0.9118800E+02  0.7818608E-02  0.1130116E+00
         25   -1    0    0    0    0  0.00000000000E+00  0.00000000000E+00  0.99999998245E-14  0.12500000000E+03  0.12500000000E+03 0.  0.
        -13    1    3    3    0    0 -0.16955717469E+02 -0.20171184656E+02 -0.29757479534E+02  0.39747852742E+02  0.10566000000E+00 0.  1.
         23    2    1    0    0    0  0.16393306352E+02  0.21158045475E+02 -0.10830594449E+02  0.96126047074E+02  0.91687031626E+02 0.  0.
         13    1    3    3    0    0  0.33349023820E+02  0.41329230132E+02  0.18926885086E+02  0.56378194332E+02  0.10566000000E+00 0. -1.
         22    1    1    0    0    0 -0.16393306352E+02 -0.21158045475E+02  0.10830594449E+02  0.28873952926E+02  0.00000000000E+00 0. -1.
</event>
<event>
 5    1  0.9041167E-005  0.9118800E+02  0.7818608E-02  0.1130116E+00
         25   -1    0    0    0    0  0.00000000000E+00  0.00000000000E+00  0.99999998245E-14  0.12500000000E+03  0.12500000000E+03 0.  0.
        -13    1    3    3    0    0  0.47718984289E+02  0.23932890045E+02 -0.44391860585E+01  0.53568668309E+02  0.10566000000E+00 0.  1.
         23    2    1    0    0    0  0.26609263857E+02 -0.10521405059E+02  0.69580027048E+01  0.95552305878E+02  0.90901465718E+02 0.  0.
         13    1    3    3    0    0 -0.21109720432E+02 -0.34454295104E+02  0.11397188763E+02  0.41983637570E+02  0.10566000000E+00 0. -1.
         22    1    1    0    0    0 -0.26609263857E+02  0.10521405059E+02 -0.69580027048E+01  0.29447694122E+02  0.00000000000E+00 0.  1.
</event>
<event>
 5    1  0.9041167E-005  0.9118800E+02  0.7818608E-02  0.1130116E+00
         25   -1    0    0    0    0  0.00000000000E+00  0.00000000000E+00  0.99999998245E-14  0.12500000000E+03  0.12500000000E+03 0.  0.
        -13    1    3    3    0    0  0.21457210137E+02 -0.26009717402E+02  0.37785458084E+02  0.50642563845E+02  0.10566000000E+00 0. -1.
         23    2    1    0    0    0  0.28543015793E+02 -0.59253005523E+01 -0.20104324041E+01  0.95779206451E+02  0.91212946519E+02 0.  0.
         13    1    3    3    0    0  0.70858056560E+01  0.20084416850E+02 -0.39795890488E+02  0.45136642606E+02  0.10566000000E+00 0.  1.
         22    1    1    0    0    0 -0.28543015793E+02  0.59253005523E+01  0.20104324041E+01  0.29220793549E+02  0.00000000000E+00 0.  1.
</event>
<event>
 5    1  0.9041167E-005  0.9118800E+02  0.7818608E-02  0.1130116E+00
         25   -1    0    0    0    0  0.00000000000E+00  0.00000000000E+00  0.99999998245E-14  0.12500000000E+03  0.12500000000E+03 0.  0.
        -13    1    3    3    0    0 -0.40188415611E+02  0.23129205329E+02  0.16045358614E+02  0.49066623947E+02  0.10566000000E+00 0. -1.
         23    2    1    0    0    0 -0.28111364479E+02 -0.14769345672E+02 -0.28776243904E+01  0.93114845044E+02  0.87485491717E+02 0.  0.
         13    1    3    3    0    0  0.12077051132E+02 -0.37898551001E+02 -0.18922983004E+02  0.44048221097E+02  0.10566000000E+00 0.  1.
         22    1    1    0    0    0  0.28111364479E+02  0.14769345672E+02  0.28776243904E+01  0.31885154956E+02  0.00000000000E+00 0.  1.
</event>
<event>
 5    1  0.9041167E-005  0.9118800E+02  0.7818608E-02  0.1130116E+00
         25   -1    0    0    0    0  0.00000000000E+00  0.00000000000E+00  0.99999998245E-14  0.12500000000E+03  0.12500000000E+03 0.  0.
        -13    1    3    3    0    0  0.32783108958E+02  0.80541635596E+01  0.63060065511E+01  0.34342083022E+02  0.10566000000E+00 0.  1.
         23    2    1    0    0    0 -0.28487593713E+02  0.20596838554E+01  0.55148681016E+01  0.95910499088E+02  0.91392695397E+02 0.  0.
         13    1    3    3    0    0 -0.61270702671E+02 -0.59944797042E+01 -0.79113844953E+00  0.61568416066E+02  0.10566000000E+00 0. -1.
         22    1    1    0    0    0  0.28487593713E+02 -0.20596838554E+01 -0.55148681016E+01  0.29089500912E+02  0.00000000000E+00 0. -1.
</event>
<event>
 5    1  0.9041167E-005  0.9118800E+02  0.7818608E-02  0.1130116E+00
         25   -1    0    0    0    0  0.00000000000E+00  0.00000000000E+00  0.99999998245E-14  0.12500000000E+03  0.12500000000E+03 0.  0.
        -13    1    3    3    0    0  0.58402685793E+02  0.73416239763E+01 -0.13535254879E+02  0.60398571499E+02  0.10566000000E+00 0. -1.
         23    2    1    0    0    0  0.27229614572E+02  0.10685626416E+02  0.25530298257E+01  0.95637566809E+02  0.91018633818E+02 0.  0.
         13    1    3    3    0    0 -0.31173071221E+02  0.33440024394E+01  0.16088284704E+02  0.35238995310E+02  0.10566000000E+00 0.  1.
         22    1    1    0    0    0 -0.27229614572E+02 -0.10685626416E+02 -0.25530298257E+01  0.29362433191E+02  0.00000000000E+00 0. -1.
</event>
<event>
 5    1  0.9041167E-005  0.9118800E+02  0.7818608E-02  0.1130116E+00
         25   -1    0    0    0    0  0.00000000000E+00  0.00000000000E+00  0.99999998245E-14  0.12500000000E+03  0.12500000000E+03 0.  0.
        -13    1    3    3    0    0 -0.47824431991E+02 -0.20053465404E+02  0.21279901038E+02  0.56055000867E+02  0.10566000000E+00 0.  1.
         23    2    1    0    0    0 -0.22577858751E+02  0.92191810150E+01  0.17679396734E+02  0.94878345443E+02  0.89969919199E+02 0.  0.
         13    1    3    3    0    0  0.25246573240E+02  0.29272646419E+02 -0.36005043042E+01  0.38823344576E+02  0.10566000000E+00 0. -1.
         22    1    1    0    0    0  0.22577858751E+02 -0.92191810150E+01 -0.17679396734E+02  0.30121654557E+02  0.00000000000E+00 0.  1.
</event>
<event>
 5    1  0.9041167E-005  0.9118800E+02  0.7818608E-02  0.1130116E+00
         25   -1    0    0    0    0  0.00000000000E+00  0.00000000000E+00  0.99999998245E-14  0.12500000000E+03  0.12500000000E+03 0.  0.
        -13    1    3    3    0    0  0.33007514163E+02  0.31397415820E+02 -0.34357866386E+02  0.57059336292E+02  0.10566000000E+00 0. -1.
         23    2    1    0    0    0  0.20157310732E+02 -0.19324501066E+01 -0.31227540231E+01  0.10451090212E+03  0.10248280602E+03 0.  0.
         13    1    3    3    0    0 -0.12850203432E+02 -0.33329865927E+02  0.31235112363E+02  0.47451565826E+02  0.10566000000E+00 0.  1.
         22    1    1    0    0    0 -0.20157310732E+02  0.19324501066E+01  0.31227540231E+01  0.20489097882E+02  0.00000000000E+00 0. -1.
</event>
<event>
 5    1  0.9041167E-005  0.9118800E+02  0.7818608E-02  0.1130116E+00
         25   -1    0    0    0    0  0.00000000000E+00  0.00000000000E+00  0.99999998245E-14  0.12500000000E+03  0.12500000000E+03 0.  0.
        -13    1    3    3    0    0  0.52844470994E+02  0.63910647949E+01  0.19073912470E+02  0.56543869029E+02  0.10566000000E+00 0. -1.
         23    2    1    0    0    0  0.26952903861E+02  0.43280717955E+01 -0.10362403736E+02  0.95801187641E+02  0.91243064998E+02 0.  0.
         13    1    3    3    0    0 -0.25891567133E+02 -0.20629929993E+01 -0.29436316206E+02  0.39257318612E+02  0.10566000000E+00 0.  1.
         22    1    1    0    0    0 -0.26952903861E+02 -0.43280717955E+01  0.10362403736E+02  0.29198812359E+02  0.00000000000E+00 0. -1.
</event>
<event>
 5    1  0.9041167E-005  0.9118800E+02  0.7818608E-02  0.1130116E+00
         25   -1    0    0    0    0  0.00000000000E+00  0.00000000000E+00  0.99999998245E-14  0.12500000000E+03  0.12500000000E+03 0.  0.
        -13    1    3    3    0    0 -0.11435957445E+02  0.21076227159E+02  0.27143959259E+02  0.36218699069E+02  0.10566000000E+00 0.  1.
         23    2    1    0    0    0 -0.16808637700E+01 -0.24976551648E+01 -0.27926426753E+02  0.96911765888E+02  0.92752042954E+02 0.  0.
         13    1    3    3    0    0  0.97550936749E+01 -0.23573882324E+02 -0.55070386012E+02  0.60693066819E+02  0.10566000000E+00 0. -1.
         22    1    1    0    0    0  0.16808637700E+01  0.24976551648E+01  0.27926426753E+02  0.28088234112E+02  0.00000000000E+00 0. -1.
</event>
<event>
 5    1  0.9041167E-005  0.9118800E+02  0.7818608E-02  0.1130116E+00
         25   -1    0    0    0    0  0.00000000000E+00  0.00000000000E+00  0.99999998245E-14  0.12500000000E+03  0.12500000000E+03 0.  0.
        -13    1    3    3    0    0 -0.28650521176E+02 -0.14019348054E+02  0.86327292746E+01  0.33044359009E+02  0.10566000000E+00 0.  1.
         23    2    1    0    0    0  0.27818274010E+02  0.96616685909E+01 -0.30908114604E+01  0.95389911781E+02  0.90677880132E+02 0.  0.
         13    1    3    3    0    0  0.56468795186E+02  0.23681016645E+02 -0.11723540735E+02  0.62345552772E+02  0.10566000000E+00 0. -1.
         22    1    1    0    0    0 -0.27818274010E+02 -0.96616685909E+01  0.30908114604E+01  0.29610088219E+02  0.00000000000E+00 0. -1.
</event>
<event>
 5    1  0.9041167E-005  0.9118800E+02  0.7818608E-02  0.1130116E+00
         25   -1    0    0    0    0  0.00000000000E+00  0.00000000000E+00  0.99999998245E-14  0.12500000000E+03  0.12500000000E+03 0.  0.
        -13    1    3    3    0    0 -0.22429087996E+02 -0.16340974386E+02 -0.25309700073E+02  0.37559067002E+02  0.10566000000E+00 0.  1.
         23    2    1    0    0    0  0.27392241857E+02 -0.72147673029E+01  0.44816659051E+01  0.96321208002E+02  0.91952716113E+02 0.  0.
         13    1    3    3    0    0  0.49821329853E+02  0.91262070827E+01  0.29791365979E+02  0.58762141000E+02  0.10566000000E+00 0. -1.
         22    1    1    0    0    0 -0.27392241857E+02  0.72147673029E+01 -0.44816659051E+01  0.28678791998E+02  0.00000000000E+00 0. -1.
</event>
<event>
 5    1  0.9041167E-005  0.9118800E+02  0.7818608E-02  0.1130116E+00
         25   -1    0    0    0    0  0.00000000000E+00  0.00000000000E+00  0.99999998245E-14  0.12500000000E+03  0.12500000000E+03 0.  0.
        -13    1    3    3    0    0 -0.55750658882E+02  0.13910457138E+02 -0.14954008868E+02  0.59373986970E+02  0.10566000000E+00 0. -1.
         23    2    1    0    0    0 -0.29007610569E+02 -0.66790807186E+01 -0.34384055731E+01  0.95035450562E+02  0.90187929572E+02 0.  0.
         13    1    3    3    0    0  0.26743048313E+02 -0.20589537856E+02  0.11515603294E+02  0.35661463591E+02  0.10566000000E+00 0.  1.
         22    1    1    0    0    0  0.29007610569E+02  0.66790807186E+01  0.34384055731E+01  0.29964549438E+02  0.00000000000E+00 0. -1.
</event>
<event>
 5    1  0.9041167E-005  0.9118800E+02  0.7818608E-02  0.1130116E+00
         25   -1    0    0    0    0  0.00000000000E+00  0.00000000000E+00  0.99999998245E-14  0.12500000000E+03  0.12500000000E+03 0.  0.
        -13    1    3    3    0    0  0.19661065738E+02 -0.26652702378E+02 -0.52951145352E+02  0.62456056617E+02  0.10566000000E+00 0. -1.
         23    2    1    0    0    0  0.94481783477E+01 -0.10888676439E+02 -0.25233065754E+02  0.95939047572E+02  0.91431733512E+02 0.  0.
         13    1    3    3    0    0 -0.10212887390E+02  0.15764025939E+02  0.27718079598E+02  0.33482990955E+02  0.10566000000E+00 0.  1.
         22    1    1    0    0    0 -0.94481783477E+01  0.10888676439E+02  0.25233065754E+02  0.29060952428E+02  0.00000000000E+00 0. -1.
</event>
<event>
 5    1  0.9041167E-005  0.9118800E+02  0.7818608E-02  0.1130116E+00
         25   -1    0    0    0    0  0.00000000000E+00  0.00000000000E+00  0.99999998245E-14  0.12500000000E+03  0.12500000000E+03 0.  0.
        -13    1    3    3    0    0 -0.46924740196E+02  0.29137470274E+02 -0.17137819661E+02  0.57832857816E+02  0.10566000000E+00 0. -1.
         23    2    1    0    0    0 -0.29125963110E+02 -0.16277087109E+01 -0.49234642253E+01  0.95416023548E+02  0.90713868218E+02 0.  0.
         13    1    3    3    0    0  0.17798777086E+02 -0.30765178985E+02  0.12214355436E+02  0.37583165732E+02  0.10566000000E+00 0.  1.
         22    1    1    0    0    0  0.29125963110E+02  0.16277087109E+01  0.49234642253E+01  0.29583976452E+02  0.00000000000E+00 0. -1.
</event>
<event>
 5    1  0.9041167E-005  0.9118800E+02  0.7818608E-02  0.1130116E+00
         25   -1    0    0    0    0  0.00000000000E+00  0.00000000000E+00  0.99999998245E-14  0.12500000000E+03  0.12500000000E+03 0.  0.
        -13    1    3    3    0    0  0.13588628778E+02 -0.46632435700E+02  0.36324166755E+02  0.60652214683E+02  0.10566000000E+00 0. -1.
         23    2    1    0    0    0 -0.33863725870E+01 -0.23697498546E+02  0.21581916149E+02  0.92769299399E+02  0.86990372166E+02 0.  0.
         13    1    3    3    0    0 -0.16975001365E+02  0.22934937155E+02 -0.14742250607E+02  0.32117084716E+02  0.10566000000E+00 0.  1.
         22    1    1    0    0    0  0.33863725870E+01  0.23697498546E+02 -0.21581916149E+02  0.32230700601E+02  0.00000000000E+00 0. -1.
</event>
<event>
 5    1  0.9041167E-005  0.9118800E+02  0.7818608E-02  0.1130116E+00
         25   -1    0    0    0    0  0.00000000000E+00  0.00000000000E+00  0.99999998245E-14  0.12500000000E+03  0.12500000000E+03 0.  0.
        -13    1    3    3    0    0  0.31635196072E+02 -0.24646730664E+02 -0.60227240196E+01  0.40552821500E+02  0.10566000000E+00 0.  1.
         23    2    1    0    0    0  0.24096628715E+01  0.10382127757E+02  0.26406046318E+02  0.96524144718E+02  0.92228174542E+02 0.  0.
         13    1    3    3    0    0 -0.29225533201E+02  0.35028858421E+02  0.32428770338E+02  0.55971323218E+02  0.10566000000E+00 0. -1.
         22    1    1    0    0    0 -0.24096628715E+01 -0.10382127757E+02 -0.26406046318E+02  0.28475855282E+02  0.00000000000E+00 0. -1.
</event>
<event>
 5    1  0.9041167E-005  0.9118800E+02  0.7818608E-02  0.1130116E+00
         25   -1    0    0    0    0  0.00000000000E+00  0.00000000000E+00  0.99999998245E-14  0.12500000000E+03  0.12500000000E+03 0.  0.
        -13    1    3    3    0    0  0.58720418270E+02  0.20218591136E+01  0.61756895337E+00  0.58758556751E+02  0.10566000000E+00 0. -1.
         23    2    1    0    0    0  0.28978306176E+02 -0.13657346374E+02 -0.40749946106E+01  0.92706487961E+02  0.86900068988E+02 0.  0.
         13    1    3    3    0    0 -0.29742112094E+02 -0.15679205487E+02 -0.46925635639E+01  0.33947931209E+02  0.10566000000E+00 0.  1.
         22    1    1    0    0    0 -0.28978306176E+02  0.13657346374E+02  0.40749946106E+01  0.32293512039E+02  0.00000000000E+00 0. -1.
</event>
<event>
 5    1  0.9041167E-005  0.9118800E+02  0.7818608E-02  0.1130116E+00
         25   -1    0    0    0    0  0.00000000000E+00  0.00000000000E+00  0.99999998245E-14  0.12500000000E+03  0.12500000000E+03 0.  0.
        -13    1    3    3    0    0 -0.15802456411E+02 -0.18895202971E+02 -0.26297131019E+02  0.36031882934E+02  0.10566000000E+00 0. -1.
         23    2    1    0    0    0 -0.68778209872E+01 -0.17363441448E+00  0.29054715671E+02  0.95141817317E+02  0.90335233044E+02 0.  0.
         13    1    3    3    0    0  0.89246354236E+01  0.18721568557E+02  0.55351846690E+02  0.59109934382E+02  0.10566000000E+00 0.  1.
         22    1    1    0    0    0  0.68778209872E+01  0.17363441448E+00 -0.29054715671E+02  0.29858182683E+02  0.00000000000E+00 0.  1.
</event>
<event>
 5    1  0.9041167E-005  0.9118800E+02  0.7818608E-02  0.1130116E+00
         25   -1    0    0    0    0  0.00000000000E+00  0.00000000000E+00  0.99999998245E-14  0.12500000000E+03  0.12500000000E+03 0.  0.
        -13    1    3    3    0    0  0.55071320654E+02 -0.11939680393E+02 -0.12174296138E+02  0.57650940816E+02  0.10566000000E+00 0.  1.
         23    2    1    0    0    0  0.20699897980E+02 -0.25910657546E+01 -0.22080706270E+02  0.94623084628E+02  0.89614570004E+02 0.  0.
         13    1    3    3    0    0 -0.34371422674E+02  0.93486146387E+01 -0.99064101323E+01  0.36972143812E+02  0.10566000000E+00 0. -1.
         22    1    1    0    0    0 -0.20699897980E+02  0.25910657546E+01  0.22080706270E+02  0.30376915372E+02  0.00000000000E+00 0.  1.
</event>
<event>
 5    1  0.9041167E-005  0.9118800E+02  0.7818608E-02  0.1130116E+00
         25   -1    0    0    0    0  0.00000000000E+00  0.00000000000E+00  0.99999998245E-14  0.12500000000E+03  0.12500000000E+03 0.  0.
        -13    1    3    3    0    0 -0.10201861076E+02  0.48614860639E+01 -0.48465747328E+02  0.49765970746E+02  0.10566000000E+00 0. -1.
         23    2    1    0    0    0  0.12037624155E+02 -0.20324181428E+02 -0.16138894993E+02  0.96391597779E+02  0.92048353841E+02 0.  0.
         13    1    3    3    0    0  0.22239485231E+02 -0.25185667492E+02  0.32326852335E+02  0.46625627034E+02  0.10566000000E+00 0.  1.
         22    1    1    0    0    0 -0.12037624155E+02  0.20324181428E+02  0.16138894993E+02  0.28608402221E+02  0.00000000000E+00 0.  1.
</event>
<event>
 5    1  0.9041167E-005  0.9118800E+02  0.7818608E-02  0.1130116E+00
         25   -1    0    0    0    0  0.00000000000E+00  0.00000000000E+00  0.99999998245E-14  0.12500000000E+03  0.12500000000E+03 0.  0.
        -13    1    3    3    0    0 -0.42965450149E+01 -0.28819374338E+02  0.10147313865E+02  0.30854428839E+02  0.10566000000E+00 0. -1.
         23    2    1    0    0    0  0.22491271776E+02  0.11356237340E+02  0.32345077041E+02  0.83999689740E+02  0.73313862502E+02 0.  0.
         13    1    3    3    0    0  0.26787816791E+02  0.40175611678E+02  0.22197763176E+02  0.53145260901E+02  0.10566000000E+00 0.  1.
         22    1    1    0    0    0 -0.22491271776E+02 -0.11356237340E+02 -0.32345077041E+02  0.41000310260E+02  0.00000000000E+00 0.  1.
</event>
<event>
 4    1  0.9041167E-005  0.9118800E+02  0.7818608E-02  0.1130116E+00
         25   -1    0    0    0    0  0.00000000000E+00  0.00000000000E+00  0.99999998245E-14  0.12500000000E+03  0.12500000000E+03 0.  0.
        -13    1    1    0    0    0  0.41842819950E+02  0.32444871318E+02 -0.26680281489E+02  0.59290301404E+02  0.10566000000E+00 0. -1.
         13    1    1    0    0    0 -0.62318815882E+00 -0.13669784296E+02  0.11913004147E+01  0.13736146727E+02  0.10566000000E+00 0.  1.
         22    1    1    0    0    0 -0.41219631791E+02 -0.18775087021E+02  0.25488981074E+02  0.51973551869E+02  0.00000000000E+00 0. -1.
</event>
<event>
 5    1  0.9041167E-005  0.9118800E+02  0.7818608E-02  0.1130116E+00
         25   -1    0    0    0    0  0.00000000000E+00  0.00000000000E+00  0.99999998245E-14  0.12500000000E+03  0.12500000000E+03 0.  0.
        -13    1    3    3    0    0 -0.70479119352E+01  0.33006875696E+02 -0.37848125411E+02  0.50711129617E+02  0.10566000000E+00 0.  1.
         23    2    1    0    0    0 -0.24159454958E+02 -0.26582040885E+01 -0.15996644899E+02  0.95902956149E+02  0.91382378155E+02 0.  0.
         13    1    3    3    0    0 -0.17111543023E+02 -0.35665079785E+02  0.21851480512E+02  0.45191826532E+02  0.10566000000E+00 0. -1.
         22    1    1    0    0    0  0.24159454958E+02  0.26582040885E+01  0.15996644899E+02  0.29097043851E+02  0.00000000000E+00 0.  1.
</event>
<event>
 5    1  0.9041167E-005  0.9118800E+02  0.7818608E-02  0.1130116E+00
         25   -1    0    0    0    0  0.00000000000E+00  0.00000000000E+00  0.99999998245E-14  0.12500000000E+03  0.12500000000E+03 0.  0.
        -13    1    3    3    0    0  0.46320946133E+02  0.31806027450E+02 -0.23583881116E+01  0.56239013072E+02  0.10566000000E+00 0.  1.
         23    2    1    0    0    0  0.26326712368E+02  0.30979045207E+01  0.14181483140E+02  0.94936612623E+02  0.90050836508E+02 0.  0.
         13    1    3    3    0    0 -0.19994233765E+02 -0.28708122929E+02  0.16539871251E+02  0.38697599551E+02  0.10566000000E+00 0. -1.
         22    1    1    0    0    0 -0.26326712368E+02 -0.30979045207E+01 -0.14181483140E+02  0.30063387377E+02  0.00000000000E+00 0.  1.
</event>
<event>
 5    1  0.9041167E-005  0.9118800E+02  0.7818608E-02  0.1130116E+00
         25   -1    0    0    0    0  0.00000000000E+00  0.00000000000E+00  0.99999998245E-14  0.12500000000E+03  0.12500000000E+03 0.  0.
        -13    1    3    3    0    0 -0.38709261336E+02 -0.37954808390E+02  0.11499695267E+02  0.55418666065E+02  0.10566000000E+00 0.  1.
         23    2    1    0    0    0 -0.19379158973E+02 -0.89460242809E+01  0.24393920981E+02  0.92586321811E+02  0.86727045682E+02 0.  0.
         13    1    3    3    0    0  0.19330102364E+02  0.29008784109E+02  0.12894225714E+02  0.37167655746E+02  0.10566000000E+00 0. -1.
         22    1    1    0    0    0  0.19379158973E+02  0.89460242809E+01 -0.24393920981E+02  0.32413678189E+02  0.00000000000E+00 0.  1.
</event>
<event>
 5    1  0.9041167E-005  0.9118800E+02  0.7818608E-02  0.1130116E+00
         25   -1    0    0    0    0  0.00000000000E+00  0.00000000000E+00  0.99999998245E-14  0.12500000000E+03  0.12500000000E+03 0.  0.
        -13    1    3    3    0    0  0.41170617054E+02  0.80389644905E+01 -0.44023776378E+02  0.60809116992E+02  0.10566000000E+00 0. -1.
         23    2    1    0    0    0  0.10541780306E+02  0.41896632575E+01 -0.26186786548E+02  0.96461776510E+02  0.92143606005E+02 0.  0.
         13    1    3    3    0    0 -0.30628836748E+02 -0.38493012330E+01  0.17836989830E+02  0.35652659519E+02  0.10566000000E+00 0.  1.
         22    1    1    0    0    0 -0.10541780306E+02 -0.41896632575E+01  0.26186786548E+02  0.28538223490E+02  0.00000000000E+00 0. -1.
</event>
<event>
 5    1  0.9041167E-005  0.9118800E+02  0.7818608E-02  0.1130116E+00
         25   -1    0    0    0    0  0.00000000000E+00  0.00000000000E+00  0.99999998245E-14  0.12500000000E+03  0.12500000000E+03 0.  0.
        -13    1    3    3    0    0 -0.29427629081E+02 -0.30004403346E+02 -0.16906812108E+02  0.45300121779E+02  0.10566000000E+00 0. -1.
         23    2    1    0    0    0 -0.37955381403E+01  0.96577509035E+01 -0.29127169540E+02  0.94079614044E+02  0.88853269557E+02 0.  0.
         13    1    3    3    0    0  0.25632090941E+02  0.39662154250E+02 -0.12220357432E+02  0.48779492264E+02  0.10566000000E+00 0.  1.
         22    1    1    0    0    0  0.37955381403E+01 -0.96577509035E+01  0.29127169540E+02  0.30920385956E+02  0.00000000000E+00 0.  1.
</event>
<event>
 5    1  0.9041167E-005  0.9118800E+02  0.7818608E-02  0.1130116E+00
         25   -1    0    0    0    0  0.00000000000E+00  0.00000000000E+00  0.99999998245E-14  0.12500000000E+03  0.12500000000E+03 0.  0.
        -13    1    3    3    0    0 -0.76507321702E+01  0.16277994380E+02  0.26709526966E+02  0.32201192502E+02  0.10566000000E+00 0.  1.
         23    2    1    0    0    0  0.85532743610E+01 -0.17919569725E+02 -0.22960528384E+02  0.94644517051E+02  0.89644460301E+02 0.  0.
         13    1    3    3    0    0  0.16204006531E+02 -0.34197564105E+02 -0.49670055349E+02  0.62443324549E+02  0.10566000000E+00 0. -1.
         22    1    1    0    0    0 -0.85532743610E+01  0.17919569725E+02  0.22960528384E+02  0.30355482949E+02  0.00000000000E+00 0. -1.
</event>
<event>
 5    1  0.9041167E-005  0.9118800E+02  0.7818608E-02  0.1130116E+00
         25   -1    0    0    0    0  0.00000000000E+00  0.00000000000E+00  0.99999998245E-14  0.12500000000E+03  0.12500000000E+03 0.  0.
        -13    1    3    3    0    0 -0.47414193135E+01  0.24887957297E+02 -0.25039818413E+02  0.35621554510E+02  0.10566000000E+00 0.  1.
         23    2    1    0    0    0 -0.15323652242E+02 -0.18186471513E+02  0.16230843759E+02  0.96207599036E+02  0.91798146817E+02 0.  0.
         13    1    3    3    0    0 -0.10582232929E+02 -0.43074428810E+02  0.41270662172E+02  0.60586044526E+02  0.10566000000E+00 0. -1.
         22    1    1    0    0    0  0.15323652242E+02  0.18186471513E+02 -0.16230843759E+02  0.28792400964E+02  0.00000000000E+00 0. -1.
</event>
<event>
 5    1  0.9041167E-005  0.9118800E+02  0.7818608E-02  0.1130116E+00
         25   -1    0    0    0    0  0.00000000000E+00  0.00000000000E+00  0.99999998245E-14  0.12500000000E+03  0.12500000000E+03 0.  0.
        -13    1    3    3    0    0  0.22611718830E+02  0.31464120631E+02  0.80853847941E+00  0.38754943091E+02  0.10566000000E+00 0.  1.
         23    2    1    0    0    0 -0.24648531423E+02  0.62980564084E+01 -0.16086362918E+02  0.94900387249E+02  0.90000537844E+02 0.  0.
         13    1    3    3    0    0 -0.47260250253E+02 -0.25166064222E+02 -0.16894901397E+02  0.56145444158E+02  0.10566000000E+00 0. -1.
         22    1    1    0    0    0  0.24648531423E+02 -0.62980564084E+01  0.16086362918E+02  0.30099612751E+02  0.00000000000E+00 0. -1.
</event>
<event>
 5    1  0.9041167E-005  0.9118800E+02  0.7818608E-02  0.1130116E+00
         25   -1    0    0    0    0  0.00000000000E+00  0.00000000000E+00  0.99999998245E-14  0.12500000000E+03  0.12500000000E+03 0.  0.
        -13    1    3    3    0    0 -0.49670359289E+01  0.24263532192E+02  0.23981806012E+02  0.34475043495E+02  0.10566000000E+00 0.  1.
         23    2    1    0    0    0  0.21135102831E+02 -0.21122052634E+02 -0.55837132374E+01  0.94602441995E+02  0.89585771743E+02 0.  0.
         13    1    3    3    0    0  0.26102138760E+02 -0.45385584826E+02 -0.29565519249E+02  0.60127398500E+02  0.10566000000E+00 0. -1.
         22    1    1    0    0    0 -0.21135102831E+02  0.21122052634E+02  0.55837132374E+01  0.30397558005E+02  0.00000000000E+00 0. -1.
</event>
<event>
 5    1  0.9041167E-005  0.9118800E+02  0.7818608E-02  0.1130116E+00
         25   -1    0    0    0    0  0.00000000000E+00  0.00000000000E+00  0.99999998245E-14  0.12500000000E+03  0.12500000000E+03 0.  0.
        -13    1    3    3    0    0  0.34356859662E+02 -0.17993716515E+02 -0.85127306453E+01  0.39706994182E+02  0.10566000000E+00 0. -1.
         23    2    1    0    0    0 -0.21393318310E+01  0.23614203853E+02 -0.17168607365E+02  0.95725976649E+02  0.91139970168E+02 0.  0.
         13    1    3    3    0    0 -0.36496191493E+02  0.41607920368E+02 -0.86558767195E+01  0.56018982467E+02  0.10566000000E+00 0.  1.
         22    1    1    0    0    0  0.21393318310E+01 -0.23614203853E+02  0.17168607365E+02  0.29274023351E+02  0.00000000000E+00 0.  1.
</event>
<event>
 5    1  0.9041167E-005  0.9118800E+02  0.7818608E-02  0.1130116E+00
         25   -1    0    0    0    0  0.00000000000E+00  0.00000000000E+00  0.99999998245E-14  0.12500000000E+03  0.12500000000E+03 0.  0.
        -13    1    3    3    0    0  0.58793872612E+01  0.51928870838E+02 -0.42510986710E+01  0.52433365570E+02  0.10566000000E+00 0. -1.
         23    2    1    0    0    0  0.10486706025E+02  0.18253575950E+02  0.21373926222E+02  0.94999853994E+02  0.90138579413E+02 0.  0.
         13    1    3    3    0    0  0.46073187641E+01 -0.33675294888E+02  0.25625024893E+02  0.42566488424E+02  0.10566000000E+00 0.  1.
         22    1    1    0    0    0 -0.10486706025E+02 -0.18253575950E+02 -0.21373926222E+02  0.30000146006E+02  0.00000000000E+00 0.  1.
</event>
<event>
 5    1  0.9041167E-005  0.9118800E+02  0.7818608E-02  0.1130116E+00
         25   -1    0    0    0    0  0.00000000000E+00  0.00000000000E+00  0.99999998245E-14  0.12500000000E+03  0.12500000000E+03 0.  0.
        -13    1    3    3    0    0  0.25888959660E+02 -0.12028685942E+02  0.17717409467E+02  0.33598292814E+02  0.10566000000E+00 0. -1.
         23    2    1    0    0    0 -0.18824044856E+02  0.93227984869E+01 -0.20096893536E+02  0.95928633225E+02  0.91417494531E+02 0.  0.
         13    1    3    3    0    0 -0.44713004516E+02  0.21351484429E+02 -0.37814303003E+02  0.62330340411E+02  0.10566000000E+00 0.  1.
         22    1    1    0    0    0  0.18824044856E+02 -0.93227984869E+01  0.20096893536E+02  0.29071366775E+02  0.00000000000E+00 0.  1.
</event>
<event>
 5    1  0.9041167E-005  0.9118800E+02  0.7818608E-02  0.1130116E+00
         25   -1    0    0    0    0  0.00000000000E+00  0.00000000000E+00  0.99999998245E-14  0.12500000000E+03  0.12500000000E+03 0.  0.
        -13    1    3    3    0    0  0.26124690116E+02 -0.16618232325E+02 -0.13041836405E+02  0.33597109104E+02  0.10566000000E+00 0.  1.
         23    2    1    0    0    0 -0.17185642291E+02  0.97074618173E+01  0.22173772320E+02  0.95314021917E+02  0.90573205084E+02 0.  0.
         13    1    3    3    0    0 -0.43310332407E+02  0.26325694142E+02  0.35215608725E+02  0.61716912813E+02  0.10566000000E+00 0. -1.
         22    1    1    0    0    0  0.17185642291E+02 -0.97074618173E+01 -0.22173772320E+02  0.29685978083E+02  0.00000000000E+00 0. -1.
</event>
<event>
 5    1  0.9041167E-005  0.9118800E+02  0.7818608E-02  0.1130116E+00
         25   -1    0    0    0    0  0.00000000000E+00  0.00000000000E+00  0.99999998245E-14  0.12500000000E+03  0.12500000000E+03 0.  0.
        -13    1    3    3    0    0 -0.50799553412E+02 -0.29527817272E+02  0.18062469007E+02  0.61471542769E+02  0.10566000000E+00 0. -1.
         23    2    1    0    0    0 -0.19988095530E+02 -0.15815018493E+02  0.15213165120E+02  0.95317022289E+02  0.90577345800E+02 0.  0.
         13    1    3    3    0    0  0.30811457883E+02  0.13712798779E+02 -0.28493038870E+01  0.33845479519E+02  0.10566000000E+00 0.  1.
         22    1    1    0    0    0  0.19988095530E+02  0.15815018493E+02 -0.15213165120E+02  0.29682977711E+02  0.00000000000E+00 0. -1.
</event>
<event>
 5    1  0.9041167E-005  0.9118800E+02  0.7818608E-02  0.1130116E+00
         25   -1    0    0    0    0  0.00000000000E+00  0.00000000000E+00  0.99999998245E-14  0.12500000000E+03  0.12500000000E+03 0.  0.
        -13    1    3    3    0    0  0.61013058263E+01 -0.42893615580E+02 -0.35190433443E+02  0.55816359253E+02  0.10566000000E+00 0.  1.
         23    2    1    0    0    0 -0.48790163843E+01 -0.29567635471E+02  0.19598669088E-01  0.95032513413E+02  0.90183858608E+02 0.  0.
         13    1    3    3    0    0 -0.10980322211E+02  0.13325980109E+02  0.35210032112E+02  0.39216154160E+02  0.10566000000E+00 0. -1.
         22    1    1    0    0    0  0.48790163843E+01  0.29567635471E+02 -0.19598669088E-01  0.29967486587E+02  0.00000000000E+00 0.  1.
</event>
<event>
 5    1  0.9041167E-005  0.9118800E+02  0.7818608E-02  0.1130116E+00
         25   -1    0    0    0    0  0.00000000000E+00  0.00000000000E+00  0.99999998245E-14  0.12500000000E+03  0.12500000000E+03 0.  0.
        -13    1    3    3    0    0  0.19957883124E+01 -0.61007610304E+00  0.39307278440E+02  0.39362782755E+02  0.10566000000E+00 0.  1.
         23    2    1    0    0    0 -0.48414795496E+01  0.27324994086E+02 -0.92077720267E+01  0.95761698207E+02  0.91188949724E+02 0.  0.
         13    1    3    3    0    0 -0.68372678621E+01  0.27935070189E+02 -0.48515050467E+02  0.56398915452E+02  0.10566000000E+00 0. -1.
         22    1    1    0    0    0  0.48414795496E+01 -0.27324994086E+02  0.92077720267E+01  0.29238301793E+02  0.00000000000E+00 0. -1.
</event>
<event>
 5    1  0.9041167E-005  0.9118800E+02  0.7818608E-02  0.1130116E+00
         25   -1    0    0    0    0  0.00000000000E+00  0.00000000000E+00  0.99999998245E-14  0.12500000000E+03  0.12500000000E+03 0.  0.
        -13    1    3    3    0    0 -0.27761919084E+02  0.26907739941E+02 -0.18204955004E+02  0.42733852748E+02  0.10566000000E+00 0.  1.
         23    2    1    0    0    0  0.20766991028E+02  0.67017176345E+01 -0.20094977120E+02  0.95335390765E+02  0.90602691413E+02 0.  0.
         13    1    3    3    0    0  0.48528910112E+02 -0.20206022307E+02 -0.18900221161E+01  0.52601538017E+02  0.10566000000E+00 0. -1.
         22    1    1    0    0    0 -0.20766991028E+02 -0.67017176345E+01  0.20094977120E+02  0.29664609235E+02  0.00000000000E+00 0. -1.
</event>
<event>
 5    1  0.9041167E-005  0.9118800E+02  0.7818608E-02  0.1130116E+00
         25   -1    0    0    0    0  0.00000000000E+00  0.00000000000E+00  0.99999998245E-14  0.12500000000E+03  0.12500000000E+03 0.  0.
        -13    1    3    3    0    0  0.60750735433E+01 -0.41286403068E+02  0.10167467569E+01  0.41743484939E+02  0.10566000000E+00 0.  1.
         23    2    1    0    0    0  0.28672202127E+02  0.69467045596E+01 -0.39334369833E+01  0.95237207699E+02  0.90467131737E+02 0.  0.
         13    1    3    3    0    0  0.22597128584E+02  0.48233107627E+02 -0.49501837402E+01  0.53493722760E+02  0.10566000000E+00 0. -1.
         22    1    1    0    0    0 -0.28672202127E+02 -0.69467045596E+01  0.39334369833E+01  0.29762792301E+02  0.00000000000E+00 0. -1.
</event>
<event>
 5    1  0.9041167E-005  0.9118800E+02  0.7818608E-02  0.1130116E+00
         25   -1    0    0    0    0  0.00000000000E+00  0.00000000000E+00  0.99999998245E-14  0.12500000000E+03  0.12500000000E+03 0.  0.
        -13    1    3    3    0    0  0.41131521947E+02 -0.10638512258E+02 -0.18037563704E+02  0.46155659557E+02  0.10566000000E+00 0. -1.
         23    2    1    0    0    0  0.18326130980E+02  0.14252153979E+02  0.18065750015E+02  0.95583299075E+02  0.90944074951E+02 0.  0.
         13    1    3    3    0    0 -0.22805390967E+02  0.24890666237E+02  0.36103313718E+02  0.49427639518E+02  0.10566000000E+00 0.  1.
         22    1    1    0    0    0 -0.18326130980E+02 -0.14252153979E+02 -0.18065750015E+02  0.29416700925E+02  0.00000000000E+00 0.  1.
</event>
<event>
 5    1  0.9041167E-005  0.9118800E+02  0.7818608E-02  0.1130116E+00
         25   -1    0    0    0    0  0.00000000000E+00  0.00000000000E+00  0.99999998245E-14  0.12500000000E+03  0.12500000000E+03 0.  0.
        -13    1    3    3    0    0 -0.58746020329E+02  0.32462843920E+01  0.87988648066E+01  0.59490036584E+02  0.10566000000E+00 0.  1.
         23    2    1    0    0    0 -0.13473244527E+02 -0.14678474617E+00  0.14452801791E+02  0.10524061379E+03  0.10336901590E+03 0.  0.
         13    1    3    3    0    0  0.45272775803E+02 -0.33930691382E+01  0.56539369845E+01  0.45750577204E+02  0.10566000000E+00 0. -1.
         22    1    1    0    0    0  0.13473244527E+02  0.14678474617E+00 -0.14452801791E+02  0.19759386211E+02  0.00000000000E+00 0. -1.
</event>
<event>
 5    1  0.9041167E-005  0.9118800E+02  0.7818608E-02  0.1130116E+00
         25   -1    0    0    0    0  0.00000000000E+00  0.00000000000E+00  0.99999998245E-14  0.12500000000E+03  0.12500000000E+03 0.  0.
        -13    1    3    3    0    0 -0.23026496764E+02  0.22457898010E+02 -0.10968708294E+02  0.33983826475E+02  0.10566000000E+00 0.  1.
         23    2    1    0    0    0  0.27675548696E+02 -0.84338282116E+01  0.53946568646E+01  0.95569271558E+02  0.90924792491E+02 0.  0.
         13    1    3    3    0    0  0.50702045460E+02 -0.30891726221E+02  0.16363365159E+02  0.61585445083E+02  0.10566000000E+00 0. -1.
         22    1    1    0    0    0 -0.27675548696E+02  0.84338282116E+01 -0.53946568646E+01  0.29430728442E+02  0.00000000000E+00 0. -1.
</event>
<event>
 5    1  0.9041167E-005  0.9118800E+02  0.7818608E-02  0.1130116E+00
         25   -1    0    0    0    0  0.00000000000E+00  0.00000000000E+00  0.99999998245E-14  0.12500000000E+03  0.12500000000E+03 0.  0.
        -13    1    3    3    0    0  0.25915712006E+02  0.21440345394E+02 -0.22054486406E+02  0.40220940740E+02  0.10566000000E+00 0.  1.
         23    2    1    0    0    0  0.96683220156E+01 -0.25516614848E+02  0.56836987239E+01  0.97127459479E+02  0.93042274637E+02 0.  0.
         13    1    3    3    0    0 -0.16247389990E+02 -0.46956960242E+02  0.27738185130E+02  0.56906518739E+02  0.10566000000E+00 0. -1.
         22    1    1    0    0    0 -0.96683220156E+01  0.25516614848E+02 -0.56836987239E+01  0.27872540521E+02  0.00000000000E+00 0. -1.
</event>
<event>
 5    1  0.9041167E-005  0.9118800E+02  0.7818608E-02  0.1130116E+00
         25   -1    0    0    0    0  0.00000000000E+00  0.00000000000E+00  0.99999998245E-14  0.12500000000E+03  0.12500000000E+03 0.  0.
        -13    1    3    3    0    0 -0.24748676186E+02  0.31149417461E+02  0.38834846341E+02  0.55596219615E+02  0.10566000000E+00 0.  1.
         23    2    1    0    0    0 -0.13523847105E+02  0.27354070400E+02  0.18539883597E+01  0.94429149819E+02  0.89343648094E+02 0.  0.
         13    1    3    3    0    0  0.11224829081E+02 -0.37953470614E+01 -0.36980857981E+02  0.38832930204E+02  0.10566000000E+00 0. -1.
         22    1    1    0    0    0  0.13523847105E+02 -0.27354070400E+02 -0.18539883597E+01  0.30570850181E+02  0.00000000000E+00 0.  1.
</event>
<event>
 5    1  0.9041167E-005  0.9118800E+02  0.7818608E-02  0.1130116E+00
         25   -1    0    0    0    0  0.00000000000E+00  0.00000000000E+00  0.99999998245E-14  0.12500000000E+03  0.12500000000E+03 0.  0.
        -13    1    3    3    0    0  0.41656916956E+02 -0.11807208121E+02 -0.35646444252E+01  0.43444524946E+02  0.10566000000E+00 0. -1.
         23    2    1    0    0    0  0.80720240731E+01  0.24726867087E+02  0.13207678049E+02  0.95827782257E+02  0.91279491477E+02 0.  0.
         13    1    3    3    0    0 -0.33584892883E+02  0.36534075208E+02  0.16772322474E+02  0.52383257311E+02  0.10566000000E+00 0.  1.
         22    1    1    0    0    0 -0.80720240731E+01 -0.24726867087E+02 -0.13207678049E+02  0.29172217743E+02  0.00000000000E+00 0.  1.
</event>
<event>
 5    1  0.9041167E-005  0.9118800E+02  0.7818608E-02  0.1130116E+00
         25   -1    0    0    0    0  0.00000000000E+00  0.00000000000E+00  0.99999998245E-14  0.12500000000E+03  0.12500000000E+03 0.  0.
        -13    1    3    3    0    0  0.39466220569E+02  0.10539500221E+02 -0.83988770905E+01  0.41703907867E+02  0.10566000000E+00 0.  1.
         23    2    1    0    0    0  0.47043657644E+01 -0.24338392459E+02  0.14790696596E+02  0.96133876074E+02  0.91697704543E+02 0.  0.
         13    1    3    3    0    0 -0.34761854805E+02 -0.34877892680E+02  0.23189573686E+02  0.54429968207E+02  0.10566000000E+00 0. -1.
         22    1    1    0    0    0 -0.47043657644E+01  0.24338392459E+02 -0.14790696596E+02  0.28866123926E+02  0.00000000000E+00 0.  1.
</event>
<event>
 5    1  0.9041167E-005  0.9118800E+02  0.7818608E-02  0.1130116E+00
         25   -1    0    0    0    0  0.00000000000E+00  0.00000000000E+00  0.99999998245E-14  0.12500000000E+03  0.12500000000E+03 0.  0.
        -13    1    3    3    0    0 -0.26259044840E+02 -0.16493777032E+02 -0.18830580742E+02  0.36279250982E+02  0.10566000000E+00 0. -1.
         23    2    1    0    0    0  0.19272137971E+02  0.20213782282E+02 -0.94725873040E+01  0.95508607928E+02  0.90841356121E+02 0.  0.
         13    1    3    3    0    0  0.45531182812E+02  0.36707559314E+02  0.93579934379E+01  0.59229356946E+02  0.10566000000E+00 0.  1.
         22    1    1    0    0    0 -0.19272137971E+02 -0.20213782282E+02  0.94725873040E+01  0.29491392072E+02  0.00000000000E+00 0.  1.
</event>
<event>
 5    1  0.9041167E-005  0.9118800E+02  0.7818608E-02  0.1130116E+00
         25   -1    0    0    0    0  0.00000000000E+00  0.00000000000E+00  0.99999998245E-14  0.12500000000E+03  0.12500000000E+03 0.  0.
        -13    1    3    3    0    0  0.36330492136E+02  0.40227414465E+02  0.35612773859E+01  0.54321665973E+02  0.10566000000E+00 0.  1.
         23    2    1    0    0    0  0.25134081673E+01  0.23534026915E+02  0.18575106578E+02  0.94913421134E+02  0.90018638534E+02 0.  0.
         13    1    3    3    0    0 -0.33817083969E+02 -0.16693387550E+02  0.15013829192E+02  0.40591755161E+02  0.10566000000E+00 0. -1.
         22    1    1    0    0    0 -0.25134081673E+01 -0.23534026915E+02 -0.18575106578E+02  0.30086578866E+02  0.00000000000E+00 0.  1.
</event>
<event>
 5    1  0.9041167E-005  0.9118800E+02  0.7818608E-02  0.1130116E+00
         25   -1    0    0    0    0  0.00000000000E+00  0.00000000000E+00  0.99999998245E-14  0.12500000000E+03  0.12500000000E+03 0.  0.
        -13    1    3    3    0    0 -0.52405900954E+02  0.60680171595E+01 -0.17173463418E+02  0.55480972386E+02  0.10566000000E+00 0.  1.
         23    2    1    0    0    0 -0.31414295267E+02  0.13720633712E+02  0.86667664834E+01  0.89641456791E+02  0.82373322124E+02 0.  0.
         13    1    3    3    0    0  0.20991605687E+02  0.76526165528E+01  0.25840229901E+02  0.34160484405E+02  0.10566000000E+00 0. -1.
         22    1    1    0    0    0  0.31414295267E+02 -0.13720633712E+02 -0.86667664834E+01  0.35358543209E+02  0.00000000000E+00 0. -1.
</event>
<event>
 5    1  0.9041167E-005  0.9118800E+02  0.7818608E-02  0.1130116E+00
         25   -1    0    0    0    0  0.00000000000E+00  0.00000000000E+00  0.99999998245E-14  0.12500000000E+03  0.12500000000E+03 0.  0.
        -13    1    3    3    0    0 -0.28093792771E+02  0.50817701177E+02  0.18337979427E+02  0.60893288618E+02  0.10566000000E+00 0. -1.
         23    2    1    0    0    0 -0.20137086831E+02  0.16118666714E+02  0.87660878583E+01  0.97757423414E+02  0.93884800972E+02 0.  0.
         13    1    3    3    0    0  0.79567059396E+01 -0.34699034463E+02 -0.95718915682E+01  0.36864134797E+02  0.10566000000E+00 0.  1.
         22    1    1    0    0    0  0.20137086831E+02 -0.16118666714E+02 -0.87660878583E+01  0.27242576586E+02  0.00000000000E+00 0. -1.
</event>
<event>
 5    1  0.9041167E-005  0.9118800E+02  0.7818608E-02  0.1130116E+00
         25   -1    0    0    0    0  0.00000000000E+00  0.00000000000E+00  0.99999998245E-14  0.12500000000E+03  0.12500000000E+03 0.  0.
        -13    1    3    3    0    0 -0.17338060198E+02 -0.49065866590E+02  0.24482105937E+02  0.57510453578E+02  0.10566000000E+00 0.  1.
         23    2    1    0    0    0  0.95624087342E+01 -0.24767529942E+02  0.12170175313E+02  0.95794121014E+02  0.91233383437E+02 0.  0.
         13    1    3    3    0    0  0.26900468932E+02  0.24298336648E+02 -0.12311930624E+02  0.38283667436E+02  0.10566000000E+00 0. -1.
         22    1    1    0    0    0 -0.95624087342E+01  0.24767529942E+02 -0.12170175313E+02  0.29205878986E+02  0.00000000000E+00 0.  1.
</event>
<event>
 5    1  0.9041167E-005  0.9118800E+02  0.7818608E-02  0.1130116E+00
         25   -1    0    0    0    0  0.00000000000E+00  0.00000000000E+00  0.99999998245E-14  0.12500000000E+03  0.12500000000E+03 0.  0.
        -13    1    3    3    0    0 -0.79446368766E+01 -0.27397425111E+02  0.17616922627E+02  0.33527649555E+02  0.10566000000E+00 0. -1.
         23    2    1    0    0    0  0.10185114658E+01  0.16788045127E+02 -0.24538311646E+02  0.95250973744E+02  0.90486150520E+02 0.  0.
         13    1    3    3    0    0  0.89631483424E+01  0.44185470238E+02 -0.42155234272E+02  0.61723324189E+02  0.10566000000E+00 0.  1.
         22    1    1    0    0    0 -0.10185114658E+01 -0.16788045127E+02  0.24538311646E+02  0.29749026256E+02  0.00000000000E+00 0.  1.
</event>
<event>
 5    1  0.9041167E-005  0.9118800E+02  0.7818608E-02  0.1130116E+00
         25   -1    0    0    0    0  0.00000000000E+00  0.00000000000E+00  0.99999998245E-14  0.12500000000E+03  0.12500000000E+03 0.  0.
        -13    1    3    3    0    0  0.13069030129E+02  0.48860261043E+02  0.16699167318E+02  0.53263477270E+02  0.10566000000E+00 0. -1.
         23    2    1    0    0    0  0.22648664186E+02  0.16952876647E+02 -0.89712486926E+01  0.95320961621E+02  0.90582782057E+02 0.  0.
         13    1    3    3    0    0  0.95796340571E+01 -0.31907384397E+02 -0.25670416011E+02  0.42057484351E+02  0.10566000000E+00 0.  1.
         22    1    1    0    0    0 -0.22648664186E+02 -0.16952876647E+02  0.89712486926E+01  0.29679038379E+02  0.00000000000E+00 0. -1.
</event>
<event>
 5    1  0.9041167E-005  0.9118800E+02  0.7818608E-02  0.1130116E+00
         25   -1    0    0    0    0  0.00000000000E+00  0.00000000000E+00  0.99999998245E-14  0.12500000000E+03  0.12500000000E+03 0.  0.
        -13    1    3    3    0    0  0.82755980684E+01 -0.50348262407E+02 -0.20036257307E+02  0.54816930065E+02  0.10566000000E+00 0.  1.
         23    2    1    0    0    0  0.52021385983E+01 -0.27745414730E+02  0.12150400490E+02  0.94267240335E+02  0.89116833897E+02 0.  0.
         13    1    3    3    0    0 -0.30734594700E+01  0.22602847678E+02  0.32186657797E+02  0.39450310271E+02  0.10566000000E+00 0. -1.
         22    1    1    0    0    0 -0.52021385983E+01  0.27745414730E+02 -0.12150400490E+02  0.30732759665E+02  0.00000000000E+00 0. -1.
</event>
<event>
 5    1  0.9041167E-005  0.9118800E+02  0.7818608E-02  0.1130116E+00
         25   -1    0    0    0    0  0.00000000000E+00  0.00000000000E+00  0.99999998245E-14  0.12500000000E+03  0.12500000000E+03 0.  0.
        -13    1    3    3    0    0 -0.45987799575E+02  0.21154474330E+02  0.34690422852E+02  0.61366327050E+02  0.10566000000E+00 0. -1.
         23    2    1    0    0    0 -0.21326196510E+02  0.14679643484E+01  0.17943874686E+02  0.97090427884E+02  0.92992510296E+02 0.  0.
         13    1    3    3    0    0  0.24661603064E+02 -0.19686509981E+02 -0.16746548166E+02  0.35724100835E+02  0.10566000000E+00 0.  1.
         22    1    1    0    0    0  0.21326196510E+02 -0.14679643484E+01 -0.17943874686E+02  0.27909572116E+02  0.00000000000E+00 0. -1.
</event>
<event>
 5    1  0.9041167E-005  0.9118800E+02  0.7818608E-02  0.1130116E+00
         25   -1    0    0    0    0  0.00000000000E+00  0.00000000000E+00  0.99999998245E-14  0.12500000000E+03  0.12500000000E+03 0.  0.
        -13    1    3    3    0    0  0.18268791160E+02  0.29320047912E+02 -0.38304953510E+02  0.51581920936E+02  0.10566000000E+00 0.  1.
         23    2    1    0    0    0  0.17528323768E+02 -0.11369988652E+02 -0.19528083096E+02  0.96401664288E+02  0.92062022963E+02 0.  0.
         13    1    3    3    0    0 -0.74046739171E+00 -0.40690036564E+02  0.18776870414E+02  0.44819743352E+02  0.10566000000E+00 0. -1.
         22    1    1    0    0    0 -0.17528323768E+02  0.11369988652E+02  0.19528083096E+02  0.28598335712E+02  0.00000000000E+00 0.  1.
</event>
<event>
 5    1  0.9041167E-005  0.9118800E+02  0.7818608E-02  0.1130116E+00
         25   -1    0    0    0    0  0.00000000000E+00  0.00000000000E+00  0.99999998245E-14  0.12500000000E+03  0.12500000000E+03 0.  0.
        -13    1    3    3    0    0  0.38508061384E+02  0.79570108894E+01  0.43579480627E+02  0.58697249591E+02  0.10566000000E+00 0.  1.
         23    2    1    0    0    0  0.17718975951E+02 -0.11544252826E+02  0.22287732262E+02  0.94275825618E+02  0.89128875257E+02 0.  0.
         13    1    3    3    0    0 -0.20789085433E+02 -0.19501263715E+02 -0.21291748364E+02  0.35578576027E+02  0.10566000000E+00 0. -1.
         22    1    1    0    0    0 -0.17718975951E+02  0.11544252826E+02 -0.22287732262E+02  0.30724174382E+02  0.00000000000E+00 0.  1.
</event>
<event>
 5    1  0.9041167E-005  0.9118800E+02  0.7818608E-02  0.1130116E+00
         25   -1    0    0    0    0  0.00000000000E+00  0.00000000000E+00  0.99999998245E-14  0.12500000000E+03  0.12500000000E+03 0.  0.
        -13    1    3    3    0    0 -0.22216717967E+02  0.12311220873E+02 -0.31743837491E+02  0.40655025511E+02  0.10566000000E+00 0.  1.
         23    2    1    0    0    0 -0.91211484363E+01 -0.24401866903E+02  0.93756521608E+01  0.97313373074E+02  0.93291710609E+02 0.  0.
         13    1    3    3    0    0  0.13095569531E+02 -0.36713087775E+02  0.41119489652E+02  0.56658347563E+02  0.10566000000E+00 0. -1.
         22    1    1    0    0    0  0.91211484363E+01  0.24401866903E+02 -0.93756521608E+01  0.27686626926E+02  0.00000000000E+00 0. -1.
</event>
<event>
 5    1  0.9041167E-005  0.9118800E+02  0.7818608E-02  0.1130116E+00
         25   -1    0    0    0    0  0.00000000000E+00  0.00000000000E+00  0.99999998245E-14  0.12500000000E+03  0.12500000000E+03 0.  0.
        -13    1    3    3    0    0 -0.56520699172E+00  0.45666045616E+02 -0.35139497289E+02  0.57623802503E+02  0.10566000000E+00 0.  1.
         23    2    1    0    0    0  0.98322787861E+01  0.28157659636E+02 -0.38900976208E+01  0.94922427595E+02  0.90031144049E+02 0.  0.
         13    1    3    3    0    0  0.10397485778E+02 -0.17508385981E+02  0.31249399668E+02  0.37298625092E+02  0.10566000000E+00 0. -1.
         22    1    1    0    0    0 -0.98322787861E+01 -0.28157659636E+02  0.38900976208E+01  0.30077572405E+02  0.00000000000E+00 0.  1.
</event>
<event>
 5    1  0.9041167E-005  0.9118800E+02  0.7818608E-02  0.1130116E+00
         25   -1    0    0    0    0  0.00000000000E+00  0.00000000000E+00  0.99999998245E-14  0.12500000000E+03  0.12500000000E+03 0.  0.
        -13    1    3    3    0    0  0.32722161176E+02 -0.20642523855E+02  0.18353637466E+02  0.42821966272E+02  0.10566000000E+00 0. -1.
         23    2    1    0    0    0 -0.29169743524E+01  0.15713607905E+02  0.26176264696E+02  0.94330421486E+02  0.89205411111E+02 0.  0.
         13    1    3    3    0    0 -0.35639135528E+02  0.36356131760E+02  0.78226272302E+01  0.51508455214E+02  0.10566000000E+00 0.  1.
         22    1    1    0    0    0  0.29169743524E+01 -0.15713607905E+02 -0.26176264696E+02  0.30669578514E+02  0.00000000000E+00 0. -1.
</event>
<event>
 5    1  0.9041167E-005  0.9118800E+02  0.7818608E-02  0.1130116E+00
         25   -1    0    0    0    0  0.00000000000E+00  0.00000000000E+00  0.99999998245E-14  0.12500000000E+03  0.12500000000E+03 0.  0.
        -13    1    3    3    0    0  0.10998232437E+02 -0.39406943578E+02 -0.26400680691E+02  0.48691636077E+02  0.10566000000E+00 0.  1.
         23    2    1    0    0    0 -0.23138943557E+02 -0.87124435292E+01 -0.15306221060E+02  0.95920835908E+02  0.91406832222E+02 0.  0.
         13    1    3    3    0    0 -0.34137175994E+02  0.30694500049E+02  0.11094459631E+02  0.47229199831E+02  0.10566000000E+00 0. -1.
         22    1    1    0    0    0  0.23138943557E+02  0.87124435292E+01  0.15306221060E+02  0.29079164092E+02  0.00000000000E+00 0.  1.
</event>
<event>
 5    1  0.9041167E-005  0.9118800E+02  0.7818608E-02  0.1130116E+00
         25   -1    0    0    0    0  0.00000000000E+00  0.00000000000E+00  0.99999998245E-14  0.12500000000E+03  0.12500000000E+03 0.  0.
        -13    1    3    3    0    0  0.14888257263E+02  0.17606455863E+01 -0.44407428900E+02  0.46869936876E+02  0.10566000000E+00 0. -1.
         23    2    1    0    0    0  0.11810754714E+02 -0.26784147176E+02 -0.55135365487E+01  0.95212694782E+02  0.90433255474E+02 0.  0.
         13    1    3    3    0    0 -0.30775025486E+01 -0.28544792762E+02  0.38893892351E+02  0.48342757907E+02  0.10566000000E+00 0.  1.
         22    1    1    0    0    0 -0.11810754714E+02  0.26784147176E+02  0.55135365487E+01  0.29787305218E+02  0.00000000000E+00 0.  1.
</event>
<event>
 5    1  0.9041167E-005  0.9118800E+02  0.7818608E-02  0.1130116E+00
         25   -1    0    0    0    0  0.00000000000E+00  0.00000000000E+00  0.99999998245E-14  0.12500000000E+03  0.12500000000E+03 0.  0.
        -13    1    3    3    0    0  0.47756121496E+02  0.35060621004E+01 -0.98139809291E+01  0.48880108403E+02  0.10566000000E+00 0. -1.
         23    2    1    0    0    0 -0.90182775927E+00  0.10732767631E+02 -0.22823205769E+02  0.99763036714E+02  0.96518180560E+02 0.  0.
         13    1    3    3    0    0 -0.48657949255E+02  0.72267055302E+01 -0.13009224840E+02  0.50882928311E+02  0.10566000000E+00 0.  1.
         22    1    1    0    0    0  0.90182775927E+00 -0.10732767631E+02  0.22823205769E+02  0.25236963286E+02  0.00000000000E+00 0.  1.
</event>
<event>
 5    1  0.9041167E-005  0.9118800E+02  0.7818608E-02  0.1130116E+00
         25   -1    0    0    0    0  0.00000000000E+00  0.00000000000E+00  0.99999998245E-14  0.12500000000E+03  0.12500000000E+03 0.  0.
        -13    1    3    3    0    0 -0.21515283035E+02 -0.36584202529E+02  0.40766711260E+02  0.58849360147E+02  0.10566000000E+00 0.  1.
         23    2    1    0    0    0 -0.16895913328E+02 -0.37690822883E+01  0.22244457634E+02  0.96813234241E+02  0.92619158711E+02 0.  0.
         13    1    3    3    0    0  0.46193697066E+01  0.32815120240E+02 -0.18522253625E+02  0.37963874095E+02  0.10566000000E+00 0. -1.
         22    1    1    0    0    0  0.16895913328E+02  0.37690822883E+01 -0.22244457634E+02  0.28186765759E+02  0.00000000000E+00 0.  1.
</event>
<event>
 5    1  0.9041167E-005  0.9118800E+02  0.7818608E-02  0.1130116E+00
         25   -1    0    0    0    0  0.00000000000E+00  0.00000000000E+00  0.99999998245E-14  0.12500000000E+03  0.12500000000E+03 0.  0.
        -13    1    3    3    0    0 -0.14438305975E+02  0.11703066246E+02  0.28056623424E+02  0.33654297214E+02  0.10566000000E+00 0.  1.
         23    2    1    0    0    0  0.90197760258E+01 -0.62095904896E+01 -0.26856400432E+02  0.95996868828E+02  0.91510749134E+02 0.  0.
         13    1    3    3    0    0  0.23458082000E+02 -0.17912656735E+02 -0.54913023856E+02  0.62342571614E+02  0.10566000000E+00 0. -1.
         22    1    1    0    0    0 -0.90197760258E+01  0.62095904896E+01  0.26856400432E+02  0.29003131172E+02  0.00000000000E+00 0. -1.
</event>
<event>
 5    1  0.9041167E-005  0.9118800E+02  0.7818608E-02  0.1130116E+00
         25   -1    0    0    0    0  0.00000000000E+00  0.00000000000E+00  0.99999998245E-14  0.12500000000E+03  0.12500000000E+03 0.  0.
        -13    1    3    3    0    0 -0.81683543557E+01  0.39897008556E+02  0.31460919942E+02  0.51461577437E+02  0.10566000000E+00 0.  1.
         23    2    1    0    0    0  0.41983207572E+01  0.23680150643E+02 -0.10990826780E+02  0.98558107009E+02  0.94944861642E+02 0.  0.
         13    1    3    3    0    0  0.12366675113E+02 -0.16216857913E+02 -0.42451746722E+02  0.47096529572E+02  0.10566000000E+00 0. -1.
         22    1    1    0    0    0 -0.41983207572E+01 -0.23680150643E+02  0.10990826780E+02  0.26441892991E+02  0.00000000000E+00 0.  1.
</event>
<event>
 5    1  0.9041167E-005  0.9118800E+02  0.7818608E-02  0.1130116E+00
         25   -1    0    0    0    0  0.00000000000E+00  0.00000000000E+00  0.99999998245E-14  0.12500000000E+03  0.12500000000E+03 0.  0.
        -13    1    3    3    0    0 -0.20634251121E+02  0.20053023202E+02 -0.16887903094E+02  0.33363280621E+02  0.10566000000E+00 0. -1.
         23    2    1    0    0    0  0.14360745748E+02 -0.19615287077E+02  0.16226641932E+02  0.95771684723E+02  0.91202638014E+02 0.  0.
         13    1    3    3    0    0  0.34994996869E+02 -0.39668310279E+02  0.33114545025E+02  0.62408404102E+02  0.10566000000E+00 0.  1.
         22    1    1    0    0    0 -0.14360745748E+02  0.19615287077E+02 -0.16226641932E+02  0.29228315277E+02  0.00000000000E+00 0.  1.
</event>
<event>
 5    1  0.9041167E-005  0.9118800E+02  0.7818608E-02  0.1130116E+00
         25   -1    0    0    0    0  0.00000000000E+00  0.00000000000E+00  0.99999998245E-14  0.12500000000E+03  0.12500000000E+03 0.  0.
        -13    1    3    3    0    0  0.30451201942E+02 -0.14200153737E+02  0.46121259634E+02  0.57062262663E+02  0.10566000000E+00 0.  1.
         23    2    1    0    0    0  0.27100399585E+02 -0.38606489092E+01  0.83284465192E+01  0.96387078285E+02  0.92042216245E+02 0.  0.
         13    1    3    3    0    0 -0.33508023576E+01  0.10339504828E+02 -0.37792813115E+02  0.39324815622E+02  0.10566000000E+00 0. -1.
         22    1    1    0    0    0 -0.27100399585E+02  0.38606489092E+01 -0.83284465192E+01  0.28612921715E+02  0.00000000000E+00 0.  1.
</event>
<event>
 5    1  0.9041167E-005  0.9118800E+02  0.7818608E-02  0.1130116E+00
         25   -1    0    0    0    0  0.00000000000E+00  0.00000000000E+00  0.99999998245E-14  0.12500000000E+03  0.12500000000E+03 0.  0.
        -13    1    3    3    0    0 -0.37107060644E+02 -0.29244237433E+02 -0.30187133635E+02  0.56066331909E+02  0.10566000000E+00 0. -1.
         23    2    1    0    0    0 -0.43290392105E+01 -0.27514606083E+02 -0.69199874407E+01  0.96300168039E+02  0.91924110057E+02 0.  0.
         13    1    3    3    0    0  0.32778021433E+02  0.17296313491E+01  0.23267146194E+02  0.40233836130E+02  0.10566000000E+00 0.  1.
         22    1    1    0    0    0  0.43290392105E+01  0.27514606083E+02  0.69199874407E+01  0.28699831961E+02  0.00000000000E+00 0. -1.
</event>
<event>
 5    1  0.9041167E-005  0.9118800E+02  0.7818608E-02  0.1130116E+00
         25   -1    0    0    0    0  0.00000000000E+00  0.00000000000E+00  0.99999998245E-14  0.12500000000E+03  0.12500000000E+03 0.  0.
        -13    1    3    3    0    0  0.21270823064E+02  0.15463317624E+02 -0.55851510466E+02  0.61733009736E+02  0.10566000000E+00 0. -1.
         23    2    1    0    0    0  0.51879496529E+01  0.25452148756E+01 -0.28100894842E+02  0.96311095676E+02  0.91938968447E+02 0.  0.
         13    1    3    3    0    0 -0.16082873411E+02 -0.12918102748E+02  0.27750615623E+02  0.34578085940E+02  0.10566000000E+00 0.  1.
         22    1    1    0    0    0 -0.51879496529E+01 -0.25452148756E+01  0.28100894842E+02  0.28688904324E+02  0.00000000000E+00 0. -1.
</event>
<event>
 5    1  0.9041167E-005  0.9118800E+02  0.7818608E-02  0.1130116E+00
         25   -1    0    0    0    0  0.00000000000E+00  0.00000000000E+00  0.99999998245E-14  0.12500000000E+03  0.12500000000E+03 0.  0.
        -13    1    3    3    0    0 -0.28665689210E+02 -0.14436276491E+02 -0.50197440410E+02  0.59581221912E+02  0.10566000000E+00 0.  1.
         23    2    1    0    0    0 -0.31705073737E+01 -0.15453438238E+02 -0.24981381283E+02  0.95454606430E+02  0.90767018280E+02 0.  0.
         13    1    3    3    0    0  0.25495181836E+02 -0.10171617475E+01  0.25216059126E+02  0.35873384518E+02  0.10566000000E+00 0. -1.
         22    1    1    0    0    0  0.31705073737E+01  0.15453438238E+02  0.24981381283E+02  0.29545393570E+02  0.00000000000E+00 0.  1.
</event>
<event>
 5    1  0.9041167E-005  0.9118800E+02  0.7818608E-02  0.1130116E+00
         25   -1    0    0    0    0  0.00000000000E+00  0.00000000000E+00  0.99999998245E-14  0.12500000000E+03  0.12500000000E+03 0.  0.
        -13    1    3    3    0    0  0.24147690699E+02 -0.17676331178E+02 -0.13261263703E+02  0.32732795924E+02  0.10566000000E+00 0. -1.
         23    2    1    0    0    0 -0.24189827543E+02  0.18359797993E+02  0.71417989735E+00  0.94623364376E+02  0.89614960213E+02 0.  0.
         13    1    3    3    0    0 -0.48337518242E+02  0.36036129171E+02  0.13975443600E+02  0.61890568452E+02  0.10566000000E+00 0.  1.
         22    1    1    0    0    0  0.24189827543E+02 -0.18359797993E+02 -0.71417989735E+00  0.30376635624E+02  0.00000000000E+00 0.  1.
</event>
<event>
 5    1  0.9041167E-005  0.9118800E+02  0.7818608E-02  0.1130116E+00
         25   -1    0    0    0    0  0.00000000000E+00  0.00000000000E+00  0.99999998245E-14  0.12500000000E+03  0.12500000000E+03 0.  0.
        -13    1    3    3    0    0  0.11126686388E+02  0.21300722059E+02  0.25731690473E+02  0.35208734269E+02  0.10566000000E+00 0. -1.
         23    2    1    0    0    0  0.89096742818E+01  0.95651825325E-01 -0.29378803133E+02  0.94299747255E+02  0.89162418169E+02 0.  0.
         13    1    3    3    0    0 -0.22170121058E+01 -0.21205070233E+02 -0.55110493606E+02  0.59091012986E+02  0.10566000000E+00 0.  1.
         22    1    1    0    0    0 -0.89096742818E+01 -0.95651825325E-01  0.29378803133E+02  0.30700252745E+02  0.00000000000E+00 0.  1.
</event>
<event>
 5    1  0.9041167E-005  0.9118800E+02  0.7818608E-02  0.1130116E+00
         25   -1    0    0    0    0  0.00000000000E+00  0.00000000000E+00  0.99999998245E-14  0.12500000000E+03  0.12500000000E+03 0.  0.
        -13    1    3    3    0    0 -0.30136915761E+02  0.23913244956E+02 -0.81882440019E+01  0.39333643103E+02  0.10566000000E+00 0. -1.
         23    2    1    0    0    0  0.22537523452E+02  0.16751861586E+02  0.94950397307E+01  0.95356778018E+02  0.90632193533E+02 0.  0.
         13    1    3    3    0    0  0.52674439213E+02 -0.71613833695E+01  0.17683283733E+02  0.56023134916E+02  0.10566000000E+00 0.  1.
         22    1    1    0    0    0 -0.22537523452E+02 -0.16751861586E+02 -0.94950397307E+01  0.29643221982E+02  0.00000000000E+00 0.  1.
</event>
<event>
 5    1  0.9041167E-005  0.9118800E+02  0.7818608E-02  0.1130116E+00
         25   -1    0    0    0    0  0.00000000000E+00  0.00000000000E+00  0.99999998245E-14  0.12500000000E+03  0.12500000000E+03 0.  0.
        -13    1    3    3    0    0  0.26677767903E+02 -0.67548138087E+01 -0.48945693185E+02  0.56151784079E+02  0.10566000000E+00 0. -1.
         23    2    1    0    0    0  0.12083093696E+02 -0.22144398423E+02 -0.16703496498E+02  0.94744714015E+02  0.89784065979E+02 0.  0.
         13    1    3    3    0    0 -0.14594674207E+02 -0.15389584614E+02  0.32242196686E+02  0.38592929936E+02  0.10566000000E+00 0.  1.
         22    1    1    0    0    0 -0.12083093696E+02  0.22144398423E+02  0.16703496498E+02  0.30255285985E+02  0.00000000000E+00 0. -1.
</event>
<event>
 5    1  0.9041167E-005  0.9118800E+02  0.7818608E-02  0.1130116E+00
         25   -1    0    0    0    0  0.00000000000E+00  0.00000000000E+00  0.99999998245E-14  0.12500000000E+03  0.12500000000E+03 0.  0.
        -13    1    3    3    0    0  0.87078097981E+01 -0.46104856852E+02 -0.36593318871E+02  0.59502654788E+02  0.10566000000E+00 0. -1.
         23    2    1    0    0    0 -0.46191129109E+01 -0.14397219960E+02 -0.24971381633E+02  0.95807774197E+02  0.91252087918E+02 0.  0.
         13    1    3    3    0    0 -0.13326922709E+02  0.31707636892E+02  0.11621937238E+02  0.36305119409E+02  0.10566000000E+00 0.  1.
         22    1    1    0    0    0  0.46191129109E+01  0.14397219960E+02  0.24971381633E+02  0.29192225803E+02  0.00000000000E+00 0. -1.
</event>
<event>
 5    1  0.9041167E-005  0.9118800E+02  0.7818608E-02  0.1130116E+00
         25   -1    0    0    0    0  0.00000000000E+00  0.00000000000E+00  0.99999998245E-14  0.12500000000E+03  0.12500000000E+03 0.  0.
        -13    1    3    3    0    0  0.44014466538E+02  0.21101311092E+02 -0.33986911661E+02  0.59478230663E+02  0.10566000000E+00 0.  1.
         23    2    1    0    0    0  0.26586555038E+02  0.77072160280E+01 -0.34480286105E+01  0.97104928948E+02  0.93012000500E+02 0.  0.
         13    1    3    3    0    0 -0.17427911500E+02 -0.13394095064E+02  0.30538883051E+02  0.37626698285E+02  0.10566000000E+00 0. -1.
         22    1    1    0    0    0 -0.26586555038E+02 -0.77072160280E+01  0.34480286105E+01  0.27895071052E+02  0.00000000000E+00 0.  1.
</event>
<event>
 5    1  0.9041167E-005  0.9118800E+02  0.7818608E-02  0.1130116E+00
         25   -1    0    0    0    0  0.00000000000E+00  0.00000000000E+00  0.99999998245E-14  0.12500000000E+03  0.12500000000E+03 0.  0.
        -13    1    3    3    0    0 -0.14781441765E+01  0.56331214459E+02 -0.24515959590E+02  0.61452697836E+02  0.10566000000E+00 0.  1.
         23    2    1    0    0    0 -0.78582638767E+01  0.24654671245E+02 -0.14776834981E+02  0.95201342691E+02  0.90417562856E+02 0.  0.
         13    1    3    3    0    0 -0.63801197002E+01 -0.31676543214E+02  0.97391246089E+01  0.33748644855E+02  0.10566000000E+00 0. -1.
         22    1    1    0    0    0  0.78582638767E+01 -0.24654671245E+02  0.14776834981E+02  0.29798657309E+02  0.00000000000E+00 0.  1.
</event>
<event>
 5    1  0.9041167E-005  0.9118800E+02  0.7818608E-02  0.1130116E+00
         25   -1    0    0    0    0  0.00000000000E+00  0.00000000000E+00  0.99999998245E-14  0.12500000000E+03  0.12500000000E+03 0.  0.
        -13    1    3    3    0    0  0.65200061174E+01  0.34525947169E+01  0.38564786523E+02  0.39264294386E+02  0.10566000000E+00 0. -1.
         23    2    1    0    0    0 -0.33638142257E+02  0.51920646668E+01  0.72957728816E+01  0.90190368402E+02  0.83202115962E+02 0.  0.
         13    1    3    3    0    0 -0.40158148375E+02  0.17394699499E+01 -0.31269013641E+02  0.50926074016E+02  0.10566000000E+00 0.  1.
         22    1    1    0    0    0  0.33638142257E+02 -0.51920646668E+01 -0.72957728816E+01  0.34809631598E+02  0.00000000000E+00 0.  1.
</event>
<event>
 5    1  0.9041167E-005  0.9118800E+02  0.7818608E-02  0.1130116E+00
         25   -1    0    0    0    0  0.00000000000E+00  0.00000000000E+00  0.99999998245E-14  0.12500000000E+03  0.12500000000E+03 0.  0.
        -13    1    3    3    0    0 -0.34548453533E+02 -0.31285130452E+02  0.34290282993E+02  0.57863543797E+02  0.10566000000E+00 0.  1.
         23    2    1    0    0    0 -0.27817178303E+02 -0.32044779593E+01  0.11178574337E+02  0.94849964976E+02  0.89930480061E+02 0.  0.
         13    1    3    3    0    0  0.67312752305E+01  0.28080652493E+02 -0.23111708655E+02  0.36986421180E+02  0.10566000000E+00 0. -1.
         22    1    1    0    0    0  0.27817178303E+02  0.32044779593E+01 -0.11178574337E+02  0.30150035024E+02  0.00000000000E+00 0.  1.
</event>
<event>
 5    1  0.9041167E-005  0.9118800E+02  0.7818608E-02  0.1130116E+00
         25   -1    0    0    0    0  0.00000000000E+00  0.00000000000E+00  0.99999998245E-14  0.12500000000E+03  0.12500000000E+03 0.  0.
        -13    1    3    3    0    0  0.28442666493E+02  0.11733215144E+02 -0.43142716787E+02  0.52990176360E+02  0.10566000000E+00 0.  1.
         23    2    1    0    0    0  0.29903230752E+02 -0.12310279263E+02 -0.17273439416E+02  0.88337786561E+02  0.80370682717E+02 0.  0.
         13    1    3    3    0    0  0.14605642595E+01 -0.24043494407E+02  0.25869277371E+02  0.35347610202E+02  0.10566000000E+00 0. -1.
         22    1    1    0    0    0 -0.29903230752E+02  0.12310279263E+02  0.17273439416E+02  0.36662213439E+02  0.00000000000E+00 0.  1.
</event>
<event>
 5    1  0.9041167E-005  0.9118800E+02  0.7818608E-02  0.1130116E+00
         25   -1    0    0    0    0  0.00000000000E+00  0.00000000000E+00  0.99999998245E-14  0.12500000000E+03  0.12500000000E+03 0.  0.
        -13    1    3    3    0    0  0.42631303820E+02 -0.57267221667E+01  0.32149091914E+02  0.53701011975E+02  0.10566000000E+00 0. -1.
         23    2    1    0    0    0  0.20148490389E+02  0.18320220396E+02  0.31245352876E+01  0.97589147021E+02  0.93660486627E+02 0.  0.
         13    1    3    3    0    0 -0.22482813432E+02  0.24046942562E+02 -0.29024556627E+02  0.43888135046E+02  0.10566000000E+00 0.  1.
         22    1    1    0    0    0 -0.20148490389E+02 -0.18320220396E+02 -0.31245352876E+01  0.27410852979E+02  0.00000000000E+00 0. -1.
</event>
<event>
 5    1  0.9041167E-005  0.9118800E+02  0.7818608E-02  0.1130116E+00
         25   -1    0    0    0    0  0.00000000000E+00  0.00000000000E+00  0.99999998245E-14  0.12500000000E+03  0.12500000000E+03 0.  0.
        -13    1    3    3    0    0  0.82096802428E+00  0.13325650957E+02  0.37018647095E+02  0.39352742708E+02  0.10566000000E+00 0. -1.
         23    2    1    0    0    0 -0.11221783399E+02  0.18352747678E+02 -0.18649263000E+02  0.96529896726E+02  0.92235970107E+02 0.  0.
         13    1    3    3    0    0 -0.12042751423E+02  0.50270967206E+01 -0.55667910094E+02  0.57177154018E+02  0.10566000000E+00 0.  1.
         22    1    1    0    0    0  0.11221783399E+02 -0.18352747678E+02  0.18649263000E+02  0.28470103274E+02  0.00000000000E+00 0.  1.
</event>
<event>
 5    1  0.9041167E-005  0.9118800E+02  0.7818608E-02  0.1130116E+00
         25   -1    0    0    0    0  0.00000000000E+00  0.00000000000E+00  0.99999998245E-14  0.12500000000E+03  0.12500000000E+03 0.  0.
        -13    1    3    3    0    0  0.22534628159E+02  0.28316371347E+02  0.43789629120E+02  0.56808178417E+02  0.10566000000E+00 0.  1.
         23    2    1    0    0    0 -0.17537503963E+01  0.19362327138E+01  0.29460537128E+02  0.95423862905E+02  0.90724669888E+02 0.  0.
         13    1    3    3    0    0 -0.24288378556E+02 -0.26380138633E+02 -0.14329091993E+02  0.38615684488E+02  0.10566000000E+00 0. -1.
         22    1    1    0    0    0  0.17537503963E+01 -0.19362327138E+01 -0.29460537128E+02  0.29576137095E+02  0.00000000000E+00 0. -1.
</event>
<event>
 5    1  0.9041167E-005  0.9118800E+02  0.7818608E-02  0.1130116E+00
         25   -1    0    0    0    0  0.00000000000E+00  0.00000000000E+00  0.99999998245E-14  0.12500000000E+03  0.12500000000E+03 0.  0.
        -13    1    3    3    0    0  0.49005741536E+01 -0.45692915735E+02  0.14699176758E+02  0.48248680156E+02  0.10566000000E+00 0.  1.
         23    2    1    0    0    0 -0.26014980819E+02 -0.10720032595E+02  0.12113981789E+01  0.96836800405E+02  0.92650958448E+02 0.  0.
         13    1    3    3    0    0 -0.30915554973E+02  0.34972883139E+02 -0.13487778579E+02  0.48588120249E+02  0.10566000000E+00 0. -1.
         22    1    1    0    0    0  0.26014980819E+02  0.10720032595E+02 -0.12113981789E+01  0.28163199595E+02  0.00000000000E+00 0.  1.
</event>
<event>
 5    1  0.9041167E-005  0.9118800E+02  0.7818608E-02  0.1130116E+00
         25   -1    0    0    0    0  0.00000000000E+00  0.00000000000E+00  0.99999998245E-14  0.12500000000E+03  0.12500000000E+03 0.  0.
        -13    1    3    3    0    0  0.29587950999E+02  0.48605641649E+02 -0.10310241153E+02  0.57829641889E+02  0.10566000000E+00 0.  1.
         23    2    1    0    0    0  0.52107805272E+01  0.27431447690E+02  0.92550152927E+01  0.95584156240E+02  0.90945253092E+02 0.  0.
         13    1    3    3    0    0 -0.24377170472E+02 -0.21174193959E+02  0.19565256445E+02  0.37754514350E+02  0.10566000000E+00 0. -1.
         22    1    1    0    0    0 -0.52107805272E+01 -0.27431447690E+02 -0.92550152927E+01  0.29415843760E+02  0.00000000000E+00 0.  1.
</event>
<event>
 5    1  0.9041167E-005  0.9118800E+02  0.7818608E-02  0.1130116E+00
         25   -1    0    0    0    0  0.00000000000E+00  0.00000000000E+00  0.99999998245E-14  0.12500000000E+03  0.12500000000E+03 0.  0.
        -13    1    3    3    0    0  0.26187119384E+02  0.16120780487E+02 -0.45449077731E+02  0.54875081921E+02  0.10566000000E+00 0. -1.
         23    2    1    0    0    0 -0.59718433254E+01  0.20126745700E+02 -0.17624467305E+02  0.97588858963E+02  0.93660102182E+02 0.  0.
         13    1    3    3    0    0 -0.32158962709E+02  0.40059652124E+01  0.27824610426E+02  0.42713777042E+02  0.10566000000E+00 0.  1.
         22    1    1    0    0    0  0.59718433254E+01 -0.20126745700E+02  0.17624467305E+02  0.27411141037E+02  0.00000000000E+00 0. -1.
</event>
<event>
 5    1  0.9041167E-005  0.9118800E+02  0.7818608E-02  0.1130116E+00
         25   -1    0    0    0    0  0.00000000000E+00  0.00000000000E+00  0.99999998245E-14  0.12500000000E+03  0.12500000000E+03 0.  0.
        -13    1    3    3    0    0 -0.24695340491E+02  0.17535814653E+02 -0.15779000687E+02  0.34151905719E+02  0.10566000000E+00 0. -1.
         23    2    1    0    0    0  0.24377572252E+02 -0.16530329881E+02 -0.18762709850E+01  0.95486643232E+02  0.90811127116E+02 0.  0.
         13    1    3    3    0    0  0.49072912744E+02 -0.34066144534E+02  0.13902729702E+02  0.61334737513E+02  0.10566000000E+00 0.  1.
         22    1    1    0    0    0 -0.24377572252E+02  0.16530329881E+02  0.18762709850E+01  0.29513356768E+02  0.00000000000E+00 0.  1.
</event>
<event>
 5    1  0.9041167E-005  0.9118800E+02  0.7818608E-02  0.1130116E+00
         25   -1    0    0    0    0  0.00000000000E+00  0.00000000000E+00  0.99999998245E-14  0.12500000000E+03  0.12500000000E+03 0.  0.
        -13    1    3    3    0    0  0.94614590193E+01 -0.17485419370E+02  0.49864098826E+02  0.53681455020E+02  0.10566000000E+00 0. -1.
         23    2    1    0    0    0  0.47523002137E+01  0.15681013427E+02  0.23699535178E+02  0.96187736863E+02  0.91771096842E+02 0.  0.
         13    1    3    3    0    0 -0.47091588056E+01  0.33166432797E+02 -0.26164563648E+02  0.42506281842E+02  0.10566000000E+00 0.  1.
         22    1    1    0    0    0 -0.47523002137E+01 -0.15681013427E+02 -0.23699535178E+02  0.28812263137E+02  0.00000000000E+00 0. -1.
</event>
<event>
 5    1  0.9041167E-005  0.9118800E+02  0.7818608E-02  0.1130116E+00
         25   -1    0    0    0    0  0.00000000000E+00  0.00000000000E+00  0.99999998245E-14  0.12500000000E+03  0.12500000000E+03 0.  0.
        -13    1    3    3    0    0  0.85732138771E+01 -0.35765378688E+02  0.66999347784E+01  0.37383988537E+02  0.10566000000E+00 0.  1.
         23    2    1    0    0    0 -0.15317958583E+02  0.16731118020E+02  0.17857021827E+02  0.96130580298E+02  0.91693211715E+02 0.  0.
         13    1    3    3    0    0 -0.23891172461E+02  0.52496496708E+02  0.11157087049E+02  0.58746591762E+02  0.10566000000E+00 0. -1.
         22    1    1    0    0    0  0.15317958583E+02 -0.16731118020E+02 -0.17857021827E+02  0.28869419702E+02  0.00000000000E+00 0. -1.
</event>
<event>
 5    1  0.9041167E-005  0.9118800E+02  0.7818608E-02  0.1130116E+00
         25   -1    0    0    0    0  0.00000000000E+00  0.00000000000E+00  0.99999998245E-14  0.12500000000E+03  0.12500000000E+03 0.  0.
        -13    1    3    3    0    0  0.21927597382E+02 -0.30353665795E+02 -0.99465130186E+01  0.38744145873E+02  0.10566000000E+00 0.  1.
         23    2    1    0    0    0 -0.27381173700E+02 -0.12015298118E+02 -0.14911888710E+02  0.91586522376E+02  0.85273856451E+02 0.  0.
         13    1    3    3    0    0 -0.49308771082E+02  0.18338367677E+02 -0.49653756917E+01  0.52842376503E+02  0.10566000000E+00 0. -1.
         22    1    1    0    0    0  0.27381173700E+02  0.12015298118E+02  0.14911888710E+02  0.33413477624E+02  0.00000000000E+00 0. -1.
</event>
<event>
 5    1  0.9041167E-005  0.9118800E+02  0.7818608E-02  0.1130116E+00
         25   -1    0    0    0    0  0.00000000000E+00  0.00000000000E+00  0.99999998245E-14  0.12500000000E+03  0.12500000000E+03 0.  0.
        -13    1    3    3    0    0  0.14882892983E+02 -0.32964531440E+02 -0.44928011976E+02  0.57677536882E+02  0.10566000000E+00 0.  1.
         23    2    1    0    0    0 -0.92422811896E+01 -0.11696421139E+02 -0.26093981724E+02  0.94948013189E+02  0.90066660298E+02 0.  0.
         13    1    3    3    0    0 -0.24125174173E+02  0.21268110301E+02  0.18834030252E+02  0.37270476307E+02  0.10566000000E+00 0. -1.
         22    1    1    0    0    0  0.92422811896E+01  0.11696421139E+02  0.26093981724E+02  0.30051986811E+02  0.00000000000E+00 0.  1.
</event>
<event>
 5    1  0.9041167E-005  0.9118800E+02  0.7818608E-02  0.1130116E+00
         25   -1    0    0    0    0  0.00000000000E+00  0.00000000000E+00  0.99999998245E-14  0.12500000000E+03  0.12500000000E+03 0.  0.
        -13    1    3    3    0    0  0.27991063392E+02 -0.64486210126E+01 -0.21747977131E+02  0.36028738753E+02  0.10566000000E+00 0.  1.
         23    2    1    0    0    0 -0.21996176524E+02 -0.22011177518E+02 -0.19180893554E+02  0.88445514708E+02  0.80538057321E+02 0.  0.
         13    1    3    3    0    0 -0.49987239916E+02 -0.15562556505E+02  0.25670835776E+01  0.52416775955E+02  0.10566000000E+00 0. -1.
         22    1    1    0    0    0  0.21996176524E+02  0.22011177518E+02  0.19180893554E+02  0.36554485292E+02  0.00000000000E+00 0. -1.
</event>
<event>
 5    1  0.9041167E-005  0.9118800E+02  0.7818608E-02  0.1130116E+00
         25   -1    0    0    0    0  0.00000000000E+00  0.00000000000E+00  0.99999998245E-14  0.12500000000E+03  0.12500000000E+03 0.  0.
        -13    1    3    3    0    0 -0.17204351747E+01 -0.13655837040E+02  0.57081029978E+02  0.58717092314E+02  0.10566000000E+00 0.  1.
         23    2    1    0    0    0  0.16755199760E+01  0.89127095214E+01  0.27270708701E+02  0.96260909700E+02  0.91870710376E+02 0.  0.
         13    1    3    3    0    0  0.33959551507E+01  0.22568546561E+02 -0.29810321277E+02  0.37543817386E+02  0.10566000000E+00 0. -1.
         22    1    1    0    0    0 -0.16755199760E+01 -0.89127095214E+01 -0.27270708701E+02  0.28739090300E+02  0.00000000000E+00 0.  1.
</event>
<event>
 5    1  0.9041167E-005  0.9118800E+02  0.7818608E-02  0.1130116E+00
         25   -1    0    0    0    0  0.00000000000E+00  0.00000000000E+00  0.99999998245E-14  0.12500000000E+03  0.12500000000E+03 0.  0.
        -13    1    3    3    0    0  0.54339896666E+02 -0.15218584378E+02  0.20484787551E+02  0.60033885142E+02  0.10566000000E+00 0. -1.
         23    2    1    0    0    0  0.23795507952E+02  0.41486369052E+01  0.14872950140E+02  0.96633787128E+02  0.92376657127E+02 0.  0.
         13    1    3    3    0    0 -0.30544388715E+02  0.19367221283E+02 -0.56118374108E+01  0.36599901986E+02  0.10566000000E+00 0.  1.
         22    1    1    0    0    0 -0.23795507952E+02 -0.41486369052E+01 -0.14872950140E+02  0.28366212872E+02  0.00000000000E+00 0. -1.
</event>
<event>
 5    1  0.9041167E-005  0.9118800E+02  0.7818608E-02  0.1130116E+00
         25   -1    0    0    0    0  0.00000000000E+00  0.00000000000E+00  0.99999998245E-14  0.12500000000E+03  0.12500000000E+03 0.  0.
        -13    1    3    3    0    0  0.19631968368E+02 -0.36442953365E+02 -0.24105097024E+01  0.41464741083E+02  0.10566000000E+00 0. -1.
         23    2    1    0    0    0 -0.19566266005E+02 -0.51267030469E+01 -0.21808061754E+02  0.95255867689E+02  0.90492910895E+02 0.  0.
         13    1    3    3    0    0 -0.39198234373E+02  0.31316250318E+02 -0.19397552051E+02  0.53791126606E+02  0.10566000000E+00 0.  1.
         22    1    1    0    0    0  0.19566266005E+02  0.51267030469E+01  0.21808061754E+02  0.29744132311E+02  0.00000000000E+00 0.  1.
</event>
<event>
 5    1  0.9041167E-005  0.9118800E+02  0.7818608E-02  0.1130116E+00
         25   -1    0    0    0    0  0.00000000000E+00  0.00000000000E+00  0.99999998245E-14  0.12500000000E+03  0.12500000000E+03 0.  0.
        -13    1    3    3    0    0 -0.42361869068E+02  0.21091743987E+00  0.10683692678E+02  0.43688956161E+02  0.10566000000E+00 0.  1.
         23    2    1    0    0    0 -0.88107575804E+01  0.80701243233E+01 -0.27435913224E+02  0.95075333082E+02  0.90243189607E+02 0.  0.
         13    1    3    3    0    0  0.33551111488E+02  0.78592068835E+01 -0.38119605902E+02  0.51386376921E+02  0.10566000000E+00 0. -1.
         22    1    1    0    0    0  0.88107575804E+01 -0.80701243233E+01  0.27435913224E+02  0.29924666918E+02  0.00000000000E+00 0. -1.
</event>
<event>
 5    1  0.9041167E-005  0.9118800E+02  0.7818608E-02  0.1130116E+00
         25   -1    0    0    0    0  0.00000000000E+00  0.00000000000E+00  0.99999998245E-14  0.12500000000E+03  0.12500000000E+03 0.  0.
        -13    1    3    3    0    0  0.34687592684E+01 -0.56411883539E+01 -0.48003972782E+02  0.48458723300E+02  0.10566000000E+00 0.  1.
         23    2    1    0    0    0  0.58251423612E+01  0.25451405495E+02 -0.11493086371E+02  0.96472866258E+02  0.92158648887E+02 0.  0.
         13    1    3    3    0    0  0.23563830928E+01  0.31092593848E+02  0.36510886411E+02  0.48014142959E+02  0.10566000000E+00 0. -1.
         22    1    1    0    0    0 -0.58251423612E+01 -0.25451405495E+02  0.11493086371E+02  0.28527133742E+02  0.00000000000E+00 0.  1.
</event>
<event>
 5    1  0.9041167E-005  0.9118800E+02  0.7818608E-02  0.1130116E+00
         25   -1    0    0    0    0  0.00000000000E+00  0.00000000000E+00  0.99999998245E-14  0.12500000000E+03  0.12500000000E+03 0.  0.
        -13    1    3    3    0    0 -0.17883880492E+02 -0.11842187410E+01  0.46998644366E+02  0.50300291169E+02  0.10566000000E+00 0. -1.
         23    2    1    0    0    0 -0.29540367121E+02  0.14068508071E+01  0.37236460579E+01  0.95192650926E+02  0.90405545911E+02 0.  0.
         13    1    3    3    0    0 -0.11656486629E+02  0.25910695481E+01 -0.43274998308E+02  0.44892359757E+02  0.10566000000E+00 0.  1.
         22    1    1    0    0    0  0.29540367121E+02 -0.14068508071E+01 -0.37236460579E+01  0.29807349074E+02  0.00000000000E+00 0.  1.
</event>
<event>
 5    1  0.9041167E-005  0.9118800E+02  0.7818608E-02  0.1130116E+00
         25   -1    0    0    0    0  0.00000000000E+00  0.00000000000E+00  0.99999998245E-14  0.12500000000E+03  0.12500000000E+03 0.  0.
        -13    1    3    3    0    0  0.94837898435E+01 -0.29078361456E+02  0.36463118003E+02  0.47592683401E+02  0.10566000000E+00 0. -1.
         23    2    1    0    0    0  0.34732907691E+02 -0.96597891612E+01  0.15291561919E+02  0.85839838238E+02  0.76386906990E+02 0.  0.
         13    1    3    3    0    0  0.25249117847E+02  0.19418572295E+02 -0.21171556084E+02  0.38247154837E+02  0.10566000000E+00 0.  1.
         22    1    1    0    0    0 -0.34732907691E+02  0.96597891612E+01 -0.15291561919E+02  0.39160161762E+02  0.00000000000E+00 0. -1.
</event>
<event>
 5    1  0.9041167E-005  0.9118800E+02  0.7818608E-02  0.1130116E+00
         25   -1    0    0    0    0  0.00000000000E+00  0.00000000000E+00  0.99999998245E-14  0.12500000000E+03  0.12500000000E+03 0.  0.
        -13    1    3    3    0    0 -0.33157945787E+01 -0.30101889748E+01  0.52368597801E+02  0.52559841429E+02  0.10566000000E+00 0.  1.
         23    2    1    0    0    0 -0.20894944636E+01 -0.25111533531E+02  0.15949988710E+02  0.95177906793E+02  0.90385157511E+02 0.  0.
         13    1    3    3    0    0  0.12263001151E+01 -0.22101344557E+02 -0.36418609091E+02  0.42618065364E+02  0.10566000000E+00 0. -1.
         22    1    1    0    0    0  0.20894944636E+01  0.25111533531E+02 -0.15949988710E+02  0.29822093207E+02  0.00000000000E+00 0.  1.
</event>
<event>
 5    1  0.9041167E-005  0.9118800E+02  0.7818608E-02  0.1130116E+00
         25   -1    0    0    0    0  0.00000000000E+00  0.00000000000E+00  0.99999998245E-14  0.12500000000E+03  0.12500000000E+03 0.  0.
        -13    1    3    3    0    0 -0.21779698546E+02  0.15012005336E+02 -0.47832418964E+02  0.54659555806E+02  0.10566000000E+00 0.  1.
         23    2    1    0    0    0  0.88192017337E+01  0.16814902812E+02 -0.28003804403E+02  0.91166106685E+02  0.84655340477E+02 0.  0.
         13    1    3    3    0    0  0.30598900280E+02  0.18028974759E+01  0.19828614561E+02  0.36506550879E+02  0.10566000000E+00 0. -1.
         22    1    1    0    0    0 -0.88192017337E+01 -0.16814902812E+02  0.28003804403E+02  0.33833893315E+02  0.00000000000E+00 0.  1.
</event>
<event>
 5    1  0.9041167E-005  0.9118800E+02  0.7818608E-02  0.1130116E+00
         25   -1    0    0    0    0  0.00000000000E+00  0.00000000000E+00  0.99999998245E-14  0.12500000000E+03  0.12500000000E+03 0.  0.
        -13    1    3    3    0    0  0.29059059329E+01  0.39800490156E+02 -0.14404252594E+02  0.42426606779E+02  0.10566000000E+00 0. -1.
         23    2    1    0    0    0  0.24001015996E+02 -0.85110770490E+01 -0.15562496486E+02  0.95155762730E+02  0.90354527736E+02 0.  0.
         13    1    3    3    0    0  0.21095110063E+02 -0.48311567205E+02 -0.11582438923E+01  0.52729155951E+02  0.10566000000E+00 0.  1.
         22    1    1    0    0    0 -0.24001015996E+02  0.85110770490E+01  0.15562496486E+02  0.29844237270E+02  0.00000000000E+00 0.  1.
</event>
<event>
 5    1  0.9041167E-005  0.9118800E+02  0.7818608E-02  0.1130116E+00
         25   -1    0    0    0    0  0.00000000000E+00  0.00000000000E+00  0.99999998245E-14  0.12500000000E+03  0.12500000000E+03 0.  0.
        -13    1    3    3    0    0 -0.11743672661E+02  0.20540852492E+02 -0.28454719415E+02  0.37007062700E+02  0.10566000000E+00 0.  1.
         23    2    1    0    0    0  0.25429809819E+02 -0.42948972474E+01  0.11309559827E+02  0.96839255811E+02  0.92654271098E+02 0.  0.
         13    1    3    3    0    0  0.37173482480E+02 -0.24835749739E+02  0.39764279242E+02  0.59832193111E+02  0.10566000000E+00 0. -1.
         22    1    1    0    0    0 -0.25429809819E+02  0.42948972474E+01 -0.11309559827E+02  0.28160744189E+02  0.00000000000E+00 0. -1.
</event>
<event>
 5    1  0.9041167E-005  0.9118800E+02  0.7818608E-02  0.1130116E+00
         25   -1    0    0    0    0  0.00000000000E+00  0.00000000000E+00  0.99999998245E-14  0.12500000000E+03  0.12500000000E+03 0.  0.
        -13    1    3    3    0    0 -0.26707242082E+02 -0.52332521439E+02  0.15172931981E+01  0.58773147971E+02  0.10566000000E+00 0.  1.
         23    2    1    0    0    0 -0.83971064596E+01 -0.35530975575E+02 -0.11361996922E+02  0.86763151329E+02  0.77883167836E+02 0.  0.
         13    1    3    3    0    0  0.18310135622E+02  0.16801545864E+02 -0.12879290121E+02  0.27990003358E+02  0.10566000000E+00 0. -1.
         22    1    1    0    0    0  0.83971064596E+01  0.35530975575E+02  0.11361996922E+02  0.38236848671E+02  0.00000000000E+00 0.  1.
</event>
<event>
 5    1  0.9041167E-005  0.9118800E+02  0.7818608E-02  0.1130116E+00
         25   -1    0    0    0    0  0.00000000000E+00  0.00000000000E+00  0.99999998245E-14  0.12500000000E+03  0.12500000000E+03 0.  0.
        -13    1    3    3    0    0  0.41874635639E+02  0.35451297266E+02 -0.10316427065E+02  0.55827586543E+02  0.10566000000E+00 0.  1.
         23    2    1    0    0    0  0.75270723406E+01  0.27836801849E+02  0.74156841507E+01  0.95225233391E+02  0.90450585116E+02 0.  0.
         13    1    3    3    0    0 -0.34347563298E+02 -0.76144954171E+01  0.17732111216E+02  0.39397646848E+02  0.10566000000E+00 0. -1.
         22    1    1    0    0    0 -0.75270723406E+01 -0.27836801849E+02 -0.74156841507E+01  0.29774766609E+02  0.00000000000E+00 0.  1.
</event>
<event>
 5    1  0.9041167E-005  0.9118800E+02  0.7818608E-02  0.1130116E+00
         25   -1    0    0    0    0  0.00000000000E+00  0.00000000000E+00  0.99999998245E-14  0.12500000000E+03  0.12500000000E+03 0.  0.
        -13    1    3    3    0    0 -0.40591654940E+01 -0.34374297238E+02 -0.22469470525E+02  0.41266904473E+02  0.10566000000E+00 0.  1.
         23    2    1    0    0    0  0.20218135752E+02 -0.83301580950E+01  0.19075957800E+02  0.95981786527E+02  0.91490144998E+02 0.  0.
         13    1    3    3    0    0  0.24277301246E+02  0.26044139143E+02  0.41545428325E+02  0.54714882054E+02  0.10566000000E+00 0. -1.
         22    1    1    0    0    0 -0.20218135752E+02  0.83301580950E+01 -0.19075957800E+02  0.29018213473E+02  0.00000000000E+00 0. -1.
</event>
<event>
 5    1  0.9041167E-005  0.9118800E+02  0.7818608E-02  0.1130116E+00
         25   -1    0    0    0    0  0.00000000000E+00  0.00000000000E+00  0.99999998245E-14  0.12500000000E+03  0.12500000000E+03 0.  0.
        -13    1    3    3    0    0  0.15217481427E+01  0.43348930756E+02  0.74419785981E+01  0.44009541290E+02  0.10566000000E+00 0. -1.
         23    2    1    0    0    0  0.47027983661E+01  0.51431317446E+01 -0.27954879106E+02  0.96189526514E+02  0.91773534467E+02 0.  0.
         13    1    3    3    0    0  0.31810502234E+01 -0.38205799011E+02 -0.35396857704E+02  0.52179985224E+02  0.10566000000E+00 0.  1.
         22    1    1    0    0    0 -0.47027983661E+01 -0.51431317446E+01  0.27954879106E+02  0.28810473486E+02  0.00000000000E+00 0. -1.
</event>
<event>
 5    1  0.9041167E-005  0.9118800E+02  0.7818608E-02  0.1130116E+00
         25   -1    0    0    0    0  0.00000000000E+00  0.00000000000E+00  0.99999998245E-14  0.12500000000E+03  0.12500000000E+03 0.  0.
        -13    1    3    3    0    0  0.30079606437E+02 -0.39314156807E+02 -0.16502667766E+02  0.52179831892E+02  0.10566000000E+00 0.  1.
         23    2    1    0    0    0  0.10150722457E+02 -0.85104932882E+00 -0.26475523895E+02  0.96632504219E+02  0.92374921136E+02 0.  0.
         13    1    3    3    0    0 -0.19928883980E+02  0.38463107479E+02 -0.99728561289E+01  0.44452672327E+02  0.10566000000E+00 0. -1.
         22    1    1    0    0    0 -0.10150722457E+02  0.85104932882E+00  0.26475523895E+02  0.28367495781E+02  0.00000000000E+00 0.  1.
</event>
<event>
 5    1  0.9041167E-005  0.9118800E+02  0.7818608E-02  0.1130116E+00
         25   -1    0    0    0    0  0.00000000000E+00  0.00000000000E+00  0.99999998245E-14  0.12500000000E+03  0.12500000000E+03 0.  0.
        -13    1    3    3    0    0 -0.51611592891E+01  0.19639510605E+02 -0.50545672669E+02  0.54472232666E+02  0.10566000000E+00 0. -1.
         23    2    1    0    0    0  0.82942983568E+01 -0.79969896519E+01 -0.33399197793E+02  0.89669366805E+02  0.82415664175E+02 0.  0.
         13    1    3    3    0    0  0.13455457646E+02 -0.27636500257E+02  0.17146474876E+02  0.35197134139E+02  0.10566000000E+00 0.  1.
         22    1    1    0    0    0 -0.82942983568E+01  0.79969896519E+01  0.33399197793E+02  0.35330633195E+02  0.00000000000E+00 0. -1.
</event>
<event>
 5    1  0.9041167E-005  0.9118800E+02  0.7818608E-02  0.1130116E+00
         25   -1    0    0    0    0  0.00000000000E+00  0.00000000000E+00  0.99999998245E-14  0.12500000000E+03  0.12500000000E+03 0.  0.
        -13    1    3    3    0    0 -0.16724730321E+02  0.32787194981E+02 -0.46407073283E+02  0.59231278677E+02  0.10566000000E+00 0.  1.
         23    2    1    0    0    0 -0.51039676072E+01  0.26753770819E+02 -0.13595631552E+02  0.94558976107E+02  0.89525102774E+02 0.  0.
         13    1    3    3    0    0  0.11620762714E+02 -0.60334241624E+01  0.32811441731E+02  0.35327697430E+02  0.10566000000E+00 0. -1.
         22    1    1    0    0    0  0.51039676072E+01 -0.26753770819E+02  0.13595631552E+02  0.30441023893E+02  0.00000000000E+00 0.  1.
</event>
<event>
 5    1  0.9041167E-005  0.9118800E+02  0.7818608E-02  0.1130116E+00
         25   -1    0    0    0    0  0.00000000000E+00  0.00000000000E+00  0.99999998245E-14  0.12500000000E+03  0.12500000000E+03 0.  0.
        -13    1    3    3    0    0  0.36919634672E+02 -0.25772964295E+02 -0.36256224383E+02  0.57808564101E+02  0.10566000000E+00 0.  1.
         23    2    1    0    0    0  0.36532724801E+01 -0.10098347986E+02 -0.27308541110E+02  0.95655844715E+02  0.91043732232E+02 0.  0.
         13    1    3    3    0    0 -0.33266362192E+02  0.15674616309E+02  0.89476832735E+01  0.37847280614E+02  0.10566000000E+00 0. -1.
         22    1    1    0    0    0 -0.36532724801E+01  0.10098347986E+02  0.27308541110E+02  0.29344155285E+02  0.00000000000E+00 0.  1.
</event>
<event>
 5    1  0.9041167E-005  0.9118800E+02  0.7818608E-02  0.1130116E+00
         25   -1    0    0    0    0  0.00000000000E+00  0.00000000000E+00  0.99999998245E-14  0.12500000000E+03  0.12500000000E+03 0.  0.
        -13    1    3    3    0    0 -0.34162452279E+02  0.34068999149E+02  0.11057056739E+02  0.49497873859E+02  0.10566000000E+00 0.  1.
         23    2    1    0    0    0 -0.16615023411E+02  0.58989627483E+01 -0.22312896910E+02  0.96561959755E+02  0.92279412324E+02 0.  0.
         13    1    3    3    0    0  0.17547428868E+02 -0.28170036401E+02 -0.33369953649E+02  0.47064085896E+02  0.10566000000E+00 0. -1.
         22    1    1    0    0    0  0.16615023411E+02 -0.58989627483E+01  0.22312896910E+02  0.28438040245E+02  0.00000000000E+00 0. -1.
</event>
<event>
 5    1  0.9041167E-005  0.9118800E+02  0.7818608E-02  0.1130116E+00
         25   -1    0    0    0    0  0.00000000000E+00  0.00000000000E+00  0.99999998245E-14  0.12500000000E+03  0.12500000000E+03 0.  0.
        -13    1    3    3    0    0 -0.52504616714E+01 -0.60616075910E+00  0.42570921271E+02  0.42897893660E+02  0.10566000000E+00 0. -1.
         23    2    1    0    0    0 -0.24949853486E+02  0.13670581578E+02 -0.47973333972E+01  0.96148753972E+02  0.91717983476E+02 0.  0.
         13    1    3    3    0    0 -0.19699391815E+02  0.14276742337E+02 -0.47368254668E+02  0.53250860312E+02  0.10566000000E+00 0.  1.
         22    1    1    0    0    0  0.24949853486E+02 -0.13670581578E+02  0.47973333972E+01  0.28851246028E+02  0.00000000000E+00 0.  1.
</event>
<event>
 5    1  0.9041167E-005  0.9118800E+02  0.7818608E-02  0.1130116E+00
         25   -1    0    0    0    0  0.00000000000E+00  0.00000000000E+00  0.99999998245E-14  0.12500000000E+03  0.12500000000E+03 0.  0.
        -13    1    3    3    0    0 -0.31245838735E+02 -0.20388126978E+02 -0.58667638105E+01  0.37767820186E+02  0.10566000000E+00 0.  1.
         23    2    1    0    0    0 -0.18051528047E+01  0.28420878842E+02  0.57673244494E+01  0.95943727663E+02  0.91438131629E+02 0.  0.
         13    1    3    3    0    0  0.29440685930E+02  0.48809005820E+02  0.11634088260E+02  0.58175907478E+02  0.10566000000E+00 0. -1.
         22    1    1    0    0    0  0.18051528047E+01 -0.28420878842E+02 -0.57673244494E+01  0.29056272337E+02  0.00000000000E+00 0. -1.
</event>
<event>
 5    1  0.9041167E-005  0.9118800E+02  0.7818608E-02  0.1130116E+00
         25   -1    0    0    0    0  0.00000000000E+00  0.00000000000E+00  0.99999998245E-14  0.12500000000E+03  0.12500000000E+03 0.  0.
        -13    1    3    3    0    0 -0.15392991844E+02 -0.53572809024E+02  0.17295388242E+01  0.55767307029E+02  0.10566000000E+00 0.  1.
         23    2    1    0    0    0  0.10527377110E+02 -0.24917147408E+02  0.11474877888E+02  0.95616965332E+02  0.90990336481E+02 0.  0.
         13    1    3    3    0    0  0.25920368954E+02  0.28655661616E+02  0.97453390636E+01  0.39849658303E+02  0.10566000000E+00 0. -1.
         22    1    1    0    0    0 -0.10527377110E+02  0.24917147408E+02 -0.11474877888E+02  0.29383034668E+02  0.00000000000E+00 0.  1.
</event>
<event>
 5    1  0.9041167E-005  0.9118800E+02  0.7818608E-02  0.1130116E+00
         25   -1    0    0    0    0  0.00000000000E+00  0.00000000000E+00  0.99999998245E-14  0.12500000000E+03  0.12500000000E+03 0.  0.
        -13    1    3    3    0    0 -0.57417205101E+02  0.15149319758E+02 -0.45891244857E+01  0.59559286079E+02  0.10566000000E+00 0.  1.
         23    2    1    0    0    0 -0.27027348838E+02 -0.42378045710E+01 -0.97136690471E+01  0.95969120937E+02  0.91472838779E+02 0.  0.
         13    1    3    3    0    0  0.30389856263E+02 -0.19387124329E+02 -0.51245445614E+01  0.36409834858E+02  0.10566000000E+00 0. -1.
         22    1    1    0    0    0  0.27027348838E+02  0.42378045710E+01  0.97136690471E+01  0.29030879063E+02  0.00000000000E+00 0.  1.
</event>
<event>
 5    1  0.9041167E-005  0.9118800E+02  0.7818608E-02  0.1130116E+00
         25   -1    0    0    0    0  0.00000000000E+00  0.00000000000E+00  0.99999998245E-14  0.12500000000E+03  0.12500000000E+03 0.  0.
        -13    1    3    3    0    0  0.23574414494E+02 -0.63379903496E+01 -0.38033440889E+02  0.45193770923E+02  0.10566000000E+00 0. -1.
         23    2    1    0    0    0 -0.15008254936E+02  0.18800864629E+02 -0.14545659697E+02  0.96887788365E+02  0.92719723312E+02 0.  0.
         13    1    3    3    0    0 -0.38582669429E+02  0.25138854978E+02  0.23487781191E+02  0.51694017441E+02  0.10566000000E+00 0.  1.
         22    1    1    0    0    0  0.15008254936E+02 -0.18800864629E+02  0.14545659697E+02  0.28112211635E+02  0.00000000000E+00 0.  1.
</event>
<event>
 5    1  0.9041167E-005  0.9118800E+02  0.7818608E-02  0.1130116E+00
         25   -1    0    0    0    0  0.00000000000E+00  0.00000000000E+00  0.99999998245E-14  0.12500000000E+03  0.12500000000E+03 0.  0.
        -13    1    3    3    0    0  0.31893137532E+02  0.26084262868E+00  0.32708804275E+02  0.45684978950E+02  0.10566000000E+00 0. -1.
         23    2    1    0    0    0 -0.13532924336E+02  0.17749329913E+02  0.17359412852E+02  0.96724074410E+02  0.92498749194E+02 0.  0.
         13    1    3    3    0    0 -0.45426061867E+02  0.17488487284E+02 -0.15349391423E+02  0.51039095460E+02  0.10566000000E+00 0.  1.
         22    1    1    0    0    0  0.13532924336E+02 -0.17749329913E+02 -0.17359412852E+02  0.28275925590E+02  0.00000000000E+00 0. -1.
</event>
<event>
 5    1  0.9041167E-005  0.9118800E+02  0.7818608E-02  0.1130116E+00
         25   -1    0    0    0    0  0.00000000000E+00  0.00000000000E+00  0.99999998245E-14  0.12500000000E+03  0.12500000000E+03 0.  0.
        -13    1    3    3    0    0 -0.21060652846E+02  0.27406450927E+01  0.23487837508E+02  0.31666258204E+02  0.10566000000E+00 0. -1.
         23    2    1    0    0    0  0.23994217883E+02  0.21857978431E+02 -0.10078427797E+02  0.91013702471E+02  0.84430004250E+02 0.  0.
         13    1    3    3    0    0  0.45054870729E+02  0.19117333338E+02 -0.33566265305E+02  0.59347444266E+02  0.10566000000E+00 0.  1.
         22    1    1    0    0    0 -0.23994217883E+02 -0.21857978431E+02  0.10078427797E+02  0.33986297529E+02  0.00000000000E+00 0.  1.
</event>
<event>
 5    1  0.9041167E-005  0.9118800E+02  0.7818608E-02  0.1130116E+00
         25   -1    0    0    0    0  0.00000000000E+00  0.00000000000E+00  0.99999998245E-14  0.12500000000E+03  0.12500000000E+03 0.  0.
        -13    1    3    3    0    0 -0.19904879892E+02  0.55907948596E+02  0.11947804670E+02  0.60536469671E+02  0.10566000000E+00 0. -1.
         23    2    1    0    0    0 -0.17310547084E+02  0.18886723922E+02  0.93062655182E+01  0.97742524718E+02  0.93864962470E+02 0.  0.
         13    1    3    3    0    0  0.25943328079E+01 -0.37021224674E+02 -0.26415391520E+01  0.37206055048E+02  0.10566000000E+00 0.  1.
         22    1    1    0    0    0  0.17310547084E+02 -0.18886723922E+02 -0.93062655182E+01  0.27257475282E+02  0.00000000000E+00 0. -1.
</event>
<event>
 5    1  0.9041167E-005  0.9118800E+02  0.7818608E-02  0.1130116E+00
         25   -1    0    0    0    0  0.00000000000E+00  0.00000000000E+00  0.99999998245E-14  0.12500000000E+03  0.12500000000E+03 0.  0.
        -13    1    3    3    0    0 -0.24736564972E+01 -0.57308268635E+02  0.24531826170E+02  0.62387324751E+02  0.10566000000E+00 0. -1.
         23    2    1    0    0    0  0.12054126372E+01 -0.29823862591E+02  0.11728069362E+02  0.92930335044E+02  0.87221463877E+02 0.  0.
         13    1    3    3    0    0  0.36790691343E+01  0.27484406044E+02 -0.12803756808E+02  0.30543010292E+02  0.10566000000E+00 0.  1.
         22    1    1    0    0    0 -0.12054126372E+01  0.29823862591E+02 -0.11728069362E+02  0.32069664956E+02  0.00000000000E+00 0. -1.
</event>
<event>
 5    1  0.9041167E-005  0.9118800E+02  0.7818608E-02  0.1130116E+00
         25   -1    0    0    0    0  0.00000000000E+00  0.00000000000E+00  0.99999998245E-14  0.12500000000E+03  0.12500000000E+03 0.  0.
        -13    1    3    3    0    0 -0.53123797869E+02  0.29959330890E+02 -0.11371143900E+02  0.62040418156E+02  0.10566000000E+00 0.  1.
         23    2    1    0    0    0 -0.18882807678E+02  0.16690643668E+02 -0.46897326062E+01  0.99365421716E+02  0.96001851175E+02 0.  0.
         13    1    3    3    0    0  0.34240990191E+02 -0.13268687221E+02  0.66814112934E+01  0.37325003560E+02  0.10566000000E+00 0. -1.
         22    1    1    0    0    0  0.18882807678E+02 -0.16690643668E+02  0.46897326062E+01  0.25634578284E+02  0.00000000000E+00 0.  1.
</event>
<event>
 5    1  0.9041167E-005  0.9118800E+02  0.7818608E-02  0.1130116E+00
         25   -1    0    0    0    0  0.00000000000E+00  0.00000000000E+00  0.99999998245E-14  0.12500000000E+03  0.12500000000E+03 0.  0.
        -13    1    3    3    0    0 -0.10969906851E+02 -0.19177573274E+02  0.37263373602E+02  0.43320761180E+02  0.10566000000E+00 0.  1.
         23    2    1    0    0    0  0.20611313152E+02 -0.18850526869E+02 -0.55494613425E+01  0.96522550776E+02  0.92226014194E+02 0.  0.
         13    1    3    3    0    0  0.31581220004E+02  0.32704640535E+00 -0.42812834944E+02  0.53201789596E+02  0.10566000000E+00 0. -1.
         22    1    1    0    0    0 -0.20611313152E+02  0.18850526869E+02  0.55494613425E+01  0.28477449224E+02  0.00000000000E+00 0.  1.
</event>
<event>
 5    1  0.9041167E-005  0.9118800E+02  0.7818608E-02  0.1130116E+00
         25   -1    0    0    0    0  0.00000000000E+00  0.00000000000E+00  0.99999998245E-14  0.12500000000E+03  0.12500000000E+03 0.  0.
        -13    1    3    3    0    0  0.36338497483E+02 -0.18572361342E+02 -0.44705543121E+02  0.60531113941E+02  0.10566000000E+00 0.  1.
         23    2    1    0    0    0  0.24793608743E+02 -0.84841131290E+01 -0.13003404947E+02  0.95746081453E+02  0.91167540075E+02 0.  0.
         13    1    3    3    0    0 -0.11544888740E+02  0.10088248214E+02  0.31702138174E+02  0.35214967512E+02  0.10566000000E+00 0. -1.
         22    1    1    0    0    0 -0.24793608743E+02  0.84841131290E+01  0.13003404947E+02  0.29253918547E+02  0.00000000000E+00 0.  1.
</event>
<event>
 5    1  0.9041167E-005  0.9118800E+02  0.7818608E-02  0.1130116E+00
         25   -1    0    0    0    0  0.00000000000E+00  0.00000000000E+00  0.99999998245E-14  0.12500000000E+03  0.12500000000E+03 0.  0.
        -13    1    3    3    0    0 -0.48169203599E+02  0.19420852252E+02  0.95902761277E+01  0.52815019056E+02  0.10566000000E+00 0.  1.
         23    2    1    0    0    0 -0.20650143143E+02 -0.12550779553E+02  0.16743263499E+02  0.95601235540E+02  0.90968724763E+02 0.  0.
         13    1    3    3    0    0  0.27519060456E+02 -0.31971631805E+02  0.71529873709E+01  0.42786216484E+02  0.10566000000E+00 0. -1.
         22    1    1    0    0    0  0.20650143143E+02  0.12550779553E+02 -0.16743263499E+02  0.29398764460E+02  0.00000000000E+00 0. -1.
</event>
<event>
 5    1  0.9041167E-005  0.9118800E+02  0.7818608E-02  0.1130116E+00
         25   -1    0    0    0    0  0.00000000000E+00  0.00000000000E+00  0.99999998245E-14  0.12500000000E+03  0.12500000000E+03 0.  0.
        -13    1    3    3    0    0 -0.33868470360E+01  0.58212408716E+01  0.60353740468E+02  0.60728434285E+02  0.10566000000E+00 0. -1.
         23    2    1    0    0    0 -0.39482708150E+00  0.12874267190E+02  0.25297917203E+02  0.96611846504E+02  0.92346963274E+02 0.  0.
         13    1    3    3    0    0  0.29920199545E+01  0.70530263182E+01 -0.35055823265E+02  0.35883412219E+02  0.10566000000E+00 0.  1.
         22    1    1    0    0    0  0.39482708150E+00 -0.12874267190E+02 -0.25297917203E+02  0.28388153496E+02  0.00000000000E+00 0. -1.
</event>
<event>
 5    1  0.9041167E-005  0.9118800E+02  0.7818608E-02  0.1130116E+00
         25   -1    0    0    0    0  0.00000000000E+00  0.00000000000E+00  0.99999998245E-14  0.12500000000E+03  0.12500000000E+03 0.  0.
        -13    1    3    3    0    0 -0.15578581302E+02  0.30958863998E+01  0.18199498332E+02  0.24155943607E+02  0.10566000000E+00 0. -1.
         23    2    1    0    0    0 -0.20078397853E+01  0.62388743508E+00 -0.40495407376E+02  0.84450047168E+02  0.74077741543E+02 0.  0.
         13    1    3    3    0    0  0.13570741517E+02 -0.24719989647E+01 -0.58694905707E+02  0.60294103561E+02  0.10566000000E+00 0.  1.
         22    1    1    0    0    0  0.20078397853E+01 -0.62388743508E+00  0.40495407376E+02  0.40549952832E+02  0.00000000000E+00 0.  1.
</event>
<event>
 5    1  0.9041167E-005  0.9118800E+02  0.7818608E-02  0.1130116E+00
         25   -1    0    0    0    0  0.00000000000E+00  0.00000000000E+00  0.99999998245E-14  0.12500000000E+03  0.12500000000E+03 0.  0.
        -13    1    3    3    0    0  0.13750409766E+02  0.23786303268E+02  0.16138367981E+02  0.31864087576E+02  0.10566000000E+00 0.  1.
         23    2    1    0    0    0  0.12237127854E+02 -0.31886393705E+02 -0.29038426603E+01  0.90722869084E+02  0.83998317072E+02 0.  0.
         13    1    3    3    0    0 -0.15132819116E+01 -0.55672696974E+02 -0.19042210642E+02  0.58858781508E+02  0.10566000000E+00 0. -1.
         22    1    1    0    0    0 -0.12237127854E+02  0.31886393705E+02  0.29038426603E+01  0.34277130916E+02  0.00000000000E+00 0. -1.
</event>
<event>
 5    1  0.9041167E-005  0.9118800E+02  0.7818608E-02  0.1130116E+00
         25   -1    0    0    0    0  0.00000000000E+00  0.00000000000E+00  0.99999998245E-14  0.12500000000E+03  0.12500000000E+03 0.  0.
        -13    1    3    3    0    0 -0.40676086808E+02  0.98364157651E+01  0.32633706465E+02  0.53068531870E+02  0.10566000000E+00 0.  1.
         23    2    1    0    0    0 -0.45889988296E+01 -0.10288240626E+02  0.28209763500E+02  0.94624062777E+02  0.89615934377E+02 0.  0.
         13    1    3    3    0    0  0.36087087978E+02 -0.20124656391E+02 -0.44239429648E+01  0.41555530907E+02  0.10566000000E+00 0. -1.
         22    1    1    0    0    0  0.45889988296E+01  0.10288240626E+02 -0.28209763500E+02  0.30375937223E+02  0.00000000000E+00 0. -1.
</event>
<event>
 5    1  0.9041167E-005  0.9118800E+02  0.7818608E-02  0.1130116E+00
         25   -1    0    0    0    0  0.00000000000E+00  0.00000000000E+00  0.99999998245E-14  0.12500000000E+03  0.12500000000E+03 0.  0.
        -13    1    3    3    0    0  0.12256769811E+02 -0.53629346354E+02  0.24978266237E+02  0.60417382804E+02  0.10566000000E+00 0.  1.
         23    2    1    0    0    0 -0.39414931568E+01 -0.23228418396E+02  0.17459073708E+02  0.95675708973E+02  0.91071001111E+02 0.  0.
         13    1    3    3    0    0 -0.16198262968E+02  0.30400927959E+02 -0.75191925293E+01  0.35258326169E+02  0.10566000000E+00 0. -1.
         22    1    1    0    0    0  0.39414931568E+01  0.23228418396E+02 -0.17459073708E+02  0.29324291027E+02  0.00000000000E+00 0.  1.
</event>
<event>
 5    1  0.9041167E-005  0.9118800E+02  0.7818608E-02  0.1130116E+00
         25   -1    0    0    0    0  0.00000000000E+00  0.00000000000E+00  0.99999998245E-14  0.12500000000E+03  0.12500000000E+03 0.  0.
        -13    1    3    3    0    0 -0.34986706232E+02  0.32563128118E+02  0.31072463610E+01  0.47896691637E+02  0.10566000000E+00 0.  1.
         23    2    1    0    0    0 -0.13231703978E+02 -0.37291360779E+01  0.25692876282E+02  0.95860536421E+02  0.91324334683E+02 0.  0.
         13    1    3    3    0    0  0.21755002254E+02 -0.36292264196E+02  0.22585629921E+02  0.47963844784E+02  0.10566000000E+00 0. -1.
         22    1    1    0    0    0  0.13231703978E+02  0.37291360779E+01 -0.25692876282E+02  0.29139463579E+02  0.00000000000E+00 0. -1.
</event>
<event>
 5    1  0.9041167E-005  0.9118800E+02  0.7818608E-02  0.1130116E+00
         25   -1    0    0    0    0  0.00000000000E+00  0.00000000000E+00  0.99999998245E-14  0.12500000000E+03  0.12500000000E+03 0.  0.
        -13    1    3    3    0    0  0.16586039630E+02  0.14213337435E+02 -0.57551432050E+02  0.61557243008E+02  0.10566000000E+00 0.  1.
         23    2    1    0    0    0  0.13609820268E+01  0.10855365033E+02 -0.27281868263E+02  0.95606266689E+02  0.90975637795E+02 0.  0.
         13    1    3    3    0    0 -0.15225057603E+02 -0.33579724022E+01  0.30269563788E+02  0.34049023681E+02  0.10566000000E+00 0. -1.
         22    1    1    0    0    0 -0.13609820268E+01 -0.10855365033E+02  0.27281868263E+02  0.29393733311E+02  0.00000000000E+00 0.  1.
</event>
<event>
 5    1  0.9041167E-005  0.9118800E+02  0.7818608E-02  0.1130116E+00
         25   -1    0    0    0    0  0.00000000000E+00  0.00000000000E+00  0.99999998245E-14  0.12500000000E+03  0.12500000000E+03 0.  0.
        -13    1    3    3    0    0  0.31698982543E+02  0.11933437716E+01  0.36173401393E+02  0.48112115896E+02  0.10566000000E+00 0.  1.
         23    2    1    0    0    0 -0.63783885008E+01  0.22984610395E+02  0.14960142232E+02  0.96843615103E+02  0.92660152038E+02 0.  0.
         13    1    3    3    0    0 -0.38077371044E+02  0.21791266623E+02 -0.21213259161E+02  0.48731499207E+02  0.10566000000E+00 0. -1.
         22    1    1    0    0    0  0.63783885008E+01 -0.22984610395E+02 -0.14960142232E+02  0.28156384897E+02  0.00000000000E+00 0.  1.
</event>
<event>
 5    1  0.9041167E-005  0.9118800E+02  0.7818608E-02  0.1130116E+00
         25   -1    0    0    0    0  0.00000000000E+00  0.00000000000E+00  0.99999998245E-14  0.12500000000E+03  0.12500000000E+03 0.  0.
        -13    1    3    3    0    0  0.13698321771E+02 -0.35483539499E+02 -0.15545892608E+01  0.38067748903E+02  0.10566000000E+00 0. -1.
         23    2    1    0    0    0 -0.18587879725E+02  0.81377056474E+01 -0.21077722418E+02  0.95742489713E+02  0.91162615299E+02 0.  0.
         13    1    3    3    0    0 -0.32286201496E+02  0.43621245147E+02 -0.19523133157E+02  0.57674740810E+02  0.10566000000E+00 0.  1.
         22    1    1    0    0    0  0.18587879725E+02 -0.81377056474E+01  0.21077722418E+02  0.29257510287E+02  0.00000000000E+00 0.  1.
</event>
<event>
 5    1  0.9041167E-005  0.9118800E+02  0.7818608E-02  0.1130116E+00
         25   -1    0    0    0    0  0.00000000000E+00  0.00000000000E+00  0.99999998245E-14  0.12500000000E+03  0.12500000000E+03 0.  0.
        -13    1    3    3    0    0 -0.20020341189E+02  0.63399467024E+01 -0.36779889056E+02  0.42353044619E+02  0.10566000000E+00 0. -1.
         23    2    1    0    0    0  0.24425877061E+02 -0.10246409767E+02 -0.11306625014E+02  0.96199789020E+02  0.91787511433E+02 0.  0.
         13    1    3    3    0    0  0.44446218250E+02 -0.16586356469E+02  0.25473264042E+02  0.53846744401E+02  0.10566000000E+00 0.  1.
         22    1    1    0    0    0 -0.24425877061E+02  0.10246409767E+02  0.11306625014E+02  0.28800210980E+02  0.00000000000E+00 0.  1.
</event>
<event>
 5    1  0.9041167E-005  0.9118800E+02  0.7818608E-02  0.1130116E+00
         25   -1    0    0    0    0  0.00000000000E+00  0.00000000000E+00  0.99999998245E-14  0.12500000000E+03  0.12500000000E+03 0.  0.
        -13    1    3    3    0    0  0.46505018011E+01  0.17918760159E+02  0.46547940751E+02  0.50094222070E+02  0.10566000000E+00 0. -1.
         23    2    1    0    0    0 -0.19326850463E+02 -0.10022950382E+02  0.19390435764E+02  0.95845657574E+02  0.91303967019E+02 0.  0.
         13    1    3    3    0    0 -0.23977352264E+02 -0.27941710541E+02 -0.27157504986E+02  0.45751435504E+02  0.10566000000E+00 0.  1.
         22    1    1    0    0    0  0.19326850463E+02  0.10022950382E+02 -0.19390435764E+02  0.29154342426E+02  0.00000000000E+00 0.  1.
</event>
<event>
 5    1  0.9041167E-005  0.9118800E+02  0.7818608E-02  0.1130116E+00
         25   -1    0    0    0    0  0.00000000000E+00  0.00000000000E+00  0.99999998245E-14  0.12500000000E+03  0.12500000000E+03 0.  0.
        -13    1    3    3    0    0 -0.14050524141E+02 -0.25933661249E+02 -0.23178177044E+02  0.37512812072E+02  0.10566000000E+00 0. -1.
         23    2    1    0    0    0 -0.16978096563E+02  0.12893201210E+02  0.20079685172E+02  0.95713754816E+02  0.91123206177E+02 0.  0.
         13    1    3    3    0    0 -0.29275724225E+01  0.38826862459E+02  0.43257862216E+02  0.58200942744E+02  0.10566000000E+00 0.  1.
         22    1    1    0    0    0  0.16978096563E+02 -0.12893201210E+02 -0.20079685172E+02  0.29286245184E+02  0.00000000000E+00 0.  1.
</event>
<event>
 5    1  0.9041167E-005  0.9118800E+02  0.7818608E-02  0.1130116E+00
         25   -1    0    0    0    0  0.00000000000E+00  0.00000000000E+00  0.99999998245E-14  0.12500000000E+03  0.12500000000E+03 0.  0.
        -13    1    3    3    0    0  0.25971606645E+02 -0.15119541892E+02  0.38205817849E+02  0.48608852900E+02  0.10566000000E+00 0.  1.
         23    2    1    0    0    0 -0.16335110021E+02 -0.16447501274E+02  0.18709204029E+02  0.95210900770E+02  0.90430775693E+02 0.  0.
         13    1    3    3    0    0 -0.42306716666E+02 -0.13279593821E+01 -0.19496613820E+02  0.46602047870E+02  0.10566000000E+00 0. -1.
         22    1    1    0    0    0  0.16335110021E+02  0.16447501274E+02 -0.18709204029E+02  0.29789099230E+02  0.00000000000E+00 0.  1.
</event>
<event>
 5    1  0.9041167E-005  0.9118800E+02  0.7818608E-02  0.1130116E+00
         25   -1    0    0    0    0  0.00000000000E+00  0.00000000000E+00  0.99999998245E-14  0.12500000000E+03  0.12500000000E+03 0.  0.
        -13    1    3    3    0    0  0.20686719174E+02  0.32997751086E+02 -0.16165730681E+02  0.42167925481E+02  0.10566000000E+00 0.  1.
         23    2    1    0    0    0  0.27553475021E+02 -0.47108945599E+01  0.16510414096E+02  0.92534937442E+02  0.86652953559E+02 0.  0.
         13    1    3    3    0    0  0.68667558472E+01 -0.37708645646E+02  0.32676144777E+02  0.50367011961E+02  0.10566000000E+00 0. -1.
         22    1    1    0    0    0 -0.27553475021E+02  0.47108945599E+01 -0.16510414096E+02  0.32465062558E+02  0.00000000000E+00 0.  1.
</event>
<event>
 5    1  0.9041167E-005  0.9118800E+02  0.7818608E-02  0.1130116E+00
         25   -1    0    0    0    0  0.00000000000E+00  0.00000000000E+00  0.99999998245E-14  0.12500000000E+03  0.12500000000E+03 0.  0.
        -13    1    3    3    0    0  0.48105817439E+01 -0.15471544037E+02 -0.31750283156E+02  0.35645504852E+02  0.10566000000E+00 0.  1.
         23    2    1    0    0    0 -0.17139464560E+02  0.23217702633E+02  0.77329536667E+01  0.95123227528E+02  0.90309506044E+02 0.  0.
         13    1    3    3    0    0 -0.21950046304E+02  0.38689246670E+02  0.39483236823E+02  0.59477722676E+02  0.10566000000E+00 0. -1.
         22    1    1    0    0    0  0.17139464560E+02 -0.23217702633E+02 -0.77329536667E+01  0.29876772472E+02  0.00000000000E+00 0. -1.
</event>
<event>
 5    1  0.9041167E-005  0.9118800E+02  0.7818608E-02  0.1130116E+00
         25   -1    0    0    0    0  0.00000000000E+00  0.00000000000E+00  0.99999998245E-14  0.12500000000E+03  0.12500000000E+03 0.  0.
        -13    1    3    3    0    0 -0.14898151668E+02 -0.56306891835E+01  0.41523581599E+02  0.44473346812E+02  0.10566000000E+00 0.  1.
         23    2    1    0    0    0  0.22674220019E+02  0.13162428921E+02  0.10234326589E+02  0.96855529330E+02  0.92676223124E+02 0.  0.
         13    1    3    3    0    0  0.37572371687E+02  0.18793118104E+02 -0.31289255010E+02  0.52382182518E+02  0.10566000000E+00 0. -1.
         22    1    1    0    0    0 -0.22674220019E+02 -0.13162428921E+02 -0.10234326589E+02  0.28144470670E+02  0.00000000000E+00 0.  1.
</event>
<event>
 5    1  0.9041167E-005  0.9118800E+02  0.7818608E-02  0.1130116E+00
         25   -1    0    0    0    0  0.00000000000E+00  0.00000000000E+00  0.99999998245E-14  0.12500000000E+03  0.12500000000E+03 0.  0.
        -13    1    3    3    0    0 -0.24803477302E+02 -0.14927411979E+02 -0.90673951605E+01  0.30335934693E+02  0.10566000000E+00 0. -1.
         23    2    1    0    0    0  0.45811107864E+01  0.35435917687E+02 -0.53993752569E+00  0.89265109894E+02  0.81800229056E+02 0.  0.
         13    1    3    3    0    0  0.29384588089E+02  0.50363329666E+02  0.85274576348E+01  0.58929175201E+02  0.10566000000E+00 0.  1.
         22    1    1    0    0    0 -0.45811107864E+01 -0.35435917687E+02  0.53993752569E+00  0.35734890106E+02  0.00000000000E+00 0.  1.
</event>
<event>
 5    1  0.9041167E-005  0.9118800E+02  0.7818608E-02  0.1130116E+00
         25   -1    0    0    0    0  0.00000000000E+00  0.00000000000E+00  0.99999998245E-14  0.12500000000E+03  0.12500000000E+03 0.  0.
        -13    1    3    3    0    0 -0.25658242771E+02  0.33062382636E+02 -0.37723857729E+02  0.56343297504E+02  0.10566000000E+00 0.  1.
         23    2    1    0    0    0 -0.41806941680E+01  0.28397360439E+02 -0.48468221375E+01  0.95890208374E+02  0.91364939083E+02 0.  0.
         13    1    3    3    0    0  0.21477548603E+02 -0.46650221962E+01  0.32877035592E+02  0.39546910870E+02  0.10566000000E+00 0. -1.
         22    1    1    0    0    0  0.41806941680E+01 -0.28397360439E+02  0.48468221375E+01  0.29109791626E+02  0.00000000000E+00 0.  1.
</event>
<event>
 5    1  0.9041167E-005  0.9118800E+02  0.7818608E-02  0.1130116E+00
         25   -1    0    0    0    0  0.00000000000E+00  0.00000000000E+00  0.99999998245E-14  0.12500000000E+03  0.12500000000E+03 0.  0.
        -13    1    3    3    0    0 -0.62789406586E+00 -0.35136909591E+02  0.24523616220E+02  0.42853419736E+02  0.10566000000E+00 0.  1.
         23    2    1    0    0    0  0.18508718525E+02 -0.23876614445E+01 -0.17466818437E+02  0.99439027113E+02  0.96097641898E+02 0.  0.
         13    1    3    3    0    0  0.19136612591E+02  0.32749248146E+02 -0.41990434656E+02  0.56585607377E+02  0.10566000000E+00 0. -1.
         22    1    1    0    0    0 -0.18508718525E+02  0.23876614445E+01  0.17466818437E+02  0.25560972887E+02  0.00000000000E+00 0. -1.
</event>
<event>
 5    1  0.9041167E-005  0.9118800E+02  0.7818608E-02  0.1130116E+00
         25   -1    0    0    0    0  0.00000000000E+00  0.00000000000E+00  0.99999998245E-14  0.12500000000E+03  0.12500000000E+03 0.  0.
        -13    1    3    3    0    0 -0.14211458968E+02  0.81987861194E+01 -0.45695117948E+02  0.48551422514E+02  0.10566000000E+00 0.  1.
         23    2    1    0    0    0  0.67610597938E+01 -0.22834317148E+02 -0.16828741371E+02  0.95839675838E+02  0.91295777336E+02 0.  0.
         13    1    3    3    0    0  0.20972518762E+02 -0.31033103267E+02  0.28866376577E+02  0.47288253323E+02  0.10566000000E+00 0. -1.
         22    1    1    0    0    0 -0.67610597938E+01  0.22834317148E+02  0.16828741371E+02  0.29160324162E+02  0.00000000000E+00 0.  1.
</event>
<event>
 5    1  0.9041167E-005  0.9118800E+02  0.7818608E-02  0.1130116E+00
         25   -1    0    0    0    0  0.00000000000E+00  0.00000000000E+00  0.99999998245E-14  0.12500000000E+03  0.12500000000E+03 0.  0.
        -13    1    3    3    0    0 -0.75229661182E+01 -0.38357555948E+02  0.36939484804E+02  0.53781351965E+02  0.10566000000E+00 0. -1.
         23    2    1    0    0    0 -0.85904553126E+01 -0.24010915625E+02 -0.57744382475E+01  0.98853028307E+02  0.95332350630E+02 0.  0.
         13    1    3    3    0    0 -0.10674891944E+01  0.14346640323E+02 -0.42713923052E+02  0.45071676342E+02  0.10566000000E+00 0.  1.
         22    1    1    0    0    0  0.85904553126E+01  0.24010915625E+02  0.57744382475E+01  0.26146971693E+02  0.00000000000E+00 0.  1.
</event>
<event>
 5    1  0.9041167E-005  0.9118800E+02  0.7818608E-02  0.1130116E+00
         25   -1    0    0    0    0  0.00000000000E+00  0.00000000000E+00  0.99999998245E-14  0.12500000000E+03  0.12500000000E+03 0.  0.
        -13    1    3    3    0    0  0.31175654980E+02  0.23581595137E+02 -0.24548199455E+02  0.46158838300E+02  0.10566000000E+00 0.  1.
         23    2    1    0    0    0  0.21965508761E+01  0.21617151902E+02  0.17387383002E+02  0.97171108902E+02  0.93100898091E+02 0.  0.
         13    1    3    3    0    0 -0.28979104104E+02 -0.19644432352E+01  0.41935582457E+02  0.51012270602E+02  0.10566000000E+00 0. -1.
         22    1    1    0    0    0 -0.21965508761E+01 -0.21617151902E+02 -0.17387383002E+02  0.27828891098E+02  0.00000000000E+00 0.  1.
</event>
<event>
 5    1  0.9041167E-005  0.9118800E+02  0.7818608E-02  0.1130116E+00
         25   -1    0    0    0    0  0.00000000000E+00  0.00000000000E+00  0.99999998245E-14  0.12500000000E+03  0.12500000000E+03 0.  0.
        -13    1    3    3    0    0 -0.11793477845E+02  0.50955074676E+02 -0.18636143066E+02  0.55523173066E+02  0.10566000000E+00 0. -1.
         23    2    1    0    0    0  0.91409104461E+01  0.15835400771E+02 -0.21819038793E+02  0.96532709732E+02  0.92239782269E+02 0.  0.
         13    1    3    3    0    0  0.20934388291E+02 -0.35119673905E+02 -0.31828957261E+01  0.41009536666E+02  0.10566000000E+00 0.  1.
         22    1    1    0    0    0 -0.91409104461E+01 -0.15835400771E+02  0.21819038793E+02  0.28467290268E+02  0.00000000000E+00 0. -1.
</event>
<event>
 5    1  0.9041167E-005  0.9118800E+02  0.7818608E-02  0.1130116E+00
         25   -1    0    0    0    0  0.00000000000E+00  0.00000000000E+00  0.99999998245E-14  0.12500000000E+03  0.12500000000E+03 0.  0.
        -13    1    3    3    0    0 -0.79816859760E+01 -0.39024062411E+02 -0.34256144964E+02  0.52536457721E+02  0.10566000000E+00 0. -1.
         23    2    1    0    0    0 -0.14361038602E+02 -0.16821404455E+01 -0.31284249477E+02  0.90535913017E+02  0.83719640792E+02 0.  0.
         13    1    3    3    0    0 -0.63793526256E+01  0.37341921965E+02  0.29718954868E+01  0.37999455296E+02  0.10566000000E+00 0.  1.
         22    1    1    0    0    0  0.14361038602E+02  0.16821404455E+01  0.31284249477E+02  0.34464086983E+02  0.00000000000E+00 0. -1.
</event>
<event>
 5    1  0.9041167E-005  0.9118800E+02  0.7818608E-02  0.1130116E+00
         25   -1    0    0    0    0  0.00000000000E+00  0.00000000000E+00  0.99999998245E-14  0.12500000000E+03  0.12500000000E+03 0.  0.
        -13    1    3    3    0    0 -0.30857429795E+02 -0.20645419512E+02  0.13786838690E+02  0.39604323065E+02  0.10566000000E+00 0. -1.
         23    2    1    0    0    0 -0.10748901522E+02  0.20796177378E+02 -0.17914864971E+02  0.95521834107E+02  0.90859553855E+02 0.  0.
         13    1    3    3    0    0  0.20108528273E+02  0.41441596890E+02 -0.31701703661E+02  0.55917511042E+02  0.10566000000E+00 0.  1.
         22    1    1    0    0    0  0.10748901522E+02 -0.20796177378E+02  0.17914864971E+02  0.29478165893E+02  0.00000000000E+00 0.  1.
</event>
<event>
 5    1  0.9041167E-005  0.9118800E+02  0.7818608E-02  0.1130116E+00
         25   -1    0    0    0    0  0.00000000000E+00  0.00000000000E+00  0.99999998245E-14  0.12500000000E+03  0.12500000000E+03 0.  0.
        -13    1    3    3    0    0 -0.25263563193E+02  0.24464221982E+02  0.32247703978E+02  0.47714477449E+02  0.10566000000E+00 0. -1.
         23    2    1    0    0    0  0.17449137573E+02  0.42315103939E+01  0.22913169106E+02  0.95890012011E+02  0.91364670430E+02 0.  0.
         13    1    3    3    0    0  0.42712700766E+02 -0.20232711588E+02 -0.93345348726E+01  0.48175534561E+02  0.10566000000E+00 0.  1.
         22    1    1    0    0    0 -0.17449137573E+02 -0.42315103939E+01 -0.22913169106E+02  0.29109987989E+02  0.00000000000E+00 0.  1.
</event>
<event>
 5    1  0.9041167E-005  0.9118800E+02  0.7818608E-02  0.1130116E+00
         25   -1    0    0    0    0  0.00000000000E+00  0.00000000000E+00  0.99999998245E-14  0.12500000000E+03  0.12500000000E+03 0.  0.
        -13    1    3    3    0    0 -0.15579390984E+02 -0.44164573424E+02 -0.14077784707E+02  0.48902169231E+02  0.10566000000E+00 0. -1.
         23    2    1    0    0    0  0.20898916484E+02 -0.15054043302E+02 -0.14233249693E+02  0.95572558270E+02  0.90929310827E+02 0.  0.
         13    1    3    3    0    0  0.36478307468E+02  0.29110530122E+02 -0.15546498675E+00  0.46670389040E+02  0.10566000000E+00 0.  1.
         22    1    1    0    0    0 -0.20898916484E+02  0.15054043302E+02  0.14233249693E+02  0.29427441730E+02  0.00000000000E+00 0.  1.
</event>
<event>
 5    1  0.9041167E-005  0.9118800E+02  0.7818608E-02  0.1130116E+00
         25   -1    0    0    0    0  0.00000000000E+00  0.00000000000E+00  0.99999998245E-14  0.12500000000E+03  0.12500000000E+03 0.  0.
        -13    1    3    3    0    0  0.20135991146E+02 -0.46623761935E+02  0.22236248175E+02  0.55440916419E+02  0.10566000000E+00 0. -1.
         23    2    1    0    0    0  0.11935127947E+02 -0.28237891922E+01  0.21779689028E+02  0.10000448203E+03  0.96830369756E+02 0.  0.
         13    1    3    3    0    0 -0.82008631992E+01  0.43799972743E+02 -0.45655914698E+00  0.44563565609E+02  0.10566000000E+00 0.  1.
         22    1    1    0    0    0 -0.11935127947E+02  0.28237891922E+01 -0.21779689028E+02  0.24995517972E+02  0.00000000000E+00 0. -1.
</event>
<event>
 5    1  0.9041167E-005  0.9118800E+02  0.7818608E-02  0.1130116E+00
         25   -1    0    0    0    0  0.00000000000E+00  0.00000000000E+00  0.99999998245E-14  0.12500000000E+03  0.12500000000E+03 0.  0.
        -13    1    3    3    0    0  0.27095321552E+02  0.73989556352E+00  0.30349492086E+02  0.40691605146E+02  0.10566000000E+00 0. -1.
         23    2    1    0    0    0  0.99187428801E+01 -0.20253924318E+02 -0.18009853534E+02  0.96138992829E+02  0.91704679310E+02 0.  0.
         13    1    3    3    0    0 -0.17176578672E+02 -0.20993819881E+02 -0.48359345620E+02  0.55447387683E+02  0.10566000000E+00 0.  1.
         22    1    1    0    0    0 -0.99187428801E+01  0.20253924318E+02  0.18009853534E+02  0.28861007171E+02  0.00000000000E+00 0.  1.
</event>
<event>
 5    1  0.9041167E-005  0.9118800E+02  0.7818608E-02  0.1130116E+00
         25   -1    0    0    0    0  0.00000000000E+00  0.00000000000E+00  0.99999998245E-14  0.12500000000E+03  0.12500000000E+03 0.  0.
        -13    1    3    3    0    0 -0.58589263235E+01 -0.39906803820E+02 -0.30498287506E+01  0.40449877976E+02  0.10566000000E+00 0. -1.
         23    2    1    0    0    0  0.29648274759E+02 -0.26672874882E+00  0.68232727461E+01  0.94575529728E+02  0.89548212891E+02 0.  0.
         13    1    3    3    0    0  0.35507201082E+02  0.39640075071E+02  0.98731014966E+01  0.54125651752E+02  0.10566000000E+00 0.  1.
         22    1    1    0    0    0 -0.29648274759E+02  0.26672874882E+00 -0.68232727461E+01  0.30424470272E+02  0.00000000000E+00 0.  1.
</event>
<event>
 5    1  0.9041167E-005  0.9118800E+02  0.7818608E-02  0.1130116E+00
         25   -1    0    0    0    0  0.00000000000E+00  0.00000000000E+00  0.99999998245E-14  0.12500000000E+03  0.12500000000E+03 0.  0.
        -13    1    3    3    0    0 -0.35979162159E+02  0.22866371592E+02 -0.37752085956E+02  0.56943851446E+02  0.10566000000E+00 0. -1.
         23    2    1    0    0    0 -0.25466156882E+02 -0.31369151938E+01 -0.73469289584E+01  0.98310250125E+02  0.94617982071E+02 0.  0.
         13    1    3    3    0    0  0.10513005277E+02 -0.26003286786E+02  0.30405156997E+02  0.41366398679E+02  0.10566000000E+00 0.  1.
         22    1    1    0    0    0  0.25466156882E+02  0.31369151938E+01  0.73469289584E+01  0.26689749875E+02  0.00000000000E+00 0. -1.
</event>
<event>
 5    1  0.9041167E-005  0.9118800E+02  0.7818608E-02  0.1130116E+00
         25   -1    0    0    0    0  0.00000000000E+00  0.00000000000E+00  0.99999998245E-14  0.12500000000E+03  0.12500000000E+03 0.  0.
        -13    1    3    3    0    0 -0.10493244940E+02  0.19468614376E+02  0.49571552387E+02  0.54281535582E+02  0.10566000000E+00 0.  1.
         23    2    1    0    0    0  0.23493843860E+00  0.25975153106E+02  0.78282953475E+01  0.97869832603E+02  0.94034345591E+02 0.  0.
         13    1    3    3    0    0  0.10728183379E+02  0.65065387304E+01 -0.41743257039E+02  0.43588297021E+02  0.10566000000E+00 0. -1.
         22    1    1    0    0    0 -0.23493843860E+00 -0.25975153106E+02 -0.78282953475E+01  0.27130167397E+02  0.00000000000E+00 0.  1.
</event>
<event>
 5    1  0.9041167E-005  0.9118800E+02  0.7818608E-02  0.1130116E+00
         25   -1    0    0    0    0  0.00000000000E+00  0.00000000000E+00  0.99999998245E-14  0.12500000000E+03  0.12500000000E+03 0.  0.
        -13    1    3    3    0    0  0.35057431041E+02  0.93352008839E+01 -0.39836171415E+01  0.36497257655E+02  0.10566000000E+00 0. -1.
         23    2    1    0    0    0 -0.22648501243E+02  0.17720061048E+02  0.59086956660E+01  0.95642413986E+02  0.91025290423E+02 0.  0.
         13    1    3    3    0    0 -0.57705932284E+02  0.83848601643E+01  0.98923128075E+01  0.59145156331E+02  0.10566000000E+00 0.  1.
         22    1    1    0    0    0  0.22648501243E+02 -0.17720061048E+02 -0.59086956660E+01  0.29357586014E+02  0.00000000000E+00 0.  1.
</event>
<event>
 5    1  0.9041167E-005  0.9118800E+02  0.7818608E-02  0.1130116E+00
         25   -1    0    0    0    0  0.00000000000E+00  0.00000000000E+00  0.99999998245E-14  0.12500000000E+03  0.12500000000E+03 0.  0.
        -13    1    3    3    0    0  0.21509077622E+01  0.59936231876E+02  0.12377905639E+02  0.61238892934E+02  0.10566000000E+00 0. -1.
         23    2    1    0    0    0  0.25289957937E+01  0.29390447161E+02 -0.28339628718E+01  0.95365129499E+02  0.90643711170E+02 0.  0.
         13    1    3    3    0    0  0.37808803150E+00 -0.30545784715E+02 -0.15211868511E+02  0.34126236565E+02  0.10566000000E+00 0.  1.
         22    1    1    0    0    0 -0.25289957937E+01 -0.29390447161E+02  0.28339628718E+01  0.29634870501E+02  0.00000000000E+00 0. -1.
</event>
<event>
 5    1  0.9041167E-005  0.9118800E+02  0.7818608E-02  0.1130116E+00
         25   -1    0    0    0    0  0.00000000000E+00  0.00000000000E+00  0.99999998245E-14  0.12500000000E+03  0.12500000000E+03 0.  0.
        -13    1    3    3    0    0  0.31526448265E+02  0.12489844945E+02 -0.43736471641E+02  0.55342599167E+02  0.10566000000E+00 0.  1.
         23    2    1    0    0    0  0.14335837129E+02  0.27160227750E+02 -0.18823678553E+02  0.88978824674E+02  0.81361576732E+02 0.  0.
         13    1    3    3    0    0 -0.17190611136E+02  0.14670382805E+02  0.24912793087E+02  0.33636225506E+02  0.10566000000E+00 0. -1.
         22    1    1    0    0    0 -0.14335837129E+02 -0.27160227750E+02  0.18823678553E+02  0.36021175326E+02  0.00000000000E+00 0.  1.
</event>
<event>
 5    1  0.9041167E-005  0.9118800E+02  0.7818608E-02  0.1130116E+00
         25   -1    0    0    0    0  0.00000000000E+00  0.00000000000E+00  0.99999998245E-14  0.12500000000E+03  0.12500000000E+03 0.  0.
        -13    1    3    3    0    0  0.39175321851E+01 -0.39200399837E+02  0.39394986827E+02  0.55713504260E+02  0.10566000000E+00 0. -1.
         23    2    1    0    0    0 -0.18331957368E+02 -0.19202367678E+02  0.13826147049E+02  0.95067510501E+02  0.90232353539E+02 0.  0.
         13    1    3    3    0    0 -0.22249489553E+02  0.19998032159E+02 -0.25568839777E+02  0.39354006241E+02  0.10566000000E+00 0.  1.
         22    1    1    0    0    0  0.18331957368E+02  0.19202367678E+02 -0.13826147049E+02  0.29932489499E+02  0.00000000000E+00 0. -1.
</event>
<event>
 5    1  0.9041167E-005  0.9118800E+02  0.7818608E-02  0.1130116E+00
         25   -1    0    0    0    0  0.00000000000E+00  0.00000000000E+00  0.99999998245E-14  0.12500000000E+03  0.12500000000E+03 0.  0.
        -13    1    3    3    0    0  0.25112426757E+02  0.37556426845E+02  0.36758654288E+02  0.58243703557E+02  0.10566000000E+00 0.  1.
         23    2    1    0    0    0 -0.45638380523E+01  0.18881763313E+02  0.20044918414E+02  0.97086770918E+02  0.92987594492E+02 0.  0.
         13    1    3    3    0    0 -0.29676264809E+02 -0.18674663533E+02 -0.16713735874E+02  0.38843067360E+02  0.10566000000E+00 0. -1.
         22    1    1    0    0    0  0.45638380523E+01 -0.18881763313E+02 -0.20044918414E+02  0.27913229082E+02  0.00000000000E+00 0.  1.
</event>
<event>
 5    1  0.9041167E-005  0.9118800E+02  0.7818608E-02  0.1130116E+00
         25   -1    0    0    0    0  0.00000000000E+00  0.00000000000E+00  0.99999998245E-14  0.12500000000E+03  0.12500000000E+03 0.  0.
        -13    1    3    3    0    0  0.21200131181E+02 -0.18461673799E+02 -0.19473420525E+02  0.34198015038E+02  0.10566000000E+00 0. -1.
         23    2    1    0    0    0 -0.14274930651E+02  0.28996848717E+01  0.25687148529E+02  0.95470160566E+02  0.90788436166E+02 0.  0.
         13    1    3    3    0    0 -0.35475061833E+02  0.21361358671E+02  0.45160569054E+02  0.61272145528E+02  0.10566000000E+00 0.  1.
         22    1    1    0    0    0  0.14274930651E+02 -0.28996848717E+01 -0.25687148529E+02  0.29529839434E+02  0.00000000000E+00 0.  1.
</event>
<event>
 5    1  0.9041167E-005  0.9118800E+02  0.7818608E-02  0.1130116E+00
         25   -1    0    0    0    0  0.00000000000E+00  0.00000000000E+00  0.99999998245E-14  0.12500000000E+03  0.12500000000E+03 0.  0.
        -13    1    3    3    0    0  0.21904338563E+02  0.23438025637E+02  0.21178683041E+02  0.38440718945E+02  0.10566000000E+00 0.  1.
         23    2    1    0    0    0 -0.19204401957E+01 -0.27225894828E+02  0.19506660640E+01  0.97636839770E+02  0.93724116120E+02 0.  0.
         13    1    3    3    0    0 -0.23824778759E+02 -0.50663920464E+02 -0.19228016977E+02  0.59196120824E+02  0.10566000000E+00 0. -1.
         22    1    1    0    0    0  0.19204401957E+01  0.27225894828E+02 -0.19506660640E+01  0.27363160230E+02  0.00000000000E+00 0. -1.
</event>
<event>
 5    1  0.9041167E-005  0.9118800E+02  0.7818608E-02  0.1130116E+00
         25   -1    0    0    0    0  0.00000000000E+00  0.00000000000E+00  0.99999998245E-14  0.12500000000E+03  0.12500000000E+03 0.  0.
        -13    1    3    3    0    0 -0.21253542066E+02 -0.26075890958E+02  0.76317071498E+01  0.34495206299E+02  0.10566000000E+00 0.  1.
         23    2    1    0    0    0  0.30344167266E+02  0.30477321033E+01 -0.16071884170E+01  0.94460841324E+02  0.89387976434E+02 0.  0.
         13    1    3    3    0    0  0.51597709332E+02  0.29123623061E+02 -0.92388955668E+01  0.59965635024E+02  0.10566000000E+00 0. -1.
         22    1    1    0    0    0 -0.30344167266E+02 -0.30477321033E+01  0.16071884170E+01  0.30539158676E+02  0.00000000000E+00 0. -1.
</event>
<event>
 5    1  0.9041167E-005  0.9118800E+02  0.7818608E-02  0.1130116E+00
         25   -1    0    0    0    0  0.00000000000E+00  0.00000000000E+00  0.99999998245E-14  0.12500000000E+03  0.12500000000E+03 0.  0.
        -13    1    3    3    0    0  0.38473211804E+02 -0.10042709450E+02  0.26986830722E+02  0.48055636881E+02  0.10566000000E+00 0.  1.
         23    2    1    0    0    0 -0.30425205570E+01 -0.26976149288E+02  0.85070711132E+01  0.96551101591E+02  0.92264702881E+02 0.  0.
         13    1    3    3    0    0 -0.41515732361E+02 -0.16933439838E+02 -0.18479759609E+02  0.48495464710E+02  0.10566000000E+00 0. -1.
         22    1    1    0    0    0  0.30425205570E+01  0.26976149288E+02 -0.85070711132E+01  0.28448898409E+02  0.00000000000E+00 0.  1.
</event>
<event>
 5    1  0.9041167E-005  0.9118800E+02  0.7818608E-02  0.1130116E+00
         25   -1    0    0    0    0  0.00000000000E+00  0.00000000000E+00  0.99999998245E-14  0.12500000000E+03  0.12500000000E+03 0.  0.
        -13    1    3    3    0    0  0.37966142324E+02  0.33950375142E+02 -0.27456199784E+02  0.57861126898E+02  0.10566000000E+00 0.  1.
         23    2    1    0    0    0  0.26370067200E+02  0.10579211838E+01 -0.11794906490E+02  0.96092916776E+02  0.91641852852E+02 0.  0.
         13    1    3    3    0    0 -0.11596075123E+02 -0.32892453958E+02  0.15661293294E+02  0.38231789879E+02  0.10566000000E+00 0. -1.
         22    1    1    0    0    0 -0.26370067200E+02 -0.10579211838E+01  0.11794906490E+02  0.28907083224E+02  0.00000000000E+00 0. -1.
</event>
<event>
 5    1  0.9041167E-005  0.9118800E+02  0.7818608E-02  0.1130116E+00
         25   -1    0    0    0    0  0.00000000000E+00  0.00000000000E+00  0.99999998245E-14  0.12500000000E+03  0.12500000000E+03 0.  0.
        -13    1    3    3    0    0  0.44051685085E+02 -0.26326949575E+02  0.31545861918E+02  0.60239619860E+02  0.10566000000E+00 0.  1.
         23    2    1    0    0    0  0.25477520319E+02 -0.16362469155E+02  0.47215250281E+01  0.94354817066E+02  0.89239589121E+02 0.  0.
         13    1    3    3    0    0 -0.18574164765E+02  0.99644804201E+01 -0.26824336890E+02  0.34115197206E+02  0.10566000000E+00 0. -1.
         22    1    1    0    0    0 -0.25477520319E+02  0.16362469155E+02 -0.47215250281E+01  0.30645182934E+02  0.00000000000E+00 0.  1.
</event>
<event>
 5    1  0.9041167E-005  0.9118800E+02  0.7818608E-02  0.1130116E+00
         25   -1    0    0    0    0  0.00000000000E+00  0.00000000000E+00  0.99999998245E-14  0.12500000000E+03  0.12500000000E+03 0.  0.
        -13    1    3    3    0    0  0.29201953854E+02  0.10493983821E+02  0.22192604483E+02  0.38149713801E+02  0.10566000000E+00 0.  1.
         23    2    1    0    0    0 -0.11595707071E-02  0.16070787108E+02  0.46022562762E+02  0.76252215612E+02  0.58634920507E+02 0.  0.
         13    1    3    3    0    0 -0.29203113425E+02  0.55768032871E+01  0.23829958278E+02  0.38102501810E+02  0.10566000000E+00 0. -1.
         22    1    1    0    0    0  0.11595707071E-02 -0.16070787108E+02 -0.46022562762E+02  0.48747784388E+02  0.00000000000E+00 0. -1.
</event>
<event>
 5    1  0.9041167E-005  0.9118800E+02  0.7818608E-02  0.1130116E+00
         25   -1    0    0    0    0  0.00000000000E+00  0.00000000000E+00  0.99999998245E-14  0.12500000000E+03  0.12500000000E+03 0.  0.
        -13    1    3    3    0    0 -0.34731468438E+02 -0.15738217654E+02  0.45214947434E+02  0.59147012015E+02  0.10566000000E+00 0. -1.
         23    2    1    0    0    0 -0.18476202806E+02  0.66380133494E+01  0.23932714190E+02  0.94045063401E+02  0.88804649936E+02 0.  0.
         13    1    3    3    0    0  0.16255265633E+02  0.22376231003E+02 -0.21282233243E+02  0.34898051386E+02  0.10566000000E+00 0.  1.
         22    1    1    0    0    0  0.18476202806E+02 -0.66380133494E+01 -0.23932714190E+02  0.30954936599E+02  0.00000000000E+00 0. -1.
</event>
<event>
 5    1  0.9041167E-005  0.9118800E+02  0.7818608E-02  0.1130116E+00
         25   -1    0    0    0    0  0.00000000000E+00  0.00000000000E+00  0.99999998245E-14  0.12500000000E+03  0.12500000000E+03 0.  0.
        -13    1    3    3    0    0  0.44867572618E+02  0.60554485448E+01  0.28457724777E+02  0.53475422329E+02  0.10566000000E+00 0. -1.
         23    2    1    0    0    0  0.78173973939E+01  0.22913482080E+02  0.15746967763E+02  0.96119100486E+02  0.91677560621E+02 0.  0.
         13    1    3    3    0    0 -0.37050175225E+02  0.16858033535E+02 -0.12710757014E+02  0.42643678157E+02  0.10566000000E+00 0.  1.
         22    1    1    0    0    0 -0.78173973939E+01 -0.22913482080E+02 -0.15746967763E+02  0.28880899514E+02  0.00000000000E+00 0.  1.
</event>
<event>
 5    1  0.9041167E-005  0.9118800E+02  0.7818608E-02  0.1130116E+00
         25   -1    0    0    0    0  0.00000000000E+00  0.00000000000E+00  0.99999998245E-14  0.12500000000E+03  0.12500000000E+03 0.  0.
        -13    1    3    3    0    0  0.32605492687E+02  0.51566354948E+01 -0.58989567934E+01  0.33533832145E+02  0.10566000000E+00 0.  1.
         23    2    1    0    0    0 -0.24143573913E+02  0.15876549519E+02 -0.15703051843E+02  0.92112877549E+02  0.86041962944E+02 0.  0.
         13    1    3    3    0    0 -0.56749066601E+02  0.10719914024E+02 -0.98040950494E+01  0.58579045404E+02  0.10566000000E+00 0. -1.
         22    1    1    0    0    0  0.24143573913E+02 -0.15876549519E+02  0.15703051843E+02  0.32887122451E+02  0.00000000000E+00 0. -1.
</event>
<event>
 5    1  0.9041167E-005  0.9118800E+02  0.7818608E-02  0.1130116E+00
         25   -1    0    0    0    0  0.00000000000E+00  0.00000000000E+00  0.99999998245E-14  0.12500000000E+03  0.12500000000E+03 0.  0.
        -13    1    3    3    0    0 -0.18664624305E+02 -0.40797507025E+02  0.20570060523E+01  0.44911548824E+02  0.10566000000E+00 0.  1.
         23    2    1    0    0    0  0.21945222142E+02 -0.11788537116E+02 -0.12813401350E+02  0.96986688229E+02  0.92852959335E+02 0.  0.
         13    1    3    3    0    0  0.40609846447E+02  0.29008969909E+02 -0.14870407403E+02  0.52075139405E+02  0.10566000000E+00 0. -1.
         22    1    1    0    0    0 -0.21945222142E+02  0.11788537116E+02  0.12813401350E+02  0.28013311771E+02  0.00000000000E+00 0.  1.
</event>
<event>
 5    1  0.9041167E-005  0.9118800E+02  0.7818608E-02  0.1130116E+00
         25   -1    0    0    0    0  0.00000000000E+00  0.00000000000E+00  0.99999998245E-14  0.12500000000E+03  0.12500000000E+03 0.  0.
        -13    1    3    3    0    0  0.27846497009E+02  0.19494338223E+02  0.34404065363E+02  0.48364320485E+02  0.10566000000E+00 0. -1.
         23    2    1    0    0    0  0.16342456897E+02  0.11642380556E+02 -0.15162027342E+02  0.99850288361E+02  0.96631113468E+02 0.  0.
         13    1    3    3    0    0 -0.11504040112E+02 -0.78519576667E+01 -0.49566092705E+02  0.51485967876E+02  0.10566000000E+00 0.  1.
         22    1    1    0    0    0 -0.16342456897E+02 -0.11642380556E+02  0.15162027342E+02  0.25149711639E+02  0.00000000000E+00 0.  1.
</event>
<event>
 5    1  0.9041167E-005  0.9118800E+02  0.7818608E-02  0.1130116E+00
         25   -1    0    0    0    0  0.00000000000E+00  0.00000000000E+00  0.99999998245E-14  0.12500000000E+03  0.12500000000E+03 0.  0.
        -13    1    3    3    0    0 -0.15910306479E+02  0.28904034805E+02 -0.31514141931E+02  0.45626016547E+02  0.10566000000E+00 0.  1.
         23    2    1    0    0    0 -0.24202744396E+02  0.46355946557E+01  0.13104107874E+02  0.97089800838E+02  0.92991667420E+02 0.  0.
         13    1    3    3    0    0 -0.82924379174E+01 -0.24268440150E+02  0.44618249804E+02  0.51463784291E+02  0.10566000000E+00 0. -1.
         22    1    1    0    0    0  0.24202744396E+02 -0.46355946557E+01 -0.13104107874E+02  0.27910199162E+02  0.00000000000E+00 0. -1.
</event>
<event>
 5    1  0.9041167E-005  0.9118800E+02  0.7818608E-02  0.1130116E+00
         25   -1    0    0    0    0  0.00000000000E+00  0.00000000000E+00  0.99999998245E-14  0.12500000000E+03  0.12500000000E+03 0.  0.
        -13    1    3    3    0    0 -0.19218486820E+02  0.46406345020E+02  0.30469466299E+02  0.58747754292E+02  0.10566000000E+00 0.  1.
         23    2    1    0    0    0 -0.88485694619E+01  0.11405713207E+02  0.25646853366E+02  0.95569597983E+02  0.90925241246E+02 0.  0.
         13    1    3    3    0    0  0.10369917358E+02 -0.35000631812E+02 -0.48226129328E+01  0.36821843691E+02  0.10566000000E+00 0. -1.
         22    1    1    0    0    0  0.88485694619E+01 -0.11405713207E+02 -0.25646853366E+02  0.29430402017E+02  0.00000000000E+00 0.  1.
</event>
<event>
 5    1  0.9041167E-005  0.9118800E+02  0.7818608E-02  0.1130116E+00
         25   -1    0    0    0    0  0.00000000000E+00  0.00000000000E+00  0.99999998245E-14  0.12500000000E+03  0.12500000000E+03 0.  0.
        -13    1    3    3    0    0 -0.50281770512E+02  0.33331775961E+02  0.15951343135E+02  0.62399681461E+02  0.10566000000E+00 0.  1.
         23    2    1    0    0    0 -0.24613768964E+02  0.14430650739E+02  0.55259876084E+01  0.95937690346E+02  0.91429877975E+02 0.  0.
         13    1    3    3    0    0  0.25668001548E+02 -0.18901125222E+02 -0.10425355526E+02  0.33538008886E+02  0.10566000000E+00 0. -1.
         22    1    1    0    0    0  0.24613768964E+02 -0.14430650739E+02 -0.55259876084E+01  0.29062309654E+02  0.00000000000E+00 0.  1.
</event>
<event>
 5    1  0.9041167E-005  0.9118800E+02  0.7818608E-02  0.1130116E+00
         25   -1    0    0    0    0  0.00000000000E+00  0.00000000000E+00  0.99999998245E-14  0.12500000000E+03  0.12500000000E+03 0.  0.
        -13    1    3    3    0    0  0.19464241390E+02 -0.76042507111E+00  0.44059356904E+02  0.48173364363E+02  0.10566000000E+00 0.  1.
         23    2    1    0    0    0 -0.15448394254E+02  0.17616662625E+02  0.17943294203E+02  0.95487943245E+02  0.90812916544E+02 0.  0.
         13    1    3    3    0    0 -0.34912635644E+02  0.18377087696E+02 -0.26116062701E+02  0.47314578882E+02  0.10566000000E+00 0. -1.
         22    1    1    0    0    0  0.15448394254E+02 -0.17616662625E+02 -0.17943294203E+02  0.29512056755E+02  0.00000000000E+00 0. -1.
</event>
<event>
 5    1  0.9041167E-005  0.9118800E+02  0.7818608E-02  0.1130116E+00
         25   -1    0    0    0    0  0.00000000000E+00  0.00000000000E+00  0.99999998245E-14  0.12500000000E+03  0.12500000000E+03 0.  0.
        -13    1    3    3    0    0 -0.64391587605E+00 -0.39918866063E+02 -0.60943810996E+00  0.39928850149E+02  0.10566000000E+00 0. -1.
         23    2    1    0    0    0 -0.28338544429E+02  0.81667326754E+01 -0.20358401232E+01  0.95437975916E+02  0.90744112641E+02 0.  0.
         13    1    3    3    0    0 -0.27694628553E+02  0.48085598738E+02 -0.14264020133E+01  0.55509125767E+02  0.10566000000E+00 0.  1.
         22    1    1    0    0    0  0.28338544429E+02 -0.81667326754E+01  0.20358401232E+01  0.29562024084E+02  0.00000000000E+00 0.  1.
</event>
<event>
 5    1  0.9041167E-005  0.9118800E+02  0.7818608E-02  0.1130116E+00
         25   -1    0    0    0    0  0.00000000000E+00  0.00000000000E+00  0.99999998245E-14  0.12500000000E+03  0.12500000000E+03 0.  0.
        -13    1    3    3    0    0  0.21830362925E+02  0.19990279238E+02  0.20316678174E+02  0.35902013669E+02  0.10566000000E+00 0.  1.
         23    2    1    0    0    0 -0.17222712146E+02 -0.22941787173E+02  0.77575350722E+01  0.95282551207E+02  0.90529761967E+02 0.  0.
         13    1    3    3    0    0 -0.39053075071E+02 -0.42932066411E+02 -0.12559143102E+02  0.59380537538E+02  0.10566000000E+00 0. -1.
         22    1    1    0    0    0  0.17222712146E+02  0.22941787173E+02 -0.77575350722E+01  0.29717448793E+02  0.00000000000E+00 0. -1.
</event>
<event>
 5    1  0.9041167E-005  0.9118800E+02  0.7818608E-02  0.1130116E+00
         25   -1    0    0    0    0  0.00000000000E+00  0.00000000000E+00  0.99999998245E-14  0.12500000000E+03  0.12500000000E+03 0.  0.
        -13    1    3    3    0    0  0.10112317198E+02  0.32442238419E+02  0.18011079882E+02  0.38459952618E+02  0.10566000000E+00 0.  1.
         23    2    1    0    0    0  0.20446814747E+02 -0.21491318818E+02  0.46876315682E+01  0.94967968641E+02  0.90094351433E+02 0.  0.
         13    1    3    3    0    0  0.10334497549E+02 -0.53933557237E+02 -0.13323448314E+02  0.56508016023E+02  0.10566000000E+00 0. -1.
         22    1    1    0    0    0 -0.20446814747E+02  0.21491318818E+02 -0.46876315682E+01  0.30032031359E+02  0.00000000000E+00 0. -1.
</event>
<event>
 5    1  0.9041167E-005  0.9118800E+02  0.7818608E-02  0.1130116E+00
         25   -1    0    0    0    0  0.00000000000E+00  0.00000000000E+00  0.99999998245E-14  0.12500000000E+03  0.12500000000E+03 0.  0.
        -13    1    3    3    0    0 -0.32542616411E+02  0.37983769982E+01 -0.22545345014E+02  0.39771262195E+02  0.10566000000E+00 0.  1.
         23    2    1    0    0    0 -0.90394317368E+01 -0.15352238002E+02  0.23872229411E+02  0.95212655794E+02  0.90433201583E+02 0.  0.
         13    1    3    3    0    0  0.23503184674E+02 -0.19150615000E+02  0.46417574425E+02  0.55441393600E+02  0.10566000000E+00 0. -1.
         22    1    1    0    0    0  0.90394317368E+01  0.15352238002E+02 -0.23872229411E+02  0.29787344206E+02  0.00000000000E+00 0. -1.
</event>
<event>
 5    1  0.9041167E-005  0.9118800E+02  0.7818608E-02  0.1130116E+00
         25   -1    0    0    0    0  0.00000000000E+00  0.00000000000E+00  0.99999998245E-14  0.12500000000E+03  0.12500000000E+03 0.  0.
        -13    1    3    3    0    0 -0.12198316164E+02  0.30061001615E+02  0.19940710571E+02  0.38080255218E+02  0.10566000000E+00 0.  1.
         23    2    1    0    0    0 -0.13529908769E+02 -0.11873616890E+02 -0.21436975873E+02  0.97007409125E+02  0.92880849916E+02 0.  0.
         13    1    3    3    0    0 -0.13315926054E+01 -0.41934618505E+02 -0.41377686444E+02  0.58927153907E+02  0.10566000000E+00 0. -1.
         22    1    1    0    0    0  0.13529908769E+02  0.11873616890E+02  0.21436975873E+02  0.27992590875E+02  0.00000000000E+00 0. -1.
</event>
<event>
 5    1  0.9041167E-005  0.9118800E+02  0.7818608E-02  0.1130116E+00
         25   -1    0    0    0    0  0.00000000000E+00  0.00000000000E+00  0.99999998245E-14  0.12500000000E+03  0.12500000000E+03 0.  0.
        -13    1    3    3    0    0 -0.25608848860E+02 -0.42710118877E+02 -0.37603008719E+02  0.62401641190E+02  0.10566000000E+00 0. -1.
         23    2    1    0    0    0 -0.14106877301E+02 -0.18784927632E+02 -0.18176685922E+02  0.95296979876E+02  0.90549682325E+02 0.  0.
         13    1    3    3    0    0  0.11501971558E+02  0.23925191245E+02  0.19426322797E+02  0.32895338686E+02  0.10566000000E+00 0.  1.
         22    1    1    0    0    0  0.14106877301E+02  0.18784927632E+02  0.18176685922E+02  0.29703020124E+02  0.00000000000E+00 0. -1.
</event>
<event>
 5    1  0.9041167E-005  0.9118800E+02  0.7818608E-02  0.1130116E+00
         25   -1    0    0    0    0  0.00000000000E+00  0.00000000000E+00  0.99999998245E-14  0.12500000000E+03  0.12500000000E+03 0.  0.
        -13    1    3    3    0    0 -0.27777679628E+02 -0.40895888534E+02 -0.31776475284E+02  0.58769283899E+02  0.10566000000E+00 0. -1.
         23    2    1    0    0    0  0.37025102114E+00 -0.25917259192E+02 -0.17634363950E+02  0.93650164247E+02  0.88247045626E+02 0.  0.
         13    1    3    3    0    0  0.28147930649E+02  0.14978629343E+02  0.14142111334E+02  0.34880880347E+02  0.10566000000E+00 0.  1.
         22    1    1    0    0    0 -0.37025102114E+00  0.25917259192E+02  0.17634363950E+02  0.31349835753E+02  0.00000000000E+00 0. -1.
</event>
<event>
 5    1  0.9041167E-005  0.9118800E+02  0.7818608E-02  0.1130116E+00
         25   -1    0    0    0    0  0.00000000000E+00  0.00000000000E+00  0.99999998245E-14  0.12500000000E+03  0.12500000000E+03 0.  0.
        -13    1    3    3    0    0 -0.36255202337E+02  0.19731337207E+02  0.13049186326E+02  0.43290389144E+02  0.10566000000E+00 0.  1.
         23    2    1    0    0    0 -0.12317789529E+02 -0.46955954018E+01 -0.26394534594E+02  0.95496644063E+02  0.90824892050E+02 0.  0.
         13    1    3    3    0    0  0.23937412807E+02 -0.24426932609E+02 -0.39443720921E+02  0.52206254919E+02  0.10566000000E+00 0. -1.
         22    1    1    0    0    0  0.12317789529E+02  0.46955954018E+01  0.26394534594E+02  0.29503355937E+02  0.00000000000E+00 0.  1.
</event>
<event>
 5    1  0.9041167E-005  0.9118800E+02  0.7818608E-02  0.1130116E+00
         25   -1    0    0    0    0  0.00000000000E+00  0.00000000000E+00  0.99999998245E-14  0.12500000000E+03  0.12500000000E+03 0.  0.
        -13    1    3    3    0    0  0.55096711879E+02 -0.68975497373E+01 -0.20945236785E+02  0.59345917806E+02  0.10566000000E+00 0.  1.
         23    2    1    0    0    0  0.24065262201E+02 -0.16721364476E+02 -0.13497747582E+02  0.92736552191E+02  0.86943303639E+02 0.  0.
         13    1    3    3    0    0 -0.31031449678E+02 -0.98238147387E+01  0.74474892029E+01  0.33390634384E+02  0.10566000000E+00 0. -1.
         22    1    1    0    0    0 -0.24065262201E+02  0.16721364476E+02  0.13497747582E+02  0.32263447809E+02  0.00000000000E+00 0.  1.
</event>
<event>
 5    1  0.9041167E-005  0.9118800E+02  0.7818608E-02  0.1130116E+00
         25   -1    0    0    0    0  0.00000000000E+00  0.00000000000E+00  0.99999998245E-14  0.12500000000E+03  0.12500000000E+03 0.  0.
        -13    1    3    3    0    0  0.39605856948E+02  0.76902657158E+01  0.20365152960E+02  0.45194188901E+02  0.10566000000E+00 0.  1.
         23    2    1    0    0    0 -0.87454699526E+01  0.69250813314E+00  0.28907536984E+02  0.94790589104E+02  0.89847911918E+02 0.  0.
         13    1    3    3    0    0 -0.48351326900E+02 -0.69977575827E+01  0.85423840239E+01  0.49596400203E+02  0.10566000000E+00 0. -1.
         22    1    1    0    0    0  0.87454699526E+01 -0.69250813314E+00 -0.28907536984E+02  0.30209410896E+02  0.00000000000E+00 0.  1.
</event>
<event>
 5    1  0.9041167E-005  0.9118800E+02  0.7818608E-02  0.1130116E+00
         25   -1    0    0    0    0  0.00000000000E+00  0.00000000000E+00  0.99999998245E-14  0.12500000000E+03  0.12500000000E+03 0.  0.
        -13    1    3    3    0    0 -0.30239439483E+02  0.40817132382E+02  0.17424541392E+02  0.53703703809E+02  0.10566000000E+00 0. -1.
         23    2    1    0    0    0 -0.30982839143E+02  0.33420020351E+01  0.12136398995E+02  0.91557549738E+02  0.85231375881E+02 0.  0.
         13    1    3    3    0    0 -0.74339966044E+00 -0.37475130346E+02 -0.52881423974E+01  0.37853845929E+02  0.10566000000E+00 0.  1.
         22    1    1    0    0    0  0.30982839143E+02 -0.33420020351E+01 -0.12136398995E+02  0.33442450262E+02  0.00000000000E+00 0. -1.
</event>
<event>
 5    1  0.9041167E-005  0.9118800E+02  0.7818608E-02  0.1130116E+00
         25   -1    0    0    0    0  0.00000000000E+00  0.00000000000E+00  0.99999998245E-14  0.12500000000E+03  0.12500000000E+03 0.  0.
        -13    1    3    3    0    0 -0.46036882413E+02 -0.20222483735E+02 -0.32094311730E+02  0.59652320995E+02  0.10566000000E+00 0.  1.
         23    2    1    0    0    0 -0.27973820609E+02  0.20528376307E+00 -0.83610072223E+01  0.95802684666E+02  0.91245115851E+02 0.  0.
         13    1    3    3    0    0  0.18063061803E+02  0.20427767498E+02  0.23733304508E+02  0.36150363671E+02  0.10566000000E+00 0. -1.
         22    1    1    0    0    0  0.27973820609E+02 -0.20528376307E+00  0.83610072223E+01  0.29197315334E+02  0.00000000000E+00 0.  1.
</event>
<event>
 5    1  0.9041167E-005  0.9118800E+02  0.7818608E-02  0.1130116E+00
         25   -1    0    0    0    0  0.00000000000E+00  0.00000000000E+00  0.99999998245E-14  0.12500000000E+03  0.12500000000E+03 0.  0.
        -13    1    3    3    0    0 -0.60602439291E+01 -0.18208619672E+02 -0.57546438157E+02  0.60662048230E+02  0.10566000000E+00 0. -1.
         23    2    1    0    0    0  0.45660750343E+01 -0.15896061874E+02 -0.24598784816E+02  0.95358238265E+02  0.90634207484E+02 0.  0.
         13    1    3    3    0    0  0.10626318963E+02  0.23125577979E+01  0.32947653341E+02  0.34696190036E+02  0.10566000000E+00 0.  1.
         22    1    1    0    0    0 -0.45660750343E+01  0.15896061874E+02  0.24598784816E+02  0.29641761735E+02  0.00000000000E+00 0. -1.
</event>
<event>
 5    1  0.9041167E-005  0.9118800E+02  0.7818608E-02  0.1130116E+00
         25   -1    0    0    0    0  0.00000000000E+00  0.00000000000E+00  0.99999998245E-14  0.12500000000E+03  0.12500000000E+03 0.  0.
        -13    1    3    3    0    0  0.48163830045E+01  0.41950985886E+02 -0.69348545686E+01  0.42792360696E+02  0.10566000000E+00 0.  1.
         23    2    1    0    0    0 -0.26897313502E+02  0.13303900158E+02 -0.21656654002E+02  0.87993650604E+02  0.79833656130E+02 0.  0.
         13    1    3    3    0    0 -0.31713696506E+02 -0.28647085727E+02 -0.14721799433E+02  0.45201289908E+02  0.10566000000E+00 0. -1.
         22    1    1    0    0    0  0.26897313502E+02 -0.13303900158E+02  0.21656654002E+02  0.37006349396E+02  0.00000000000E+00 0.  1.
</event>
<event>
 5    1  0.9041167E-005  0.9118800E+02  0.7818608E-02  0.1130116E+00
         25   -1    0    0    0    0  0.00000000000E+00  0.00000000000E+00  0.99999998245E-14  0.12500000000E+03  0.12500000000E+03 0.  0.
        -13    1    3    3    0    0  0.20104330386E+01 -0.76123487161E+01  0.52900032686E+02  0.53482841325E+02  0.10566000000E+00 0. -1.
         23    2    1    0    0    0 -0.14926011541E+02 -0.18399486021E+02  0.13432940965E+02  0.97764530309E+02  0.93894262749E+02 0.  0.
         13    1    3    3    0    0 -0.16936444580E+02 -0.10787137305E+02 -0.39467091722E+02  0.44281688983E+02  0.10566000000E+00 0.  1.
         22    1    1    0    0    0  0.14926011541E+02  0.18399486021E+02 -0.13432940965E+02  0.27235469691E+02  0.00000000000E+00 0.  1.
</event>
<event>
 5    1  0.9041167E-005  0.9118800E+02  0.7818608E-02  0.1130116E+00
         25   -1    0    0    0    0  0.00000000000E+00  0.00000000000E+00  0.99999998245E-14  0.12500000000E+03  0.12500000000E+03 0.  0.
        -13    1    3    3    0    0  0.15638668402E+02 -0.29805290394E+02 -0.12433270882E+02  0.35882038316E+02  0.10566000000E+00 0. -1.
         23    2    1    0    0    0  0.84159198099E+01  0.21965473003E+02  0.17098459134E+02  0.95919645545E+02  0.91405204371E+02 0.  0.
         13    1    3    3    0    0 -0.72227485923E+01  0.51770763397E+02  0.29531730016E+02  0.60037607228E+02  0.10566000000E+00 0.  1.
         22    1    1    0    0    0 -0.84159198099E+01 -0.21965473003E+02 -0.17098459134E+02  0.29080354455E+02  0.00000000000E+00 0.  1.
</event>
<event>
 5    1  0.9041167E-005  0.9118800E+02  0.7818608E-02  0.1130116E+00
         25   -1    0    0    0    0  0.00000000000E+00  0.00000000000E+00  0.99999998245E-14  0.12500000000E+03  0.12500000000E+03 0.  0.
        -13    1    3    3    0    0  0.35649835786E+00  0.10602602588E+02  0.33621814012E+02  0.35255918853E+02  0.10566000000E+00 0.  1.
         23    2    1    0    0    0 -0.18383060062E+02  0.61342862523E+01 -0.22917323479E+02  0.94987168069E+02  0.90120985443E+02 0.  0.
         13    1    3    3    0    0 -0.18739558420E+02 -0.44683163360E+01 -0.56539137491E+02  0.59731249216E+02  0.10566000000E+00 0. -1.
         22    1    1    0    0    0  0.18383060062E+02 -0.61342862523E+01  0.22917323479E+02  0.30012831931E+02  0.00000000000E+00 0. -1.
</event>
<event>
 5    1  0.9041167E-005  0.9118800E+02  0.7818608E-02  0.1130116E+00
         25   -1    0    0    0    0  0.00000000000E+00  0.00000000000E+00  0.99999998245E-14  0.12500000000E+03  0.12500000000E+03 0.  0.
        -13    1    3    3    0    0  0.28506611841E+02 -0.45180567278E+02  0.57758049042E+01  0.53733431535E+02  0.10566000000E+00 0.  1.
         23    2    1    0    0    0  0.76872477528E+01 -0.18406146508E+02 -0.20318812999E+02  0.96526605946E+02  0.92231510269E+02 0.  0.
         13    1    3    3    0    0 -0.20819364088E+02  0.26774420770E+02 -0.26094617903E+02  0.42793174411E+02  0.10566000000E+00 0. -1.
         22    1    1    0    0    0 -0.76872477528E+01  0.18406146508E+02  0.20318812999E+02  0.28473394054E+02  0.00000000000E+00 0.  1.
</event>
<event>
 5    1  0.9041167E-005  0.9118800E+02  0.7818608E-02  0.1130116E+00
         25   -1    0    0    0    0  0.00000000000E+00  0.00000000000E+00  0.99999998245E-14  0.12500000000E+03  0.12500000000E+03 0.  0.
        -13    1    3    3    0    0 -0.54107709650E+01 -0.10637363125E+01 -0.34924533711E+02  0.35357349962E+02  0.10566000000E+00 0.  1.
         23    2    1    0    0    0  0.18114643153E+01 -0.11549314488E+02  0.25414756421E+02  0.97025405954E+02  0.92905067077E+02 0.  0.
         13    1    3    3    0    0  0.72222352803E+01 -0.10485578176E+02  0.60339290132E+02  0.61668055992E+02  0.10566000000E+00 0. -1.
         22    1    1    0    0    0 -0.18114643153E+01  0.11549314488E+02 -0.25414756421E+02  0.27974594046E+02  0.00000000000E+00 0. -1.
</event>
<event>
 5    1  0.9041167E-005  0.9118800E+02  0.7818608E-02  0.1130116E+00
         25   -1    0    0    0    0  0.00000000000E+00  0.00000000000E+00  0.99999998245E-14  0.12500000000E+03  0.12500000000E+03 0.  0.
        -13    1    3    3    0    0 -0.55539813689E+02  0.91375144892E+01  0.60196362760E+00  0.56289773493E+02  0.10566000000E+00 0.  1.
         23    2    1    0    0    0 -0.20543930286E+02  0.82925104588E+01  0.18980106747E+02  0.95827011579E+02  0.91278436088E+02 0.  0.
         13    1    3    3    0    0  0.34995883403E+02 -0.84500403044E+00  0.18378143119E+02  0.39537238086E+02  0.10566000000E+00 0. -1.
         22    1    1    0    0    0  0.20543930286E+02 -0.82925104588E+01 -0.18980106747E+02  0.29172988421E+02  0.00000000000E+00 0.  1.
</event>
<event>
 5    1  0.9041167E-005  0.9118800E+02  0.7818608E-02  0.1130116E+00
         25   -1    0    0    0    0  0.00000000000E+00  0.00000000000E+00  0.99999998245E-14  0.12500000000E+03  0.12500000000E+03 0.  0.
        -13    1    3    3    0    0  0.49341055403E+01 -0.13604825215E+02 -0.56413628881E+02  0.58240409976E+02  0.10566000000E+00 0.  1.
         23    2    1    0    0    0 -0.91411402560E+01  0.52315809996E+01 -0.27770489157E+02  0.95299327399E+02  0.90552922922E+02 0.  0.
         13    1    3    3    0    0 -0.14075245796E+02  0.18836406214E+02  0.28643139724E+02  0.37058917423E+02  0.10566000000E+00 0. -1.
         22    1    1    0    0    0  0.91411402560E+01 -0.52315809996E+01  0.27770489157E+02  0.29700672601E+02  0.00000000000E+00 0.  1.
</event>
<event>
 5    1  0.9041167E-005  0.9118800E+02  0.7818608E-02  0.1130116E+00
         25   -1    0    0    0    0  0.00000000000E+00  0.00000000000E+00  0.99999998245E-14  0.12500000000E+03  0.12500000000E+03 0.  0.
        -13    1    3    3    0    0 -0.32349906662E+02  0.15782918422E+02 -0.42457657877E+02  0.55662203077E+02  0.10566000000E+00 0.  1.
         23    2    1    0    0    0 -0.91821503993E+01 -0.99880337982E+01 -0.29266038982E+02  0.92742074729E+02  0.86951243132E+02 0.  0.
         13    1    3    3    0    0  0.23167756263E+02 -0.25770952220E+02  0.13191618895E+02  0.37079871652E+02  0.10566000000E+00 0. -1.
         22    1    1    0    0    0  0.91821503993E+01  0.99880337982E+01  0.29266038982E+02  0.32257925271E+02  0.00000000000E+00 0.  1.
</event>
<event>
 5    1  0.9041167E-005  0.9118800E+02  0.7818608E-02  0.1130116E+00
         25   -1    0    0    0    0  0.00000000000E+00  0.00000000000E+00  0.99999998245E-14  0.12500000000E+03  0.12500000000E+03 0.  0.
        -13    1    3    3    0    0  0.26095951176E+02 -0.28545103171E+02 -0.47354515643E+02  0.61141498990E+02  0.10566000000E+00 0. -1.
         23    2    1    0    0    0  0.17652783956E+02 -0.18101734484E+02 -0.16456565611E+02  0.94831935355E+02  0.89905416070E+02 0.  0.
         13    1    3    3    0    0 -0.84431672203E+01  0.10443368687E+02  0.30897950032E+02  0.33690436365E+02  0.10566000000E+00 0.  1.
         22    1    1    0    0    0 -0.17652783956E+02  0.18101734484E+02  0.16456565611E+02  0.30168064645E+02  0.00000000000E+00 0. -1.
</event>
<event>
 5    1  0.9041167E-005  0.9118800E+02  0.7818608E-02  0.1130116E+00
         25   -1    0    0    0    0  0.00000000000E+00  0.00000000000E+00  0.99999998245E-14  0.12500000000E+03  0.12500000000E+03 0.  0.
        -13    1    3    3    0    0 -0.10891070662E+02  0.46485746438E+02  0.21941791986E+02  0.52545156215E+02  0.10566000000E+00 0.  1.
         23    2    1    0    0    0 -0.11002424219E+02  0.24464526554E+02 -0.14034018415E+02  0.94725917502E+02  0.89757893110E+02 0.  0.
         13    1    3    3    0    0 -0.11135355692E+00 -0.22021219883E+02 -0.35975810401E+02  0.42180761287E+02  0.10566000000E+00 0. -1.
         22    1    1    0    0    0  0.11002424219E+02 -0.24464526554E+02  0.14034018415E+02  0.30274082498E+02  0.00000000000E+00 0.  1.
</event>
<event>
 5    1  0.9041167E-005  0.9118800E+02  0.7818608E-02  0.1130116E+00
         25   -1    0    0    0    0  0.00000000000E+00  0.00000000000E+00  0.99999998245E-14  0.12500000000E+03  0.12500000000E+03 0.  0.
        -13    1    3    3    0    0  0.24518215947E+02 -0.16440891221E+02  0.26948908354E+02  0.39971247702E+02  0.10566000000E+00 0.  1.
         23    2    1    0    0    0  0.66201710067E+01  0.28499641650E+02 -0.78467921227E+00  0.95731041020E+02  0.91146915773E+02 0.  0.
         13    1    3    3    0    0 -0.17898044940E+02  0.44940532871E+02 -0.27733587566E+02  0.55759793317E+02  0.10566000000E+00 0. -1.
         22    1    1    0    0    0 -0.66201710067E+01 -0.28499641650E+02  0.78467921227E+00  0.29268958980E+02  0.00000000000E+00 0. -1.
</event>
<event>
 5    1  0.9041167E-005  0.9118800E+02  0.7818608E-02  0.1130116E+00
         25   -1    0    0    0    0  0.00000000000E+00  0.00000000000E+00  0.99999998245E-14  0.12500000000E+03  0.12500000000E+03 0.  0.
        -13    1    3    3    0    0 -0.78458284843E+01 -0.30534342029E+02  0.34129673030E+02  0.46462337575E+02  0.10566000000E+00 0. -1.
         23    2    1    0    0    0  0.21879012053E+02  0.68385281683E+01  0.95805981939E+01  0.10015559424E+03  0.97025247021E+02 0.  0.
         13    1    3    3    0    0  0.29724840537E+02  0.37372870197E+02 -0.24549074836E+02  0.53693256663E+02  0.10566000000E+00 0.  1.
         22    1    1    0    0    0 -0.21879012053E+02 -0.68385281683E+01 -0.95805981939E+01  0.24844405762E+02  0.00000000000E+00 0.  1.
</event>
<event>
 5    1  0.9041167E-005  0.9118800E+02  0.7818608E-02  0.1130116E+00
         25   -1    0    0    0    0  0.00000000000E+00  0.00000000000E+00  0.99999998245E-14  0.12500000000E+03  0.12500000000E+03 0.  0.
        -13    1    3    3    0    0  0.17639489049E+02  0.51975545421E+02 -0.16625484251E+02  0.57350037369E+02  0.10566000000E+00 0. -1.
         23    2    1    0    0    0  0.22226488961E+02  0.11943878902E+02 -0.51311597203E+01  0.99251177603E+02  0.95852983265E+02 0.  0.
         13    1    3    3    0    0  0.45869999122E+01 -0.40031666518E+02  0.11494324531E+02  0.41901140234E+02  0.10566000000E+00 0.  1.
         22    1    1    0    0    0 -0.22226488961E+02 -0.11943878902E+02  0.51311597203E+01  0.25748822397E+02  0.00000000000E+00 0. -1.
</event>
<event>
 5    1  0.9041167E-005  0.9118800E+02  0.7818608E-02  0.1130116E+00
         25   -1    0    0    0    0  0.00000000000E+00  0.00000000000E+00  0.99999998245E-14  0.12500000000E+03  0.12500000000E+03 0.  0.
        -13    1    3    3    0    0  0.17911347330E+02 -0.43160438621E+02 -0.34277252228E+02  0.57953265736E+02  0.10566000000E+00 0. -1.
         23    2    1    0    0    0  0.55264424162E+01 -0.76983308147E+01 -0.27225717936E+02  0.96172138819E+02  0.91749848527E+02 0.  0.
         13    1    3    3    0    0 -0.12384904914E+02  0.35462107807E+02  0.70515342916E+01  0.38218873083E+02  0.10566000000E+00 0.  1.
         22    1    1    0    0    0 -0.55264424162E+01  0.76983308147E+01  0.27225717936E+02  0.28827861181E+02  0.00000000000E+00 0. -1.
</event>
<event>
 5    1  0.9041167E-005  0.9118800E+02  0.7818608E-02  0.1130116E+00
         25   -1    0    0    0    0  0.00000000000E+00  0.00000000000E+00  0.99999998245E-14  0.12500000000E+03  0.12500000000E+03 0.  0.
        -13    1    3    3    0    0 -0.11868179487E+01  0.46313791057E+02 -0.38236276682E+02  0.60069957528E+02  0.10566000000E+00 0. -1.
         23    2    1    0    0    0  0.28434740796E+00  0.32839358241E+02 -0.11220673967E+02  0.90295420657E+02  0.83359793451E+02 0.  0.
         13    1    3    3    0    0  0.14711653566E+01 -0.13474432816E+02  0.27015602716E+02  0.30225463129E+02  0.10566000000E+00 0.  1.
         22    1    1    0    0    0 -0.28434740796E+00 -0.32839358241E+02  0.11220673967E+02  0.34704579343E+02  0.00000000000E+00 0. -1.
</event>
<event>
 5    1  0.9041167E-005  0.9118800E+02  0.7818608E-02  0.1130116E+00
         25   -1    0    0    0    0  0.00000000000E+00  0.00000000000E+00  0.99999998245E-14  0.12500000000E+03  0.12500000000E+03 0.  0.
        -13    1    3    3    0    0  0.33854543865E+02  0.10170464695E+02  0.16459022354E+02  0.38993320880E+02  0.10566000000E+00 0.  1.
         23    2    1    0    0    0 -0.13878449273E+02  0.23465904150E+02 -0.10951545471E+02  0.95619796461E+02  0.90994225725E+02 0.  0.
         13    1    3    3    0    0 -0.47732993138E+02  0.13295439454E+02 -0.27410567825E+02  0.56626475581E+02  0.10566000000E+00 0. -1.
         22    1    1    0    0    0  0.13878449273E+02 -0.23465904150E+02  0.10951545471E+02  0.29380203539E+02  0.00000000000E+00 0.  1.
</event>
<event>
 5    1  0.9041167E-005  0.9118800E+02  0.7818608E-02  0.1130116E+00
         25   -1    0    0    0    0  0.00000000000E+00  0.00000000000E+00  0.99999998245E-14  0.12500000000E+03  0.12500000000E+03 0.  0.
        -13    1    3    3    0    0 -0.87269168267E+01 -0.35728978327E+02 -0.34762066399E+01  0.36943391103E+02  0.10566000000E+00 0.  1.
         23    2    1    0    0    0 -0.19925183690E+02  0.21507771355E+02 -0.48557941304E+01  0.95281724304E+02  0.90528620203E+02 0.  0.
         13    1    3    3    0    0 -0.11198266863E+02  0.57236749682E+02 -0.13795874905E+01  0.58338333200E+02  0.10566000000E+00 0. -1.
         22    1    1    0    0    0  0.19925183690E+02 -0.21507771355E+02  0.48557941304E+01  0.29718275696E+02  0.00000000000E+00 0. -1.
</event>
<event>
 5    1  0.9041167E-005  0.9118800E+02  0.7818608E-02  0.1130116E+00
         25   -1    0    0    0    0  0.00000000000E+00  0.00000000000E+00  0.99999998245E-14  0.12500000000E+03  0.12500000000E+03 0.  0.
        -13    1    3    3    0    0 -0.20954155287E+02 -0.49588818122E+02  0.53245121723E+00  0.53836996339E+02  0.10566000000E+00 0. -1.
         23    2    1    0    0    0 -0.64653120532E+01 -0.30428953728E+02 -0.22099749194E+02  0.86840854316E+02  0.78007778964E+02 0.  0.
         13    1    3    3    0    0  0.14488843234E+02  0.19159864394E+02 -0.22632200411E+02  0.33003857976E+02  0.10566000000E+00 0.  1.
         22    1    1    0    0    0  0.64653120532E+01  0.30428953728E+02  0.22099749194E+02  0.38159145684E+02  0.00000000000E+00 0. -1.
</event>
<event>
 5    1  0.9041167E-005  0.9118800E+02  0.7818608E-02  0.1130116E+00
         25   -1    0    0    0    0  0.00000000000E+00  0.00000000000E+00  0.99999998245E-14  0.12500000000E+03  0.12500000000E+03 0.  0.
        -13    1    3    3    0    0  0.23757843149E+02 -0.25578019817E+02  0.39855346742E+02  0.52982355901E+02  0.10566000000E+00 0.  1.
         23    2    1    0    0    0 -0.95133280929E+01 -0.30335863184E+01  0.28582749819E+02  0.94723282137E+02  0.89754222932E+02 0.  0.
         13    1    3    3    0    0 -0.33271171242E+02  0.22544433499E+02 -0.11272596922E+02  0.41740926236E+02  0.10566000000E+00 0. -1.
         22    1    1    0    0    0  0.95133280929E+01  0.30335863184E+01 -0.28582749819E+02  0.30276717863E+02  0.00000000000E+00 0. -1.
</event>
<event>
 5    1  0.9041167E-005  0.9118800E+02  0.7818608E-02  0.1130116E+00
         25   -1    0    0    0    0  0.00000000000E+00  0.00000000000E+00  0.99999998245E-14  0.12500000000E+03  0.12500000000E+03 0.  0.
        -13    1    3    3    0    0 -0.38200836144E+02  0.95829077070E+01  0.38236009493E+02  0.54892072180E+02  0.10566000000E+00 0.  1.
         23    2    1    0    0    0 -0.62829046691E+01 -0.91380515140E+01  0.30296771419E+02  0.92737432914E+02  0.86944569862E+02 0.  0.
         13    1    3    3    0    0  0.31917931475E+02 -0.18720959221E+02 -0.79392380741E+01  0.37845360734E+02  0.10566000000E+00 0. -1.
         22    1    1    0    0    0  0.62829046691E+01  0.91380515140E+01 -0.30296771419E+02  0.32262567086E+02  0.00000000000E+00 0.  1.
</event>
<event>
 5    1  0.9041167E-005  0.9118800E+02  0.7818608E-02  0.1130116E+00
         25   -1    0    0    0    0  0.00000000000E+00  0.00000000000E+00  0.99999998245E-14  0.12500000000E+03  0.12500000000E+03 0.  0.
        -13    1    3    3    0    0  0.39254860361E+02 -0.82398153719E+01 -0.32247442660E+02  0.51465982372E+02  0.10566000000E+00 0.  1.
         23    2    1    0    0    0 -0.12039500955E+01 -0.19549168068E+02 -0.23555066461E+02  0.94365695308E+02  0.89254825230E+02 0.  0.
         13    1    3    3    0    0 -0.40458810457E+02 -0.11309352697E+02  0.86923761985E+01  0.42899712936E+02  0.10566000000E+00 0. -1.
         22    1    1    0    0    0  0.12039500955E+01  0.19549168068E+02  0.23555066461E+02  0.30634304692E+02  0.00000000000E+00 0.  1.
</event>
<event>
 5    1  0.9041167E-005  0.9118800E+02  0.7818608E-02  0.1130116E+00
         25   -1    0    0    0    0  0.00000000000E+00  0.00000000000E+00  0.99999998245E-14  0.12500000000E+03  0.12500000000E+03 0.  0.
        -13    1    3    3    0    0 -0.22679278966E+02  0.14431791473E+02  0.23844439992E+02  0.35933198885E+02  0.10566000000E+00 0.  1.
         23    2    1    0    0    0 -0.75939971519E+01 -0.22161498964E+02 -0.19419434489E+02  0.94571144206E+02  0.89542090949E+02 0.  0.
         13    1    3    3    0    0  0.15085281814E+02 -0.36593290437E+02 -0.43263874480E+02  0.58637945321E+02  0.10566000000E+00 0. -1.
         22    1    1    0    0    0  0.75939971519E+01  0.22161498964E+02  0.19419434489E+02  0.30428855794E+02  0.00000000000E+00 0.  1.
</event>
<event>
 5    1  0.9041167E-005  0.9118800E+02  0.7818608E-02  0.1130116E+00
         25   -1    0    0    0    0  0.00000000000E+00  0.00000000000E+00  0.99999998245E-14  0.12500000000E+03  0.12500000000E+03 0.  0.
        -13    1    3    3    0    0 -0.49803328284E+02 -0.18129054991E+02  0.11981245799E+02  0.54337791250E+02  0.10566000000E+00 0.  1.
         23    2    1    0    0    0 -0.25603357294E+02  0.12829553530E+02 -0.25852581790E+01  0.96245645402E+02  0.91849939306E+02 0.  0.
         13    1    3    3    0    0  0.24199970990E+02  0.30958608521E+02 -0.14566503978E+02  0.41907854152E+02  0.10566000000E+00 0. -1.
         22    1    1    0    0    0  0.25603357294E+02 -0.12829553530E+02  0.25852581790E+01  0.28754354598E+02  0.00000000000E+00 0.  1.
</event>
<event>
 5    1  0.9041167E-005  0.9118800E+02  0.7818608E-02  0.1130116E+00
         25   -1    0    0    0    0  0.00000000000E+00  0.00000000000E+00  0.99999998245E-14  0.12500000000E+03  0.12500000000E+03 0.  0.
        -13    1    3    3    0    0  0.15295643763E+02 -0.14792887340E+02  0.21901315193E+02  0.30536289971E+02  0.10566000000E+00 0. -1.
         23    2    1    0    0    0 -0.72703679331E+01  0.92944175681E+01 -0.30404701897E+02  0.92385734023E+02  0.86437454299E+02 0.  0.
         13    1    3    3    0    0 -0.22566011696E+02  0.24087304908E+02 -0.52306017090E+02  0.61849444051E+02  0.10566000000E+00 0.  1.
         22    1    1    0    0    0  0.72703679331E+01 -0.92944175681E+01  0.30404701897E+02  0.32614265977E+02  0.00000000000E+00 0.  1.
</event>
<event>
 5    1  0.9041167E-005  0.9118800E+02  0.7818608E-02  0.1130116E+00
         25   -1    0    0    0    0  0.00000000000E+00  0.00000000000E+00  0.99999998245E-14  0.12500000000E+03  0.12500000000E+03 0.  0.
        -13    1    3    3    0    0  0.32658453982E+02 -0.12589705002E+02 -0.23421194903E+02  0.42114591572E+02  0.10566000000E+00 0.  1.
         23    2    1    0    0    0 -0.12869550509E+02  0.16219864194E+02 -0.20176382756E+02  0.96089867764E+02  0.91637693888E+02 0.  0.
         13    1    3    3    0    0 -0.45528004490E+02  0.28809569197E+02  0.32448121474E+01  0.53975276193E+02  0.10566000000E+00 0. -1.
         22    1    1    0    0    0  0.12869550509E+02 -0.16219864194E+02  0.20176382756E+02  0.28910132236E+02  0.00000000000E+00 0.  1.
</event>
<event>
 5    1  0.9041167E-005  0.9118800E+02  0.7818608E-02  0.1130116E+00
         25   -1    0    0    0    0  0.00000000000E+00  0.00000000000E+00  0.99999998245E-14  0.12500000000E+03  0.12500000000E+03 0.  0.
        -13    1    3    3    0    0 -0.87823646727E+01  0.38854365596E+02 -0.27140116146E+01  0.39927041942E+02  0.10566000000E+00 0.  1.
         23    2    1    0    0    0  0.43879792067E+01 -0.57299216056E+01  0.28288532960E+02  0.95805352200E+02  0.91248770129E+02 0.  0.
         13    1    3    3    0    0  0.13170343879E+02 -0.44584287202E+02  0.31002544575E+02  0.55878310258E+02  0.10566000000E+00 0. -1.
         22    1    1    0    0    0 -0.43879792067E+01  0.57299216056E+01 -0.28288532960E+02  0.29194647800E+02  0.00000000000E+00 0. -1.
</event>
<event>
 5    1  0.9041167E-005  0.9118800E+02  0.7818608E-02  0.1130116E+00
         25   -1    0    0    0    0  0.00000000000E+00  0.00000000000E+00  0.99999998245E-14  0.12500000000E+03  0.12500000000E+03 0.  0.
        -13    1    3    3    0    0  0.36433168334E+02 -0.30577873275E+01 -0.22752005380E+02  0.43062637298E+02  0.10566000000E+00 0. -1.
         23    2    1    0    0    0 -0.14667348100E+02 -0.15507303566E+02 -0.20030621592E+02  0.95728283864E+02  0.91143134498E+02 0.  0.
         13    1    3    3    0    0 -0.51100516435E+02 -0.12449516238E+02  0.27213837883E+01  0.52665646566E+02  0.10566000000E+00 0.  1.
         22    1    1    0    0    0  0.14667348100E+02  0.15507303566E+02  0.20030621592E+02  0.29271716136E+02  0.00000000000E+00 0.  1.
</event>
<event>
 5    1  0.9041167E-005  0.9118800E+02  0.7818608E-02  0.1130116E+00
         25   -1    0    0    0    0  0.00000000000E+00  0.00000000000E+00  0.99999998245E-14  0.12500000000E+03  0.12500000000E+03 0.  0.
        -13    1    3    3    0    0  0.21027594354E+02  0.19239441931E-01  0.41273243471E+02  0.46321181819E+02  0.10566000000E+00 0. -1.
         23    2    1    0    0    0 -0.22140545372E+02 -0.35629891190E+00  0.22610657408E+02  0.93352369335E+02  0.87824212685E+02 0.  0.
         13    1    3    3    0    0 -0.43168139727E+02 -0.37553835384E+00 -0.18662586063E+02  0.47031187515E+02  0.10566000000E+00 0.  1.
         22    1    1    0    0    0  0.22140545372E+02  0.35629891190E+00 -0.22610657408E+02  0.31647630665E+02  0.00000000000E+00 0.  1.
</event>
<event>
 5    1  0.9041167E-005  0.9118800E+02  0.7818608E-02  0.1130116E+00
         25   -1    0    0    0    0  0.00000000000E+00  0.00000000000E+00  0.99999998245E-14  0.12500000000E+03  0.12500000000E+03 0.  0.
        -13    1    3    3    0    0  0.22935361322E+02 -0.33125831524E+02 -0.38371773953E+01  0.40473282639E+02  0.10566000000E+00 0. -1.
         23    2    1    0    0    0  0.23858915932E+01  0.17077931719E+02  0.19009365906E+02  0.99334766266E+02  0.95961927692E+02 0.  0.
         13    1    3    3    0    0 -0.20549469729E+02  0.50203763243E+02  0.22846543301E+02  0.58861483627E+02  0.10566000000E+00 0.  1.
         22    1    1    0    0    0 -0.23858915932E+01 -0.17077931719E+02 -0.19009365906E+02  0.25665233734E+02  0.00000000000E+00 0.  1.
</event>
<event>
 5    1  0.9041167E-005  0.9118800E+02  0.7818608E-02  0.1130116E+00
         25   -1    0    0    0    0  0.00000000000E+00  0.00000000000E+00  0.99999998245E-14  0.12500000000E+03  0.12500000000E+03 0.  0.
        -13    1    3    3    0    0  0.31341607142E+02  0.18127152233E+02 -0.43279228699E+02  0.56426880005E+02  0.10566000000E+00 0.  1.
         23    2    1    0    0    0  0.53800067248E+01 -0.55153995984E+01 -0.30095045102E+02  0.93934330125E+02  0.88648646527E+02 0.  0.
         13    1    3    3    0    0 -0.25961600417E+02 -0.23642551832E+02  0.13184183596E+02  0.37507450119E+02  0.10566000000E+00 0. -1.
         22    1    1    0    0    0 -0.53800067248E+01  0.55153995984E+01  0.30095045102E+02  0.31065669875E+02  0.00000000000E+00 0.  1.
</event>
<event>
 5    1  0.9041167E-005  0.9118800E+02  0.7818608E-02  0.1130116E+00
         25   -1    0    0    0    0  0.00000000000E+00  0.00000000000E+00  0.99999998245E-14  0.12500000000E+03  0.12500000000E+03 0.  0.
        -13    1    3    3    0    0 -0.14300404453E+02 -0.60194059556E+02 -0.54394175055E+01  0.62108170157E+02  0.10566000000E+00 0. -1.
         23    2    1    0    0    0 -0.97030614660E+01 -0.28284532967E+02 -0.66375411043E+01  0.94369604004E+02  0.89260299131E+02 0.  0.
         13    1    3    3    0    0  0.45973429867E+01  0.31909526590E+02 -0.11981235988E+01  0.32261433848E+02  0.10566000000E+00 0.  1.
         22    1    1    0    0    0  0.97030614660E+01  0.28284532967E+02  0.66375411043E+01  0.30630395996E+02  0.00000000000E+00 0. -1.
</event>
<event>
 5    1  0.9041167E-005  0.9118800E+02  0.7818608E-02  0.1130116E+00
         25   -1    0    0    0    0  0.00000000000E+00  0.00000000000E+00  0.99999998245E-14  0.12500000000E+03  0.12500000000E+03 0.  0.
        -13    1    3    3    0    0 -0.19700194495E+01  0.87163188655E+01 -0.38964141927E+02  0.39975876618E+02  0.10566000000E+00 0. -1.
         23    2    1    0    0    0 -0.98839965403E+01 -0.27247283421E+02  0.30636281716E+01  0.95853925496E+02  0.91315285543E+02 0.  0.
         13    1    3    3    0    0 -0.79139770908E+01 -0.35963602287E+02  0.42027770099E+02  0.55878048878E+02  0.10566000000E+00 0.  1.
         22    1    1    0    0    0  0.98839965403E+01  0.27247283421E+02 -0.30636281716E+01  0.29146074504E+02  0.00000000000E+00 0.  1.
</event>
<event>
 5    1  0.9041167E-005  0.9118800E+02  0.7818608E-02  0.1130116E+00
         25   -1    0    0    0    0  0.00000000000E+00  0.00000000000E+00  0.99999998245E-14  0.12500000000E+03  0.12500000000E+03 0.  0.
        -13    1    3    3    0    0 -0.30568653446E+02 -0.56051754183E+01 -0.46118700339E+02  0.55613004324E+02  0.10566000000E+00 0.  1.
         23    2    1    0    0    0 -0.26796941615E+02  0.78512315132E+01 -0.83954629333E+01  0.95841781363E+02  0.91298660126E+02 0.  0.
         13    1    3    3    0    0  0.37717118304E+01  0.13456406932E+02  0.37723237406E+02  0.40228777039E+02  0.10566000000E+00 0. -1.
         22    1    1    0    0    0  0.26796941615E+02 -0.78512315132E+01  0.83954629333E+01  0.29158218637E+02  0.00000000000E+00 0. -1.
</event>
<event>
 5    1  0.9041167E-005  0.9118800E+02  0.7818608E-02  0.1130116E+00
         25   -1    0    0    0    0  0.00000000000E+00  0.00000000000E+00  0.99999998245E-14  0.12500000000E+03  0.12500000000E+03 0.  0.
        -13    1    3    3    0    0 -0.64709899662E+01 -0.14303286077E+02  0.55743664908E+02  0.57912218444E+02  0.10566000000E+00 0.  1.
         23    2    1    0    0    0 -0.16745966043E+01  0.10146354608E+02  0.27842226969E+02  0.95319326352E+02  0.90580525434E+02 0.  0.
         13    1    3    3    0    0  0.47963933619E+01  0.24449640685E+02 -0.27901437939E+02  0.37407107907E+02  0.10566000000E+00 0. -1.
         22    1    1    0    0    0  0.16745966043E+01 -0.10146354608E+02 -0.27842226969E+02  0.29680673648E+02  0.00000000000E+00 0.  1.
</event>
<event>
 5    1  0.9041167E-005  0.9118800E+02  0.7818608E-02  0.1130116E+00
         25   -1    0    0    0    0  0.00000000000E+00  0.00000000000E+00  0.99999998245E-14  0.12500000000E+03  0.12500000000E+03 0.  0.
        -13    1    3    3    0    0 -0.21860458641E+02  0.24125465738E+02 -0.28024487441E+01  0.32676943432E+02  0.10566000000E+00 0. -1.
         23    2    1    0    0    0  0.16300475674E+02 -0.22352595039E+02 -0.14229514190E+02  0.93890144869E+02  0.88586320712E+02 0.  0.
         13    1    3    3    0    0  0.38160934316E+02 -0.46478060777E+02 -0.11427065445E+02  0.61213201437E+02  0.10566000000E+00 0.  1.
         22    1    1    0    0    0 -0.16300475674E+02  0.22352595039E+02  0.14229514190E+02  0.31109855131E+02  0.00000000000E+00 0.  1.
</event>
<event>
 5    1  0.9041167E-005  0.9118800E+02  0.7818608E-02  0.1130116E+00
         25   -1    0    0    0    0  0.00000000000E+00  0.00000000000E+00  0.99999998245E-14  0.12500000000E+03  0.12500000000E+03 0.  0.
        -13    1    3    3    0    0 -0.49129319249E+02 -0.23006950379E+02  0.19151780102E+02  0.57530962279E+02  0.10566000000E+00 0.  1.
         23    2    1    0    0    0 -0.28408397135E+02  0.11297975856E+01 -0.31708096256E+01  0.96392876691E+02  0.92050090563E+02 0.  0.
         13    1    3    3    0    0  0.20720922114E+02  0.24136747964E+02 -0.22322589728E+02  0.38861914412E+02  0.10566000000E+00 0. -1.
         22    1    1    0    0    0  0.28408397135E+02 -0.11297975856E+01  0.31708096256E+01  0.28607123309E+02  0.00000000000E+00 0.  1.
</event>
<event>
 5    1  0.9041167E-005  0.9118800E+02  0.7818608E-02  0.1130116E+00
         25   -1    0    0    0    0  0.00000000000E+00  0.00000000000E+00  0.99999998245E-14  0.12500000000E+03  0.12500000000E+03 0.  0.
        -13    1    3    3    0    0  0.19426580045E+02 -0.38024931575E+02 -0.20016097513E+02  0.47158697578E+02  0.10566000000E+00 0.  1.
         23    2    1    0    0    0 -0.33972989069E+01 -0.23385186364E+02  0.19004281889E+02  0.94675565772E+02  0.89687744107E+02 0.  0.
         13    1    3    3    0    0 -0.22823878951E+02  0.14639745212E+02  0.39020379402E+02  0.47516868194E+02  0.10566000000E+00 0. -1.
         22    1    1    0    0    0  0.33972989069E+01  0.23385186364E+02 -0.19004281889E+02  0.30324434228E+02  0.00000000000E+00 0. -1.
</event>
<event>
 5    1  0.9041167E-005  0.9118800E+02  0.7818608E-02  0.1130116E+00
         25   -1    0    0    0    0  0.00000000000E+00  0.00000000000E+00  0.99999998245E-14  0.12500000000E+03  0.12500000000E+03 0.  0.
        -13    1    3    3    0    0  0.12249949301E+02 -0.28167960821E+02  0.26896090901E+02  0.40827761933E+02  0.10566000000E+00 0. -1.
         23    2    1    0    0    0 -0.10236218157E+02  0.21613716193E+02  0.15827802370E+01  0.10103256202E+03  0.98148563444E+02 0.  0.
         13    1    3    3    0    0 -0.22486167457E+02  0.49781677014E+02 -0.25313310664E+02  0.60204800091E+02  0.10566000000E+00 0.  1.
         22    1    1    0    0    0  0.10236218157E+02 -0.21613716193E+02 -0.15827802370E+01  0.23967437976E+02  0.00000000000E+00 0.  1.
</event>
<event>
 4    1  0.9041167E-005  0.9118800E+02  0.7818608E-02  0.1130116E+00
         25   -1    0    0    0    0  0.00000000000E+00  0.00000000000E+00  0.99999998245E-14  0.12500000000E+03  0.12500000000E+03 0.  0.
        -13    1    1    0    0    0  0.48619546092E+02  0.27596233367E+02  0.25920322716E+02  0.61622127941E+02  0.10566000000E+00 0.  1.
         13    1    1    0    0    0 -0.25781521944E+01 -0.71697908720E+00 -0.58105026450E+01  0.63979709887E+01  0.10566000000E+00 0. -1.
         22    1    1    0    0    0 -0.46041393898E+02 -0.26879254280E+02 -0.20109820071E+02  0.56979901070E+02  0.00000000000E+00 0.  1.
</event>
<event>
 5    1  0.9041167E-005  0.9118800E+02  0.7818608E-02  0.1130116E+00
         25   -1    0    0    0    0  0.00000000000E+00  0.00000000000E+00  0.99999998245E-14  0.12500000000E+03  0.12500000000E+03 0.  0.
        -13    1    3    3    0    0 -0.14131688056E+02 -0.27151233306E+02 -0.19348620884E+02  0.36211522634E+02  0.10566000000E+00 0.  1.
         23    2    1    0    0    0 -0.81631288069E+01  0.15571602302E+02  0.22589215497E+02  0.96375113503E+02  0.92025965770E+02 0.  0.
         13    1    3    3    0    0  0.59685592487E+01  0.42722835608E+02  0.41937836381E+02  0.60163590869E+02  0.10566000000E+00 0. -1.
         22    1    1    0    0    0  0.81631288069E+01 -0.15571602302E+02 -0.22589215497E+02  0.28624886497E+02  0.00000000000E+00 0. -1.
</event>
<event>
 5    1  0.9041167E-005  0.9118800E+02  0.7818608E-02  0.1130116E+00
         25   -1    0    0    0    0  0.00000000000E+00  0.00000000000E+00  0.99999998245E-14  0.12500000000E+03  0.12500000000E+03 0.  0.
        -13    1    3    3    0    0 -0.35454994857E+02 -0.29525345183E+02  0.27156452742E+02  0.53537713418E+02  0.10566000000E+00 0. -1.
         23    2    1    0    0    0  0.11790519165E+01 -0.28741850094E+02  0.68546011785E+01  0.95428566697E+02  0.90731150518E+02 0.  0.
         13    1    3    3    0    0  0.36634046773E+02  0.78349508881E+00 -0.20301851564E+02  0.41890853279E+02  0.10566000000E+00 0.  1.
         22    1    1    0    0    0 -0.11790519165E+01  0.28741850094E+02 -0.68546011785E+01  0.29571433303E+02  0.00000000000E+00 0. -1.
</event>
<event>
 5    1  0.9041167E-005  0.9118800E+02  0.7818608E-02  0.1130116E+00
         25   -1    0    0    0    0  0.00000000000E+00  0.00000000000E+00  0.99999998245E-14  0.12500000000E+03  0.12500000000E+03 0.  0.
        -13    1    3    3    0    0 -0.32282146305E+02  0.23144360584E+02 -0.92176711477E+01  0.40777138477E+02  0.10566000000E+00 0. -1.
         23    2    1    0    0    0 -0.98411766041E+01 -0.20163008445E+02  0.17640362201E+02  0.96459186327E+02  0.92140092152E+02 0.  0.
         13    1    3    3    0    0  0.22440969701E+02 -0.43307369030E+02  0.26858033349E+02  0.55682047850E+02  0.10566000000E+00 0.  1.
         22    1    1    0    0    0  0.98411766041E+01  0.20163008445E+02 -0.17640362201E+02  0.28540813673E+02  0.00000000000E+00 0.  1.
</event>
<event>
 5    1  0.9041167E-005  0.9118800E+02  0.7818608E-02  0.1130116E+00
         25   -1    0    0    0    0  0.00000000000E+00  0.00000000000E+00  0.99999998245E-14  0.12500000000E+03  0.12500000000E+03 0.  0.
        -13    1    3    3    0    0  0.35102911643E+00  0.21287781056E+02 -0.24500635508E+02  0.32458976387E+02  0.10566000000E+00 0.  1.
         23    2    1    0    0    0  0.41011896643E+01 -0.18141382090E+02  0.23718033684E+02  0.94859087230E+02  0.89943158758E+02 0.  0.
         13    1    3    3    0    0  0.37501605478E+01 -0.39429163146E+02  0.48218669192E+02  0.62400110843E+02  0.10566000000E+00 0. -1.
         22    1    1    0    0    0 -0.41011896643E+01  0.18141382090E+02 -0.23718033684E+02  0.30140912770E+02  0.00000000000E+00 0. -1.
</event>
<event>
 5    1  0.9041167E-005  0.9118800E+02  0.7818608E-02  0.1130116E+00
         25   -1    0    0    0    0  0.00000000000E+00  0.00000000000E+00  0.99999998245E-14  0.12500000000E+03  0.12500000000E+03 0.  0.
        -13    1    3    3    0    0  0.23330474531E+01 -0.24670235842E+02 -0.51551117439E+02  0.57197836674E+02  0.10566000000E+00 0. -1.
         23    2    1    0    0    0 -0.15369044962E+02 -0.17793685924E+02 -0.19495920061E+02  0.94456363988E+02  0.89381715115E+02 0.  0.
         13    1    3    3    0    0 -0.17702092415E+02  0.68765499180E+01  0.32055197378E+02  0.37258527314E+02  0.10566000000E+00 0.  1.
         22    1    1    0    0    0  0.15369044962E+02  0.17793685924E+02  0.19495920061E+02  0.30543636012E+02  0.00000000000E+00 0. -1.
</event>
<event>
 5    1  0.9041167E-005  0.9118800E+02  0.7818608E-02  0.1130116E+00
         25   -1    0    0    0    0  0.00000000000E+00  0.00000000000E+00  0.99999998245E-14  0.12500000000E+03  0.12500000000E+03 0.  0.
        -13    1    3    3    0    0  0.93227741301E+01 -0.53543045987E+02 -0.55888950733E+01  0.54635325598E+02  0.10566000000E+00 0.  1.
         23    2    1    0    0    0  0.19916132727E+02 -0.19379582954E+02 -0.17292876131E+02  0.92269828244E+02  0.86269676370E+02 0.  0.
         13    1    3    3    0    0  0.10593358597E+02  0.34163463033E+02 -0.11703981058E+02  0.37634502646E+02  0.10566000000E+00 0. -1.
         22    1    1    0    0    0 -0.19916132727E+02  0.19379582954E+02  0.17292876131E+02  0.32730171756E+02  0.00000000000E+00 0. -1.
</event>
<event>
 5    1  0.9041167E-005  0.9118800E+02  0.7818608E-02  0.1130116E+00
         25   -1    0    0    0    0  0.00000000000E+00  0.00000000000E+00  0.99999998245E-14  0.12500000000E+03  0.12500000000E+03 0.  0.
        -13    1    3    3    0    0 -0.25480243796E+02 -0.53551677987E+02 -0.89228521163E+01  0.59972105958E+02  0.10566000000E+00 0.  1.
         23    2    1    0    0    0 -0.24364469631E+02 -0.22553605210E+02 -0.20940228653E+01  0.91733238509E+02  0.85488652037E+02 0.  0.
         13    1    3    3    0    0  0.11157741648E+01  0.30998072777E+02  0.68288292509E+01  0.31761132550E+02  0.10566000000E+00 0. -1.
         22    1    1    0    0    0  0.24364469631E+02  0.22553605210E+02  0.20940228653E+01  0.33266761491E+02  0.00000000000E+00 0.  1.
</event>
<event>
 5    1  0.9041167E-005  0.9118800E+02  0.7818608E-02  0.1130116E+00
         25   -1    0    0    0    0  0.00000000000E+00  0.00000000000E+00  0.99999998245E-14  0.12500000000E+03  0.12500000000E+03 0.  0.
        -13    1    3    3    0    0 -0.34719015194E+02 -0.17677005556E+02 -0.48186109554E+02  0.61966110573E+02  0.10566000000E+00 0.  1.
         23    2    1    0    0    0 -0.17325359333E+02 -0.26612856215E+01 -0.23365907006E+02  0.95790136471E+02  0.91227924002E+02 0.  0.
         13    1    3    3    0    0  0.17393655861E+02  0.15015719935E+02  0.24820202549E+02  0.33824025898E+02  0.10566000000E+00 0. -1.
         22    1    1    0    0    0  0.17325359333E+02  0.26612856215E+01  0.23365907006E+02  0.29209863529E+02  0.00000000000E+00 0.  1.
</event>
<event>
 5    1  0.9041167E-005  0.9118800E+02  0.7818608E-02  0.1130116E+00
         25   -1    0    0    0    0  0.00000000000E+00  0.00000000000E+00  0.99999998245E-14  0.12500000000E+03  0.12500000000E+03 0.  0.
        -13    1    3    3    0    0  0.66079927802E+01  0.32028849173E+02 -0.37111756662E+02  0.49465203876E+02  0.10566000000E+00 0.  1.
         23    2    1    0    0    0  0.27278474701E+02  0.45311066325E+01 -0.42802814992E+01  0.97018453955E+02  0.92895712973E+02 0.  0.
         13    1    3    3    0    0  0.20670481921E+02 -0.27497742540E+02  0.32831475163E+02  0.47553250079E+02  0.10566000000E+00 0. -1.
         22    1    1    0    0    0 -0.27278474701E+02 -0.45311066325E+01  0.42802814992E+01  0.27981546045E+02  0.00000000000E+00 0.  1.
</event>
<event>
 5    1  0.9041167E-005  0.9118800E+02  0.7818608E-02  0.1130116E+00
         25   -1    0    0    0    0  0.00000000000E+00  0.00000000000E+00  0.99999998245E-14  0.12500000000E+03  0.12500000000E+03 0.  0.
        -13    1    3    3    0    0 -0.19961024083E+02 -0.50146680100E+02  0.11658708935E+02  0.55218372536E+02  0.10566000000E+00 0.  1.
         23    2    1    0    0    0  0.27986688960E+01 -0.28715216177E+02  0.22611638150E+02  0.88343726765E+02  0.80379920946E+02 0.  0.
         13    1    3    3    0    0  0.22759692979E+02  0.21431463923E+02  0.10952929214E+02  0.33125354229E+02  0.10566000000E+00 0. -1.
         22    1    1    0    0    0 -0.27986688960E+01  0.28715216177E+02 -0.22611638150E+02  0.36656273235E+02  0.00000000000E+00 0.  1.
</event>
<event>
 5    1  0.9041167E-005  0.9118800E+02  0.7818608E-02  0.1130116E+00
         25   -1    0    0    0    0  0.00000000000E+00  0.00000000000E+00  0.99999998245E-14  0.12500000000E+03  0.12500000000E+03 0.  0.
        -13    1    3    3    0    0 -0.40822694167E+02  0.35098845164E+02  0.83362089511E+01  0.54478664031E+02  0.10566000000E+00 0.  1.
         23    2    1    0    0    0 -0.20782761516E+02 -0.10262463274E+01  0.18649057480E+02  0.97057850787E+02  0.92948710033E+02 0.  0.
         13    1    3    3    0    0  0.20039932651E+02 -0.36125091492E+02  0.10312848529E+02  0.42579186755E+02  0.10566000000E+00 0. -1.
         22    1    1    0    0    0  0.20782761516E+02  0.10262463274E+01 -0.18649057480E+02  0.27942149213E+02  0.00000000000E+00 0.  1.
</event>
<event>
 5    1  0.9041167E-005  0.9118800E+02  0.7818608E-02  0.1130116E+00
         25   -1    0    0    0    0  0.00000000000E+00  0.00000000000E+00  0.99999998245E-14  0.12500000000E+03  0.12500000000E+03 0.  0.
        -13    1    3    3    0    0 -0.47835671396E+02 -0.86577468624E+01  0.25268665273E+02  0.54787997293E+02  0.10566000000E+00 0.  1.
         23    2    1    0    0    0 -0.30836167617E+02 -0.62281144401E+01 -0.82742537400E+01  0.92471214014E+02  0.86560981415E+02 0.  0.
         13    1    3    3    0    0  0.16999503780E+02  0.24296324223E+01 -0.33542919013E+02  0.37683216721E+02  0.10566000000E+00 0. -1.
         22    1    1    0    0    0  0.30836167617E+02  0.62281144401E+01  0.82742537400E+01  0.32528785986E+02  0.00000000000E+00 0.  1.
</event>
<event>
 5    1  0.9041167E-005  0.9118800E+02  0.7818608E-02  0.1130116E+00
         25   -1    0    0    0    0  0.00000000000E+00  0.00000000000E+00  0.99999998245E-14  0.12500000000E+03  0.12500000000E+03 0.  0.
        -13    1    3    3    0    0 -0.21353201070E+01  0.46734620710E+02  0.42748854957E+01  0.46978401153E+02  0.10566000000E+00 0. -1.
         23    2    1    0    0    0 -0.23735825830E+02  0.91984129783E+01 -0.16142091008E+02  0.94857549349E+02  0.89941021437E+02 0.  0.
         13    1    3    3    0    0 -0.21600505723E+02 -0.37536207731E+02 -0.20416976504E+02  0.47879148196E+02  0.10566000000E+00 0.  1.
         22    1    1    0    0    0  0.23735825830E+02 -0.91984129783E+01  0.16142091008E+02  0.30142450651E+02  0.00000000000E+00 0.  1.
</event>
<event>
 5    1  0.9041167E-005  0.9118800E+02  0.7818608E-02  0.1130116E+00
         25   -1    0    0    0    0  0.00000000000E+00  0.00000000000E+00  0.99999998245E-14  0.12500000000E+03  0.12500000000E+03 0.  0.
        -13    1    3    3    0    0  0.32059127685E+01  0.26863135729E+02 -0.54546728751E+02  0.60887295221E+02  0.10566000000E+00 0. -1.
         23    2    1    0    0    0 -0.32732365302E+01  0.40574283714E+01 -0.28164149996E+02  0.96357441675E+02  0.92001958777E+02 0.  0.
         13    1    3    3    0    0 -0.64791492987E+01 -0.22805707358E+02  0.26382578754E+02  0.35470146454E+02  0.10566000000E+00 0.  1.
         22    1    1    0    0    0  0.32732365302E+01 -0.40574283714E+01  0.28164149996E+02  0.28642558325E+02  0.00000000000E+00 0. -1.
</event>
<event>
 5    1  0.9041167E-005  0.9118800E+02  0.7818608E-02  0.1130116E+00
         25   -1    0    0    0    0  0.00000000000E+00  0.00000000000E+00  0.99999998245E-14  0.12500000000E+03  0.12500000000E+03 0.  0.
        -13    1    3    3    0    0  0.16135205263E+02  0.11702702776E+02 -0.42725439429E+02  0.47146287655E+02  0.10566000000E+00 0.  1.
         23    2    1    0    0    0  0.24260986159E+02  0.16428965755E+02  0.45510358460E+01  0.95348384657E+02  0.90620616662E+02 0.  0.
         13    1    3    3    0    0  0.81257808960E+01  0.47262629791E+01  0.47276475275E+02  0.48202097002E+02  0.10566000000E+00 0. -1.
         22    1    1    0    0    0 -0.24260986159E+02 -0.16428965755E+02 -0.45510358460E+01  0.29651615343E+02  0.00000000000E+00 0.  1.
</event>
<event>
 5    1  0.9041167E-005  0.9118800E+02  0.7818608E-02  0.1130116E+00
         25   -1    0    0    0    0  0.00000000000E+00  0.00000000000E+00  0.99999998245E-14  0.12500000000E+03  0.12500000000E+03 0.  0.
        -13    1    3    3    0    0 -0.10271738789E+02  0.58642495100E+02 -0.84654959541E+01  0.60134238460E+02  0.10566000000E+00 0.  1.
         23    2    1    0    0    0  0.20160093250E+01  0.25830327459E+02 -0.13911329684E+02  0.95592599506E+02  0.90956857226E+02 0.  0.
         13    1    3    3    0    0  0.12287748114E+02 -0.32812167641E+02 -0.54458337297E+01  0.35458361046E+02  0.10566000000E+00 0. -1.
         22    1    1    0    0    0 -0.20160093250E+01 -0.25830327459E+02  0.13911329684E+02  0.29407400494E+02  0.00000000000E+00 0.  1.
</event>
<event>
 5    1  0.9041167E-005  0.9118800E+02  0.7818608E-02  0.1130116E+00
         25   -1    0    0    0    0  0.00000000000E+00  0.00000000000E+00  0.99999998245E-14  0.12500000000E+03  0.12500000000E+03 0.  0.
        -13    1    3    3    0    0  0.39338789946E+01  0.60304990407E+01 -0.59765904541E+02  0.60198146419E+02  0.10566000000E+00 0.  1.
         23    2    1    0    0    0 -0.92909498532E+01 -0.18336640254E+01 -0.26741430727E+02  0.96631210984E+02  0.92373171137E+02 0.  0.
         13    1    3    3    0    0 -0.13224828848E+02 -0.78641630661E+01  0.33024473815E+02  0.36433064565E+02  0.10566000000E+00 0. -1.
         22    1    1    0    0    0  0.92909498532E+01  0.18336640254E+01  0.26741430727E+02  0.28368789016E+02  0.00000000000E+00 0.  1.
</event>
<event>
 5    1  0.9041167E-005  0.9118800E+02  0.7818608E-02  0.1130116E+00
         25   -1    0    0    0    0  0.00000000000E+00  0.00000000000E+00  0.99999998245E-14  0.12500000000E+03  0.12500000000E+03 0.  0.
        -13    1    3    3    0    0  0.44260421490E+01  0.16398805406E+02  0.34760737381E+02  0.38688896278E+02  0.10566000000E+00 0.  1.
         23    2    1    0    0    0 -0.21618112813E+02 -0.17311299814E+02 -0.48792070530E+01  0.96878290160E+02  0.92706917434E+02 0.  0.
         13    1    3    3    0    0 -0.26044154962E+02 -0.33710105220E+02 -0.39639944434E+02  0.58189393883E+02  0.10566000000E+00 0. -1.
         22    1    1    0    0    0  0.21618112813E+02  0.17311299814E+02  0.48792070530E+01  0.28121709840E+02  0.00000000000E+00 0. -1.
</event>
<event>
 5    1  0.9041167E-005  0.9118800E+02  0.7818608E-02  0.1130116E+00
         25   -1    0    0    0    0  0.00000000000E+00  0.00000000000E+00  0.99999998245E-14  0.12500000000E+03  0.12500000000E+03 0.  0.
        -13    1    3    3    0    0 -0.55572131887E+02  0.12778111796E+02  0.17700585364E+00  0.57022666358E+02  0.10566000000E+00 0. -1.
         23    2    1    0    0    0 -0.21141719958E+02 -0.13127351864E+02 -0.27139576906E+00  0.10011278751E+03  0.96970082386E+02 0.  0.
         13    1    3    3    0    0  0.34430411928E+02 -0.25905463660E+02 -0.44840162270E+00  0.43090121154E+02  0.10566000000E+00 0.  1.
         22    1    1    0    0    0  0.21141719958E+02  0.13127351864E+02  0.27139576906E+00  0.24887212488E+02  0.00000000000E+00 0. -1.
</event>
<event>
 5    1  0.9041167E-005  0.9118800E+02  0.7818608E-02  0.1130116E+00
         25   -1    0    0    0    0  0.00000000000E+00  0.00000000000E+00  0.99999998245E-14  0.12500000000E+03  0.12500000000E+03 0.  0.
        -13    1    3    3    0    0  0.37941996908E+01 -0.32218555385E+02 -0.19517215302E+02  0.37859795557E+02  0.10566000000E+00 0.  1.
         23    2    1    0    0    0  0.28043600287E+02  0.12053127688E+02  0.51532527477E+01  0.94043943759E+02  0.88803073932E+02 0.  0.
         13    1    3    3    0    0  0.24249400596E+02  0.44271683073E+02  0.24670468050E+02  0.56184148202E+02  0.10566000000E+00 0. -1.
         22    1    1    0    0    0 -0.28043600287E+02 -0.12053127688E+02 -0.51532527477E+01  0.30956056241E+02  0.00000000000E+00 0. -1.
</event>
<event>
 5    1  0.9041167E-005  0.9118800E+02  0.7818608E-02  0.1130116E+00
         25   -1    0    0    0    0  0.00000000000E+00  0.00000000000E+00  0.99999998245E-14  0.12500000000E+03  0.12500000000E+03 0.  0.
        -13    1    3    3    0    0  0.23640434404E+02  0.15741049931E+02 -0.20906925991E+02  0.35267003136E+02  0.10566000000E+00 0. -1.
         23    2    1    0    0    0 -0.20228579579E+02  0.29468062993E+02 -0.24948720633E+02  0.81411001049E+02  0.68758637728E+02 0.  0.
         13    1    3    3    0    0 -0.43869013983E+02  0.13727013062E+02 -0.40417946424E+01  0.46143997913E+02  0.10566000000E+00 0.  1.
         22    1    1    0    0    0  0.20228579579E+02 -0.29468062993E+02  0.24948720633E+02  0.43588998951E+02  0.00000000000E+00 0. -1.
</event>
<event>
 5    1  0.9041167E-005  0.9118800E+02  0.7818608E-02  0.1130116E+00
         25   -1    0    0    0    0  0.00000000000E+00  0.00000000000E+00  0.99999998245E-14  0.12500000000E+03  0.12500000000E+03 0.  0.
        -13    1    3    3    0    0 -0.16169457135E+02 -0.33562057963E+02 -0.16052739647E+02  0.40565560429E+02  0.10566000000E+00 0.  1.
         23    2    1    0    0    0  0.17644038390E+02 -0.50725033359E+01  0.20171338855E+02  0.97725006104E+02  0.93841630027E+02 0.  0.
         13    1    3    3    0    0  0.33813495526E+02  0.28489554627E+02  0.36224078502E+02  0.57159445675E+02  0.10566000000E+00 0. -1.
         22    1    1    0    0    0 -0.17644038390E+02  0.50725033359E+01 -0.20171338855E+02  0.27274993896E+02  0.00000000000E+00 0. -1.
</event>
<event>
 5    1  0.9041167E-005  0.9118800E+02  0.7818608E-02  0.1130116E+00
         25   -1    0    0    0    0  0.00000000000E+00  0.00000000000E+00  0.99999998245E-14  0.12500000000E+03  0.12500000000E+03 0.  0.
        -13    1    3    3    0    0  0.32784875880E+02 -0.18763720595E+02  0.15680032026E+02  0.40899876105E+02  0.10566000000E+00 0. -1.
         23    2    1    0    0    0 -0.36779692605E-01  0.19811156815E+02 -0.15030933636E+02  0.10013210397E+03  0.96994979210E+02 0.  0.
         13    1    3    3    0    0 -0.32821655572E+02  0.38574877410E+02 -0.30710965662E+02  0.59232227863E+02  0.10566000000E+00 0.  1.
         22    1    1    0    0    0  0.36779692605E-01 -0.19811156815E+02  0.15030933636E+02  0.24867896032E+02  0.00000000000E+00 0.  1.
</event>
<event>
 5    1  0.9041167E-005  0.9118800E+02  0.7818608E-02  0.1130116E+00
         25   -1    0    0    0    0  0.00000000000E+00  0.00000000000E+00  0.99999998245E-14  0.12500000000E+03  0.12500000000E+03 0.  0.
        -13    1    3    3    0    0 -0.91321136846E+01 -0.30730184850E+01 -0.41923398786E+02  0.43016525578E+02  0.10566000000E+00 0. -1.
         23    2    1    0    0    0 -0.42026968495E+01  0.29454623434E+02 -0.13988545593E+01  0.95214193035E+02  0.90435326388E+02 0.  0.
         13    1    3    3    0    0  0.49294168352E+01  0.32527641919E+02  0.40524544227E+02  0.52197667457E+02  0.10566000000E+00 0.  1.
         22    1    1    0    0    0  0.42026968495E+01 -0.29454623434E+02  0.13988545593E+01  0.29785806965E+02  0.00000000000E+00 0.  1.
</event>
<event>
 5    1  0.9041167E-005  0.9118800E+02  0.7818608E-02  0.1130116E+00
         25   -1    0    0    0    0  0.00000000000E+00  0.00000000000E+00  0.99999998245E-14  0.12500000000E+03  0.12500000000E+03 0.  0.
        -13    1    3    3    0    0 -0.82112904975E+01 -0.25738453152E+02 -0.22709691760E+02  0.35293547940E+02  0.10566000000E+00 0.  1.
         23    2    1    0    0    0  0.23451851904E+02  0.14648422911E+02  0.93586722641E+01  0.95808384799E+02  0.91252924335E+02 0.  0.
         13    1    3    3    0    0  0.31663142401E+02  0.40386876063E+02  0.32068364024E+02  0.60514836859E+02  0.10566000000E+00 0. -1.
         22    1    1    0    0    0 -0.23451851904E+02 -0.14648422911E+02 -0.93586722641E+01  0.29191615201E+02  0.00000000000E+00 0. -1.
</event>
<event>
 5    1  0.9041167E-005  0.9118800E+02  0.7818608E-02  0.1130116E+00
         25   -1    0    0    0    0  0.00000000000E+00  0.00000000000E+00  0.99999998245E-14  0.12500000000E+03  0.12500000000E+03 0.  0.
        -13    1    3    3    0    0  0.39262478538E+02 -0.13396755220E+02  0.15466122975E+02  0.44274455336E+02  0.10566000000E+00 0.  1.
         23    2    1    0    0    0  0.11641629556E+02  0.25194399520E+02 -0.63854469263E+01  0.96520898218E+02  0.92223774345E+02 0.  0.
         13    1    3    3    0    0 -0.27620848982E+02  0.38591154739E+02 -0.21851569901E+02  0.52246442882E+02  0.10566000000E+00 0. -1.
         22    1    1    0    0    0 -0.11641629556E+02 -0.25194399520E+02  0.63854469263E+01  0.28479101782E+02  0.00000000000E+00 0.  1.
</event>
<event>
 5    1  0.9041167E-005  0.9118800E+02  0.7818608E-02  0.1130116E+00
         25   -1    0    0    0    0  0.00000000000E+00  0.00000000000E+00  0.99999998245E-14  0.12500000000E+03  0.12500000000E+03 0.  0.
        -13    1    3    3    0    0  0.98960727532E+00 -0.46588309076E+02 -0.36186062136E+02  0.58999085773E+02  0.10566000000E+00 0.  1.
         23    2    1    0    0    0 -0.10378797080E+02 -0.13943299254E+02 -0.23387874514E+02  0.95860204235E+02  0.91323880003E+02 0.  0.
         13    1    3    3    0    0 -0.11368404355E+02  0.32645009822E+02  0.12798187622E+02  0.36861118462E+02  0.10566000000E+00 0. -1.
         22    1    1    0    0    0  0.10378797080E+02  0.13943299254E+02  0.23387874514E+02  0.29139795765E+02  0.00000000000E+00 0.  1.
</event>
<event>
 5    1  0.9041167E-005  0.9118800E+02  0.7818608E-02  0.1130116E+00
         25   -1    0    0    0    0  0.00000000000E+00  0.00000000000E+00  0.99999998245E-14  0.12500000000E+03  0.12500000000E+03 0.  0.
        -13    1    3    3    0    0  0.55003374389E+02 -0.34866365553E+01 -0.15442678420E+02  0.57236485824E+02  0.10566000000E+00 0.  1.
         23    2    1    0    0    0  0.25113218487E+02 -0.14747723790E+02  0.54051337974E+01  0.95379321899E+02  0.90663280742E+02 0.  0.
         13    1    3    3    0    0 -0.29890155902E+02 -0.11261087235E+02  0.20847812218E+02  0.38142836075E+02  0.10566000000E+00 0. -1.
         22    1    1    0    0    0 -0.25113218487E+02  0.14747723790E+02 -0.54051337974E+01  0.29620678101E+02  0.00000000000E+00 0.  1.
</event>
<event>
 5    1  0.9041167E-005  0.9118800E+02  0.7818608E-02  0.1130116E+00
         25   -1    0    0    0    0  0.00000000000E+00  0.00000000000E+00  0.99999998245E-14  0.12500000000E+03  0.12500000000E+03 0.  0.
        -13    1    3    3    0    0 -0.42179460769E+02  0.27718614715E+02  0.97037548912E+00  0.50481494680E+02  0.10566000000E+00 0.  1.
         23    2    1    0    0    0 -0.39178298076E+00  0.28481205620E+02 -0.11777631745E+02  0.94177197126E+02  0.88990444889E+02 0.  0.
         13    1    3    3    0    0  0.41787677788E+02  0.76259090508E+00 -0.12748007234E+02  0.43695702447E+02  0.10566000000E+00 0. -1.
         22    1    1    0    0    0  0.39178298076E+00 -0.28481205620E+02  0.11777631745E+02  0.30822802874E+02  0.00000000000E+00 0.  1.
</event>
<event>
 5    1  0.9041167E-005  0.9118800E+02  0.7818608E-02  0.1130116E+00
         25   -1    0    0    0    0  0.00000000000E+00  0.00000000000E+00  0.99999998245E-14  0.12500000000E+03  0.12500000000E+03 0.  0.
        -13    1    3    3    0    0  0.15821231024E+02  0.68178688393E+01  0.31232151100E+02  0.35668657291E+02  0.10566000000E+00 0.  1.
         23    2    1    0    0    0 -0.96649766472E+01  0.19311866134E+02 -0.20849249841E+02  0.94982485678E+02  0.90114490619E+02 0.  0.
         13    1    3    3    0    0 -0.25486207671E+02  0.12493997294E+02 -0.52081400941E+02  0.59313828386E+02  0.10566000000E+00 0. -1.
         22    1    1    0    0    0  0.96649766472E+01 -0.19311866134E+02  0.20849249841E+02  0.30017514322E+02  0.00000000000E+00 0. -1.
</event>
<event>
 5    1  0.9041167E-005  0.9118800E+02  0.7818608E-02  0.1130116E+00
         25   -1    0    0    0    0  0.00000000000E+00  0.00000000000E+00  0.99999998245E-14  0.12500000000E+03  0.12500000000E+03 0.  0.
        -13    1    3    3    0    0 -0.32260464469E+02  0.42682434457E+02  0.74798473816E+01  0.54023023424E+02  0.10566000000E+00 0. -1.
         23    2    1    0    0    0 -0.55300013327E+01  0.10428197596E+02  0.23363278436E+02  0.98824228777E+02  0.95294581138E+02 0.  0.
         13    1    3    3    0    0  0.26730463137E+02 -0.32254236861E+02  0.15883431054E+02  0.44801205353E+02  0.10566000000E+00 0.  1.
         22    1    1    0    0    0  0.55300013327E+01 -0.10428197596E+02 -0.23363278436E+02  0.26175771223E+02  0.00000000000E+00 0. -1.
</event>
<event>
 5    1  0.9041167E-005  0.9118800E+02  0.7818608E-02  0.1130116E+00
         25   -1    0    0    0    0  0.00000000000E+00  0.00000000000E+00  0.99999998245E-14  0.12500000000E+03  0.12500000000E+03 0.  0.
        -13    1    3    3    0    0 -0.23017027302E+02  0.30301482539E+02  0.79308269983E+01  0.38869944311E+02  0.10566000000E+00 0.  1.
         23    2    1    0    0    0 -0.49862855527E+01 -0.24629384548E+02  0.12630736621E+02  0.96875186500E+02  0.92702732565E+02 0.  0.
         13    1    3    3    0    0  0.18030741749E+02 -0.54930867086E+02  0.46999096226E+01  0.58005242189E+02  0.10566000000E+00 0. -1.
         22    1    1    0    0    0  0.49862855527E+01  0.24629384548E+02 -0.12630736621E+02  0.28124813500E+02  0.00000000000E+00 0. -1.
</event>
<event>
 5    1  0.9041167E-005  0.9118800E+02  0.7818608E-02  0.1130116E+00
         25   -1    0    0    0    0  0.00000000000E+00  0.00000000000E+00  0.99999998245E-14  0.12500000000E+03  0.12500000000E+03 0.  0.
        -13    1    3    3    0    0  0.18778560770E+02 -0.49673851713E+02  0.19595911525E+02  0.56605095187E+02  0.10566000000E+00 0. -1.
         23    2    1    0    0    0  0.16309998965E+02 -0.21949261890E+02 -0.87070007258E+01  0.96301602390E+02  0.91926060491E+02 0.  0.
         13    1    3    3    0    0 -0.24685618045E+01  0.27724589823E+02 -0.28302912250E+02  0.39696507203E+02  0.10566000000E+00 0.  1.
         22    1    1    0    0    0 -0.16309998965E+02  0.21949261890E+02  0.87070007258E+01  0.28698397610E+02  0.00000000000E+00 0. -1.
</event>
<event>
 5    1  0.9041167E-005  0.9118800E+02  0.7818608E-02  0.1130116E+00
         25   -1    0    0    0    0  0.00000000000E+00  0.00000000000E+00  0.99999998245E-14  0.12500000000E+03  0.12500000000E+03 0.  0.
        -13    1    3    3    0    0  0.23513020643E+02 -0.17268375915E+02 -0.17256731558E+02  0.33894909568E+02  0.10566000000E+00 0.  1.
         23    2    1    0    0    0 -0.23520795352E+02  0.12748753438E+02  0.10556341978E+02  0.96239004117E+02  0.91840900634E+02 0.  0.
         13    1    3    3    0    0 -0.47033815995E+02  0.30017129353E+02  0.27813073536E+02  0.62344094550E+02  0.10566000000E+00 0. -1.
         22    1    1    0    0    0  0.23520795352E+02 -0.12748753438E+02 -0.10556341978E+02  0.28760995883E+02  0.00000000000E+00 0. -1.
</event>
<event>
 5    1  0.9041167E-005  0.9118800E+02  0.7818608E-02  0.1130116E+00
         25   -1    0    0    0    0  0.00000000000E+00  0.00000000000E+00  0.99999998245E-14  0.12500000000E+03  0.12500000000E+03 0.  0.
        -13    1    3    3    0    0 -0.23082349178E+02  0.37845734060E+02  0.37372030320E+02  0.57980809277E+02  0.10566000000E+00 0. -1.
         23    2    1    0    0    0 -0.12586059554E+02  0.26657712903E+02  0.33137526379E+01  0.95334809812E+02  0.90601889898E+02 0.  0.
         13    1    3    3    0    0  0.10496289623E+02 -0.11188021157E+02 -0.34058277683E+02  0.37354000536E+02  0.10566000000E+00 0.  1.
         22    1    1    0    0    0  0.12586059554E+02 -0.26657712903E+02 -0.33137526379E+01  0.29665190188E+02  0.00000000000E+00 0. -1.
</event>
<event>
 5    1  0.9041167E-005  0.9118800E+02  0.7818608E-02  0.1130116E+00
         25   -1    0    0    0    0  0.00000000000E+00  0.00000000000E+00  0.99999998245E-14  0.12500000000E+03  0.12500000000E+03 0.  0.
        -13    1    3    3    0    0 -0.41805341400E+02  0.26564873881E+00 -0.36189582461E+02  0.55294250891E+02  0.10566000000E+00 0.  1.
         23    2    1    0    0    0 -0.60747004500E+01 -0.14619864103E+02 -0.24683477522E+02  0.95675667535E+02  0.91070944234E+02 0.  0.
         13    1    3    3    0    0  0.35730640950E+02 -0.14885512842E+02  0.11506104939E+02  0.40381416644E+02  0.10566000000E+00 0. -1.
         22    1    1    0    0    0  0.60747004500E+01  0.14619864103E+02  0.24683477522E+02  0.29324332465E+02  0.00000000000E+00 0.  1.
</event>
<event>
 5    1  0.9041167E-005  0.9118800E+02  0.7818608E-02  0.1130116E+00
         25   -1    0    0    0    0  0.00000000000E+00  0.00000000000E+00  0.99999998245E-14  0.12500000000E+03  0.12500000000E+03 0.  0.
        -13    1    3    3    0    0  0.28476087460E+02  0.44227162685E+02  0.30843767511E+02  0.60977689645E+02  0.10566000000E+00 0.  1.
         23    2    1    0    0    0  0.21761568354E+02  0.16676592805E+02  0.11704327597E+02  0.95189500351E+02  0.90401189637E+02 0.  0.
         13    1    3    3    0    0 -0.67145191061E+01 -0.27550569880E+02 -0.19139439913E+02  0.34211810706E+02  0.10566000000E+00 0. -1.
         22    1    1    0    0    0 -0.21761568354E+02 -0.16676592805E+02 -0.11704327597E+02  0.29810499649E+02  0.00000000000E+00 0.  1.
</event>
<event>
 5    1  0.9041167E-005  0.9118800E+02  0.7818608E-02  0.1130116E+00
         25   -1    0    0    0    0  0.00000000000E+00  0.00000000000E+00  0.99999998245E-14  0.12500000000E+03  0.12500000000E+03 0.  0.
        -13    1    3    3    0    0  0.42749288717E+02 -0.10437177855E+02 -0.38004233042E+02  0.58144382881E+02  0.10566000000E+00 0. -1.
         23    2    1    0    0    0  0.18529904933E+02 -0.20477423644E+02 -0.12624227978E+02  0.94634667992E+02  0.89630725748E+02 0.  0.
         13    1    3    3    0    0 -0.24219383785E+02 -0.10040245789E+02  0.25380005064E+02  0.36490285111E+02  0.10566000000E+00 0.  1.
         22    1    1    0    0    0 -0.18529904933E+02  0.20477423644E+02  0.12624227978E+02  0.30365332008E+02  0.00000000000E+00 0. -1.
</event>
<event>
 5    1  0.9041167E-005  0.9118800E+02  0.7818608E-02  0.1130116E+00
         25   -1    0    0    0    0  0.00000000000E+00  0.00000000000E+00  0.99999998245E-14  0.12500000000E+03  0.12500000000E+03 0.  0.
        -13    1    3    3    0    0  0.26114103224E+02  0.46046943759E+02  0.81782147180E+01  0.53564557094E+02  0.10566000000E+00 0.  1.
         23    2    1    0    0    0  0.24242002858E+02  0.94655644865E+01 -0.13035419457E+02  0.95893406691E+02  0.91369314722E+02 0.  0.
         13    1    3    3    0    0 -0.18721003653E+01 -0.36581379273E+02 -0.21213634175E+02  0.42328849597E+02  0.10566000000E+00 0. -1.
         22    1    1    0    0    0 -0.24242002858E+02 -0.94655644865E+01  0.13035419457E+02  0.29106593309E+02  0.00000000000E+00 0. -1.
</event>
<event>
 5    1  0.9041167E-005  0.9118800E+02  0.7818608E-02  0.1130116E+00
         25   -1    0    0    0    0  0.00000000000E+00  0.00000000000E+00  0.99999998245E-14  0.12500000000E+03  0.12500000000E+03 0.  0.
        -13    1    3    3    0    0 -0.98030162579E+00  0.39126840238E+02 -0.19580056393E+01  0.39188207006E+02  0.10566000000E+00 0.  1.
         23    2    1    0    0    0  0.29471287337E+01 -0.10740698541E+02 -0.27482729189E+02  0.95346187823E+02  0.90617586350E+02 0.  0.
         13    1    3    3    0    0  0.39274303595E+01 -0.49867538779E+02 -0.25524723550E+02  0.56157980817E+02  0.10566000000E+00 0. -1.
         22    1    1    0    0    0 -0.29471287337E+01  0.10740698541E+02  0.27482729189E+02  0.29653812177E+02  0.00000000000E+00 0. -1.
</event>
<event>
 5    1  0.9041167E-005  0.9118800E+02  0.7818608E-02  0.1130116E+00
         25   -1    0    0    0    0  0.00000000000E+00  0.00000000000E+00  0.99999998245E-14  0.12500000000E+03  0.12500000000E+03 0.  0.
        -13    1    3    3    0    0  0.52696272028E+02 -0.19532209680E+02  0.11397463630E+02  0.57343854438E+02  0.10566000000E+00 0.  1.
         23    2    1    0    0    0  0.27757583105E+02  0.16661098848E+01 -0.88341933963E+01  0.95822914557E+02  0.91272825305E+02 0.  0.
         13    1    3    3    0    0 -0.24938688923E+02  0.21198319565E+02 -0.20231657026E+02  0.38479060119E+02  0.10566000000E+00 0. -1.
         22    1    1    0    0    0 -0.27757583105E+02 -0.16661098848E+01  0.88341933963E+01  0.29177085443E+02  0.00000000000E+00 0.  1.
</event>
<event>
 5    1  0.9041167E-005  0.9118800E+02  0.7818608E-02  0.1130116E+00
         25   -1    0    0    0    0  0.00000000000E+00  0.00000000000E+00  0.99999998245E-14  0.12500000000E+03  0.12500000000E+03 0.  0.
        -13    1    3    3    0    0 -0.10120253740E+02  0.30192041438E+02 -0.11271246130E+02  0.33779151193E+02  0.10566000000E+00 0.  1.
         23    2    1    0    0    0 -0.14762802885E+01 -0.15806579626E+02  0.26624899031E+02  0.94001409526E+02  0.88743182170E+02 0.  0.
         13    1    3    3    0    0  0.86439734515E+01 -0.45998621064E+02  0.37896145160E+02  0.60222258334E+02  0.10566000000E+00 0. -1.
         22    1    1    0    0    0  0.14762802885E+01  0.15806579626E+02 -0.26624899031E+02  0.30998590474E+02  0.00000000000E+00 0. -1.
</event>
<event>
 5    1  0.9041167E-005  0.9118800E+02  0.7818608E-02  0.1130116E+00
         25   -1    0    0    0    0  0.00000000000E+00  0.00000000000E+00  0.99999998245E-14  0.12500000000E+03  0.12500000000E+03 0.  0.
        -13    1    3    3    0    0 -0.49684838560E+02 -0.21862835871E+02 -0.30623834005E+01  0.54368705440E+02  0.10566000000E+00 0. -1.
         23    2    1    0    0    0 -0.24911813072E+02  0.32204040695E+01  0.16749485413E+02  0.94808698363E+02  0.89873102710E+02 0.  0.
         13    1    3    3    0    0  0.24773025488E+02  0.25083239941E+02  0.19811868813E+02  0.40439992923E+02  0.10566000000E+00 0.  1.
         22    1    1    0    0    0  0.24911813072E+02 -0.32204040695E+01 -0.16749485413E+02  0.30191301637E+02  0.00000000000E+00 0. -1.
</event>
<event>
 5    1  0.9041167E-005  0.9118800E+02  0.7818608E-02  0.1130116E+00
         25   -1    0    0    0    0  0.00000000000E+00  0.00000000000E+00  0.99999998245E-14  0.12500000000E+03  0.12500000000E+03 0.  0.
        -13    1    3    3    0    0  0.58675643500E+01  0.84125012796E+01 -0.48946093532E+02  0.50009296388E+02  0.10566000000E+00 0.  1.
         23    2    1    0    0    0 -0.51300930821E+01  0.23336641197E+02 -0.13733150056E+01  0.10106670371E+03  0.98192035962E+02 0.  0.
         13    1    3    3    0    0 -0.10997657432E+02  0.14924139918E+02  0.47572778526E+02  0.51057407318E+02  0.10566000000E+00 0. -1.
         22    1    1    0    0    0  0.51300930821E+01 -0.23336641197E+02  0.13733150056E+01  0.23933296294E+02  0.00000000000E+00 0.  1.
</event>
<event>
 5    1  0.9041167E-005  0.9118800E+02  0.7818608E-02  0.1130116E+00
         25   -1    0    0    0    0  0.00000000000E+00  0.00000000000E+00  0.99999998245E-14  0.12500000000E+03  0.12500000000E+03 0.  0.
        -13    1    3    3    0    0  0.31067500508E+02 -0.47138822745E+02 -0.26660445047E+01  0.56518821245E+02  0.10566000000E+00 0. -1.
         23    2    1    0    0    0  0.14467141731E+02 -0.14254583850E+02 -0.19341126754E+02  0.96954135158E+02  0.92809125572E+02 0.  0.
         13    1    3    3    0    0 -0.16600358776E+02  0.32884238895E+02 -0.16675082250E+02  0.40435313913E+02  0.10566000000E+00 0.  1.
         22    1    1    0    0    0 -0.14467141731E+02  0.14254583850E+02  0.19341126754E+02  0.28045864842E+02  0.00000000000E+00 0. -1.
</event>
<event>
 5    1  0.9041167E-005  0.9118800E+02  0.7818608E-02  0.1130116E+00
         25   -1    0    0    0    0  0.00000000000E+00  0.00000000000E+00  0.99999998245E-14  0.12500000000E+03  0.12500000000E+03 0.  0.
        -13    1    3    3    0    0 -0.24204226202E+02  0.28755630814E+02 -0.21960303423E+02  0.43531562802E+02  0.10566000000E+00 0.  1.
         23    2    1    0    0    0  0.23835398395E+02  0.90720331448E+01 -0.13537487058E+02  0.96126282576E+02  0.91687352694E+02 0.  0.
         13    1    3    3    0    0  0.48039624597E+02 -0.19683597669E+02  0.84228163644E+01  0.52594719774E+02  0.10566000000E+00 0. -1.
         22    1    1    0    0    0 -0.23835398395E+02 -0.90720331448E+01  0.13537487058E+02  0.28873717424E+02  0.00000000000E+00 0. -1.
</event>
<event>
 5    1  0.9041167E-005  0.9118800E+02  0.7818608E-02  0.1130116E+00
         25   -1    0    0    0    0  0.00000000000E+00  0.00000000000E+00  0.99999998245E-14  0.12500000000E+03  0.12500000000E+03 0.  0.
        -13    1    3    3    0    0 -0.52506943604E+02  0.16883850772E+02 -0.18581278972E+02  0.58200675562E+02  0.10566000000E+00 0.  1.
         23    2    1    0    0    0 -0.37852778969E+02  0.14931324456E+01 -0.24029261211E+02  0.80139463729E+02  0.66406821429E+02 0.  0.
         13    1    3    3    0    0  0.14654164635E+02 -0.15390718327E+02 -0.54479822383E+01  0.21938788168E+02  0.10566000000E+00 0. -1.
         22    1    1    0    0    0  0.37852778969E+02 -0.14931324456E+01  0.24029261211E+02  0.44860536271E+02  0.00000000000E+00 0.  1.
</event>
<event>
 5    1  0.9041167E-005  0.9118800E+02  0.7818608E-02  0.1130116E+00
         25   -1    0    0    0    0  0.00000000000E+00  0.00000000000E+00  0.99999998245E-14  0.12500000000E+03  0.12500000000E+03 0.  0.
        -13    1    3    3    0    0 -0.30707241208E+02  0.39515771477E+02  0.65901812769E+01  0.50476455019E+02  0.10566000000E+00 0. -1.
         23    2    1    0    0    0 -0.20649837639E+02  0.26862856436E+02  0.30549885835E+02  0.79378465886E+02  0.64958575042E+02 0.  0.
         13    1    3    3    0    0  0.10057403569E+02 -0.12652915041E+02  0.23959704558E+02  0.28902010867E+02  0.10566000000E+00 0.  1.
         22    1    1    0    0    0  0.20649837639E+02 -0.26862856436E+02 -0.30549885835E+02  0.45621534114E+02  0.00000000000E+00 0. -1.
</event>
<event>
 5    1  0.9041167E-005  0.9118800E+02  0.7818608E-02  0.1130116E+00
         25   -1    0    0    0    0  0.00000000000E+00  0.00000000000E+00  0.99999998245E-14  0.12500000000E+03  0.12500000000E+03 0.  0.
        -13    1    3    3    0    0 -0.17899729775E+02  0.50620029373E+02 -0.11699395882E+02  0.54951567109E+02  0.10566000000E+00 0.  1.
         23    2    1    0    0    0 -0.26056998041E+02  0.12118677747E+02  0.82022178938E+00  0.96251047653E+02  0.91857291019E+02 0.  0.
         13    1    3    3    0    0 -0.81572682663E+01 -0.38501351626E+02  0.12519617671E+02  0.41299480545E+02  0.10566000000E+00 0. -1.
         22    1    1    0    0    0  0.26056998041E+02 -0.12118677747E+02 -0.82022178938E+00  0.28748952347E+02  0.00000000000E+00 0.  1.
</event>
<event>
 5    1  0.9041167E-005  0.9118800E+02  0.7818608E-02  0.1130116E+00
         25   -1    0    0    0    0  0.00000000000E+00  0.00000000000E+00  0.99999998245E-14  0.12500000000E+03  0.12500000000E+03 0.  0.
        -13    1    3    3    0    0  0.17055784018E+02  0.50265482025E+02 -0.11927320034E+01  0.53093805904E+02  0.10566000000E+00 0. -1.
         23    2    1    0    0    0  0.22709418677E+02  0.10637471168E+02 -0.15402175559E+02  0.95570414521E+02  0.90926363780E+02 0.  0.
         13    1    3    3    0    0  0.56536346591E+01 -0.39628010858E+02 -0.14209443555E+02  0.42476608617E+02  0.10566000000E+00 0.  1.
         22    1    1    0    0    0 -0.22709418677E+02 -0.10637471168E+02  0.15402175559E+02  0.29429585479E+02  0.00000000000E+00 0. -1.
</event>
<event>
 5    1  0.9041167E-005  0.9118800E+02  0.7818608E-02  0.1130116E+00
         25   -1    0    0    0    0  0.00000000000E+00  0.00000000000E+00  0.99999998245E-14  0.12500000000E+03  0.12500000000E+03 0.  0.
        -13    1    3    3    0    0 -0.42094551486E+02 -0.26510689594E+02 -0.31150796224E+02  0.58695410357E+02  0.10566000000E+00 0.  1.
         23    2    1    0    0    0 -0.10578539647E+02 -0.56273539639E+01 -0.25370992753E+02  0.96941848119E+02  0.92792575294E+02 0.  0.
         13    1    3    3    0    0  0.31516011839E+02  0.20883335630E+02  0.57798034705E+01  0.38246437761E+02  0.10566000000E+00 0. -1.
         22    1    1    0    0    0  0.10578539647E+02  0.56273539639E+01  0.25370992753E+02  0.28058151881E+02  0.00000000000E+00 0.  1.
</event>
<event>
 5    1  0.9041167E-005  0.9118800E+02  0.7818608E-02  0.1130116E+00
         25   -1    0    0    0    0  0.00000000000E+00  0.00000000000E+00  0.99999998245E-14  0.12500000000E+03  0.12500000000E+03 0.  0.
        -13    1    3    3    0    0  0.29756327191E+02  0.49512454141E+02 -0.34377015528E+01  0.57868394473E+02  0.10566000000E+00 0.  1.
         23    2    1    0    0    0  0.42814441049E+01  0.23538128870E+02 -0.15841103421E+02  0.96306536773E+02  0.91932769964E+02 0.  0.
         13    1    3    3    0    0 -0.25474883086E+02 -0.25974325270E+02 -0.12403401869E+02  0.38438142300E+02  0.10566000000E+00 0. -1.
         22    1    1    0    0    0 -0.42814441049E+01 -0.23538128870E+02  0.15841103421E+02  0.28693463227E+02  0.00000000000E+00 0.  1.
</event>
<event>
 5    1  0.9041167E-005  0.9118800E+02  0.7818608E-02  0.1130116E+00
         25   -1    0    0    0    0  0.00000000000E+00  0.00000000000E+00  0.99999998245E-14  0.12500000000E+03  0.12500000000E+03 0.  0.
        -13    1    3    3    0    0 -0.29842539979E+02 -0.11060219141E+01 -0.20668695645E+02  0.36318130742E+02  0.10566000000E+00 0.  1.
         23    2    1    0    0    0  0.16466746423E+02  0.25800766807E+02  0.16654103928E+01  0.94346992034E+02  0.89228627741E+02 0.  0.
         13    1    3    3    0    0  0.46309286402E+02  0.26906788722E+02  0.22334106038E+02  0.58028861292E+02  0.10566000000E+00 0. -1.
         22    1    1    0    0    0 -0.16466746423E+02 -0.25800766807E+02 -0.16654103928E+01  0.30653007966E+02  0.00000000000E+00 0. -1.
</event>
<event>
 5    1  0.9041167E-005  0.9118800E+02  0.7818608E-02  0.1130116E+00
         25   -1    0    0    0    0  0.00000000000E+00  0.00000000000E+00  0.99999998245E-14  0.12500000000E+03  0.12500000000E+03 0.  0.
        -13    1    3    3    0    0 -0.40594369026E+02  0.25196786441E+02  0.29327152884E+02  0.56061340547E+02  0.10566000000E+00 0. -1.
         23    2    1    0    0    0 -0.29625465570E+02  0.71289964790E+01 -0.26726850806E+01  0.94411864284E+02  0.89319460763E+02 0.  0.
         13    1    3    3    0    0  0.10968903456E+02 -0.18067789962E+02 -0.31999837965E+02  0.38350523738E+02  0.10566000000E+00 0.  1.
         22    1    1    0    0    0  0.29625465570E+02 -0.71289964790E+01  0.26726850806E+01  0.30588135716E+02  0.00000000000E+00 0. -1.
</event>
<event>
 5    1  0.9041167E-005  0.9118800E+02  0.7818608E-02  0.1130116E+00
         25   -1    0    0    0    0  0.00000000000E+00  0.00000000000E+00  0.99999998245E-14  0.12500000000E+03  0.12500000000E+03 0.  0.
        -13    1    3    3    0    0  0.44164658822E+02 -0.24690825224E+02 -0.17737122096E+02  0.53616887297E+02  0.10566000000E+00 0. -1.
         23    2    1    0    0    0  0.81984740086E+01 -0.78568935048E+01 -0.28129335508E+02  0.94665114674E+02  0.89673176973E+02 0.  0.
         13    1    3    3    0    0 -0.35966184814E+02  0.16833931719E+02 -0.10392213413E+02  0.41048227377E+02  0.10566000000E+00 0.  1.
         22    1    1    0    0    0 -0.81984740086E+01  0.78568935048E+01  0.28129335508E+02  0.30334885326E+02  0.00000000000E+00 0. -1.
</event>
<event>
 5    1  0.9041167E-005  0.9118800E+02  0.7818608E-02  0.1130116E+00
         25   -1    0    0    0    0  0.00000000000E+00  0.00000000000E+00  0.99999998245E-14  0.12500000000E+03  0.12500000000E+03 0.  0.
        -13    1    3    3    0    0 -0.77942068566E+01 -0.18974187661E+02 -0.37010818780E+02  0.42315261180E+02  0.10566000000E+00 0. -1.
         23    2    1    0    0    0  0.27609844422E+02 -0.14458701641E+02  0.14072580010E+00  0.93833072562E+02  0.88505752020E+02 0.  0.
         13    1    3    3    0    0  0.35404051279E+02  0.45154860192E+01  0.37151544580E+02  0.51517811383E+02  0.10566000000E+00 0.  1.
         22    1    1    0    0    0 -0.27609844422E+02  0.14458701641E+02 -0.14072580010E+00  0.31166927438E+02  0.00000000000E+00 0.  1.
</event>
<event>
 5    1  0.9041167E-005  0.9118800E+02  0.7818608E-02  0.1130116E+00
         25   -1    0    0    0    0  0.00000000000E+00  0.00000000000E+00  0.99999998245E-14  0.12500000000E+03  0.12500000000E+03 0.  0.
        -13    1    3    3    0    0 -0.16820814187E+02 -0.21961345391E+02  0.38870129896E+02  0.47708894805E+02  0.10566000000E+00 0.  1.
         23    2    1    0    0    0 -0.26213701321E+02  0.94729901464E+00 -0.52006124655E+01  0.98258611061E+02  0.94549736992E+02 0.  0.
         13    1    3    3    0    0 -0.93928871334E+01  0.22908644406E+02 -0.44070742362E+02  0.50549716256E+02  0.10566000000E+00 0. -1.
         22    1    1    0    0    0  0.26213701321E+02 -0.94729901464E+00  0.52006124655E+01  0.26741388939E+02  0.00000000000E+00 0. -1.
</event>
<event>
 5    1  0.9041167E-005  0.9118800E+02  0.7818608E-02  0.1130116E+00
         25   -1    0    0    0    0  0.00000000000E+00  0.00000000000E+00  0.99999998245E-14  0.12500000000E+03  0.12500000000E+03 0.  0.
        -13    1    3    3    0    0 -0.25576307396E+02  0.42790777017E+02  0.29131551016E+02  0.57739557726E+02  0.10566000000E+00 0.  1.
         23    2    1    0    0    0  0.43869367998E+01  0.24558733528E+02  0.16820002318E+02  0.94911977716E+02  0.90016634180E+02 0.  0.
         13    1    3    3    0    0  0.29963244196E+02 -0.18232043488E+02 -0.12311548699E+02  0.37172419990E+02  0.10566000000E+00 0. -1.
         22    1    1    0    0    0 -0.43869367998E+01 -0.24558733528E+02 -0.16820002318E+02  0.30088022284E+02  0.00000000000E+00 0.  1.
</event>
<event>
 5    1  0.9041167E-005  0.9118800E+02  0.7818608E-02  0.1130116E+00
         25   -1    0    0    0    0  0.00000000000E+00  0.00000000000E+00  0.99999998245E-14  0.12500000000E+03  0.12500000000E+03 0.  0.
        -13    1    3    3    0    0 -0.32779447833E+02 -0.25884403347E+02  0.35227244268E+02  0.54639403726E+02  0.10566000000E+00 0.  1.
         23    2    1    0    0    0 -0.27146975148E+02 -0.25795499318E+00  0.91198360090E+00  0.97836485600E+02  0.93990006916E+02 0.  0.
         13    1    3    3    0    0  0.56324726848E+01  0.25626448354E+02 -0.34315260667E+02  0.43197081874E+02  0.10566000000E+00 0. -1.
         22    1    1    0    0    0  0.27146975148E+02  0.25795499318E+00 -0.91198360090E+00  0.27163514400E+02  0.00000000000E+00 0. -1.
</event>
<event>
 5    1  0.9041167E-005  0.9118800E+02  0.7818608E-02  0.1130116E+00
         25   -1    0    0    0    0  0.00000000000E+00  0.00000000000E+00  0.99999998245E-14  0.12500000000E+03  0.12500000000E+03 0.  0.
        -13    1    3    3    0    0  0.16828245472E+02  0.17951806320E+02 -0.39137861067E+02  0.46230298817E+02  0.10566000000E+00 0.  1.
         23    2    1    0    0    0 -0.24523321860E+02  0.57150159900E+01 -0.15944501255E+02  0.95195942506E+02  0.90410096928E+02 0.  0.
         13    1    3    3    0    0 -0.41351567332E+02 -0.12236790330E+02  0.23193359813E+02  0.48965643689E+02  0.10566000000E+00 0. -1.
         22    1    1    0    0    0  0.24523321860E+02 -0.57150159900E+01  0.15944501255E+02  0.29804057494E+02  0.00000000000E+00 0.  1.
</event>
<event>
 5    1  0.9041167E-005  0.9118800E+02  0.7818608E-02  0.1130116E+00
         25   -1    0    0    0    0  0.00000000000E+00  0.00000000000E+00  0.99999998245E-14  0.12500000000E+03  0.12500000000E+03 0.  0.
        -13    1    3    3    0    0 -0.81785093857E+01  0.53829857706E+01  0.32855912066E+02  0.34283912748E+02  0.10566000000E+00 0. -1.
         23    2    1    0    0    0 -0.35629356120E+01 -0.14133433091E+02 -0.25300572207E+02  0.95801243261E+02  0.91243141196E+02 0.  0.
         13    1    3    3    0    0  0.46155737737E+01 -0.19516418861E+02 -0.58156484273E+02  0.61517330513E+02  0.10566000000E+00 0.  1.
         22    1    1    0    0    0  0.35629356120E+01  0.14133433091E+02  0.25300572207E+02  0.29198756739E+02  0.00000000000E+00 0.  1.
</event>
<event>
 5    1  0.9041167E-005  0.9118800E+02  0.7818608E-02  0.1130116E+00
         25   -1    0    0    0    0  0.00000000000E+00  0.00000000000E+00  0.99999998245E-14  0.12500000000E+03  0.12500000000E+03 0.  0.
        -13    1    3    3    0    0 -0.23923183393E+02 -0.53844931045E+02 -0.72999778358E+01  0.59370835798E+02  0.10566000000E+00 0.  1.
         23    2    1    0    0    0 -0.16953720556E+02 -0.22232393003E+02  0.90175643904E+01  0.95622722950E+02  0.90998245794E+02 0.  0.
         13    1    3    3    0    0  0.69694628368E+01  0.31612538043E+02  0.16317542226E+02  0.36251887152E+02  0.10566000000E+00 0. -1.
         22    1    1    0    0    0  0.16953720556E+02  0.22232393003E+02 -0.90175643904E+01  0.29377277050E+02  0.00000000000E+00 0.  1.
</event>
<event>
 5    1  0.9041167E-005  0.9118800E+02  0.7818608E-02  0.1130116E+00
         25   -1    0    0    0    0  0.00000000000E+00  0.00000000000E+00  0.99999998245E-14  0.12500000000E+03  0.12500000000E+03 0.  0.
        -13    1    3    3    0    0  0.13186350125E+02 -0.26985920376E+02 -0.16250785234E+02  0.34149947480E+02  0.10566000000E+00 0.  1.
         23    2    1    0    0    0 -0.23199712210E+02  0.19517656316E+02 -0.46013113399E+01  0.94335075073E+02  0.89211931760E+02 0.  0.
         13    1    3    3    0    0 -0.36386062335E+02  0.46503576692E+02  0.11649473894E+02  0.60185127593E+02  0.10566000000E+00 0. -1.
         22    1    1    0    0    0  0.23199712210E+02 -0.19517656316E+02  0.46013113399E+01  0.30664924927E+02  0.00000000000E+00 0. -1.
</event>
<event>
 5    1  0.9041167E-005  0.9118800E+02  0.7818608E-02  0.1130116E+00
         25   -1    0    0    0    0  0.00000000000E+00  0.00000000000E+00  0.99999998245E-14  0.12500000000E+03  0.12500000000E+03 0.  0.
        -13    1    3    3    0    0 -0.14303326950E+02  0.18176928752E+02  0.24685724132E+02  0.33828716213E+02  0.10566000000E+00 0.  1.
         23    2    1    0    0    0  0.16811787620E+01 -0.26243468176E+02 -0.14310608520E+02  0.95061070491E+02  0.90223431672E+02 0.  0.
         13    1    3    3    0    0  0.15984505712E+02 -0.44420396928E+02 -0.38996332652E+02  0.61232354278E+02  0.10566000000E+00 0. -1.
         22    1    1    0    0    0 -0.16811787620E+01  0.26243468176E+02  0.14310608520E+02  0.29938929509E+02  0.00000000000E+00 0. -1.
</event>
<event>
 5    1  0.9041167E-005  0.9118800E+02  0.7818608E-02  0.1130116E+00
         25   -1    0    0    0    0  0.00000000000E+00  0.00000000000E+00  0.99999998245E-14  0.12500000000E+03  0.12500000000E+03 0.  0.
        -13    1    3    3    0    0 -0.41248882696E+02 -0.43262610956E+02 -0.49765222789E+00  0.59777777244E+02  0.10566000000E+00 0. -1.
         23    2    1    0    0    0 -0.26675676933E+02 -0.10949170290E+02  0.52561656889E+01  0.95689535186E+02  0.91089976378E+02 0.  0.
         13    1    3    3    0    0  0.14573205764E+02  0.32313440665E+02  0.57538179168E+01  0.35911757943E+02  0.10566000000E+00 0.  1.
         22    1    1    0    0    0  0.26675676933E+02  0.10949170290E+02 -0.52561656889E+01  0.29310464814E+02  0.00000000000E+00 0. -1.
</event>
<event>
 5    1  0.9041167E-005  0.9118800E+02  0.7818608E-02  0.1130116E+00
         25   -1    0    0    0    0  0.00000000000E+00  0.00000000000E+00  0.99999998245E-14  0.12500000000E+03  0.12500000000E+03 0.  0.
        -13    1    3    3    0    0  0.32699669791E+02 -0.16536031451E+02 -0.34547589664E+02  0.50361253521E+02  0.10566000000E+00 0. -1.
         23    2    1    0    0    0  0.19399594015E+02 -0.18032581229E+02  0.98569493964E+01  0.96739113865E+02  0.92519070824E+02 0.  0.
         13    1    3    3    0    0 -0.13300075776E+02 -0.14965497780E+01  0.44404539060E+02  0.46377860344E+02  0.10566000000E+00 0.  1.
         22    1    1    0    0    0 -0.19399594015E+02  0.18032581229E+02 -0.98569493964E+01  0.28260886135E+02  0.00000000000E+00 0. -1.
</event>
<event>
 5    1  0.9041167E-005  0.9118800E+02  0.7818608E-02  0.1130116E+00
         25   -1    0    0    0    0  0.00000000000E+00  0.00000000000E+00  0.99999998245E-14  0.12500000000E+03  0.12500000000E+03 0.  0.
        -13    1    3    3    0    0 -0.12724175752E+02 -0.45917169126E+02  0.12260273166E+01  0.47663459549E+02  0.10566000000E+00 0.  1.
         23    2    1    0    0    0  0.21522186416E+02 -0.16431241427E+02 -0.12894054039E+02  0.95009220875E+02  0.90151568033E+02 0.  0.
         13    1    3    3    0    0  0.34246362168E+02  0.29485927700E+02 -0.14120081356E+02  0.47345761327E+02  0.10566000000E+00 0. -1.
         22    1    1    0    0    0 -0.21522186416E+02  0.16431241427E+02  0.12894054039E+02  0.29990779125E+02  0.00000000000E+00 0.  1.
</event>
<event>
 5    1  0.9041167E-005  0.9118800E+02  0.7818608E-02  0.1130116E+00
         25   -1    0    0    0    0  0.00000000000E+00  0.00000000000E+00  0.99999998245E-14  0.12500000000E+03  0.12500000000E+03 0.  0.
        -13    1    3    3    0    0 -0.26930830819E+02 -0.31961321003E+02  0.15013791067E+02  0.44409692355E+02  0.10566000000E+00 0.  1.
         23    2    1    0    0    0 -0.25025618084E+02  0.12398885057E+02 -0.99551997910E+01  0.95350043608E+02  0.90622904952E+02 0.  0.
         13    1    3    3    0    0  0.19052127347E+01  0.44360206060E+02 -0.24968990858E+02  0.50940351253E+02  0.10566000000E+00 0. -1.
         22    1    1    0    0    0  0.25025618084E+02 -0.12398885057E+02  0.99551997910E+01  0.29649956392E+02  0.00000000000E+00 0.  1.
</event>
<event>
 5    1  0.9041167E-005  0.9118800E+02  0.7818608E-02  0.1130116E+00
         25   -1    0    0    0    0  0.00000000000E+00  0.00000000000E+00  0.99999998245E-14  0.12500000000E+03  0.12500000000E+03 0.  0.
        -13    1    3    3    0    0 -0.29283868096E+02 -0.29626409049E+02 -0.12816033950E+02  0.43583608548E+02  0.10566000000E+00 0.  1.
         23    2    1    0    0    0 -0.23513715257E+02  0.19349014605E+02  0.50299909593E-01  0.94548699511E+02  0.89510752862E+02 0.  0.
         13    1    3    3    0    0  0.57701528397E+01  0.48975423654E+02  0.12866333859E+02  0.50965090964E+02  0.10566000000E+00 0. -1.
         22    1    1    0    0    0  0.23513715257E+02 -0.19349014605E+02 -0.50299909593E-01  0.30451300489E+02  0.00000000000E+00 0. -1.
</event>
<event>
 5    1  0.9041167E-005  0.9118800E+02  0.7818608E-02  0.1130116E+00
         25   -1    0    0    0    0  0.00000000000E+00  0.00000000000E+00  0.99999998245E-14  0.12500000000E+03  0.12500000000E+03 0.  0.
        -13    1    3    3    0    0  0.60353141575E+01 -0.31626796729E+02 -0.41942996585E+02  0.52876321874E+02  0.10566000000E+00 0. -1.
         23    2    1    0    0    0  0.24713197833E+02 -0.47873253744E+01 -0.12424994633E+02  0.96927929841E+02  0.92773824219E+02 0.  0.
         13    1    3    3    0    0  0.18677883675E+02  0.26839471355E+02  0.29518001952E+02  0.44051607967E+02  0.10566000000E+00 0.  1.
         22    1    1    0    0    0 -0.24713197833E+02  0.47873253744E+01  0.12424994633E+02  0.28072070159E+02  0.00000000000E+00 0. -1.
</event>
<event>
 5    1  0.9041167E-005  0.9118800E+02  0.7818608E-02  0.1130116E+00
         25   -1    0    0    0    0  0.00000000000E+00  0.00000000000E+00  0.99999998245E-14  0.12500000000E+03  0.12500000000E+03 0.  0.
        -13    1    3    3    0    0 -0.12735287343E+02  0.41821193800E+02  0.67465913805E+01  0.44234912160E+02  0.10566000000E+00 0. -1.
         23    2    1    0    0    0  0.25425486433E+02  0.25838745369E+01  0.47530881552E+01  0.99005315639E+02  0.95531821452E+02 0.  0.
         13    1    3    3    0    0  0.38160773776E+02 -0.39237319263E+02 -0.19935032254E+01  0.54770403479E+02  0.10566000000E+00 0.  1.
         22    1    1    0    0    0 -0.25425486433E+02 -0.25838745369E+01 -0.47530881552E+01  0.25994684361E+02  0.00000000000E+00 0. -1.
</event>
<event>
 5    1  0.9041167E-005  0.9118800E+02  0.7818608E-02  0.1130116E+00
         25   -1    0    0    0    0  0.00000000000E+00  0.00000000000E+00  0.99999998245E-14  0.12500000000E+03  0.12500000000E+03 0.  0.
        -13    1    3    3    0    0 -0.44680715332E+02  0.25469509984E+01  0.29482687748E+02  0.53591914715E+02  0.10566000000E+00 0.  1.
         23    2    1    0    0    0 -0.27499856133E+02  0.55213884567E+01 -0.87542329335E+01  0.95616936646E+02  0.90990297073E+02 0.  0.
         13    1    3    3    0    0  0.17180859199E+02  0.29744374583E+01 -0.38236920682E+02  0.42025021931E+02  0.10566000000E+00 0. -1.
         22    1    1    0    0    0  0.27499856133E+02 -0.55213884567E+01  0.87542329335E+01  0.29383063354E+02  0.00000000000E+00 0.  1.
</event>
<event>
 5    1  0.9041167E-005  0.9118800E+02  0.7818608E-02  0.1130116E+00
         25   -1    0    0    0    0  0.00000000000E+00  0.00000000000E+00  0.99999998245E-14  0.12500000000E+03  0.12500000000E+03 0.  0.
        -13    1    3    3    0    0  0.17666333056E+02  0.14547070562E+02 -0.29565725718E+02  0.37387964465E+02  0.10566000000E+00 0.  1.
         23    2    1    0    0    0 -0.58423255471E+01 -0.29374299311E+02 -0.53749298526E+00  0.95045515752E+02  0.90201878795E+02 0.  0.
         13    1    3    3    0    0 -0.23508658603E+02 -0.43921369873E+02  0.29028232732E+02  0.57657551288E+02  0.10566000000E+00 0. -1.
         22    1    1    0    0    0  0.58423255471E+01  0.29374299311E+02  0.53749298526E+00  0.29954484248E+02  0.00000000000E+00 0. -1.
</event>
<event>
 5    1  0.9041167E-005  0.9118800E+02  0.7818608E-02  0.1130116E+00
         25   -1    0    0    0    0  0.00000000000E+00  0.00000000000E+00  0.99999998245E-14  0.12500000000E+03  0.12500000000E+03 0.  0.
        -13    1    3    3    0    0 -0.23968185243E+02 -0.54323457235E+02  0.10682580338E+02  0.60329433915E+02  0.10566000000E+00 0.  1.
         23    2    1    0    0    0 -0.20044878074E+02 -0.19523664276E+02 -0.25208688705E+00  0.97017252609E+02  0.92894096434E+02 0.  0.
         13    1    3    3    0    0  0.39233071694E+01  0.34799792959E+02 -0.10934667225E+02  0.36687818694E+02  0.10566000000E+00 0. -1.
         22    1    1    0    0    0  0.20044878074E+02  0.19523664276E+02  0.25208688705E+00  0.27982747391E+02  0.00000000000E+00 0.  1.
</event>
<event>
 5    1  0.9041167E-005  0.9118800E+02  0.7818608E-02  0.1130116E+00
         25   -1    0    0    0    0  0.00000000000E+00  0.00000000000E+00  0.99999998245E-14  0.12500000000E+03  0.12500000000E+03 0.  0.
        -13    1    3    3    0    0  0.32704002692E+02 -0.36940713860E+02 -0.15001531394E+02  0.51567676317E+02  0.10566000000E+00 0.  1.
         23    2    1    0    0    0 -0.91168391312E+01 -0.27545136062E+02 -0.56066592491E+01  0.95448588792E+02  0.90758730699E+02 0.  0.
         13    1    3    3    0    0 -0.41820841823E+02  0.93955777974E+01  0.93948721449E+01  0.43880912475E+02  0.10566000000E+00 0. -1.
         22    1    1    0    0    0  0.91168391312E+01  0.27545136062E+02  0.56066592491E+01  0.29551411208E+02  0.00000000000E+00 0.  1.
</event>
<event>
 5    1  0.9041167E-005  0.9118800E+02  0.7818608E-02  0.1130116E+00
         25   -1    0    0    0    0  0.00000000000E+00  0.00000000000E+00  0.99999998245E-14  0.12500000000E+03  0.12500000000E+03 0.  0.
        -13    1    3    3    0    0  0.30901324118E+01  0.29356017523E+02  0.97768811903E+01  0.31095389578E+02  0.10566000000E+00 0.  1.
         23    2    1    0    0    0 -0.18605911723E+02 -0.27122238780E+02  0.32026072586E+01  0.91953782656E+02  0.85810521872E+02 0.  0.
         13    1    3    3    0    0 -0.21696044135E+02 -0.56478256304E+02 -0.65742739317E+01  0.60858393078E+02  0.10566000000E+00 0. -1.
         22    1    1    0    0    0  0.18605911723E+02  0.27122238780E+02 -0.32026072586E+01  0.33046217344E+02  0.00000000000E+00 0. -1.
</event>
<event>
 5    1  0.9041167E-005  0.9118800E+02  0.7818608E-02  0.1130116E+00
         25   -1    0    0    0    0  0.00000000000E+00  0.00000000000E+00  0.99999998245E-14  0.12500000000E+03  0.12500000000E+03 0.  0.
        -13    1    3    3    0    0 -0.28078962326E+01 -0.28435348832E+02  0.20833554549E+02  0.35362430680E+02  0.10566000000E+00 0. -1.
         23    2    1    0    0    0  0.22709161082E+02  0.95704615694E+01 -0.17257359736E+02  0.94914850894E+02  0.90020623878E+02 0.  0.
         13    1    3    3    0    0  0.25517057314E+02  0.38005810401E+02 -0.38090914285E+02  0.59552420214E+02  0.10566000000E+00 0.  1.
         22    1    1    0    0    0 -0.22709161082E+02 -0.95704615694E+01  0.17257359736E+02  0.30085149106E+02  0.00000000000E+00 0.  1.
</event>
<event>
 5    1  0.9041167E-005  0.9118800E+02  0.7818608E-02  0.1130116E+00
         25   -1    0    0    0    0  0.00000000000E+00  0.00000000000E+00  0.99999998245E-14  0.12500000000E+03  0.12500000000E+03 0.  0.
        -13    1    3    3    0    0 -0.23472427362E+01  0.52573589661E+02 -0.27059689388E+02  0.59175415775E+02  0.10566000000E+00 0. -1.
         23    2    1    0    0    0  0.82037721356E+01  0.31839633825E+02 -0.40925240987E+01  0.91866740081E+02  0.85683633328E+02 0.  0.
         13    1    3    3    0    0  0.10551014872E+02 -0.20733955837E+02  0.22967165289E+02  0.32691324306E+02  0.10566000000E+00 0.  1.
         22    1    1    0    0    0 -0.82037721356E+01 -0.31839633825E+02  0.40925240987E+01  0.33133259919E+02  0.00000000000E+00 0. -1.
</event>
