<event>
 5    1  0.1691066E-003  0.9118800E+02  0.7818608E-02  0.1130116E+00
         25   -1    0    0    0    0  0.00000000000E+00  0.00000000000E+00  0.99999998245E-14  0.12500000000E+03  0.12500000000E+03 0.  0.
        -13    1    3    3    0    0 -0.49315495661E+02 -0.16373848776E+02  0.19538524951E+02  0.55514738200E+02  0.10566000000E+00 0. -1.
         23    2    1    0    0    0 -0.17342251269E+02  0.99036108276E+01  0.19766028248E+02  0.96901404676E+02  0.92738078312E+02 0.  0.
         13    1    3    3    0    0  0.31973244392E+02  0.26277459604E+02  0.22750329660E+00  0.41386666476E+02  0.10566000000E+00 0.  1.
         22    1    1    0    0    0  0.17342251269E+02 -0.99036108276E+01 -0.19766028248E+02  0.28098595324E+02  0.00000000000E+00 0. -1.
</event>
<event>
 5    1  0.1691066E-003  0.9118800E+02  0.7818608E-02  0.1130116E+00
         25   -1    0    0    0    0  0.00000000000E+00  0.00000000000E+00  0.99999998245E-14  0.12500000000E+03  0.12500000000E+03 0.  0.
        -13    1    3    3    0    0  0.36966718336E+02  0.34449086055E+01 -0.42856178875E+01  0.37373564783E+02  0.10566000000E+00 0.  1.
         23    2    1    0    0    0 -0.14952626320E+02  0.61543402520E+01  0.23616968831E+02  0.96378012742E+02  0.92029903757E+02 0.  0.
         13    1    3    3    0    0 -0.51919344656E+02  0.27094316465E+01  0.27902586719E+02  0.59004447960E+02  0.10566000000E+00 0. -1.
         22    1    1    0    0    0  0.14952626320E+02 -0.61543402520E+01 -0.23616968831E+02  0.28621987258E+02  0.00000000000E+00 0. -1.
</event>
<event>
 5    1  0.1691066E-003  0.9118800E+02  0.7818608E-02  0.1130116E+00
         25   -1    0    0    0    0  0.00000000000E+00  0.00000000000E+00  0.99999998245E-14  0.12500000000E+03  0.12500000000E+03 0.  0.
        -13    1    3    3    0    0  0.15489740944E+02 -0.23936691248E+02  0.26178171666E+02  0.38706654444E+02  0.10566000000E+00 0.  1.
         23    2    1    0    0    0 -0.18596793175E+02  0.19376202302E+02  0.11779948302E+02  0.95673474225E+02  0.91067933743E+02 0.  0.
         13    1    3    3    0    0 -0.34086534119E+02  0.43312893550E+02 -0.14398223364E+02  0.56966819781E+02  0.10566000000E+00 0. -1.
         22    1    1    0    0    0  0.18596793175E+02 -0.19376202302E+02 -0.11779948302E+02  0.29326525775E+02  0.00000000000E+00 0. -1.
</event>
<event>
 5    1  0.1691066E-003  0.9118800E+02  0.7818608E-02  0.1130116E+00
         25   -1    0    0    0    0  0.00000000000E+00  0.00000000000E+00  0.99999998245E-14  0.12500000000E+03  0.12500000000E+03 0.  0.
        -13    1    3    3    0    0 -0.20582973284E+02  0.25587814991E+01  0.53556021200E+02  0.57432262038E+02  0.10566000000E+00 0.  1.
         23    2    1    0    0    0  0.58601823521E+01 -0.80235461904E+01  0.26426805859E+02  0.96767127341E+02  0.92556911332E+02 0.  0.
         13    1    3    3    0    0  0.26443155636E+02 -0.10582327690E+02 -0.27129215341E+02  0.39334865303E+02  0.10566000000E+00 0. -1.
         22    1    1    0    0    0 -0.58601823521E+01  0.80235461904E+01 -0.26426805859E+02  0.28232872659E+02  0.00000000000E+00 0.  1.
</event>
<event>
 5    1  0.1691066E-003  0.9118800E+02  0.7818608E-02  0.1130116E+00
         25   -1    0    0    0    0  0.00000000000E+00  0.00000000000E+00  0.99999998245E-14  0.12500000000E+03  0.12500000000E+03 0.  0.
        -13    1    3    3    0    0  0.43250101981E+02  0.39226468441E+02  0.10354720396E+02  0.59300240692E+02  0.10566000000E+00 0.  1.
         23    2    1    0    0    0  0.27565837055E+02  0.95989787382E+01 -0.35559302556E+01  0.95594891509E+02  0.90960007021E+02 0.  0.
         13    1    3    3    0    0 -0.15684264925E+02 -0.29627489702E+02 -0.13910650652E+02  0.36294650817E+02  0.10566000000E+00 0. -1.
         22    1    1    0    0    0 -0.27565837055E+02 -0.95989787382E+01  0.35559302556E+01  0.29405108491E+02  0.00000000000E+00 0.  1.
</event>
<event>
 5    1  0.1691066E-003  0.9118800E+02  0.7818608E-02  0.1130116E+00
         25   -1    0    0    0    0  0.00000000000E+00  0.00000000000E+00  0.99999998245E-14  0.12500000000E+03  0.12500000000E+03 0.  0.
        -13    1    3    3    0    0  0.17811408161E+02  0.15645689428E+02 -0.25312638005E+02  0.34681041870E+02  0.10566000000E+00 0. -1.
         23    2    1    0    0    0 -0.11796545256E+02 -0.27324257555E+02  0.46847720234E+01  0.94871597788E+02  0.89960543835E+02 0.  0.
         13    1    3    3    0    0 -0.29607953417E+02 -0.42969946983E+02  0.29997410029E+02  0.60190555918E+02  0.10566000000E+00 0.  1.
         22    1    1    0    0    0  0.11796545256E+02  0.27324257555E+02 -0.46847720234E+01  0.30128402212E+02  0.00000000000E+00 0.  1.
</event>
<event>
 5    1  0.1691066E-003  0.9118800E+02  0.7818608E-02  0.1130116E+00
         25   -1    0    0    0    0  0.00000000000E+00  0.00000000000E+00  0.99999998245E-14  0.12500000000E+03  0.12500000000E+03 0.  0.
        -13    1    3    3    0    0  0.13409653670E+02 -0.35771825893E+02 -0.28159321919E+02  0.47459466013E+02  0.10566000000E+00 0.  1.
         23    2    1    0    0    0 -0.60284612017E+01  0.95924437461E+01 -0.25745465334E+02  0.96871965822E+02  0.92698389713E+02 0.  0.
         13    1    3    3    0    0 -0.19438114872E+02  0.45364269639E+02  0.24138565855E+01  0.49412499808E+02  0.10566000000E+00 0. -1.
         22    1    1    0    0    0  0.60284612017E+01 -0.95924437461E+01  0.25745465334E+02  0.28128034178E+02  0.00000000000E+00 0.  1.
</event>
<event>
 5    1  0.1691066E-003  0.9118800E+02  0.7818608E-02  0.1130116E+00
         25   -1    0    0    0    0  0.00000000000E+00  0.00000000000E+00  0.99999998245E-14  0.12500000000E+03  0.12500000000E+03 0.  0.
        -13    1    3    3    0    0  0.45855013713E+02 -0.20395497368E+02  0.23954801939E+01  0.50243487985E+02  0.10566000000E+00 0. -1.
         23    2    1    0    0    0  0.16169068012E+02 -0.15792357756E+00 -0.24862778107E+02  0.95341587442E+02  0.90611240255E+02 0.  0.
         13    1    3    3    0    0 -0.29685945700E+02  0.20237573790E+02 -0.27258258301E+02  0.45098099458E+02  0.10566000000E+00 0.  1.
         22    1    1    0    0    0 -0.16169068012E+02  0.15792357756E+00  0.24862778107E+02  0.29658412558E+02  0.00000000000E+00 0. -1.
</event>
<event>
 5    1  0.1691066E-003  0.9118800E+02  0.7818608E-02  0.1130116E+00
         25   -1    0    0    0    0  0.00000000000E+00  0.00000000000E+00  0.99999998245E-14  0.12500000000E+03  0.12500000000E+03 0.  0.
        -13    1    3    3    0    0  0.29057538391E+02 -0.25225364965E+02  0.20627340310E+02  0.43659568336E+02  0.10566000000E+00 0.  1.
         23    2    1    0    0    0 -0.94378350057E+01 -0.24949379653E+02 -0.13498541743E+02  0.95104266126E+02  0.90283257205E+02 0.  0.
         13    1    3    3    0    0 -0.38495373397E+02  0.27598531253E+00 -0.34125882053E+02  0.51444697791E+02  0.10566000000E+00 0. -1.
         22    1    1    0    0    0  0.94378350057E+01  0.24949379653E+02  0.13498541743E+02  0.29895733874E+02  0.00000000000E+00 0. -1.
</event>
<event>
 5    1  0.1691066E-003  0.9118800E+02  0.7818608E-02  0.1130116E+00
         25   -1    0    0    0    0  0.00000000000E+00  0.00000000000E+00  0.99999998245E-14  0.12500000000E+03  0.12500000000E+03 0.  0.
        -13    1    3    3    0    0  0.34411474558E+01 -0.56878189665E+02 -0.17532753206E+01  0.57009254457E+02  0.10566000000E+00 0.  1.
         23    2    1    0    0    0  0.31513463035E+01 -0.22173848377E+02 -0.18876720198E+02  0.95709368378E+02  0.91117188799E+02 0.  0.
         13    1    3    3    0    0 -0.28980115227E+00  0.34704341288E+02 -0.17123444878E+02  0.38700113921E+02  0.10566000000E+00 0. -1.
         22    1    1    0    0    0 -0.31513463035E+01  0.22173848377E+02  0.18876720198E+02  0.29290631622E+02  0.00000000000E+00 0.  1.
</event>
<event>
 5    1  0.1691066E-003  0.9118800E+02  0.7818608E-02  0.1130116E+00
         25   -1    0    0    0    0  0.00000000000E+00  0.00000000000E+00  0.99999998245E-14  0.12500000000E+03  0.12500000000E+03 0.  0.
        -13    1    3    3    0    0  0.12867460358E+02 -0.27619803796E+02  0.26367343497E+02  0.40294826776E+02  0.10566000000E+00 0.  1.
         23    2    1    0    0    0  0.81278962664E-01  0.25461763508E+02  0.12535973710E+02  0.96619396693E+02  0.92357182576E+02 0.  0.
         13    1    3    3    0    0 -0.12786181395E+02  0.53081567304E+02 -0.13831369787E+02  0.56324569917E+02  0.10566000000E+00 0. -1.
         22    1    1    0    0    0 -0.81278962664E-01 -0.25461763508E+02 -0.12535973710E+02  0.28380603307E+02  0.00000000000E+00 0. -1.
</event>
<event>
 5    1  0.1691066E-003  0.9118800E+02  0.7818608E-02  0.1130116E+00
         25   -1    0    0    0    0  0.00000000000E+00  0.00000000000E+00  0.99999998245E-14  0.12500000000E+03  0.12500000000E+03 0.  0.
        -13    1    3    3    0    0 -0.12197320732E+01 -0.26335735816E+02 -0.26221819761E+02  0.37184051996E+02  0.10566000000E+00 0.  1.
         23    2    1    0    0    0 -0.17577432069E+01  0.28679235812E+02 -0.74391989828E+01  0.95319536569E+02  0.90580815531E+02 0.  0.
         13    1    3    3    0    0 -0.53801113369E+00  0.55014971628E+02  0.18782620778E+02  0.58135484573E+02  0.10566000000E+00 0. -1.
         22    1    1    0    0    0  0.17577432069E+01 -0.28679235812E+02  0.74391989828E+01  0.29680463431E+02  0.00000000000E+00 0. -1.
</event>
<event>
 5    1  0.1691066E-003  0.9118800E+02  0.7818608E-02  0.1130116E+00
         25   -1    0    0    0    0  0.00000000000E+00  0.00000000000E+00  0.99999998245E-14  0.12500000000E+03  0.12500000000E+03 0.  0.
        -13    1    3    3    0    0  0.30017191278E+02 -0.15880558735E+02 -0.18035915296E+01  0.34007176072E+02  0.10566000000E+00 0. -1.
         23    2    1    0    0    0 -0.20831168283E+02  0.18422942753E+02  0.78604863896E+01  0.96101390379E+02  0.91653410165E+02 0.  0.
         13    1    3    3    0    0 -0.50848359561E+02  0.34303501488E+02  0.96640779192E+01  0.62094214307E+02  0.10566000000E+00 0.  1.
         22    1    1    0    0    0  0.20831168283E+02 -0.18422942753E+02 -0.78604863896E+01  0.28898609621E+02  0.00000000000E+00 0.  1.
</event>
<event>
 5    1  0.1691066E-003  0.9118800E+02  0.7818608E-02  0.1130116E+00
         25   -1    0    0    0    0  0.00000000000E+00  0.00000000000E+00  0.99999998245E-14  0.12500000000E+03  0.12500000000E+03 0.  0.
        -13    1    3    3    0    0  0.13541688609E+02  0.17550331820E+02 -0.40770934843E+02  0.46407669295E+02  0.10566000000E+00 0. -1.
         23    2    1    0    0    0 -0.16338270044E+02 -0.15448423291E+02 -0.16493350913E+02  0.97114099001E+02  0.93024323433E+02 0.  0.
         13    1    3    3    0    0 -0.29879958653E+02 -0.32998755111E+02  0.24277583930E+02  0.50706429706E+02  0.10566000000E+00 0.  1.
         22    1    1    0    0    0  0.16338270044E+02  0.15448423291E+02  0.16493350913E+02  0.27885900999E+02  0.00000000000E+00 0.  1.
</event>
<event>
 5    1  0.1691066E-003  0.9118800E+02  0.7818608E-02  0.1130116E+00
         25   -1    0    0    0    0  0.00000000000E+00  0.00000000000E+00  0.99999998245E-14  0.12500000000E+03  0.12500000000E+03 0.  0.
        -13    1    3    3    0    0  0.51032392999E+02 -0.69357695970E+01 -0.19278616419E+02  0.54991692556E+02  0.10566000000E+00 0. -1.
         23    2    1    0    0    0  0.13148468611E+02 -0.21463734543E+02 -0.14770067617E+02  0.95815603060E+02  0.91262811512E+02 0.  0.
         13    1    3    3    0    0 -0.37883924388E+02 -0.14527964946E+02  0.45085488024E+01  0.40823910504E+02  0.10566000000E+00 0.  1.
         22    1    1    0    0    0 -0.13148468611E+02  0.21463734543E+02  0.14770067617E+02  0.29184396940E+02  0.00000000000E+00 0. -1.
</event>
<event>
 5    1  0.1691066E-003  0.9118800E+02  0.7818608E-02  0.1130116E+00
         25   -1    0    0    0    0  0.00000000000E+00  0.00000000000E+00  0.99999998245E-14  0.12500000000E+03  0.12500000000E+03 0.  0.
        -13    1    3    3    0    0  0.31489722317E+02  0.25010652500E+01 -0.42315950260E+01  0.31871233102E+02  0.10566000000E+00 0.  1.
         23    2    1    0    0    0 -0.30716796925E+02  0.18034218989E+01 -0.28713734335E+01  0.94096622689E+02  0.88877194331E+02 0.  0.
         13    1    3    3    0    0 -0.62206519241E+02 -0.69764335103E+00  0.13602215925E+01  0.62225389586E+02  0.10566000000E+00 0. -1.
         22    1    1    0    0    0  0.30716796925E+02 -0.18034218989E+01  0.28713734335E+01  0.30903377311E+02  0.00000000000E+00 0. -1.
</event>
<event>
 5    1  0.1691066E-003  0.9118800E+02  0.7818608E-02  0.1130116E+00
         25   -1    0    0    0    0  0.00000000000E+00  0.00000000000E+00  0.99999998245E-14  0.12500000000E+03  0.12500000000E+03 0.  0.
        -13    1    3    3    0    0  0.25408776618E+01 -0.35965876781E+01  0.49457147344E+02  0.49652916225E+02  0.10566000000E+00 0.  1.
         23    2    1    0    0    0  0.28073503085E+02 -0.33985156807E+01  0.13734789215E+02  0.93562507748E+02  0.88122794651E+02 0.  0.
         13    1    3    3    0    0  0.25532625423E+02  0.19807199735E+00 -0.35722358128E+02  0.43909591524E+02  0.10566000000E+00 0. -1.
         22    1    1    0    0    0 -0.28073503085E+02  0.33985156807E+01 -0.13734789215E+02  0.31437492252E+02  0.00000000000E+00 0.  1.
</event>
<event>
 5    1  0.1691066E-003  0.9118800E+02  0.7818608E-02  0.1130116E+00
         25   -1    0    0    0    0  0.00000000000E+00  0.00000000000E+00  0.99999998245E-14  0.12500000000E+03  0.12500000000E+03 0.  0.
        -13    1    3    3    0    0 -0.17568273543E+02  0.46100991494E+02  0.82429166835E+01  0.50019021296E+02  0.10566000000E+00 0. -1.
         23    2    1    0    0    0 -0.64446886752E+01  0.15994826538E+02 -0.23956497427E+02  0.95482509303E+02  0.90805436653E+02 0.  0.
         13    1    3    3    0    0  0.11123584867E+02 -0.30106164956E+02 -0.32199414110E+02  0.45463488006E+02  0.10566000000E+00 0.  1.
         22    1    1    0    0    0  0.64446886752E+01 -0.15994826538E+02  0.23956497427E+02  0.29517490697E+02  0.00000000000E+00 0. -1.
</event>
<event>
 5    1  0.1691066E-003  0.9118800E+02  0.7818608E-02  0.1130116E+00
         25   -1    0    0    0    0  0.00000000000E+00  0.00000000000E+00  0.99999998245E-14  0.12500000000E+03  0.12500000000E+03 0.  0.
        -13    1    3    3    0    0  0.18471625202E+02 -0.24035612654E+02 -0.14758741522E+02  0.33715622916E+02  0.10566000000E+00 0. -1.
         23    2    1    0    0    0 -0.11311885397E+00  0.20963821888E+02  0.21917572548E+02  0.94670565280E+02  0.89680774528E+02 0.  0.
         13    1    3    3    0    0 -0.18584744056E+02  0.44999434543E+02  0.36676314070E+02  0.60954942364E+02  0.10566000000E+00 0.  1.
         22    1    1    0    0    0  0.11311885397E+00 -0.20963821888E+02 -0.21917572548E+02  0.30329434720E+02  0.00000000000E+00 0.  1.
</event>
<event>
 5    1  0.1691066E-003  0.9118800E+02  0.7818608E-02  0.1130116E+00
         25   -1    0    0    0    0  0.00000000000E+00  0.00000000000E+00  0.99999998245E-14  0.12500000000E+03  0.12500000000E+03 0.  0.
        -13    1    3    3    0    0 -0.47800789245E+02  0.22097645597E+02  0.16086946508E+02  0.55063803042E+02  0.10566000000E+00 0.  1.
         23    2    1    0    0    0 -0.23552261089E+02 -0.11101079840E+02  0.11849452368E+02  0.96393138979E+02  0.92050446739E+02 0.  0.
         13    1    3    3    0    0  0.24248528156E+02 -0.33198725437E+02 -0.42374941399E+01  0.41329335937E+02  0.10566000000E+00 0. -1.
         22    1    1    0    0    0  0.23552261089E+02  0.11101079840E+02 -0.11849452368E+02  0.28606861021E+02  0.00000000000E+00 0. -1.
</event>
<event>
 5    1  0.1691066E-003  0.9118800E+02  0.7818608E-02  0.1130116E+00
         25   -1    0    0    0    0  0.00000000000E+00  0.00000000000E+00  0.99999998245E-14  0.12500000000E+03  0.12500000000E+03 0.  0.
        -13    1    3    3    0    0 -0.38169775813E+02  0.12126314383E+02 -0.19377974441E+02  0.44491531145E+02  0.10566000000E+00 0.  1.
         23    2    1    0    0    0 -0.14520253098E+02 -0.13209579566E+02  0.20018230097E+02  0.96963233450E+02  0.92821378801E+02 0.  0.
         13    1    3    3    0    0  0.23649522715E+02 -0.25335893950E+02  0.39396204537E+02  0.52471702306E+02  0.10566000000E+00 0. -1.
         22    1    1    0    0    0  0.14520253098E+02  0.13209579566E+02 -0.20018230097E+02  0.28036766550E+02  0.00000000000E+00 0. -1.
</event>
<event>
 5    1  0.1691066E-003  0.9118800E+02  0.7818608E-02  0.1130116E+00
         25   -1    0    0    0    0  0.00000000000E+00  0.00000000000E+00  0.99999998245E-14  0.12500000000E+03  0.12500000000E+03 0.  0.
        -13    1    3    3    0    0 -0.59152645887E+02  0.10897815468E+02 -0.14955880358E+02  0.61979733936E+02  0.10566000000E+00 0.  1.
         23    2    1    0    0    0 -0.27658246338E+02  0.24294609905E+01 -0.12085389415E+02  0.94719023983E+02  0.89748292440E+02 0.  0.
         13    1    3    3    0    0  0.31494399549E+02 -0.84683544779E+01  0.28704909427E+01  0.32739290048E+02  0.10566000000E+00 0. -1.
         22    1    1    0    0    0  0.27658246338E+02 -0.24294609905E+01  0.12085389415E+02  0.30280976017E+02  0.00000000000E+00 0.  1.
</event>
<event>
 5    1  0.1691066E-003  0.9118800E+02  0.7818608E-02  0.1130116E+00
         25   -1    0    0    0    0  0.00000000000E+00  0.00000000000E+00  0.99999998245E-14  0.12500000000E+03  0.12500000000E+03 0.  0.
        -13    1    3    3    0    0  0.40948617430E+02 -0.30828397579E+02 -0.20050607615E+02  0.55038326614E+02  0.10566000000E+00 0. -1.
         23    2    1    0    0    0  0.77538142466E+01 -0.26310359600E+02  0.53171719542E+01  0.97060261719E+02  0.92951952264E+02 0.  0.
         13    1    3    3    0    0 -0.33194803184E+02  0.45180379795E+01  0.25367779569E+02  0.42021935104E+02  0.10566000000E+00 0.  1.
         22    1    1    0    0    0 -0.77538142466E+01  0.26310359600E+02 -0.53171719542E+01  0.27939738281E+02  0.00000000000E+00 0. -1.
</event>
<event>
 5    1  0.1691066E-003  0.9118800E+02  0.7818608E-02  0.1130116E+00
         25   -1    0    0    0    0  0.00000000000E+00  0.00000000000E+00  0.99999998245E-14  0.12500000000E+03  0.12500000000E+03 0.  0.
        -13    1    3    3    0    0 -0.18850852017E+02 -0.18627425630E+02  0.45943127586E+01  0.26897109159E+02  0.10566000000E+00 0.  1.
         23    2    1    0    0    0 -0.27398602201E+02  0.34012796831E+02 -0.48474324205E+01  0.81056270619E+02  0.68110701470E+02 0.  0.
         13    1    3    3    0    0 -0.85477501839E+01  0.52640222461E+02 -0.94417451791E+01  0.54159161460E+02  0.10566000000E+00 0. -1.
         22    1    1    0    0    0  0.27398602201E+02 -0.34012796831E+02  0.48474324205E+01  0.43943729381E+02  0.00000000000E+00 0. -1.
</event>
<event>
 5    1  0.1691066E-003  0.9118800E+02  0.7818608E-02  0.1130116E+00
         25   -1    0    0    0    0  0.00000000000E+00  0.00000000000E+00  0.99999998245E-14  0.12500000000E+03  0.12500000000E+03 0.  0.
        -13    1    3    3    0    0  0.11510832029E+02 -0.41740875300E+02  0.42561115739E+02  0.60714575365E+02  0.10566000000E+00 0. -1.
         23    2    1    0    0    0  0.13142993402E+02 -0.12707347401E+02  0.22337672728E+02  0.96135028556E+02  0.91699275565E+02 0.  0.
         13    1    3    3    0    0  0.16321613730E+01  0.29033527899E+02 -0.20223443012E+02  0.35420453191E+02  0.10566000000E+00 0.  1.
         22    1    1    0    0    0 -0.13142993402E+02  0.12707347401E+02 -0.22337672728E+02  0.28864971444E+02  0.00000000000E+00 0. -1.
</event>
<event>
 5    1  0.1691066E-003  0.9118800E+02  0.7818608E-02  0.1130116E+00
         25   -1    0    0    0    0  0.00000000000E+00  0.00000000000E+00  0.99999998245E-14  0.12500000000E+03  0.12500000000E+03 0.  0.
        -13    1    3    3    0    0  0.25071034198E+02  0.14096988802E+02 -0.25288351117E+02  0.38298742999E+02  0.10566000000E+00 0. -1.
         23    2    1    0    0    0  0.11885135023E+02 -0.32429329610E+02 -0.11759225025E+02  0.88514424403E+02  0.80644938469E+02 0.  0.
         13    1    3    3    0    0 -0.13185899175E+02 -0.46526318412E+02  0.13529126092E+02  0.50215681404E+02  0.10566000000E+00 0.  1.
         22    1    1    0    0    0 -0.11885135023E+02  0.32429329610E+02  0.11759225025E+02  0.36485575597E+02  0.00000000000E+00 0.  1.
</event>
<event>
 5    1  0.1691066E-003  0.9118800E+02  0.7818608E-02  0.1130116E+00
         25   -1    0    0    0    0  0.00000000000E+00  0.00000000000E+00  0.99999998245E-14  0.12500000000E+03  0.12500000000E+03 0.  0.
        -13    1    3    3    0    0  0.27021347447E+02  0.46409377587E+02  0.17432220668E+02  0.56461287865E+02  0.10566000000E+00 0. -1.
         23    2    1    0    0    0  0.29075097583E+01  0.31459195013E+02 -0.54862549288E+01  0.92933918902E+02  0.87226599874E+02 0.  0.
         13    1    3    3    0    0 -0.24113837689E+02 -0.14950182574E+02 -0.22918475596E+02  0.36472631038E+02  0.10566000000E+00 0.  1.
         22    1    1    0    0    0 -0.29075097583E+01 -0.31459195013E+02  0.54862549288E+01  0.32066081098E+02  0.00000000000E+00 0. -1.
</event>
<event>
 5    1  0.1691066E-003  0.9118800E+02  0.7818608E-02  0.1130116E+00
         25   -1    0    0    0    0  0.00000000000E+00  0.00000000000E+00  0.99999998245E-14  0.12500000000E+03  0.12500000000E+03 0.  0.
        -13    1    3    3    0    0  0.15398411048E+02 -0.83723795241E+00  0.57142291947E+02  0.59186693802E+02  0.10566000000E+00 0.  1.
         23    2    1    0    0    0  0.59370453310E+00  0.12380042386E+02  0.27200181600E+02  0.95109068037E+02  0.90289905356E+02 0.  0.
         13    1    3    3    0    0 -0.14804706515E+02  0.13217280339E+02 -0.29942110348E+02  0.35922374235E+02  0.10566000000E+00 0. -1.
         22    1    1    0    0    0 -0.59370453310E+00 -0.12380042386E+02 -0.27200181600E+02  0.29890931963E+02  0.00000000000E+00 0.  1.
</event>
<event>
 5    1  0.1691066E-003  0.9118800E+02  0.7818608E-02  0.1130116E+00
         25   -1    0    0    0    0  0.00000000000E+00  0.00000000000E+00  0.99999998245E-14  0.12500000000E+03  0.12500000000E+03 0.  0.
        -13    1    3    3    0    0 -0.39428380845E+02 -0.42964846293E+02  0.15282139001E+02  0.60283747142E+02  0.10566000000E+00 0.  1.
         23    2    1    0    0    0 -0.79573549198E+01 -0.23947630253E+02  0.11562263270E+02  0.97242218677E+02  0.93196323261E+02 0.  0.
         13    1    3    3    0    0  0.31471025925E+02  0.19017216040E+02 -0.37198757315E+01  0.36958471535E+02  0.10566000000E+00 0. -1.
         22    1    1    0    0    0  0.79573549198E+01  0.23947630253E+02 -0.11562263270E+02  0.27757781323E+02  0.00000000000E+00 0.  1.
</event>
<event>
 5    1  0.1691066E-003  0.9118800E+02  0.7818608E-02  0.1130116E+00
         25   -1    0    0    0    0  0.00000000000E+00  0.00000000000E+00  0.99999998245E-14  0.12500000000E+03  0.12500000000E+03 0.  0.
        -13    1    3    3    0    0 -0.20309897736E+02  0.40484974426E+02  0.40161717684E+02  0.60535112387E+02  0.10566000000E+00 0.  1.
         23    2    1    0    0    0 -0.19471672773E+02  0.16019538521E+02  0.14900403567E+02  0.95711884980E+02  0.91120641157E+02 0.  0.
         13    1    3    3    0    0  0.83822496358E+00 -0.24465435905E+02 -0.25261314117E+02  0.35176772593E+02  0.10566000000E+00 0. -1.
         22    1    1    0    0    0  0.19471672773E+02 -0.16019538521E+02 -0.14900403567E+02  0.29288115020E+02  0.00000000000E+00 0.  1.
</event>
<event>
 5    1  0.1691066E-003  0.9118800E+02  0.7818608E-02  0.1130116E+00
         25   -1    0    0    0    0  0.00000000000E+00  0.00000000000E+00  0.99999998245E-14  0.12500000000E+03  0.12500000000E+03 0.  0.
        -13    1    3    3    0    0 -0.97745299447E+01 -0.29925873764E+02  0.46365986236E+02  0.56043868531E+02  0.10566000000E+00 0. -1.
         23    2    1    0    0    0 -0.23383384400E+02 -0.10459651287E+02  0.15253596374E+02  0.95186258648E+02  0.90396707142E+02 0.  0.
         13    1    3    3    0    0 -0.13608854456E+02  0.19466222477E+02 -0.31112389863E+02  0.39142390117E+02  0.10566000000E+00 0.  1.
         22    1    1    0    0    0  0.23383384400E+02  0.10459651287E+02 -0.15253596374E+02  0.29813741352E+02  0.00000000000E+00 0. -1.
</event>
<event>
 5    1  0.1691066E-003  0.9118800E+02  0.7818608E-02  0.1130116E+00
         25   -1    0    0    0    0  0.00000000000E+00  0.00000000000E+00  0.99999998245E-14  0.12500000000E+03  0.12500000000E+03 0.  0.
        -13    1    3    3    0    0  0.73305662853E+01  0.38729791071E+02 -0.47970955122E+02  0.62088305000E+02  0.10566000000E+00 0.  1.
         23    2    1    0    0    0  0.81605053132E+01  0.20132022139E+02 -0.29976645394E+02  0.87979851007E+02  0.79812046408E+02 0.  0.
         13    1    3    3    0    0  0.82993902794E+00 -0.18597768932E+02  0.17994309728E+02  0.25891546007E+02  0.10566000000E+00 0. -1.
         22    1    1    0    0    0 -0.81605053132E+01 -0.20132022139E+02  0.29976645394E+02  0.37020148993E+02  0.00000000000E+00 0.  1.
</event>
<event>
 5    1  0.1691066E-003  0.9118800E+02  0.7818608E-02  0.1130116E+00
         25   -1    0    0    0    0  0.00000000000E+00  0.00000000000E+00  0.99999998245E-14  0.12500000000E+03  0.12500000000E+03 0.  0.
        -13    1    3    3    0    0  0.26240704864E+02 -0.55734080519E+02 -0.11522583083E+01  0.61613319878E+02  0.10566000000E+00 0.  1.
         23    2    1    0    0    0  0.18414294968E+02 -0.22460568323E+02 -0.27039074992E+01  0.95830246756E+02  0.91282866350E+02 0.  0.
         13    1    3    3    0    0 -0.78264098962E+01  0.33273512197E+02 -0.15516491909E+01  0.34216926879E+02  0.10566000000E+00 0. -1.
         22    1    1    0    0    0 -0.18414294968E+02  0.22460568323E+02  0.27039074992E+01  0.29169753244E+02  0.00000000000E+00 0.  1.
</event>
<event>
 5    1  0.1691066E-003  0.9118800E+02  0.7818608E-02  0.1130116E+00
         25   -1    0    0    0    0  0.00000000000E+00  0.00000000000E+00  0.99999998245E-14  0.12500000000E+03  0.12500000000E+03 0.  0.
        -13    1    3    3    0    0 -0.35090980291E+02  0.21778443684E+01 -0.65084653634E+01  0.35755995152E+02  0.10566000000E+00 0.  1.
         23    2    1    0    0    0  0.13678615925E+02 -0.11410380543E+02  0.24186707081E+02  0.94961722466E+02  0.90085684859E+02 0.  0.
         13    1    3    3    0    0  0.48769596216E+02 -0.13588224911E+02  0.30695172445E+02  0.59205727314E+02  0.10566000000E+00 0. -1.
         22    1    1    0    0    0 -0.13678615925E+02  0.11410380543E+02 -0.24186707081E+02  0.30038277534E+02  0.00000000000E+00 0. -1.
</event>
<event>
 5    1  0.1691066E-003  0.9118800E+02  0.7818608E-02  0.1130116E+00
         25   -1    0    0    0    0  0.00000000000E+00  0.00000000000E+00  0.99999998245E-14  0.12500000000E+03  0.12500000000E+03 0.  0.
        -13    1    3    3    0    0  0.47678244379E+01 -0.17937370852E+02  0.52243993679E+02  0.55443010944E+02  0.10566000000E+00 0. -1.
         23    2    1    0    0    0 -0.12766442654E+02  0.67249218088E+01  0.24867216574E+02  0.96249607106E+02  0.91855330692E+02 0.  0.
         13    1    3    3    0    0 -0.17534267092E+02  0.24662292661E+02 -0.27376777104E+02  0.40806596163E+02  0.10566000000E+00 0.  1.
         22    1    1    0    0    0  0.12766442654E+02 -0.67249218088E+01 -0.24867216574E+02  0.28750392894E+02  0.00000000000E+00 0. -1.
</event>
<event>
 5    1  0.1691066E-003  0.9118800E+02  0.7818608E-02  0.1130116E+00
         25   -1    0    0    0    0  0.00000000000E+00  0.00000000000E+00  0.99999998245E-14  0.12500000000E+03  0.12500000000E+03 0.  0.
        -13    1    3    3    0    0  0.52556929742E+02  0.25091516955E+02 -0.15686482119E+01  0.58260508994E+02  0.10566000000E+00 0.  1.
         23    2    1    0    0    0  0.19825957944E+02  0.18323383429E+02  0.13374072405E+02  0.94872258608E+02  0.89961462038E+02 0.  0.
         13    1    3    3    0    0 -0.32730971798E+02 -0.67681335257E+01  0.14942720617E+02  0.36611749614E+02  0.10566000000E+00 0. -1.
         22    1    1    0    0    0 -0.19825957944E+02 -0.18323383429E+02 -0.13374072405E+02  0.30127741392E+02  0.00000000000E+00 0.  1.
</event>
<event>
 5    1  0.1691066E-003  0.9118800E+02  0.7818608E-02  0.1130116E+00
         25   -1    0    0    0    0  0.00000000000E+00  0.00000000000E+00  0.99999998245E-14  0.12500000000E+03  0.12500000000E+03 0.  0.
        -13    1    3    3    0    0  0.35482537404E+02 -0.42578946213E+02  0.41422717884E+01  0.55580092666E+02  0.10566000000E+00 0.  1.
         23    2    1    0    0    0  0.14982520073E+02 -0.16494175139E+02 -0.18741610856E+02  0.95883308933E+02  0.91355499195E+02 0.  0.
         13    1    3    3    0    0 -0.20500017330E+02  0.26084771074E+02 -0.22883882644E+02  0.40303216267E+02  0.10566000000E+00 0. -1.
         22    1    1    0    0    0 -0.14982520073E+02  0.16494175139E+02  0.18741610856E+02  0.29116691067E+02  0.00000000000E+00 0.  1.
</event>
<event>
 5    1  0.1691066E-003  0.9118800E+02  0.7818608E-02  0.1130116E+00
         25   -1    0    0    0    0  0.00000000000E+00  0.00000000000E+00  0.99999998245E-14  0.12500000000E+03  0.12500000000E+03 0.  0.
        -13    1    3    3    0    0  0.43763834652E+02 -0.11816579943E+02  0.58478133180E+01  0.45706814258E+02  0.10566000000E+00 0. -1.
         23    2    1    0    0    0  0.85523131806E+01  0.18801307704E+02  0.21751204896E+02  0.95004231189E+02  0.90144649299E+02 0.  0.
         13    1    3    3    0    0 -0.35211521471E+02  0.30617887648E+02  0.15903391578E+02  0.49297416931E+02  0.10566000000E+00 0.  1.
         22    1    1    0    0    0 -0.85523131806E+01 -0.18801307704E+02 -0.21751204896E+02  0.29995768811E+02  0.00000000000E+00 0. -1.
</event>
<event>
 5    1  0.1691066E-003  0.9118800E+02  0.7818608E-02  0.1130116E+00
         25   -1    0    0    0    0  0.00000000000E+00  0.00000000000E+00  0.99999998245E-14  0.12500000000E+03  0.12500000000E+03 0.  0.
        -13    1    3    3    0    0  0.43741010382E+02 -0.32498913535E+02  0.28408743466E+02  0.61453423335E+02  0.10566000000E+00 0.  1.
         23    2    1    0    0    0  0.15507593368E+02 -0.17935640213E+02  0.19088808887E+02  0.94560629661E+02  0.89527411530E+02 0.  0.
         13    1    3    3    0    0 -0.28233417014E+02  0.14563273322E+02 -0.93199345789E+01  0.33107206326E+02  0.10566000000E+00 0. -1.
         22    1    1    0    0    0 -0.15507593368E+02  0.17935640213E+02 -0.19088808887E+02  0.30439370339E+02  0.00000000000E+00 0.  1.
</event>
<event>
 5    1  0.1691066E-003  0.9118800E+02  0.7818608E-02  0.1130116E+00
         25   -1    0    0    0    0  0.00000000000E+00  0.00000000000E+00  0.99999998245E-14  0.12500000000E+03  0.12500000000E+03 0.  0.
        -13    1    3    3    0    0  0.14072448596E+01  0.98324300932E+01  0.33345618036E+02  0.34793654966E+02  0.10566000000E+00 0. -1.
         23    2    1    0    0    0 -0.19217217887E+02 -0.16768457696E+02 -0.16268798106E+02  0.94748447500E+02  0.89789263696E+02 0.  0.
         13    1    3    3    0    0 -0.20624462747E+02 -0.26600887789E+02 -0.49614416142E+02  0.59954792535E+02  0.10566000000E+00 0.  1.
         22    1    1    0    0    0  0.19217217887E+02  0.16768457696E+02  0.16268798106E+02  0.30251552500E+02  0.00000000000E+00 0.  1.
</event>
<event>
 5    1  0.1691066E-003  0.9118800E+02  0.7818608E-02  0.1130116E+00
         25   -1    0    0    0    0  0.00000000000E+00  0.00000000000E+00  0.99999998245E-14  0.12500000000E+03  0.12500000000E+03 0.  0.
        -13    1    3    3    0    0  0.24240267731E+01 -0.37049309824E+02  0.10691814468E+02  0.38637460125E+02  0.10566000000E+00 0. -1.
         23    2    1    0    0    0  0.47533411526E+01  0.53119760739E+01 -0.28030535642E+02  0.96077305272E+02  0.91620556198E+02 0.  0.
         13    1    3    3    0    0  0.23293143795E+01  0.42361285898E+02 -0.38722350111E+02  0.57439845147E+02  0.10566000000E+00 0.  1.
         22    1    1    0    0    0 -0.47533411526E+01 -0.53119760739E+01  0.28030535642E+02  0.28922694728E+02  0.00000000000E+00 0.  1.
</event>
<event>
 5    1  0.1691066E-003  0.9118800E+02  0.7818608E-02  0.1130116E+00
         25   -1    0    0    0    0  0.00000000000E+00  0.00000000000E+00  0.99999998245E-14  0.12500000000E+03  0.12500000000E+03 0.  0.
        -13    1    3    3    0    0 -0.33051372447E+02  0.31705105494E+02  0.41192619281E+02  0.61599106993E+02  0.10566000000E+00 0.  1.
         23    2    1    0    0    0 -0.20554825809E+02  0.93638803886E+01  0.18674748962E+02  0.95692503199E+02  0.91094049200E+02 0.  0.
         13    1    3    3    0    0  0.12496546638E+02 -0.22341225106E+02 -0.22517870319E+02  0.34093396206E+02  0.10566000000E+00 0. -1.
         22    1    1    0    0    0  0.20554825809E+02 -0.93638803886E+01 -0.18674748962E+02  0.29307496801E+02  0.00000000000E+00 0.  1.
</event>
<event>
 5    1  0.1691066E-003  0.9118800E+02  0.7818608E-02  0.1130116E+00
         25   -1    0    0    0    0  0.00000000000E+00  0.00000000000E+00  0.99999998245E-14  0.12500000000E+03  0.12500000000E+03 0.  0.
        -13    1    3    3    0    0  0.65401084477E+01 -0.41916791933E+02 -0.45890071307E+02  0.62495602030E+02  0.10566000000E+00 0.  1.
         23    2    1    0    0    0  0.32742712696E+01 -0.20575243641E+02 -0.23298969625E+02  0.93744544655E+02  0.88380632288E+02 0.  0.
         13    1    3    3    0    0 -0.32658371781E+01  0.21341548291E+02  0.22591101682E+02  0.31248942625E+02  0.10566000000E+00 0. -1.
         22    1    1    0    0    0 -0.32742712696E+01  0.20575243641E+02  0.23298969625E+02  0.31255455345E+02  0.00000000000E+00 0.  1.
</event>
<event>
 5    1  0.1691066E-003  0.9118800E+02  0.7818608E-02  0.1130116E+00
         25   -1    0    0    0    0  0.00000000000E+00  0.00000000000E+00  0.99999998245E-14  0.12500000000E+03  0.12500000000E+03 0.  0.
        -13    1    3    3    0    0 -0.11426984710E+01 -0.12356485461E+02  0.33562307219E+02  0.35783070336E+02  0.10566000000E+00 0.  1.
         23    2    1    0    0    0 -0.79528406509E+01 -0.79216111001E+01 -0.26409958708E+02  0.96303562663E+02  0.91928726010E+02 0.  0.
         13    1    3    3    0    0 -0.68101421799E+01  0.44348743611E+01 -0.59972265927E+02  0.60520492328E+02  0.10566000000E+00 0. -1.
         22    1    1    0    0    0  0.79528406509E+01  0.79216111001E+01  0.26409958708E+02  0.28696437337E+02  0.00000000000E+00 0. -1.
</event>
<event>
 5    1  0.1691066E-003  0.9118800E+02  0.7818608E-02  0.1130116E+00
         25   -1    0    0    0    0  0.00000000000E+00  0.00000000000E+00  0.99999998245E-14  0.12500000000E+03  0.12500000000E+03 0.  0.
        -13    1    3    3    0    0 -0.13518301805E+02  0.47890154502E+01  0.35612121303E+02  0.38391581114E+02  0.10566000000E+00 0. -1.
         23    2    1    0    0    0  0.24052373769E+02 -0.16564359506E+02 -0.20621351631E+01  0.95722925502E+02  0.91135785373E+02 0.  0.
         13    1    3    3    0    0  0.37570675574E+02 -0.21353374956E+02 -0.37674256466E+02  0.57331344388E+02  0.10566000000E+00 0.  1.
         22    1    1    0    0    0 -0.24052373769E+02  0.16564359506E+02  0.20621351631E+01  0.29277074498E+02  0.00000000000E+00 0.  1.
</event>
<event>
 5    1  0.1691066E-003  0.9118800E+02  0.7818608E-02  0.1130116E+00
         25   -1    0    0    0    0  0.00000000000E+00  0.00000000000E+00  0.99999998245E-14  0.12500000000E+03  0.12500000000E+03 0.  0.
        -13    1    3    3    0    0 -0.37422738599E+02 -0.42573777978E+01 -0.10321837873E+02  0.39053016927E+02  0.10566000000E+00 0. -1.
         23    2    1    0    0    0  0.97425440006E+00 -0.35444238858E+02 -0.21496685708E+00  0.89541722396E+02  0.82221837726E+02 0.  0.
         13    1    3    3    0    0  0.38396992999E+02 -0.31186861061E+02  0.10106871016E+02  0.50488705469E+02  0.10566000000E+00 0.  1.
         22    1    1    0    0    0 -0.97425440006E+00  0.35444238858E+02  0.21496685708E+00  0.35458277604E+02  0.00000000000E+00 0. -1.
</event>
<event>
 5    1  0.1691066E-003  0.9118800E+02  0.7818608E-02  0.1130116E+00
         25   -1    0    0    0    0  0.00000000000E+00  0.00000000000E+00  0.99999998245E-14  0.12500000000E+03  0.12500000000E+03 0.  0.
        -13    1    3    3    0    0 -0.13050578301E+02  0.17552782516E+02  0.44621055061E+02  0.49693736898E+02  0.10566000000E+00 0.  1.
         23    2    1    0    0    0 -0.29981285200E+02 -0.30331197204E+01  0.10289621135E+02  0.93157362223E+02  0.87546219540E+02 0.  0.
         13    1    3    3    0    0 -0.16930706899E+02 -0.20585902237E+02 -0.34331433926E+02  0.43463625325E+02  0.10566000000E+00 0. -1.
         22    1    1    0    0    0  0.29981285200E+02  0.30331197204E+01 -0.10289621135E+02  0.31842637777E+02  0.00000000000E+00 0.  1.
</event>
<event>
 5    1  0.1691066E-003  0.9118800E+02  0.7818608E-02  0.1130116E+00
         25   -1    0    0    0    0  0.00000000000E+00  0.00000000000E+00  0.99999998245E-14  0.12500000000E+03  0.12500000000E+03 0.  0.
        -13    1    3    3    0    0 -0.71098315272E+00 -0.36936093264E+02 -0.14488677264E+02  0.39682658877E+02  0.10566000000E+00 0.  1.
         23    2    1    0    0    0 -0.41790193810E+01  0.17869997096E+02 -0.23341862285E+02  0.95307517212E+02  0.90564227501E+02 0.  0.
         13    1    3    3    0    0 -0.34680362283E+01  0.54806090359E+02 -0.88531850213E+01  0.55624858335E+02  0.10566000000E+00 0. -1.
         22    1    1    0    0    0  0.41790193810E+01 -0.17869997096E+02  0.23341862285E+02  0.29692482788E+02  0.00000000000E+00 0. -1.
</event>
<event>
 5    1  0.1691066E-003  0.9118800E+02  0.7818608E-02  0.1130116E+00
         25   -1    0    0    0    0  0.00000000000E+00  0.00000000000E+00  0.99999998245E-14  0.12500000000E+03  0.12500000000E+03 0.  0.
        -13    1    3    3    0    0 -0.19008778649E+01 -0.47693134698E+02  0.25199164491E+02  0.53974600406E+02  0.10566000000E+00 0.  1.
         23    2    1    0    0    0 -0.14496575318E+02 -0.29382414873E+02 -0.54007419695E+01  0.91793900958E+02  0.85577305634E+02 0.  0.
         13    1    3    3    0    0 -0.12595697453E+02  0.18310719825E+02 -0.30599906460E+02  0.37819300552E+02  0.10566000000E+00 0. -1.
         22    1    1    0    0    0  0.14496575318E+02  0.29382414873E+02  0.54007419695E+01  0.33206099042E+02  0.00000000000E+00 0.  1.
</event>
<event>
 5    1  0.1691066E-003  0.9118800E+02  0.7818608E-02  0.1130116E+00
         25   -1    0    0    0    0  0.00000000000E+00  0.00000000000E+00  0.99999998245E-14  0.12500000000E+03  0.12500000000E+03 0.  0.
        -13    1    3    3    0    0 -0.11024608669E+02 -0.12604437710E+02 -0.38246847348E+02  0.41752201647E+02  0.10566000000E+00 0. -1.
         23    2    1    0    0    0  0.25455706162E+02  0.13323075230E+02 -0.10505323555E+02  0.94408185199E+02  0.89314311842E+02 0.  0.
         13    1    3    3    0    0  0.36480314831E+02  0.25927512940E+02  0.27741523793E+02  0.52655983552E+02  0.10566000000E+00 0.  1.
         22    1    1    0    0    0 -0.25455706162E+02 -0.13323075230E+02  0.10505323555E+02  0.30591814801E+02  0.00000000000E+00 0.  1.
</event>
<event>
 5    1  0.1691066E-003  0.9118800E+02  0.7818608E-02  0.1130116E+00
         25   -1    0    0    0    0  0.00000000000E+00  0.00000000000E+00  0.99999998245E-14  0.12500000000E+03  0.12500000000E+03 0.  0.
        -13    1    3    3    0    0  0.33654756458E+02  0.18075431474E+02  0.42464488364E+02  0.57119241865E+02  0.10566000000E+00 0.  1.
         23    2    1    0    0    0  0.25348838671E+02 -0.63741437649E+01  0.14798343646E+02  0.94963616972E+02  0.90088313577E+02 0.  0.
         13    1    3    3    0    0 -0.83059177871E+01 -0.24449575239E+02 -0.27666144717E+02  0.37844375107E+02  0.10566000000E+00 0. -1.
         22    1    1    0    0    0 -0.25348838671E+02  0.63741437649E+01 -0.14798343646E+02  0.30036383028E+02  0.00000000000E+00 0.  1.
</event>
<event>
 5    1  0.1691066E-003  0.9118800E+02  0.7818608E-02  0.1130116E+00
         25   -1    0    0    0    0  0.00000000000E+00  0.00000000000E+00  0.99999998245E-14  0.12500000000E+03  0.12500000000E+03 0.  0.
        -13    1    3    3    0    0  0.14501319448E+02 -0.50121016264E+02 -0.26887913651E+02  0.58697321928E+02  0.10566000000E+00 0.  1.
         23    2    1    0    0    0 -0.84328295769E+01 -0.25920191896E+02 -0.12590986388E+02  0.94974978754E+02  0.90104076981E+02 0.  0.
         13    1    3    3    0    0 -0.22934149024E+02  0.24200824368E+02  0.14296927263E+02  0.36277656826E+02  0.10566000000E+00 0. -1.
         22    1    1    0    0    0  0.84328295769E+01  0.25920191896E+02  0.12590986388E+02  0.30025021246E+02  0.00000000000E+00 0.  1.
</event>
<event>
 5    1  0.1691066E-003  0.9118800E+02  0.7818608E-02  0.1130116E+00
         25   -1    0    0    0    0  0.00000000000E+00  0.00000000000E+00  0.99999998245E-14  0.12500000000E+03  0.12500000000E+03 0.  0.
        -13    1    3    3    0    0 -0.15583593542E+02 -0.47179074014E+02  0.24277272631E+02  0.55300185740E+02  0.10566000000E+00 0. -1.
         23    2    1    0    0    0  0.13344231054E+02 -0.18897907934E+02  0.16721122706E+02  0.96455379294E+02  0.92134927273E+02 0.  0.
         13    1    3    3    0    0  0.28927824596E+02  0.28281166080E+02 -0.75561499249E+01  0.41155193554E+02  0.10566000000E+00 0.  1.
         22    1    1    0    0    0 -0.13344231054E+02  0.18897907934E+02 -0.16721122706E+02  0.28544620706E+02  0.00000000000E+00 0. -1.
</event>
<event>
 5    1  0.1691066E-003  0.9118800E+02  0.7818608E-02  0.1130116E+00
         25   -1    0    0    0    0  0.00000000000E+00  0.00000000000E+00  0.99999998245E-14  0.12500000000E+03  0.12500000000E+03 0.  0.
        -13    1    3    3    0    0 -0.42016540436E+02 -0.18596380378E+02 -0.21928545820E+02  0.50912545793E+02  0.10566000000E+00 0. -1.
         23    2    1    0    0    0 -0.19957448501E+01 -0.19708558443E+02 -0.27260212707E+02  0.91302381832E+02  0.84856322439E+02 0.  0.
         13    1    3    3    0    0  0.40020795586E+02 -0.11121780649E+01 -0.53316668870E+01  0.40389836038E+02  0.10566000000E+00 0.  1.
         22    1    1    0    0    0  0.19957448501E+01  0.19708558443E+02  0.27260212707E+02  0.33697618168E+02  0.00000000000E+00 0. -1.
</event>
<event>
 5    1  0.1691066E-003  0.9118800E+02  0.7818608E-02  0.1130116E+00
         25   -1    0    0    0    0  0.00000000000E+00  0.00000000000E+00  0.99999998245E-14  0.12500000000E+03  0.12500000000E+03 0.  0.
        -13    1    3    3    0    0  0.17171469668E+02 -0.33979403894E+02 -0.13651362574E+02  0.40445396817E+02  0.10566000000E+00 0. -1.
         23    2    1    0    0    0 -0.28512721807E+02 -0.53389643254E+01 -0.31440887638E+00  0.95990024167E+02  0.91501399124E+02 0.  0.
         13    1    3    3    0    0 -0.45684191475E+02  0.28640439568E+02  0.13336953698E+02  0.55544627349E+02  0.10566000000E+00 0.  1.
         22    1    1    0    0    0  0.28512721807E+02  0.53389643254E+01  0.31440887638E+00  0.29009975833E+02  0.00000000000E+00 0.  1.
</event>
<event>
 5    1  0.1691066E-003  0.9118800E+02  0.7818608E-02  0.1130116E+00
         25   -1    0    0    0    0  0.00000000000E+00  0.00000000000E+00  0.99999998245E-14  0.12500000000E+03  0.12500000000E+03 0.  0.
        -13    1    3    3    0    0  0.38905913228E+02  0.14611068406E+02 -0.29068780342E+02  0.50716452544E+02  0.10566000000E+00 0.  1.
         23    2    1    0    0    0  0.20569666950E+02 -0.16946525837E+02  0.14735909435E+01  0.98307914907E+02  0.94614896959E+02 0.  0.
         13    1    3    3    0    0 -0.18336246278E+02 -0.31557594243E+02  0.30542371285E+02  0.47591462362E+02  0.10566000000E+00 0. -1.
         22    1    1    0    0    0 -0.20569666950E+02  0.16946525837E+02 -0.14735909435E+01  0.26692085093E+02  0.00000000000E+00 0. -1.
</event>
<event>
 5    1  0.1691066E-003  0.9118800E+02  0.7818608E-02  0.1130116E+00
         25   -1    0    0    0    0  0.00000000000E+00  0.00000000000E+00  0.99999998245E-14  0.12500000000E+03  0.12500000000E+03 0.  0.
        -13    1    3    3    0    0 -0.19621057797E+01 -0.17950116022E+02 -0.30797368331E+02  0.35700778485E+02  0.10566000000E+00 0.  1.
         23    2    1    0    0    0 -0.10127986991E+02  0.21799284346E+02  0.14824829612E+02  0.96758886503E+02  0.92545781243E+02 0.  0.
         13    1    3    3    0    0 -0.81658812116E+01  0.39749400369E+02  0.45622197943E+02  0.61058108018E+02  0.10566000000E+00 0. -1.
         22    1    1    0    0    0  0.10127986991E+02 -0.21799284346E+02 -0.14824829612E+02  0.28241113497E+02  0.00000000000E+00 0. -1.
</event>
<event>
 5    1  0.1691066E-003  0.9118800E+02  0.7818608E-02  0.1130116E+00
         25   -1    0    0    0    0  0.00000000000E+00  0.00000000000E+00  0.99999998245E-14  0.12500000000E+03  0.12500000000E+03 0.  0.
        -13    1    3    3    0    0  0.14816058066E+02 -0.32237966505E+02 -0.30498559320E+02  0.46786486784E+02  0.10566000000E+00 0. -1.
         23    2    1    0    0    0 -0.55921493570E+01 -0.23500984873E+02  0.14402075809E+02  0.96875487346E+02  0.92703138223E+02 0.  0.
         13    1    3    3    0    0 -0.20408207423E+02  0.87369816315E+01  0.44900635129E+02  0.50089000562E+02  0.10566000000E+00 0.  1.
         22    1    1    0    0    0  0.55921493570E+01  0.23500984873E+02 -0.14402075809E+02  0.28124512654E+02  0.00000000000E+00 0.  1.
</event>
<event>
 5    1  0.1691066E-003  0.9118800E+02  0.7818608E-02  0.1130116E+00
         25   -1    0    0    0    0  0.00000000000E+00  0.00000000000E+00  0.99999998245E-14  0.12500000000E+03  0.12500000000E+03 0.  0.
        -13    1    3    3    0    0 -0.47972047634E+01 -0.18587256760E+02  0.32049873248E+02  0.37359133109E+02  0.10566000000E+00 0. -1.
         23    2    1    0    0    0  0.15963689107E+01  0.29164571667E+02 -0.98505867567E+00  0.95775165102E+02  0.91207408007E+02 0.  0.
         13    1    3    3    0    0  0.63935736741E+01  0.47751828427E+02 -0.33034931924E+02  0.58416031992E+02  0.10566000000E+00 0.  1.
         22    1    1    0    0    0 -0.15963689107E+01 -0.29164571667E+02  0.98505867567E+00  0.29224834898E+02  0.00000000000E+00 0.  1.
</event>
<event>
 5    1  0.1691066E-003  0.9118800E+02  0.7818608E-02  0.1130116E+00
         25   -1    0    0    0    0  0.00000000000E+00  0.00000000000E+00  0.99999998245E-14  0.12500000000E+03  0.12500000000E+03 0.  0.
        -13    1    3    3    0    0 -0.26665556810E+02 -0.11063909890E+02 -0.25208657597E+02  0.38326878348E+02  0.10566000000E+00 0.  1.
         23    2    1    0    0    0 -0.50295551119E+01  0.27973387897E+02  0.96775222613E+01  0.94975655009E+02  0.90105015133E+02 0.  0.
         13    1    3    3    0    0  0.21636001699E+02  0.39037297786E+02  0.34886179858E+02  0.56648776660E+02  0.10566000000E+00 0. -1.
         22    1    1    0    0    0  0.50295551119E+01 -0.27973387897E+02 -0.96775222613E+01  0.30024344991E+02  0.00000000000E+00 0.  1.
</event>
<event>
 5    1  0.1691066E-003  0.9118800E+02  0.7818608E-02  0.1130116E+00
         25   -1    0    0    0    0  0.00000000000E+00  0.00000000000E+00  0.99999998245E-14  0.12500000000E+03  0.12500000000E+03 0.  0.
        -13    1    3    3    0    0  0.32662072673E+02 -0.23551479584E+02  0.23313640893E+02  0.46529777537E+02  0.10566000000E+00 0. -1.
         23    2    1    0    0    0  0.17833759258E+02 -0.11549779427E+02 -0.21216162380E+02  0.94973912672E+02  0.90102598009E+02 0.  0.
         13    1    3    3    0    0 -0.14828313415E+02  0.12001700157E+02 -0.44529803273E+02  0.48444135135E+02  0.10566000000E+00 0.  1.
         22    1    1    0    0    0 -0.17833759258E+02  0.11549779427E+02  0.21216162380E+02  0.30026087328E+02  0.00000000000E+00 0.  1.
</event>
<event>
 5    1  0.1691066E-003  0.9118800E+02  0.7818608E-02  0.1130116E+00
         25   -1    0    0    0    0  0.00000000000E+00  0.00000000000E+00  0.99999998245E-14  0.12500000000E+03  0.12500000000E+03 0.  0.
        -13    1    3    3    0    0 -0.29478860190E+02 -0.87137739256E-01 -0.96006817426E+01  0.31003145728E+02  0.10566000000E+00 0. -1.
         23    2    1    0    0    0  0.26226333918E+02 -0.13770507127E+02  0.12993375360E+02  0.92653821546E+02  0.86824278785E+02 0.  0.
         13    1    3    3    0    0  0.55705194108E+02 -0.13683369388E+02  0.22594057103E+02  0.61650675818E+02  0.10566000000E+00 0.  1.
         22    1    1    0    0    0 -0.26226333918E+02  0.13770507127E+02 -0.12993375360E+02  0.32346178454E+02  0.00000000000E+00 0.  1.
</event>
<event>
 5    1  0.1691066E-003  0.9118800E+02  0.7818608E-02  0.1130116E+00
         25   -1    0    0    0    0  0.00000000000E+00  0.00000000000E+00  0.99999998245E-14  0.12500000000E+03  0.12500000000E+03 0.  0.
        -13    1    3    3    0    0  0.27700888303E+02 -0.31243679732E+02 -0.33957468703E+01  0.41893304916E+02  0.10566000000E+00 0.  1.
         23    2    1    0    0    0  0.84130467889E+01  0.71291744936E+01  0.27877464792E+02  0.95020715011E+02  0.90167503862E+02 0.  0.
         13    1    3    3    0    0 -0.19287841514E+02  0.38372854225E+02  0.31273211662E+02  0.53127410095E+02  0.10566000000E+00 0. -1.
         22    1    1    0    0    0 -0.84130467889E+01 -0.71291744936E+01 -0.27877464792E+02  0.29979284989E+02  0.00000000000E+00 0. -1.
</event>
<event>
 5    1  0.1691066E-003  0.9118800E+02  0.7818608E-02  0.1130116E+00
         25   -1    0    0    0    0  0.00000000000E+00  0.00000000000E+00  0.99999998245E-14  0.12500000000E+03  0.12500000000E+03 0.  0.
        -13    1    3    3    0    0 -0.47405589023E+02  0.33014694795E+02  0.57041838068E+01  0.58050054436E+02  0.10566000000E+00 0. -1.
         23    2    1    0    0    0 -0.19073491438E+02  0.92837451896E+01  0.18186017386E+02  0.97058682408E+02  0.92949828413E+02 0.  0.
         13    1    3    3    0    0  0.28332097585E+02 -0.23730949605E+02  0.12481833579E+02  0.39008627972E+02  0.10566000000E+00 0.  1.
         22    1    1    0    0    0  0.19073491438E+02 -0.92837451896E+01 -0.18186017386E+02  0.27941317592E+02  0.00000000000E+00 0. -1.
</event>
<event>
 5    1  0.1691066E-003  0.9118800E+02  0.7818608E-02  0.1130116E+00
         25   -1    0    0    0    0  0.00000000000E+00  0.00000000000E+00  0.99999998245E-14  0.12500000000E+03  0.12500000000E+03 0.  0.
        -13    1    3    3    0    0 -0.12589623435E+02  0.14437360390E+02 -0.27789783125E+02  0.33752321453E+02  0.10566000000E+00 0. -1.
         23    2    1    0    0    0 -0.58957602691E+01 -0.10676857836E+02  0.27538563746E+02  0.94881438023E+02  0.89974215783E+02 0.  0.
         13    1    3    3    0    0  0.66938631656E+01 -0.25114218225E+02  0.55328346871E+02  0.61129116570E+02  0.10566000000E+00 0.  1.
         22    1    1    0    0    0  0.58957602691E+01  0.10676857836E+02 -0.27538563746E+02  0.30118561977E+02  0.00000000000E+00 0.  1.
</event>
<event>
 5    1  0.1691066E-003  0.9118800E+02  0.7818608E-02  0.1130116E+00
         25   -1    0    0    0    0  0.00000000000E+00  0.00000000000E+00  0.99999998245E-14  0.12500000000E+03  0.12500000000E+03 0.  0.
        -13    1    3    3    0    0 -0.67788393480E+01  0.30244268177E+02 -0.26064440020E+02  0.40497340876E+02  0.10566000000E+00 0. -1.
         23    2    1    0    0    0  0.19972295797E+02  0.11271460424E+02  0.18294458860E+02  0.95663578192E+02  0.91054349418E+02 0.  0.
         13    1    3    3    0    0  0.26751135145E+02 -0.18972807752E+02  0.44358898881E+02  0.55166237315E+02  0.10566000000E+00 0.  1.
         22    1    1    0    0    0 -0.19972295797E+02 -0.11271460424E+02 -0.18294458860E+02  0.29336421808E+02  0.00000000000E+00 0.  1.
</event>
<event>
 5    1  0.1691066E-003  0.9118800E+02  0.7818608E-02  0.1130116E+00
         25   -1    0    0    0    0  0.00000000000E+00  0.00000000000E+00  0.99999998245E-14  0.12500000000E+03  0.12500000000E+03 0.  0.
        -13    1    3    3    0    0 -0.32388931195E+02 -0.28564723876E+02  0.40432953234E+01  0.43374482304E+02  0.10566000000E+00 0.  1.
         23    2    1    0    0    0  0.20399298149E+01 -0.12087566443E+02 -0.28781604898E+02  0.93716596146E+02  0.88341094834E+02 0.  0.
         13    1    3    3    0    0  0.34428861010E+02  0.16477157433E+02 -0.32824900222E+02  0.50342113842E+02  0.10566000000E+00 0. -1.
         22    1    1    0    0    0 -0.20399298149E+01  0.12087566443E+02  0.28781604898E+02  0.31283403854E+02  0.00000000000E+00 0. -1.
</event>
<event>
 5    1  0.1691066E-003  0.9118800E+02  0.7818608E-02  0.1130116E+00
         25   -1    0    0    0    0  0.00000000000E+00  0.00000000000E+00  0.99999998245E-14  0.12500000000E+03  0.12500000000E+03 0.  0.
        -13    1    3    3    0    0 -0.37989541978E+01  0.13770675132E+02 -0.33312457992E+02  0.36246304199E+02  0.10566000000E+00 0. -1.
         23    2    1    0    0    0  0.10281178821E+02  0.16210934175E+02  0.23401180850E+02  0.94732653074E+02  0.89767272815E+02 0.  0.
         13    1    3    3    0    0  0.14080133018E+02  0.24402590428E+01  0.56713638842E+02  0.58486348875E+02  0.10566000000E+00 0.  1.
         22    1    1    0    0    0 -0.10281178821E+02 -0.16210934175E+02 -0.23401180850E+02  0.30267346926E+02  0.00000000000E+00 0.  1.
</event>
<event>
 5    1  0.1691066E-003  0.9118800E+02  0.7818608E-02  0.1130116E+00
         25   -1    0    0    0    0  0.00000000000E+00  0.00000000000E+00  0.99999998245E-14  0.12500000000E+03  0.12500000000E+03 0.  0.
        -13    1    3    3    0    0 -0.24987247863E+01 -0.79638858103E+01  0.33571698007E+02  0.34593889256E+02  0.10566000000E+00 0. -1.
         23    2    1    0    0    0 -0.13811767462E+02  0.18699381045E+02 -0.19237961765E+02  0.94824994702E+02  0.89895765615E+02 0.  0.
         13    1    3    3    0    0 -0.11313042675E+02  0.26663266855E+02 -0.52809659772E+02  0.60231105446E+02  0.10566000000E+00 0.  1.
         22    1    1    0    0    0  0.13811767462E+02 -0.18699381045E+02  0.19237961765E+02  0.30175005298E+02  0.00000000000E+00 0.  1.
</event>
<event>
 5    1  0.1691066E-003  0.9118800E+02  0.7818608E-02  0.1130116E+00
         25   -1    0    0    0    0  0.00000000000E+00  0.00000000000E+00  0.99999998245E-14  0.12500000000E+03  0.12500000000E+03 0.  0.
        -13    1    3    3    0    0 -0.40375349884E+02 -0.34847593972E+02 -0.11759403415E+02  0.54615184854E+02  0.10566000000E+00 0.  1.
         23    2    1    0    0    0 -0.19785845878E+02 -0.10504386491E+01 -0.21898261701E+02  0.95468373157E+02  0.90785975179E+02 0.  0.
         13    1    3    3    0    0  0.20589504006E+02  0.33797155323E+02 -0.10138858287E+02  0.40853188303E+02  0.10566000000E+00 0. -1.
         22    1    1    0    0    0  0.19785845878E+02  0.10504386491E+01  0.21898261701E+02  0.29531626843E+02  0.00000000000E+00 0.  1.
</event>
<event>
 5    1  0.1691066E-003  0.9118800E+02  0.7818608E-02  0.1130116E+00
         25   -1    0    0    0    0  0.00000000000E+00  0.00000000000E+00  0.99999998245E-14  0.12500000000E+03  0.12500000000E+03 0.  0.
        -13    1    3    3    0    0  0.32598513740E+02 -0.38355247047E+02  0.36275898988E+01  0.50467401821E+02  0.10566000000E+00 0. -1.
         23    2    1    0    0    0  0.47572038426E+01 -0.19262246048E+02 -0.23835957717E+02  0.93986809395E+02  0.88722614641E+02 0.  0.
         13    1    3    3    0    0 -0.27841309897E+02  0.19093000999E+02 -0.27463547616E+02  0.43519407574E+02  0.10566000000E+00 0.  1.
         22    1    1    0    0    0 -0.47572038426E+01  0.19262246048E+02  0.23835957717E+02  0.31013190605E+02  0.00000000000E+00 0. -1.
</event>
<event>
 5    1  0.1691066E-003  0.9118800E+02  0.7818608E-02  0.1130116E+00
         25   -1    0    0    0    0  0.00000000000E+00  0.00000000000E+00  0.99999998245E-14  0.12500000000E+03  0.12500000000E+03 0.  0.
        -13    1    3    3    0    0 -0.46825988973E+02 -0.35257811490E+02  0.18844622331E+02  0.61570426905E+02  0.10566000000E+00 0.  1.
         23    2    1    0    0    0 -0.18118867716E+02 -0.11962487738E+02  0.14717867942E+02  0.98770053051E+02  0.95223491129E+02 0.  0.
         13    1    3    3    0    0  0.28707121258E+02  0.23295323752E+02 -0.41267543888E+01  0.37199626146E+02  0.10566000000E+00 0. -1.
         22    1    1    0    0    0  0.18118867716E+02  0.11962487738E+02 -0.14717867942E+02  0.26229946949E+02  0.00000000000E+00 0.  1.
</event>
<event>
 5    1  0.1691066E-003  0.9118800E+02  0.7818608E-02  0.1130116E+00
         25   -1    0    0    0    0  0.00000000000E+00  0.00000000000E+00  0.99999998245E-14  0.12500000000E+03  0.12500000000E+03 0.  0.
        -13    1    3    3    0    0  0.12256736101E+01 -0.15135541361E+02 -0.27798863791E+02  0.31676093197E+02  0.10566000000E+00 0.  1.
         23    2    1    0    0    0 -0.14573749052E+02  0.22327380417E+02  0.17932246059E+02  0.92867905041E+02  0.87131947415E+02 0.  0.
         13    1    3    3    0    0 -0.15799422662E+02  0.37462921778E+02  0.45731109850E+02  0.61191811844E+02  0.10566000000E+00 0. -1.
         22    1    1    0    0    0  0.14573749052E+02 -0.22327380417E+02 -0.17932246059E+02  0.32132094959E+02  0.00000000000E+00 0. -1.
</event>
<event>
 5    1  0.1691066E-003  0.9118800E+02  0.7818608E-02  0.1130116E+00
         25   -1    0    0    0    0  0.00000000000E+00  0.00000000000E+00  0.99999998245E-14  0.12500000000E+03  0.12500000000E+03 0.  0.
        -13    1    3    3    0    0 -0.23699935405E+02  0.39344609881E+02  0.14000024900E+02  0.48017675143E+02  0.10566000000E+00 0.  1.
         23    2    1    0    0    0 -0.25057992033E+02 -0.75655479973E+01  0.14752734001E+02  0.94953641789E+02  0.90074471674E+02 0.  0.
         13    1    3    3    0    0 -0.13580566285E+01 -0.46910157879E+02  0.75270910149E+00  0.46935966646E+02  0.10566000000E+00 0. -1.
         22    1    1    0    0    0  0.25057992033E+02  0.75655479973E+01 -0.14752734001E+02  0.30046358211E+02  0.00000000000E+00 0.  1.
</event>
<event>
 5    1  0.1691066E-003  0.9118800E+02  0.7818608E-02  0.1130116E+00
         25   -1    0    0    0    0  0.00000000000E+00  0.00000000000E+00  0.99999998245E-14  0.12500000000E+03  0.12500000000E+03 0.  0.
        -13    1    3    3    0    0 -0.41409534043E+02 -0.35643178537E+01  0.92807441616E+01  0.42586350485E+02  0.10566000000E+00 0.  1.
         23    2    1    0    0    0  0.19816832122E+01 -0.27833200257E+02 -0.91874069018E+01  0.95622754546E+02  0.90998289195E+02 0.  0.
         13    1    3    3    0    0  0.43391217255E+02 -0.24268882403E+02 -0.18468151063E+02  0.53036404061E+02  0.10566000000E+00 0. -1.
         22    1    1    0    0    0 -0.19816832122E+01  0.27833200257E+02  0.91874069018E+01  0.29377245454E+02  0.00000000000E+00 0. -1.
</event>
<event>
 5    1  0.1691066E-003  0.9118800E+02  0.7818608E-02  0.1130116E+00
         25   -1    0    0    0    0  0.00000000000E+00  0.00000000000E+00  0.99999998245E-14  0.12500000000E+03  0.12500000000E+03 0.  0.
        -13    1    3    3    0    0  0.29348920991E+02 -0.45531656650E+01 -0.52865292304E+02  0.60636958823E+02  0.10566000000E+00 0.  1.
         23    2    1    0    0    0  0.22224173035E+02 -0.79091048466E+00 -0.18091211463E+02  0.96332399147E+02  0.91967928033E+02 0.  0.
         13    1    3    3    0    0 -0.71247479560E+01  0.37622551803E+01  0.34774080841E+02  0.35695440323E+02  0.10566000000E+00 0. -1.
         22    1    1    0    0    0 -0.22224173035E+02  0.79091048466E+00  0.18091211463E+02  0.28667600853E+02  0.00000000000E+00 0.  1.
</event>
<event>
 5    1  0.1691066E-003  0.9118800E+02  0.7818608E-02  0.1130116E+00
         25   -1    0    0    0    0  0.00000000000E+00  0.00000000000E+00  0.99999998245E-14  0.12500000000E+03  0.12500000000E+03 0.  0.
        -13    1    3    3    0    0 -0.87019827062E+01 -0.37380234527E+01 -0.58588091042E+02  0.59348739653E+02  0.10566000000E+00 0. -1.
         23    2    1    0    0    0  0.99500746268E+01  0.44778357304E+00 -0.26376204575E+02  0.96805875382E+02  0.92609226567E+02 0.  0.
         13    1    3    3    0    0  0.18652057333E+02  0.41858070257E+01  0.32211886467E+02  0.37457135729E+02  0.10566000000E+00 0.  1.
         22    1    1    0    0    0 -0.99500746268E+01 -0.44778357304E+00  0.26376204575E+02  0.28194124618E+02  0.00000000000E+00 0. -1.
</event>
<event>
 5    1  0.1691066E-003  0.9118800E+02  0.7818608E-02  0.1130116E+00
         25   -1    0    0    0    0  0.00000000000E+00  0.00000000000E+00  0.99999998245E-14  0.12500000000E+03  0.12500000000E+03 0.  0.
        -13    1    3    3    0    0 -0.35962833529E+02  0.10355721184E+02 -0.23441803056E+02  0.44159887355E+02  0.10566000000E+00 0.  1.
         23    2    1    0    0    0 -0.14262750956E+02  0.90455008911E+01  0.23598250380E+02  0.95980617302E+02  0.91488547510E+02 0.  0.
         13    1    3    3    0    0  0.21700082573E+02 -0.13102202928E+01  0.47040053436E+02  0.51820729946E+02  0.10566000000E+00 0. -1.
         22    1    1    0    0    0  0.14262750956E+02 -0.90455008911E+01 -0.23598250380E+02  0.29019382698E+02  0.00000000000E+00 0. -1.
</event>
<event>
 5    1  0.1691066E-003  0.9118800E+02  0.7818608E-02  0.1130116E+00
         25   -1    0    0    0    0  0.00000000000E+00  0.00000000000E+00  0.99999998245E-14  0.12500000000E+03  0.12500000000E+03 0.  0.
        -13    1    3    3    0    0  0.40564117123E+02 -0.14278606786E+02 -0.41679153831E+02  0.59887304480E+02  0.10566000000E+00 0.  1.
         23    2    1    0    0    0  0.25550696620E+02  0.31694095385E+01 -0.14696843887E+02  0.95354081650E+02  0.90628474623E+02 0.  0.
         13    1    3    3    0    0 -0.15013420503E+02  0.17448016325E+02  0.26982309944E+02  0.35466777170E+02  0.10566000000E+00 0. -1.
         22    1    1    0    0    0 -0.25550696620E+02 -0.31694095385E+01  0.14696843887E+02  0.29645918350E+02  0.00000000000E+00 0.  1.
</event>
<event>
 5    1  0.1691066E-003  0.9118800E+02  0.7818608E-02  0.1130116E+00
         25   -1    0    0    0    0  0.00000000000E+00  0.00000000000E+00  0.99999998245E-14  0.12500000000E+03  0.12500000000E+03 0.  0.
        -13    1    3    3    0    0 -0.29296611011E+02  0.26991557949E+02 -0.26741361841E+02  0.47978612051E+02  0.10566000000E+00 0. -1.
         23    2    1    0    0    0 -0.22896155645E+02  0.10681953797E+02  0.16628310480E+02  0.94753697918E+02  0.89796572760E+02 0.  0.
         13    1    3    3    0    0  0.64004553661E+01 -0.16309604152E+02  0.43369672321E+02  0.46775085866E+02  0.10566000000E+00 0.  1.
         22    1    1    0    0    0  0.22896155645E+02 -0.10681953797E+02 -0.16628310480E+02  0.30246302082E+02  0.00000000000E+00 0.  1.
</event>
<event>
 5    1  0.1691066E-003  0.9118800E+02  0.7818608E-02  0.1130116E+00
         25   -1    0    0    0    0  0.00000000000E+00  0.00000000000E+00  0.99999998245E-14  0.12500000000E+03  0.12500000000E+03 0.  0.
        -13    1    3    3    0    0  0.26780947995E+02  0.26127192550E+02 -0.74425876518E+01  0.38147773737E+02  0.10566000000E+00 0. -1.
         23    2    1    0    0    0  0.16746608045E+01 -0.23689364386E+02 -0.18348106537E+02  0.94989277127E+02  0.90123910711E+02 0.  0.
         13    1    3    3    0    0 -0.25106287191E+02 -0.49816556936E+02 -0.10905518886E+02  0.56841503391E+02  0.10566000000E+00 0.  1.
         22    1    1    0    0    0 -0.16746608045E+01  0.23689364386E+02  0.18348106537E+02  0.30010722873E+02  0.00000000000E+00 0.  1.
</event>
<event>
 5    1  0.1691066E-003  0.9118800E+02  0.7818608E-02  0.1130116E+00
         25   -1    0    0    0    0  0.00000000000E+00  0.00000000000E+00  0.99999998245E-14  0.12500000000E+03  0.12500000000E+03 0.  0.
        -13    1    3    3    0    0  0.35659257080E+02 -0.27782740014E+02 -0.27857204795E+02  0.53098948023E+02  0.10566000000E+00 0. -1.
         23    2    1    0    0    0  0.32232437009E+02  0.31884022381E+01 -0.39573796557E+01  0.92369389247E+02  0.86413814358E+02 0.  0.
         13    1    3    3    0    0 -0.34268200711E+01  0.30971142252E+02  0.23899825139E+02  0.39270441224E+02  0.10566000000E+00 0.  1.
         22    1    1    0    0    0 -0.32232437009E+02 -0.31884022381E+01  0.39573796557E+01  0.32630610753E+02  0.00000000000E+00 0. -1.
</event>
<event>
 5    1  0.1691066E-003  0.9118800E+02  0.7818608E-02  0.1130116E+00
         25   -1    0    0    0    0  0.00000000000E+00  0.00000000000E+00  0.99999998245E-14  0.12500000000E+03  0.12500000000E+03 0.  0.
        -13    1    3    3    0    0  0.32526227262E+02  0.40299865450E+02 -0.19029951081E+02  0.55174131777E+02  0.10566000000E+00 0.  1.
         23    2    1    0    0    0  0.25719683115E+02  0.84775765627E+01  0.72079262699E+01  0.96976338480E+02  0.92839025307E+02 0.  0.
         13    1    3    3    0    0 -0.68065441474E+01 -0.31822288887E+02  0.26237877351E+02  0.41802206702E+02  0.10566000000E+00 0. -1.
         22    1    1    0    0    0 -0.25719683115E+02 -0.84775765627E+01 -0.72079262699E+01  0.28023661520E+02  0.00000000000E+00 0.  1.
</event>
<event>
 5    1  0.1691066E-003  0.9118800E+02  0.7818608E-02  0.1130116E+00
         25   -1    0    0    0    0  0.00000000000E+00  0.00000000000E+00  0.99999998245E-14  0.12500000000E+03  0.12500000000E+03 0.  0.
        -13    1    3    3    0    0  0.33040972998E+02  0.19778092589E+02 -0.40770829486E+02  0.56081641775E+02  0.10566000000E+00 0. -1.
         23    2    1    0    0    0  0.70140432195E+01 -0.76232600913E+01 -0.26618614019E+02  0.96436710466E+02  0.92109595681E+02 0.  0.
         13    1    3    3    0    0 -0.26026929779E+02 -0.27401352680E+02  0.14152215467E+02  0.40355068691E+02  0.10566000000E+00 0.  1.
         22    1    1    0    0    0 -0.70140432195E+01  0.76232600913E+01  0.26618614019E+02  0.28563289534E+02  0.00000000000E+00 0. -1.
</event>
<event>
 5    1  0.1691066E-003  0.9118800E+02  0.7818608E-02  0.1130116E+00
         25   -1    0    0    0    0  0.00000000000E+00  0.00000000000E+00  0.99999998245E-14  0.12500000000E+03  0.12500000000E+03 0.  0.
        -13    1    3    3    0    0  0.38322352833E+02  0.82414133498E+01  0.45199892625E+02  0.59829466637E+02  0.10566000000E+00 0. -1.
         23    2    1    0    0    0  0.71594809904E+01  0.36319953170E+01  0.28310030168E+02  0.95573696016E+02  0.90930874867E+02 0.  0.
         13    1    3    3    0    0 -0.31162871843E+02 -0.46094180327E+01 -0.16889862457E+02  0.35744229380E+02  0.10566000000E+00 0.  1.
         22    1    1    0    0    0 -0.71594809904E+01 -0.36319953170E+01 -0.28310030168E+02  0.29426303984E+02  0.00000000000E+00 0. -1.
</event>
<event>
 5    1  0.1691066E-003  0.9118800E+02  0.7818608E-02  0.1130116E+00
         25   -1    0    0    0    0  0.00000000000E+00  0.00000000000E+00  0.99999998245E-14  0.12500000000E+03  0.12500000000E+03 0.  0.
        -13    1    3    3    0    0  0.30033388037E+02  0.37770017717E+02  0.24433043790E+02  0.54088477777E+02  0.10566000000E+00 0.  1.
         23    2    1    0    0    0  0.25205214716E+01  0.92009034323E+01  0.29427469988E+02  0.94064815462E+02  0.88832448270E+02 0.  0.
         13    1    3    3    0    0 -0.27512866565E+02 -0.28569114285E+02  0.49944261988E+01  0.39976337686E+02  0.10566000000E+00 0. -1.
         22    1    1    0    0    0 -0.25205214716E+01 -0.92009034323E+01 -0.29427469988E+02  0.30935184538E+02  0.00000000000E+00 0.  1.
</event>
<event>
 5    1  0.1691066E-003  0.9118800E+02  0.7818608E-02  0.1130116E+00
         25   -1    0    0    0    0  0.00000000000E+00  0.00000000000E+00  0.99999998245E-14  0.12500000000E+03  0.12500000000E+03 0.  0.
        -13    1    3    3    0    0  0.26445067893E+02  0.36748405940E+02 -0.40259757083E+02  0.60585857751E+02  0.10566000000E+00 0. -1.
         23    2    1    0    0    0  0.42526322876E+01  0.24456465815E+02 -0.17989152913E+02  0.94343626697E+02  0.89223913131E+02 0.  0.
         13    1    3    3    0    0 -0.22192435606E+02 -0.12291940125E+02  0.22270604170E+02  0.33757768947E+02  0.10566000000E+00 0.  1.
         22    1    1    0    0    0 -0.42526322876E+01 -0.24456465815E+02  0.17989152913E+02  0.30656373303E+02  0.00000000000E+00 0. -1.
</event>
<event>
 5    1  0.1691066E-003  0.9118800E+02  0.7818608E-02  0.1130116E+00
         25   -1    0    0    0    0  0.00000000000E+00  0.00000000000E+00  0.99999998245E-14  0.12500000000E+03  0.12500000000E+03 0.  0.
        -13    1    3    3    0    0 -0.13236516151E+02  0.30752339615E+02 -0.33008367451E+02  0.47015691396E+02  0.10566000000E+00 0. -1.
         23    2    1    0    0    0  0.20187875670E+02  0.21641330231E+02  0.76017234151E+00  0.95394673448E+02  0.90684443881E+02 0.  0.
         13    1    3    3    0    0  0.33424391821E+02 -0.91110093840E+01  0.33768539793E+02  0.48378982052E+02  0.10566000000E+00 0.  1.
         22    1    1    0    0    0 -0.20187875670E+02 -0.21641330231E+02 -0.76017234151E+00  0.29605326552E+02  0.00000000000E+00 0.  1.
</event>
<event>
 5    1  0.1691066E-003  0.9118800E+02  0.7818608E-02  0.1130116E+00
         25   -1    0    0    0    0  0.00000000000E+00  0.00000000000E+00  0.99999998245E-14  0.12500000000E+03  0.12500000000E+03 0.  0.
        -13    1    3    3    0    0  0.33089084533E+02 -0.48561503431E+01 -0.55354351173E+01  0.33898700821E+02  0.10566000000E+00 0. -1.
         23    2    1    0    0    0 -0.28504325217E+02  0.26021015562E+01 -0.49956945474E+01  0.95944459176E+02  0.91439131634E+02 0.  0.
         13    1    3    3    0    0 -0.61593409749E+02  0.74582518993E+01  0.53974056988E+00  0.62045758355E+02  0.10566000000E+00 0.  1.
         22    1    1    0    0    0  0.28504325217E+02 -0.26021015562E+01  0.49956945474E+01  0.29055540824E+02  0.00000000000E+00 0.  1.
</event>
<event>
 5    1  0.1691066E-003  0.9118800E+02  0.7818608E-02  0.1130116E+00
         25   -1    0    0    0    0  0.00000000000E+00  0.00000000000E+00  0.99999998245E-14  0.12500000000E+03  0.12500000000E+03 0.  0.
        -13    1    3    3    0    0  0.36781661397E+02 -0.44652786040E+02  0.17472896599E+02  0.60432401871E+02  0.10566000000E+00 0.  1.
         23    2    1    0    0    0  0.24921788660E+02 -0.13155533758E+02  0.11236202021E+02  0.94661643843E+02  0.89668338675E+02 0.  0.
         13    1    3    3    0    0 -0.11859872737E+02  0.31497252283E+02 -0.62366945783E+01  0.34229241972E+02  0.10566000000E+00 0. -1.
         22    1    1    0    0    0 -0.24921788660E+02  0.13155533758E+02 -0.11236202021E+02  0.30338356157E+02  0.00000000000E+00 0.  1.
</event>
<event>
 5    1  0.1691066E-003  0.9118800E+02  0.7818608E-02  0.1130116E+00
         25   -1    0    0    0    0  0.00000000000E+00  0.00000000000E+00  0.99999998245E-14  0.12500000000E+03  0.12500000000E+03 0.  0.
        -13    1    3    3    0    0  0.13173152057E+02  0.30296776250E+02 -0.12926855299E+02  0.35475926179E+02  0.10566000000E+00 0.  1.
         23    2    1    0    0    0 -0.19409287898E+02 -0.19153948191E+02 -0.13217541407E+02  0.94696574635E+02  0.89717019895E+02 0.  0.
         13    1    3    3    0    0 -0.32582439955E+02 -0.49450724441E+02 -0.29068610768E+00  0.59220648456E+02  0.10566000000E+00 0. -1.
         22    1    1    0    0    0  0.19409287898E+02  0.19153948191E+02  0.13217541407E+02  0.30303425365E+02  0.00000000000E+00 0. -1.
</event>
<event>
 5    1  0.1691066E-003  0.9118800E+02  0.7818608E-02  0.1130116E+00
         25   -1    0    0    0    0  0.00000000000E+00  0.00000000000E+00  0.99999998245E-14  0.12500000000E+03  0.12500000000E+03 0.  0.
        -13    1    3    3    0    0  0.11686304378E+02  0.52944491640E+02 -0.23415674636E+02  0.59059240495E+02  0.10566000000E+00 0. -1.
         23    2    1    0    0    0  0.15723204119E+02  0.26710738167E+02 -0.69674788438E+00  0.93997288202E+02  0.88737376852E+02 0.  0.
         13    1    3    3    0    0  0.40368997413E+01 -0.26233753473E+02  0.22718926752E+02  0.34938047707E+02  0.10566000000E+00 0.  1.
         22    1    1    0    0    0 -0.15723204119E+02 -0.26710738167E+02  0.69674788438E+00  0.31002711798E+02  0.00000000000E+00 0. -1.
</event>
<event>
 5    1  0.1691066E-003  0.9118800E+02  0.7818608E-02  0.1130116E+00
         25   -1    0    0    0    0  0.00000000000E+00  0.00000000000E+00  0.99999998245E-14  0.12500000000E+03  0.12500000000E+03 0.  0.
        -13    1    3    3    0    0  0.68100239156E+01  0.10188854363E+02  0.41117876324E+02  0.42905478629E+02  0.10566000000E+00 0.  1.
         23    2    1    0    0    0  0.14947386696E+02  0.37974880931E+02  0.16247218500E+02  0.81074061652E+02  0.68143344598E+02 0.  0.
         13    1    3    3    0    0  0.81373627802E+01  0.27786026567E+02 -0.24870657823E+02  0.38168583023E+02  0.10566000000E+00 0. -1.
         22    1    1    0    0    0 -0.14947386696E+02 -0.37974880931E+02 -0.16247218500E+02  0.43925938348E+02  0.00000000000E+00 0. -1.
</event>
<event>
 5    1  0.1691066E-003  0.9118800E+02  0.7818608E-02  0.1130116E+00
         25   -1    0    0    0    0  0.00000000000E+00  0.00000000000E+00  0.99999998245E-14  0.12500000000E+03  0.12500000000E+03 0.  0.
        -13    1    3    3    0    0 -0.14530640009E+02  0.23045902184E+01  0.47952891226E+02  0.50159162435E+02  0.10566000000E+00 0.  1.
         23    2    1    0    0    0  0.69819099137E+01  0.23954265757E+02  0.12019622917E+02  0.97304779310E+02  0.93280195258E+02 0.  0.
         13    1    3    3    0    0  0.21512549923E+02  0.21649675539E+02 -0.35933268309E+02  0.47145616875E+02  0.10566000000E+00 0. -1.
         22    1    1    0    0    0 -0.69819099137E+01 -0.23954265757E+02 -0.12019622917E+02  0.27695220690E+02  0.00000000000E+00 0. -1.
</event>
<event>
 5    1  0.1691066E-003  0.9118800E+02  0.7818608E-02  0.1130116E+00
         25   -1    0    0    0    0  0.00000000000E+00  0.00000000000E+00  0.99999998245E-14  0.12500000000E+03  0.12500000000E+03 0.  0.
        -13    1    3    3    0    0 -0.55837506817E+01  0.27539405798E+02  0.48831512665E+02  0.56339372881E+02  0.10566000000E+00 0.  1.
         23    2    1    0    0    0 -0.13866530239E+00 -0.55244145412E+01  0.29420780861E+02  0.95064724312E+02  0.90228493714E+02 0.  0.
         13    1    3    3    0    0  0.54450853793E+01 -0.33063820339E+02 -0.19410731805E+02  0.38725351431E+02  0.10566000000E+00 0. -1.
         22    1    1    0    0    0  0.13866530239E+00  0.55244145412E+01 -0.29420780861E+02  0.29935275688E+02  0.00000000000E+00 0.  1.
</event>
<event>
 5    1  0.1691066E-003  0.9118800E+02  0.7818608E-02  0.1130116E+00
         25   -1    0    0    0    0  0.00000000000E+00  0.00000000000E+00  0.99999998245E-14  0.12500000000E+03  0.12500000000E+03 0.  0.
        -13    1    3    3    0    0 -0.13940559324E+02  0.18226859172E+02  0.22354847917E+02  0.32036041874E+02  0.10566000000E+00 0. -1.
         23    2    1    0    0    0  0.34431821470E+02  0.23224770507E+02  0.12171640559E+02  0.81720800277E+02  0.69319550411E+02 0.  0.
         13    1    3    3    0    0  0.48372380794E+02  0.49979113343E+01 -0.10183207358E+02  0.49684758402E+02  0.10566000000E+00 0.  1.
         22    1    1    0    0    0 -0.34431821470E+02 -0.23224770507E+02 -0.12171640559E+02  0.43279199723E+02  0.00000000000E+00 0. -1.
</event>
<event>
 5    1  0.1691066E-003  0.9118800E+02  0.7818608E-02  0.1130116E+00
         25   -1    0    0    0    0  0.00000000000E+00  0.00000000000E+00  0.99999998245E-14  0.12500000000E+03  0.12500000000E+03 0.  0.
        -13    1    3    3    0    0 -0.26955189434E+02  0.21134440064E+02  0.50150841193E+02  0.60731909492E+02  0.10566000000E+00 0. -1.
         23    2    1    0    0    0 -0.18615996128E+02  0.15774980484E+02  0.17188081933E+02  0.95153132800E+02  0.90350889315E+02 0.  0.
         13    1    3    3    0    0  0.83391933055E+01 -0.53594595809E+01 -0.32962759259E+02  0.34421223308E+02  0.10566000000E+00 0.  1.
         22    1    1    0    0    0  0.18615996128E+02 -0.15774980484E+02 -0.17188081933E+02  0.29846867200E+02  0.00000000000E+00 0. -1.
</event>
<event>
 5    1  0.1691066E-003  0.9118800E+02  0.7818608E-02  0.1130116E+00
         25   -1    0    0    0    0  0.00000000000E+00  0.00000000000E+00  0.99999998245E-14  0.12500000000E+03  0.12500000000E+03 0.  0.
        -13    1    3    3    0    0 -0.27516504214E+02 -0.25176569678E+02  0.14715221560E+02  0.40094470623E+02  0.10566000000E+00 0. -1.
         23    2    1    0    0    0  0.23336978357E+02 -0.16122316187E+00  0.15866988756E+02  0.96779406740E+02  0.92573493426E+02 0.  0.
         13    1    3    3    0    0  0.50853482571E+02  0.25015346516E+02  0.11517671962E+01  0.56684936118E+02  0.10566000000E+00 0.  1.
         22    1    1    0    0    0 -0.23336978357E+02  0.16122316187E+00 -0.15866988756E+02  0.28220593260E+02  0.00000000000E+00 0.  1.
</event>
<event>
 5    1  0.1691066E-003  0.9118800E+02  0.7818608E-02  0.1130116E+00
         25   -1    0    0    0    0  0.00000000000E+00  0.00000000000E+00  0.99999998245E-14  0.12500000000E+03  0.12500000000E+03 0.  0.
        -13    1    3    3    0    0  0.22675422453E+01 -0.36038660387E+02 -0.24702959160E+02  0.43751275931E+02  0.10566000000E+00 0. -1.
         23    2    1    0    0    0 -0.28219728845E+02 -0.55265210170E+01  0.45749314694E+01  0.95882556284E+02  0.91354469354E+02 0.  0.
         13    1    3    3    0    0 -0.30487271090E+02  0.30512139370E+02  0.29277890629E+02  0.52131280352E+02  0.10566000000E+00 0.  1.
         22    1    1    0    0    0  0.28219728845E+02  0.55265210170E+01 -0.45749314694E+01  0.29117443716E+02  0.00000000000E+00 0.  1.
</event>
<event>
 5    1  0.1691066E-003  0.9118800E+02  0.7818608E-02  0.1130116E+00
         25   -1    0    0    0    0  0.00000000000E+00  0.00000000000E+00  0.99999998245E-14  0.12500000000E+03  0.12500000000E+03 0.  0.
        -13    1    3    3    0    0  0.72049082461E+01  0.11336147276E+01  0.57121160790E+02  0.57585015058E+02  0.10566000000E+00 0. -1.
         23    2    1    0    0    0 -0.59230623643E+01 -0.14337183742E+02  0.25052954641E+02  0.95533272295E+02  0.90875288575E+02 0.  0.
         13    1    3    3    0    0 -0.13127970610E+02 -0.15470798469E+02 -0.32068206149E+02  0.37948257236E+02  0.10566000000E+00 0.  1.
         22    1    1    0    0    0  0.59230623643E+01  0.14337183742E+02 -0.25052954641E+02  0.29466727705E+02  0.00000000000E+00 0. -1.
</event>
<event>
 5    1  0.1691066E-003  0.9118800E+02  0.7818608E-02  0.1130116E+00
         25   -1    0    0    0    0  0.00000000000E+00  0.00000000000E+00  0.99999998245E-14  0.12500000000E+03  0.12500000000E+03 0.  0.
        -13    1    3    3    0    0 -0.32630055345E+02 -0.80785619651E+01  0.12212621494E+01  0.33637573047E+02  0.10566000000E+00 0.  1.
         23    2    1    0    0    0  0.26510472610E+02  0.14635453923E+00 -0.13664228343E+02  0.95174881159E+02  0.90380973051E+02 0.  0.
         13    1    3    3    0    0  0.59140527955E+02  0.82249165044E+01 -0.14885490493E+02  0.61537308111E+02  0.10566000000E+00 0. -1.
         22    1    1    0    0    0 -0.26510472610E+02 -0.14635453923E+00  0.13664228343E+02  0.29825118841E+02  0.00000000000E+00 0. -1.
</event>
<event>
 5    1  0.1691066E-003  0.9118800E+02  0.7818608E-02  0.1130116E+00
         25   -1    0    0    0    0  0.00000000000E+00  0.00000000000E+00  0.99999998245E-14  0.12500000000E+03  0.12500000000E+03 0.  0.
        -13    1    3    3    0    0  0.15798485723E+02 -0.42129031700E+02  0.30891996683E+01  0.45099908889E+02  0.10566000000E+00 0.  1.
         23    2    1    0    0    0  0.95020637851E+01 -0.29776235341E+01  0.30242596074E+02  0.93160243792E+02  0.87550333797E+02 0.  0.
         13    1    3    3    0    0 -0.62964219375E+01  0.39151408166E+02  0.27153396406E+02  0.48060334903E+02  0.10566000000E+00 0. -1.
         22    1    1    0    0    0 -0.95020637851E+01  0.29776235341E+01 -0.30242596074E+02  0.31839756208E+02  0.00000000000E+00 0. -1.
</event>
<event>
 5    1  0.1691066E-003  0.9118800E+02  0.7818608E-02  0.1130116E+00
         25   -1    0    0    0    0  0.00000000000E+00  0.00000000000E+00  0.99999998245E-14  0.12500000000E+03  0.12500000000E+03 0.  0.
        -13    1    3    3    0    0  0.20776096072E+02  0.29328226967E+02  0.44423266991E+01  0.36215141800E+02  0.10566000000E+00 0.  1.
         23    2    1    0    0    0 -0.21713166404E+02 -0.18450044520E+01 -0.21002612353E+02  0.94734915127E+02  0.89770422645E+02 0.  0.
         13    1    3    3    0    0 -0.42489262476E+02 -0.31173231419E+02 -0.25444939052E+02  0.58519773327E+02  0.10566000000E+00 0. -1.
         22    1    1    0    0    0  0.21713166404E+02  0.18450044520E+01  0.21002612353E+02  0.30265084873E+02  0.00000000000E+00 0. -1.
</event>
<event>
 5    1  0.1691066E-003  0.9118800E+02  0.7818608E-02  0.1130116E+00
         25   -1    0    0    0    0  0.00000000000E+00  0.00000000000E+00  0.99999998245E-14  0.12500000000E+03  0.12500000000E+03 0.  0.
        -13    1    3    3    0    0  0.60056999350E+01 -0.61957453380E+01 -0.33743998512E+02  0.34829933845E+02  0.10566000000E+00 0.  1.
         23    2    1    0    0    0  0.40644730683E+01  0.81970033818E+01  0.26586129008E+02  0.96883580217E+02  0.92714049930E+02 0.  0.
         13    1    3    3    0    0 -0.19412268667E+01  0.14392748720E+02  0.60330127520E+02  0.62053646372E+02  0.10566000000E+00 0. -1.
         22    1    1    0    0    0 -0.40644730683E+01 -0.81970033818E+01 -0.26586129008E+02  0.28116419783E+02  0.00000000000E+00 0. -1.
</event>
<event>
 5    1  0.1691066E-003  0.9118800E+02  0.7818608E-02  0.1130116E+00
         25   -1    0    0    0    0  0.00000000000E+00  0.00000000000E+00  0.99999998245E-14  0.12500000000E+03  0.12500000000E+03 0.  0.
        -13    1    3    3    0    0  0.18316213480E+02 -0.43980124603E+02 -0.20982564950E+02  0.52057797036E+02  0.10566000000E+00 0.  1.
         23    2    1    0    0    0 -0.11527526278E+02 -0.27188796240E+02  0.50070308582E+01  0.95046955729E+02  0.90203874264E+02 0.  0.
         13    1    3    3    0    0 -0.29843739758E+02  0.16791328362E+02  0.25989595808E+02  0.42989158694E+02  0.10566000000E+00 0. -1.
         22    1    1    0    0    0  0.11527526278E+02  0.27188796240E+02 -0.50070308582E+01  0.29953044271E+02  0.00000000000E+00 0.  1.
</event>
<event>
 5    1  0.1691066E-003  0.9118800E+02  0.7818608E-02  0.1130116E+00
         25   -1    0    0    0    0  0.00000000000E+00  0.00000000000E+00  0.99999998245E-14  0.12500000000E+03  0.12500000000E+03 0.  0.
        -13    1    3    3    0    0  0.48557456316E+02 -0.20716801894E+02 -0.59643918081E+01  0.53128124175E+02  0.10566000000E+00 0. -1.
         23    2    1    0    0    0  0.20810608321E+02 -0.23056268207E+02 -0.23515133736E+02  0.86043172140E+02  0.76718922274E+02 0.  0.
         13    1    3    3    0    0 -0.27746847995E+02 -0.23394663127E+01 -0.17550741928E+02  0.32915047965E+02  0.10566000000E+00 0.  1.
         22    1    1    0    0    0 -0.20810608321E+02  0.23056268207E+02  0.23515133736E+02  0.38956827860E+02  0.00000000000E+00 0. -1.
</event>
<event>
 5    1  0.1691066E-003  0.9118800E+02  0.7818608E-02  0.1130116E+00
         25   -1    0    0    0    0  0.00000000000E+00  0.00000000000E+00  0.99999998245E-14  0.12500000000E+03  0.12500000000E+03 0.  0.
        -13    1    3    3    0    0 -0.50659649744E+02 -0.25251046676E+02 -0.16045149089E+02  0.58834287994E+02  0.10566000000E+00 0. -1.
         23    2    1    0    0    0 -0.28595233436E+02 -0.35103474977E+01  0.42667065977E+01  0.95875874262E+02  0.91345325910E+02 0.  0.
         13    1    3    3    0    0  0.22064416308E+02  0.21740699178E+02  0.20311855687E+02  0.37041586268E+02  0.10566000000E+00 0.  1.
         22    1    1    0    0    0  0.28595233436E+02  0.35103474977E+01 -0.42667065977E+01  0.29124125738E+02  0.00000000000E+00 0. -1.
</event>
<event>
 5    1  0.1691066E-003  0.9118800E+02  0.7818608E-02  0.1130116E+00
         25   -1    0    0    0    0  0.00000000000E+00  0.00000000000E+00  0.99999998245E-14  0.12500000000E+03  0.12500000000E+03 0.  0.
        -13    1    3    3    0    0 -0.58134838381E+01  0.32191934250E+02  0.43197442182E+02  0.54186228880E+02  0.10566000000E+00 0.  1.
         23    2    1    0    0    0 -0.71423658398E+01 -0.71557233181E+01  0.25914871068E+02  0.97182769576E+02  0.93116552739E+02 0.  0.
         13    1    3    3    0    0 -0.13288820017E+01 -0.39347657568E+02 -0.17282571114E+02  0.42996540696E+02  0.10566000000E+00 0. -1.
         22    1    1    0    0    0  0.71423658398E+01  0.71557233181E+01 -0.25914871068E+02  0.27817230424E+02  0.00000000000E+00 0.  1.
</event>
<event>
 5    1  0.1691066E-003  0.9118800E+02  0.7818608E-02  0.1130116E+00
         25   -1    0    0    0    0  0.00000000000E+00  0.00000000000E+00  0.99999998245E-14  0.12500000000E+03  0.12500000000E+03 0.  0.
        -13    1    3    3    0    0  0.24439991996E+02  0.49199974016E+02 -0.20033578024E+02  0.58474832744E+02  0.10566000000E+00 0.  1.
         23    2    1    0    0    0  0.14163246629E+01  0.20285298031E+02 -0.21423403623E+02  0.95462540486E+02  0.90777944025E+02 0.  0.
         13    1    3    3    0    0 -0.23023667334E+02 -0.28914675984E+02 -0.13898255993E+01  0.36987707742E+02  0.10566000000E+00 0. -1.
         22    1    1    0    0    0 -0.14163246629E+01 -0.20285298031E+02  0.21423403623E+02  0.29537459514E+02  0.00000000000E+00 0.  1.
</event>
<event>
 5    1  0.1691066E-003  0.9118800E+02  0.7818608E-02  0.1130116E+00
         25   -1    0    0    0    0  0.00000000000E+00  0.00000000000E+00  0.99999998245E-14  0.12500000000E+03  0.12500000000E+03 0.  0.
        -13    1    3    3    0    0 -0.25769475603E+02  0.12916833483E+02 -0.32726227526E+02  0.43611094829E+02  0.10566000000E+00 0. -1.
         23    2    1    0    0    0  0.19874769750E+02  0.19982797124E+02 -0.99321994348E+01  0.95117442561E+02  0.90301498549E+02 0.  0.
         13    1    3    3    0    0  0.45644245353E+02  0.70659636410E+01  0.22794028091E+02  0.51506347732E+02  0.10566000000E+00 0.  1.
         22    1    1    0    0    0 -0.19874769750E+02 -0.19982797124E+02  0.99321994348E+01  0.29882557439E+02  0.00000000000E+00 0.  1.
</event>
<event>
 5    1  0.1691066E-003  0.9118800E+02  0.7818608E-02  0.1130116E+00
         25   -1    0    0    0    0  0.00000000000E+00  0.00000000000E+00  0.99999998245E-14  0.12500000000E+03  0.12500000000E+03 0.  0.
        -13    1    3    3    0    0  0.38253201634E+02 -0.41959711931E+02 -0.19995524090E+02  0.60197649524E+02  0.10566000000E+00 0.  1.
         23    2    1    0    0    0  0.90912412351E+01 -0.22158627421E+02 -0.17110657160E+02  0.95564816549E+02  0.90918667705E+02 0.  0.
         13    1    3    3    0    0 -0.29161960399E+02  0.19801084510E+02  0.28848669298E+01  0.35367167024E+02  0.10566000000E+00 0. -1.
         22    1    1    0    0    0 -0.90912412351E+01  0.22158627421E+02  0.17110657160E+02  0.29435183451E+02  0.00000000000E+00 0.  1.
</event>
<event>
 5    1  0.1691066E-003  0.9118800E+02  0.7818608E-02  0.1130116E+00
         25   -1    0    0    0    0  0.00000000000E+00  0.00000000000E+00  0.99999998245E-14  0.12500000000E+03  0.12500000000E+03 0.  0.
        -13    1    3    3    0    0  0.30756015230E+02 -0.33269499406E+01 -0.85345017995E+01  0.32091275352E+02  0.10566000000E+00 0. -1.
         23    2    1    0    0    0 -0.27509582295E+02 -0.87240742948E+01  0.11488829149E+02  0.93937485846E+02  0.88653096176E+02 0.  0.
         13    1    3    3    0    0 -0.58265597524E+02 -0.53971243542E+01  0.20023330949E+02  0.61846210494E+02  0.10566000000E+00 0.  1.
         22    1    1    0    0    0  0.27509582295E+02  0.87240742948E+01 -0.11488829149E+02  0.31062514154E+02  0.00000000000E+00 0.  1.
</event>
<event>
 5    1  0.1691066E-003  0.9118800E+02  0.7818608E-02  0.1130116E+00
         25   -1    0    0    0    0  0.00000000000E+00  0.00000000000E+00  0.99999998245E-14  0.12500000000E+03  0.12500000000E+03 0.  0.
        -13    1    3    3    0    0  0.16391434986E+02  0.37594905803E+01 -0.31395286613E+02  0.35615840519E+02  0.10566000000E+00 0.  1.
         23    2    1    0    0    0  0.10081902696E+02  0.58019501848E+01  0.27634515474E+02  0.95017107655E+02  0.90162502814E+02 0.  0.
         13    1    3    3    0    0 -0.63095322901E+01  0.20424596045E+01  0.59029802086E+02  0.59401267136E+02  0.10566000000E+00 0. -1.
         22    1    1    0    0    0 -0.10081902696E+02 -0.58019501848E+01 -0.27634515474E+02  0.29982892345E+02  0.00000000000E+00 0. -1.
</event>
<event>
 5    1  0.1691066E-003  0.9118800E+02  0.7818608E-02  0.1130116E+00
         25   -1    0    0    0    0  0.00000000000E+00  0.00000000000E+00  0.99999998245E-14  0.12500000000E+03  0.12500000000E+03 0.  0.
        -13    1    3    3    0    0 -0.13582167886E+02 -0.53615151384E+02  0.24453048232E+02  0.60473320351E+02  0.10566000000E+00 0.  1.
         23    2    1    0    0    0 -0.10860218353E+02 -0.28711102407E+02  0.17969191375E+01  0.94251005505E+02  0.89094059152E+02 0.  0.
         13    1    3    3    0    0  0.27219495327E+01  0.24904048977E+02 -0.22656129095E+02  0.33777685153E+02  0.10566000000E+00 0. -1.
         22    1    1    0    0    0  0.10860218353E+02  0.28711102407E+02 -0.17969191375E+01  0.30748994495E+02  0.00000000000E+00 0.  1.
</event>
<event>
 5    1  0.1691066E-003  0.9118800E+02  0.7818608E-02  0.1130116E+00
         25   -1    0    0    0    0  0.00000000000E+00  0.00000000000E+00  0.99999998245E-14  0.12500000000E+03  0.12500000000E+03 0.  0.
        -13    1    3    3    0    0  0.46966974400E+02 -0.23748823973E+02  0.21326532364E+02  0.56786754363E+02  0.10566000000E+00 0. -1.
         23    2    1    0    0    0  0.18718013729E+02  0.26277305994E+01  0.22701041962E+02  0.95460089502E+02  0.90774568992E+02 0.  0.
         13    1    3    3    0    0 -0.28248960672E+02  0.26376554572E+02  0.13745095982E+01  0.38673335139E+02  0.10566000000E+00 0.  1.
         22    1    1    0    0    0 -0.18718013729E+02 -0.26277305994E+01 -0.22701041962E+02  0.29539910498E+02  0.00000000000E+00 0. -1.
</event>
<event>
 5    1  0.1691066E-003  0.9118800E+02  0.7818608E-02  0.1130116E+00
         25   -1    0    0    0    0  0.00000000000E+00  0.00000000000E+00  0.99999998245E-14  0.12500000000E+03  0.12500000000E+03 0.  0.
        -13    1    3    3    0    0 -0.17034977391E+02 -0.21704565374E+02 -0.27922498503E+02  0.39255008591E+02  0.10566000000E+00 0. -1.
         23    2    1    0    0    0 -0.20556096566E+02  0.12605319695E+02  0.16711311681E+02  0.95662053092E+02  0.91052255727E+02 0.  0.
         13    1    3    3    0    0 -0.35211191758E+01  0.34309885070E+02  0.44633810184E+02  0.56407044501E+02  0.10566000000E+00 0.  1.
         22    1    1    0    0    0  0.20556096566E+02 -0.12605319695E+02 -0.16711311681E+02  0.29337946908E+02  0.00000000000E+00 0. -1.
</event>
<event>
 5    1  0.1691066E-003  0.9118800E+02  0.7818608E-02  0.1130116E+00
         25   -1    0    0    0    0  0.00000000000E+00  0.00000000000E+00  0.99999998245E-14  0.12500000000E+03  0.12500000000E+03 0.  0.
        -13    1    3    3    0    0  0.28922611066E+02  0.25036216877E+02 -0.22005668246E+02  0.44131510119E+02  0.10566000000E+00 0.  1.
         23    2    1    0    0    0 -0.15948099136E+02  0.25065072679E+02  0.23721475406E+01  0.95196865628E+02  0.90411373217E+02 0.  0.
         13    1    3    3    0    0 -0.44870710202E+02  0.28855802199E-01  0.24377815787E+02  0.51065355509E+02  0.10566000000E+00 0. -1.
         22    1    1    0    0    0  0.15948099136E+02 -0.25065072679E+02 -0.23721475406E+01  0.29803134372E+02  0.00000000000E+00 0. -1.
</event>
<event>
 5    1  0.1691066E-003  0.9118800E+02  0.7818608E-02  0.1130116E+00
         25   -1    0    0    0    0  0.00000000000E+00  0.00000000000E+00  0.99999998245E-14  0.12500000000E+03  0.12500000000E+03 0.  0.
        -13    1    3    3    0    0  0.27471519005E+02 -0.23282380268E+02 -0.11912378632E+02  0.37929797206E+02  0.10566000000E+00 0.  1.
         23    2    1    0    0    0 -0.13890432825E+01  0.27619327657E+02 -0.20452050787E+01  0.97270240440E+02  0.93233900004E+02 0.  0.
         13    1    3    3    0    0 -0.28860562287E+02  0.50901707925E+02  0.98671735529E+01  0.59340443234E+02  0.10566000000E+00 0. -1.
         22    1    1    0    0    0  0.13890432825E+01 -0.27619327657E+02  0.20452050787E+01  0.27729759560E+02  0.00000000000E+00 0. -1.
</event>
<event>
 5    1  0.1691066E-003  0.9118800E+02  0.7818608E-02  0.1130116E+00
         25   -1    0    0    0    0  0.00000000000E+00  0.00000000000E+00  0.99999998245E-14  0.12500000000E+03  0.12500000000E+03 0.  0.
        -13    1    3    3    0    0 -0.10739050383E+02  0.29046244832E+02  0.47526761453E+02  0.56725794487E+02  0.10566000000E+00 0. -1.
         23    2    1    0    0    0  0.11156938983E+02  0.21946322928E+02  0.16484380704E+02  0.95371412712E+02  0.90652375467E+02 0.  0.
         13    1    3    3    0    0  0.21895989366E+02 -0.70999219046E+01 -0.31042380749E+02  0.38645618224E+02  0.10566000000E+00 0.  1.
         22    1    1    0    0    0 -0.11156938983E+02 -0.21946322928E+02 -0.16484380704E+02  0.29628587288E+02  0.00000000000E+00 0. -1.
</event>
<event>
 5    1  0.1691066E-003  0.9118800E+02  0.7818608E-02  0.1130116E+00
         25   -1    0    0    0    0  0.00000000000E+00  0.00000000000E+00  0.99999998245E-14  0.12500000000E+03  0.12500000000E+03 0.  0.
        -13    1    3    3    0    0 -0.31678004812E+02 -0.17636822531E+02 -0.22655304887E+02  0.42753099319E+02  0.10566000000E+00 0.  1.
         23    2    1    0    0    0 -0.23051538984E+02  0.11573757844E+02 -0.39700372739E+02  0.77656099487E+02  0.61555055614E+02 0.  0.
         13    1    3    3    0    0  0.86264658278E+01  0.29210580375E+02 -0.17045067852E+02  0.34903000167E+02  0.10566000000E+00 0. -1.
         22    1    1    0    0    0  0.23051538984E+02 -0.11573757844E+02  0.39700372739E+02  0.47343900513E+02  0.00000000000E+00 0.  1.
</event>
<event>
 5    1  0.1691066E-003  0.9118800E+02  0.7818608E-02  0.1130116E+00
         25   -1    0    0    0    0  0.00000000000E+00  0.00000000000E+00  0.99999998245E-14  0.12500000000E+03  0.12500000000E+03 0.  0.
        -13    1    3    3    0    0 -0.45684849228E+00 -0.36800143229E+02  0.78771214209E+01  0.37636677034E+02  0.10566000000E+00 0. -1.
         23    2    1    0    0    0 -0.13009695161E+01  0.24626689986E+02 -0.34308450915E+01  0.10010146431E+03  0.96955485034E+02 0.  0.
         13    1    3    3    0    0 -0.84412102382E+00  0.61426833215E+02 -0.11307966512E+02  0.62464787279E+02  0.10566000000E+00 0.  1.
         22    1    1    0    0    0  0.13009695161E+01 -0.24626689986E+02  0.34308450915E+01  0.24898535687E+02  0.00000000000E+00 0.  1.
</event>
<event>
 5    1  0.1691066E-003  0.9118800E+02  0.7818608E-02  0.1130116E+00
         25   -1    0    0    0    0  0.00000000000E+00  0.00000000000E+00  0.99999998245E-14  0.12500000000E+03  0.12500000000E+03 0.  0.
        -13    1    3    3    0    0 -0.28595758885E+02 -0.37251581522E+02  0.17550843036E+01  0.46994566037E+02  0.10566000000E+00 0. -1.
         23    2    1    0    0    0  0.38358635161E+01 -0.26756512346E+02 -0.23311204243E+02  0.89306344470E+02  0.81863215900E+02 0.  0.
         13    1    3    3    0    0  0.32431622401E+02  0.10495069176E+02 -0.25066288547E+02  0.42311778432E+02  0.10566000000E+00 0.  1.
         22    1    1    0    0    0 -0.38358635161E+01  0.26756512346E+02  0.23311204243E+02  0.35693655530E+02  0.00000000000E+00 0. -1.
</event>
<event>
 5    1  0.1691066E-003  0.9118800E+02  0.7818608E-02  0.1130116E+00
         25   -1    0    0    0    0  0.00000000000E+00  0.00000000000E+00  0.99999998245E-14  0.12500000000E+03  0.12500000000E+03 0.  0.
        -13    1    3    3    0    0 -0.13721491577E+02 -0.10425436347E+01 -0.35206771994E+02  0.37800716747E+02  0.10566000000E+00 0.  1.
         23    2    1    0    0    0  0.14610683132E+02  0.24609274705E+02  0.78002984323E+01  0.95336333357E+02  0.90603991850E+02 0.  0.
         13    1    3    3    0    0  0.28332174710E+02  0.25651818340E+02  0.43007070426E+02  0.57535616609E+02  0.10566000000E+00 0. -1.
         22    1    1    0    0    0 -0.14610683132E+02 -0.24609274705E+02 -0.78002984323E+01  0.29663666643E+02  0.00000000000E+00 0. -1.
</event>
<event>
 5    1  0.1691066E-003  0.9118800E+02  0.7818608E-02  0.1130116E+00
         25   -1    0    0    0    0  0.00000000000E+00  0.00000000000E+00  0.99999998245E-14  0.12500000000E+03  0.12500000000E+03 0.  0.
        -13    1    3    3    0    0  0.32040064751E+02 -0.11202441550E+02 -0.51408390074E+02  0.61602712441E+02  0.10566000000E+00 0. -1.
         23    2    1    0    0    0  0.82950308260E+01 -0.53480332939E+01 -0.27411452799E+02  0.95865883555E+02  0.91331653268E+02 0.  0.
         13    1    3    3    0    0 -0.23745033925E+02  0.58544082566E+01  0.23996937276E+02  0.34263171114E+02  0.10566000000E+00 0.  1.
         22    1    1    0    0    0 -0.82950308260E+01  0.53480332939E+01  0.27411452799E+02  0.29134116445E+02  0.00000000000E+00 0. -1.
</event>
<event>
 5    1  0.1691066E-003  0.9118800E+02  0.7818608E-02  0.1130116E+00
         25   -1    0    0    0    0  0.00000000000E+00  0.00000000000E+00  0.99999998245E-14  0.12500000000E+03  0.12500000000E+03 0.  0.
        -13    1    3    3    0    0 -0.51276717252E+00  0.24030354380E+01  0.48650100116E+02  0.48712225517E+02  0.10566000000E+00 0.  1.
         23    2    1    0    0    0 -0.29286296671E+02  0.39447166306E+01  0.29050317811E+02  0.83561262967E+02  0.72562495421E+02 0.  0.
         13    1    3    3    0    0 -0.28773529498E+02  0.15416811926E+01 -0.19599782306E+02  0.34849037449E+02  0.10566000000E+00 0. -1.
         22    1    1    0    0    0  0.29286296671E+02 -0.39447166306E+01 -0.29050317811E+02  0.41438737033E+02  0.00000000000E+00 0.  1.
</event>
<event>
 5    1  0.1691066E-003  0.9118800E+02  0.7818608E-02  0.1130116E+00
         25   -1    0    0    0    0  0.00000000000E+00  0.00000000000E+00  0.99999998245E-14  0.12500000000E+03  0.12500000000E+03 0.  0.
        -13    1    3    3    0    0  0.23424305705E+02 -0.21299359222E+02  0.22337353291E+02  0.38746991072E+02  0.10566000000E+00 0. -1.
         23    2    1    0    0    0 -0.22344552180E+02 -0.15837785415E+02 -0.10845586638E+02  0.95542552580E+02  0.90888052817E+02 0.  0.
         13    1    3    3    0    0 -0.45768857886E+02  0.54615738068E+01 -0.33182939929E+02  0.56795561508E+02  0.10566000000E+00 0.  1.
         22    1    1    0    0    0  0.22344552180E+02  0.15837785415E+02  0.10845586638E+02  0.29457447420E+02  0.00000000000E+00 0.  1.
</event>
<event>
 5    1  0.1691066E-003  0.9118800E+02  0.7818608E-02  0.1130116E+00
         25   -1    0    0    0    0  0.00000000000E+00  0.00000000000E+00  0.99999998245E-14  0.12500000000E+03  0.12500000000E+03 0.  0.
        -13    1    3    3    0    0 -0.25900032385E+00  0.35809659190E+02 -0.40484900708E+02  0.54050320275E+02  0.10566000000E+00 0.  1.
         23    2    1    0    0    0  0.47841484483E+00 -0.43718053855E+01 -0.28748080990E+02  0.95917467034E+02  0.91402225129E+02 0.  0.
         13    1    3    3    0    0  0.73741516868E+00 -0.40181464576E+02  0.11736819718E+02  0.41867146758E+02  0.10566000000E+00 0. -1.
         22    1    1    0    0    0 -0.47841484483E+00  0.43718053855E+01  0.28748080990E+02  0.29082532966E+02  0.00000000000E+00 0.  1.
</event>
<event>
 5    1  0.1691066E-003  0.9118800E+02  0.7818608E-02  0.1130116E+00
         25   -1    0    0    0    0  0.00000000000E+00  0.00000000000E+00  0.99999998245E-14  0.12500000000E+03  0.12500000000E+03 0.  0.
        -13    1    3    3    0    0 -0.37568809258E+02 -0.10238007265E+02  0.47358951858E+02  0.61311611518E+02  0.10566000000E+00 0. -1.
         23    2    1    0    0    0 -0.11405500961E+02 -0.10567854691E+02  0.24094311126E+02  0.96324211719E+02  0.91956799257E+02 0.  0.
         13    1    3    3    0    0  0.26163308297E+02 -0.32984742513E+00 -0.23264640732E+02  0.35012600201E+02  0.10566000000E+00 0.  1.
         22    1    1    0    0    0  0.11405500961E+02  0.10567854691E+02 -0.24094311126E+02  0.28675788281E+02  0.00000000000E+00 0. -1.
</event>
<event>
 5    1  0.1691066E-003  0.9118800E+02  0.7818608E-02  0.1130116E+00
         25   -1    0    0    0    0  0.00000000000E+00  0.00000000000E+00  0.99999998245E-14  0.12500000000E+03  0.12500000000E+03 0.  0.
        -13    1    3    3    0    0 -0.24000963207E+02 -0.95071135521E+01  0.42671017965E+02  0.49872421048E+02  0.10566000000E+00 0.  1.
         23    2    1    0    0    0  0.89179040320E+01  0.16626671204E+02  0.19495613464E+02  0.97869682051E+02  0.94034145463E+02 0.  0.
         13    1    3    3    0    0  0.32918867239E+02  0.26133784757E+02 -0.23175404502E+02  0.47997261004E+02  0.10566000000E+00 0. -1.
         22    1    1    0    0    0 -0.89179040320E+01 -0.16626671204E+02 -0.19495613464E+02  0.27130317949E+02  0.00000000000E+00 0.  1.
</event>
<event>
 5    1  0.1691066E-003  0.9118800E+02  0.7818608E-02  0.1130116E+00
         25   -1    0    0    0    0  0.00000000000E+00  0.00000000000E+00  0.99999998245E-14  0.12500000000E+03  0.12500000000E+03 0.  0.
        -13    1    3    3    0    0  0.41981907091E+02 -0.26786735585E+02  0.45061527441E+01  0.50003262922E+02  0.10566000000E+00 0. -1.
         23    2    1    0    0    0  0.28866433246E+01 -0.33055063293E+02  0.10822767882E+02  0.90098678770E+02  0.83064250388E+02 0.  0.
         13    1    3    3    0    0 -0.39095263766E+02 -0.62683277076E+01  0.63166151380E+01  0.40095415848E+02  0.10566000000E+00 0.  1.
         22    1    1    0    0    0 -0.28866433246E+01  0.33055063293E+02 -0.10822767882E+02  0.34901321230E+02  0.00000000000E+00 0. -1.
</event>
<event>
 5    1  0.1691066E-003  0.9118800E+02  0.7818608E-02  0.1130116E+00
         25   -1    0    0    0    0  0.00000000000E+00  0.00000000000E+00  0.99999998245E-14  0.12500000000E+03  0.12500000000E+03 0.  0.
        -13    1    3    3    0    0  0.42422384677E+02 -0.12152524326E+02  0.32578839913E+02  0.54851932904E+02  0.10566000000E+00 0. -1.
         23    2    1    0    0    0  0.28117583032E+02 -0.88070745798E+00 -0.48285115411E+01  0.96457248821E+02  0.92137463636E+02 0.  0.
         13    1    3    3    0    0 -0.14304801646E+02  0.11271816868E+02 -0.37407351454E+02  0.41605315916E+02  0.10566000000E+00 0.  1.
         22    1    1    0    0    0 -0.28117583032E+02  0.88070745798E+00  0.48285115411E+01  0.28542751179E+02  0.00000000000E+00 0. -1.
</event>
<event>
 5    1  0.1691066E-003  0.9118800E+02  0.7818608E-02  0.1130116E+00
         25   -1    0    0    0    0  0.00000000000E+00  0.00000000000E+00  0.99999998245E-14  0.12500000000E+03  0.12500000000E+03 0.  0.
        -13    1    3    3    0    0 -0.36866217046E+02  0.37764098459E+02  0.30077797161E+02  0.60744795150E+02  0.10566000000E+00 0. -1.
         23    2    1    0    0    0 -0.94080168989E+01  0.24542774517E+02  0.14798634378E+02  0.94836145100E+02  0.89911268899E+02 0.  0.
         13    1    3    3    0    0  0.27458200147E+02 -0.13221323942E+02 -0.15279162782E+02  0.34091349951E+02  0.10566000000E+00 0.  1.
         22    1    1    0    0    0  0.94080168989E+01 -0.24542774517E+02 -0.14798634378E+02  0.30163854900E+02  0.00000000000E+00 0. -1.
</event>
<event>
 5    1  0.1691066E-003  0.9118800E+02  0.7818608E-02  0.1130116E+00
         25   -1    0    0    0    0  0.00000000000E+00  0.00000000000E+00  0.99999998245E-14  0.12500000000E+03  0.12500000000E+03 0.  0.
        -13    1    3    3    0    0  0.28558607764E+02 -0.12024576630E+02  0.61254085735E+01  0.31586647730E+02  0.10566000000E+00 0.  1.
         23    2    1    0    0    0  0.40391236232E+02  0.24570171273E+02 -0.14914614121E+02  0.75425903991E+02  0.56846072844E+02 0.  0.
         13    1    3    3    0    0  0.11832628468E+02  0.36594747903E+02 -0.21040022694E+02  0.43839256261E+02  0.10566000000E+00 0. -1.
         22    1    1    0    0    0 -0.40391236232E+02 -0.24570171273E+02  0.14914614121E+02  0.49574096009E+02  0.00000000000E+00 0. -1.
</event>
<event>
 5    1  0.1691066E-003  0.9118800E+02  0.7818608E-02  0.1130116E+00
         25   -1    0    0    0    0  0.00000000000E+00  0.00000000000E+00  0.99999998245E-14  0.12500000000E+03  0.12500000000E+03 0.  0.
        -13    1    3    3    0    0  0.15290582323E+01  0.79086999592E+01  0.37918007764E+02  0.38764313885E+02  0.10566000000E+00 0.  1.
         23    2    1    0    0    0  0.35685574967E+01 -0.25605789878E+02 -0.10004155673E+02  0.97278632635E+02  0.93245150859E+02 0.  0.
         13    1    3    3    0    0  0.20394992644E+01 -0.33514489837E+02 -0.47922163437E+02  0.58514318750E+02  0.10566000000E+00 0. -1.
         22    1    1    0    0    0 -0.35685574967E+01  0.25605789878E+02  0.10004155673E+02  0.27721367365E+02  0.00000000000E+00 0. -1.
</event>
<event>
 5    1  0.1691066E-003  0.9118800E+02  0.7818608E-02  0.1130116E+00
         25   -1    0    0    0    0  0.00000000000E+00  0.00000000000E+00  0.99999998245E-14  0.12500000000E+03  0.12500000000E+03 0.  0.
        -13    1    3    3    0    0 -0.21085709397E+02 -0.61588076883E+01 -0.37810627345E+02  0.43728626290E+02  0.10566000000E+00 0.  1.
         23    2    1    0    0    0 -0.10913681487E+02  0.27568234839E+02 -0.77720180836E-01  0.95350007485E+02  0.90622855126E+02 0.  0.
         13    1    3    3    0    0  0.10172027910E+02  0.33727042527E+02  0.37732907164E+02  0.51621381195E+02  0.10566000000E+00 0. -1.
         22    1    1    0    0    0  0.10913681487E+02 -0.27568234839E+02  0.77720180836E-01  0.29649992515E+02  0.00000000000E+00 0.  1.
</event>
<event>
 5    1  0.1691066E-003  0.9118800E+02  0.7818608E-02  0.1130116E+00
         25   -1    0    0    0    0  0.00000000000E+00  0.00000000000E+00  0.99999998245E-14  0.12500000000E+03  0.12500000000E+03 0.  0.
        -13    1    3    3    0    0  0.26360493332E+01 -0.45913175534E+02  0.36745068417E+02  0.58865776651E+02  0.10566000000E+00 0.  1.
         23    2    1    0    0    0 -0.89022600697E+01 -0.22520023103E+02  0.44505005922E+01  0.10037869560E+03  0.97312249484E+02 0.  0.
         13    1    3    3    0    0 -0.11538309403E+02  0.23393152431E+02 -0.32294567825E+02  0.41512918948E+02  0.10566000000E+00 0. -1.
         22    1    1    0    0    0  0.89022600697E+01  0.22520023103E+02 -0.44505005922E+01  0.24621304401E+02  0.00000000000E+00 0.  1.
</event>
<event>
 5    1  0.1691066E-003  0.9118800E+02  0.7818608E-02  0.1130116E+00
         25   -1    0    0    0    0  0.00000000000E+00  0.00000000000E+00  0.99999998245E-14  0.12500000000E+03  0.12500000000E+03 0.  0.
        -13    1    3    3    0    0  0.81332437351E+00 -0.57327927942E+02  0.14360590415E+02  0.59104911299E+02  0.10566000000E+00 0. -1.
         23    2    1    0    0    0 -0.25162717971E+01 -0.23161992097E+02  0.20487146952E+02  0.93975289012E+02  0.88706382257E+02 0.  0.
         13    1    3    3    0    0 -0.33295961706E+01  0.34165935845E+02  0.61265565371E+01  0.34870377713E+02  0.10566000000E+00 0.  1.
         22    1    1    0    0    0  0.25162717971E+01  0.23161992097E+02 -0.20487146952E+02  0.31024710988E+02  0.00000000000E+00 0. -1.
</event>
<event>
 5    1  0.1691066E-003  0.9118800E+02  0.7818608E-02  0.1130116E+00
         25   -1    0    0    0    0  0.00000000000E+00  0.00000000000E+00  0.99999998245E-14  0.12500000000E+03  0.12500000000E+03 0.  0.
        -13    1    3    3    0    0  0.39042422836E+02 -0.86381261535E+00 -0.26783895502E+02  0.47354463099E+02  0.10566000000E+00 0.  1.
         23    2    1    0    0    0 -0.52578041046E+01 -0.22159058623E+02 -0.14440111748E+02  0.98033628157E+02  0.94251827777E+02 0.  0.
         13    1    3    3    0    0 -0.44300226941E+02 -0.21295246008E+02  0.12343783754E+02  0.50679165058E+02  0.10566000000E+00 0. -1.
         22    1    1    0    0    0  0.52578041046E+01  0.22159058623E+02  0.14440111748E+02  0.26966371843E+02  0.00000000000E+00 0. -1.
</event>
<event>
 5    1  0.1691066E-003  0.9118800E+02  0.7818608E-02  0.1130116E+00
         25   -1    0    0    0    0  0.00000000000E+00  0.00000000000E+00  0.99999998245E-14  0.12500000000E+03  0.12500000000E+03 0.  0.
        -13    1    3    3    0    0  0.19384542790E+02 -0.31267946818E+02  0.32275111430E+02  0.48940157123E+02  0.10566000000E+00 0. -1.
         23    2    1    0    0    0  0.28701525622E+02 -0.22615527140E+01 -0.35764240743E+01  0.95988226478E+02  0.91498943270E+02 0.  0.
         13    1    3    3    0    0  0.93169828326E+01  0.29006394104E+02 -0.35851535504E+02  0.47048069355E+02  0.10566000000E+00 0.  1.
         22    1    1    0    0    0 -0.28701525622E+02  0.22615527140E+01  0.35764240743E+01  0.29011773522E+02  0.00000000000E+00 0.  1.
</event>
<event>
 5    1  0.1691066E-003  0.9118800E+02  0.7818608E-02  0.1130116E+00
         25   -1    0    0    0    0  0.00000000000E+00  0.00000000000E+00  0.99999998245E-14  0.12500000000E+03  0.12500000000E+03 0.  0.
        -13    1    3    3    0    0  0.72860493184E+01 -0.16326056867E+02 -0.56346160987E+02  0.59114530104E+02  0.10566000000E+00 0.  1.
         23    2    1    0    0    0 -0.84396776781E+01 -0.10217230078E+02 -0.40966040869E+02  0.81943798888E+02  0.69720511486E+02 0.  0.
         13    1    3    3    0    0 -0.15725726996E+02  0.61088267884E+01  0.15380120118E+02  0.22829268783E+02  0.10566000000E+00 0. -1.
         22    1    1    0    0    0  0.84396776781E+01  0.10217230078E+02  0.40966040869E+02  0.43056201112E+02  0.00000000000E+00 0.  1.
</event>
<event>
 5    1  0.1691066E-003  0.9118800E+02  0.7818608E-02  0.1130116E+00
         25   -1    0    0    0    0  0.00000000000E+00  0.00000000000E+00  0.99999998245E-14  0.12500000000E+03  0.12500000000E+03 0.  0.
        -13    1    3    3    0    0 -0.50012554210E+02  0.25187432702E+02 -0.14550483850E+02  0.57856633924E+02  0.10566000000E+00 0.  1.
         23    2    1    0    0    0 -0.19936501509E+02  0.21061744475E+02  0.70981953553E+01  0.95142914576E+02  0.90336751347E+02 0.  0.
         13    1    3    3    0    0  0.30076052702E+02 -0.41256882272E+01  0.21648679205E+02  0.37286280652E+02  0.10566000000E+00 0. -1.
         22    1    1    0    0    0  0.19936501509E+02 -0.21061744475E+02 -0.70981953553E+01  0.29857085424E+02  0.00000000000E+00 0.  1.
</event>
<event>
 5    1  0.1691066E-003  0.9118800E+02  0.7818608E-02  0.1130116E+00
         25   -1    0    0    0    0  0.00000000000E+00  0.00000000000E+00  0.99999998245E-14  0.12500000000E+03  0.12500000000E+03 0.  0.
        -13    1    3    3    0    0  0.42651098780E+00  0.51612185395E+02  0.14308008026E+02  0.53560525115E+02  0.10566000000E+00 0.  1.
         23    2    1    0    0    0 -0.15780499253E+02  0.13921348589E+02  0.21161135422E+02  0.95156713392E+02  0.90355842910E+02 0.  0.
         13    1    3    3    0    0 -0.16207010241E+02 -0.37690836806E+02  0.68531273963E+01  0.41596188278E+02  0.10566000000E+00 0. -1.
         22    1    1    0    0    0  0.15780499253E+02 -0.13921348589E+02 -0.21161135422E+02  0.29843286608E+02  0.00000000000E+00 0.  1.
</event>
<event>
 5    1  0.1691066E-003  0.9118800E+02  0.7818608E-02  0.1130116E+00
         25   -1    0    0    0    0  0.00000000000E+00  0.00000000000E+00  0.99999998245E-14  0.12500000000E+03  0.12500000000E+03 0.  0.
        -13    1    3    3    0    0 -0.14137046001E+02  0.27321651109E+02 -0.18849386917E+02  0.36078237763E+02  0.10566000000E+00 0. -1.
         23    2    1    0    0    0 -0.19062188526E+02 -0.18154504400E+02  0.16539041003E+02  0.93911530454E+02  0.88616491769E+02 0.  0.
         13    1    3    3    0    0 -0.49251425248E+01 -0.45476155509E+02  0.35388427920E+02  0.57833292690E+02  0.10566000000E+00 0.  1.
         22    1    1    0    0    0  0.19062188526E+02  0.18154504400E+02 -0.16539041003E+02  0.31088469546E+02  0.00000000000E+00 0.  1.
</event>
<event>
 5    1  0.1691066E-003  0.9118800E+02  0.7818608E-02  0.1130116E+00
         25   -1    0    0    0    0  0.00000000000E+00  0.00000000000E+00  0.99999998245E-14  0.12500000000E+03  0.12500000000E+03 0.  0.
        -13    1    3    3    0    0 -0.24178562359E+02  0.35374481781E+01  0.38594385353E+02  0.45679909831E+02  0.10566000000E+00 0.  1.
         23    2    1    0    0    0 -0.24191431274E+02  0.89036348369E+01 -0.12005419750E+02  0.96563576811E+02  0.92281602732E+02 0.  0.
         13    1    3    3    0    0 -0.12868915785E-01  0.53661866588E+01 -0.50599805103E+02  0.50883666980E+02  0.10566000000E+00 0. -1.
         22    1    1    0    0    0  0.24191431274E+02 -0.89036348369E+01  0.12005419750E+02  0.28436423189E+02  0.00000000000E+00 0. -1.
</event>
<event>
 5    1  0.1691066E-003  0.9118800E+02  0.7818608E-02  0.1130116E+00
         25   -1    0    0    0    0  0.00000000000E+00  0.00000000000E+00  0.99999998245E-14  0.12500000000E+03  0.12500000000E+03 0.  0.
        -13    1    3    3    0    0 -0.18351473504E+01  0.11943191325E+02  0.57049733005E+02  0.58315442078E+02  0.10566000000E+00 0.  1.
         23    2    1    0    0    0  0.14957492693E+02  0.76848037491E+01  0.23131992468E+02  0.96401540743E+02  0.92061855216E+02 0.  0.
         13    1    3    3    0    0  0.16792640043E+02 -0.42583875757E+01 -0.33917740537E+02  0.38086098665E+02  0.10566000000E+00 0. -1.
         22    1    1    0    0    0 -0.14957492693E+02 -0.76848037491E+01 -0.23131992468E+02  0.28598459257E+02  0.00000000000E+00 0.  1.
</event>
<event>
 5    1  0.1691066E-003  0.9118800E+02  0.7818608E-02  0.1130116E+00
         25   -1    0    0    0    0  0.00000000000E+00  0.00000000000E+00  0.99999998245E-14  0.12500000000E+03  0.12500000000E+03 0.  0.
        -13    1    3    3    0    0 -0.18477929948E+02 -0.16884155443E+02  0.47955038548E+02  0.54094412709E+02  0.10566000000E+00 0.  1.
         23    2    1    0    0    0  0.10655607823E+02  0.37192520852E+01  0.27615775373E+02  0.95167033946E+02  0.90370119434E+02 0.  0.
         13    1    3    3    0    0  0.29133537770E+02  0.20603407528E+02 -0.20339263175E+02  0.41072621237E+02  0.10566000000E+00 0. -1.
         22    1    1    0    0    0 -0.10655607823E+02 -0.37192520852E+01 -0.27615775373E+02  0.29832966054E+02  0.00000000000E+00 0.  1.
</event>
<event>
 5    1  0.1691066E-003  0.9118800E+02  0.7818608E-02  0.1130116E+00
         25   -1    0    0    0    0  0.00000000000E+00  0.00000000000E+00  0.99999998245E-14  0.12500000000E+03  0.12500000000E+03 0.  0.
        -13    1    3    3    0    0 -0.87830805994E+01 -0.14736082743E+02  0.36144280982E+02  0.40008934641E+02  0.10566000000E+00 0.  1.
         23    2    1    0    0    0  0.27427161651E+02 -0.96931431638E+01 -0.54686424110E+01  0.95400806254E+02  0.90692896984E+02 0.  0.
         13    1    3    3    0    0  0.36210242250E+02  0.50429395792E+01 -0.41612923393E+02  0.55391871612E+02  0.10566000000E+00 0. -1.
         22    1    1    0    0    0 -0.27427161651E+02  0.96931431638E+01  0.54686424110E+01  0.29599193746E+02  0.00000000000E+00 0. -1.
</event>
<event>
 5    1  0.1691066E-003  0.9118800E+02  0.7818608E-02  0.1130116E+00
         25   -1    0    0    0    0  0.00000000000E+00  0.00000000000E+00  0.99999998245E-14  0.12500000000E+03  0.12500000000E+03 0.  0.
        -13    1    3    3    0    0 -0.10687713838E+02  0.22429578071E+02 -0.47713155501E+02  0.53794698358E+02  0.10566000000E+00 0. -1.
         23    2    1    0    0    0  0.17198072816E+02  0.16072580414E+02 -0.15796333245E+02  0.96651707393E+02  0.92400902854E+02 0.  0.
         13    1    3    3    0    0  0.27885786654E+02 -0.63569976574E+01  0.31916822256E+02  0.42857009035E+02  0.10566000000E+00 0.  1.
         22    1    1    0    0    0 -0.17198072816E+02 -0.16072580414E+02  0.15796333245E+02  0.28348292607E+02  0.00000000000E+00 0. -1.
</event>
<event>
 5    1  0.1691066E-003  0.9118800E+02  0.7818608E-02  0.1130116E+00
         25   -1    0    0    0    0  0.00000000000E+00  0.00000000000E+00  0.99999998245E-14  0.12500000000E+03  0.12500000000E+03 0.  0.
        -13    1    3    3    0    0  0.53816499114E+02 -0.27958932415E+02 -0.12865505184E+02  0.61995563280E+02  0.10566000000E+00 0.  1.
         23    2    1    0    0    0  0.27849892090E+02 -0.84198146540E+01 -0.77299098095E+01  0.94895826304E+02  0.89994203014E+02 0.  0.
         13    1    3    3    0    0 -0.25966607024E+02  0.19539117761E+02  0.51355953746E+01  0.32900263025E+02  0.10566000000E+00 0. -1.
         22    1    1    0    0    0 -0.27849892090E+02  0.84198146540E+01  0.77299098095E+01  0.30104173696E+02  0.00000000000E+00 0.  1.
</event>
<event>
 5    1  0.1691066E-003  0.9118800E+02  0.7818608E-02  0.1130116E+00
         25   -1    0    0    0    0  0.00000000000E+00  0.00000000000E+00  0.99999998245E-14  0.12500000000E+03  0.12500000000E+03 0.  0.
        -13    1    3    3    0    0 -0.53113399543E+02 -0.63939032006E+01  0.14610376584E+02  0.55456194218E+02  0.10566000000E+00 0. -1.
         23    2    1    0    0    0 -0.24444509973E+02 -0.10453030831E+02 -0.12947548066E+02  0.95429086550E+02  0.90731866714E+02 0.  0.
         13    1    3    3    0    0  0.28668889571E+02 -0.40591276303E+01 -0.27557924650E+02  0.39972892332E+02  0.10566000000E+00 0.  1.
         22    1    1    0    0    0  0.24444509973E+02  0.10453030831E+02  0.12947548066E+02  0.29570913450E+02  0.00000000000E+00 0. -1.
</event>
<event>
 5    1  0.1691066E-003  0.9118800E+02  0.7818608E-02  0.1130116E+00
         25   -1    0    0    0    0  0.00000000000E+00  0.00000000000E+00  0.99999998245E-14  0.12500000000E+03  0.12500000000E+03 0.  0.
        -13    1    3    3    0    0 -0.40370617742E+02  0.37041358415E+02  0.92637078417E+01  0.55566864741E+02  0.10566000000E+00 0. -1.
         23    2    1    0    0    0 -0.18806783812E+02  0.17972719083E+02 -0.16497000852E+02  0.94196351098E+02  0.89017345358E+02 0.  0.
         13    1    3    3    0    0  0.21563833930E+02 -0.19068639333E+02 -0.25760708694E+02  0.38629486357E+02  0.10566000000E+00 0.  1.
         22    1    1    0    0    0  0.18806783812E+02 -0.17972719083E+02  0.16497000852E+02  0.30803648902E+02  0.00000000000E+00 0. -1.
</event>
<event>
 5    1  0.1691066E-003  0.9118800E+02  0.7818608E-02  0.1130116E+00
         25   -1    0    0    0    0  0.00000000000E+00  0.00000000000E+00  0.99999998245E-14  0.12500000000E+03  0.12500000000E+03 0.  0.
        -13    1    3    3    0    0  0.35164820554E+02 -0.21826969061E+01  0.10132225022E+02  0.36660631723E+02  0.10566000000E+00 0.  1.
         23    2    1    0    0    0 -0.25297472804E+02 -0.75209596697E+01 -0.19021876791E+01  0.98539741449E+02  0.94920679319E+02 0.  0.
         13    1    3    3    0    0 -0.60462293358E+02 -0.53382627636E+01 -0.12034412701E+02  0.61879109726E+02  0.10566000000E+00 0. -1.
         22    1    1    0    0    0  0.25297472804E+02  0.75209596697E+01  0.19021876791E+01  0.26460258551E+02  0.00000000000E+00 0. -1.
</event>
<event>
 5    1  0.1691066E-003  0.9118800E+02  0.7818608E-02  0.1130116E+00
         25   -1    0    0    0    0  0.00000000000E+00  0.00000000000E+00  0.99999998245E-14  0.12500000000E+03  0.12500000000E+03 0.  0.
        -13    1    3    3    0    0 -0.24559071212E+02  0.10940340012E+02 -0.37929703261E+02  0.46492069989E+02  0.10566000000E+00 0. -1.
         23    2    1    0    0    0 -0.24447000250E+02  0.10668177883E+02  0.11521809349E+02  0.95944571398E+02  0.91439285045E+02 0.  0.
         13    1    3    3    0    0  0.11207096217E+00 -0.27216212905E+00  0.49451512610E+02  0.49452501409E+02  0.10566000000E+00 0.  1.
         22    1    1    0    0    0  0.24447000250E+02 -0.10668177883E+02 -0.11521809349E+02  0.29055428602E+02  0.00000000000E+00 0.  1.
</event>
<event>
 5    1  0.1691066E-003  0.9118800E+02  0.7818608E-02  0.1130116E+00
         25   -1    0    0    0    0  0.00000000000E+00  0.00000000000E+00  0.99999998245E-14  0.12500000000E+03  0.12500000000E+03 0.  0.
        -13    1    3    3    0    0  0.14040916538E+02 -0.91290821748E+01  0.57685555145E+02  0.60067644493E+02  0.10566000000E+00 0. -1.
         23    2    1    0    0    0  0.85109946242E+01 -0.16057831685E+02  0.24029407663E+02  0.94871883222E+02  0.89960940444E+02 0.  0.
         13    1    3    3    0    0 -0.55299219138E+01 -0.69287495105E+01 -0.33656147481E+02  0.34804238729E+02  0.10566000000E+00 0.  1.
         22    1    1    0    0    0 -0.85109946242E+01  0.16057831685E+02 -0.24029407663E+02  0.30128116778E+02  0.00000000000E+00 0. -1.
</event>
<event>
 5    1  0.1691066E-003  0.9118800E+02  0.7818608E-02  0.1130116E+00
         25   -1    0    0    0    0  0.00000000000E+00  0.00000000000E+00  0.99999998245E-14  0.12500000000E+03  0.12500000000E+03 0.  0.
        -13    1    3    3    0    0 -0.15205363168E+02 -0.33900352678E+02 -0.75689170292E+01  0.37917497937E+02  0.10566000000E+00 0. -1.
         23    2    1    0    0    0  0.24083604519E+02  0.97454550692E+01 -0.11098303720E+02  0.96748163837E+02  0.92531297188E+02 0.  0.
         13    1    3    3    0    0  0.39288967687E+02  0.43645807747E+02 -0.35293866907E+01  0.58830665900E+02  0.10566000000E+00 0.  1.
         22    1    1    0    0    0 -0.24083604519E+02 -0.97454550692E+01  0.11098303720E+02  0.28251836163E+02  0.00000000000E+00 0.  1.
</event>
<event>
 5    1  0.1691066E-003  0.9118800E+02  0.7818608E-02  0.1130116E+00
         25   -1    0    0    0    0  0.00000000000E+00  0.00000000000E+00  0.99999998245E-14  0.12500000000E+03  0.12500000000E+03 0.  0.
        -13    1    3    3    0    0 -0.20938176133E+02 -0.98980004234E+01 -0.45113337125E+02  0.50710965113E+02  0.10566000000E+00 0. -1.
         23    2    1    0    0    0 -0.27301646947E+02  0.14230010736E+02 -0.12509197513E+02  0.91768190631E+02  0.85539743147E+02 0.  0.
         13    1    3    3    0    0 -0.63634708138E+01  0.24128011159E+02  0.32604139612E+02  0.41057225517E+02  0.10566000000E+00 0.  1.
         22    1    1    0    0    0  0.27301646947E+02 -0.14230010736E+02  0.12509197513E+02  0.33231809369E+02  0.00000000000E+00 0. -1.
</event>
<event>
 5    1  0.1691066E-003  0.9118800E+02  0.7818608E-02  0.1130116E+00
         25   -1    0    0    0    0  0.00000000000E+00  0.00000000000E+00  0.99999998245E-14  0.12500000000E+03  0.12500000000E+03 0.  0.
        -13    1    3    3    0    0  0.31073733385E+02 -0.13000143193E+02  0.31096102810E+02  0.45842768279E+02  0.10566000000E+00 0.  1.
         23    2    1    0    0    0  0.19702158414E+02  0.96046107088E+01 -0.15008832111E+02  0.98435199335E+02  0.94782908975E+02 0.  0.
         13    1    3    3    0    0 -0.11371574971E+02  0.22604753902E+02 -0.46104934920E+02  0.52592431056E+02  0.10566000000E+00 0. -1.
         22    1    1    0    0    0 -0.19702158414E+02 -0.96046107088E+01  0.15008832111E+02  0.26564800665E+02  0.00000000000E+00 0. -1.
</event>
<event>
 5    1  0.1691066E-003  0.9118800E+02  0.7818608E-02  0.1130116E+00
         25   -1    0    0    0    0  0.00000000000E+00  0.00000000000E+00  0.99999998245E-14  0.12500000000E+03  0.12500000000E+03 0.  0.
        -13    1    3    3    0    0  0.11016292280E+02 -0.33755463643E+02 -0.47447415739E+02  0.59262622670E+02  0.10566000000E+00 0. -1.
         23    2    1    0    0    0  0.17414693035E+02 -0.93338022772E+01 -0.25690262989E+02  0.92590417915E+02  0.86732949211E+02 0.  0.
         13    1    3    3    0    0  0.63984007547E+01  0.24421661366E+02  0.21757152750E+02  0.33327795245E+02  0.10566000000E+00 0.  1.
         22    1    1    0    0    0 -0.17414693035E+02  0.93338022772E+01  0.25690262989E+02  0.32409582085E+02  0.00000000000E+00 0. -1.
</event>
<event>
 5    1  0.1691066E-003  0.9118800E+02  0.7818608E-02  0.1130116E+00
         25   -1    0    0    0    0  0.00000000000E+00  0.00000000000E+00  0.99999998245E-14  0.12500000000E+03  0.12500000000E+03 0.  0.
        -13    1    3    3    0    0  0.46620693926E+02 -0.20791852791E+02 -0.18606667109E+02  0.54332397974E+02  0.10566000000E+00 0.  1.
         23    2    1    0    0    0  0.23485232859E+02 -0.18325178091E+02  0.12090865664E+02  0.92851013282E+02  0.87107711027E+02 0.  0.
         13    1    3    3    0    0 -0.23135461067E+02  0.24666746999E+01  0.30697532773E+02  0.38518615308E+02  0.10566000000E+00 0. -1.
         22    1    1    0    0    0 -0.23485232859E+02  0.18325178091E+02 -0.12090865664E+02  0.32148986718E+02  0.00000000000E+00 0.  1.
</event>
<event>
 5    1  0.1691066E-003  0.9118800E+02  0.7818608E-02  0.1130116E+00
         25   -1    0    0    0    0  0.00000000000E+00  0.00000000000E+00  0.99999998245E-14  0.12500000000E+03  0.12500000000E+03 0.  0.
        -13    1    3    3    0    0  0.26352228738E+02  0.45155984900E+02  0.27934895668E+02  0.59277925839E+02  0.10566000000E+00 0. -1.
         23    2    1    0    0    0  0.76364446651E+01  0.13187563319E+02  0.24054293105E+02  0.96524815537E+02  0.92229083722E+02 0.  0.
         13    1    3    3    0    0 -0.18715784073E+02 -0.31968421581E+02 -0.38806025630E+01  0.37246889698E+02  0.10566000000E+00 0.  1.
         22    1    1    0    0    0 -0.76364446651E+01 -0.13187563319E+02 -0.24054293105E+02  0.28475184463E+02  0.00000000000E+00 0. -1.
</event>
<event>
 5    1  0.1691066E-003  0.9118800E+02  0.7818608E-02  0.1130116E+00
         25   -1    0    0    0    0  0.00000000000E+00  0.00000000000E+00  0.99999998245E-14  0.12500000000E+03  0.12500000000E+03 0.  0.
        -13    1    3    3    0    0  0.35726019839E+02  0.12212243955E+02  0.44028726387E+02  0.58000235407E+02  0.10566000000E+00 0.  1.
         23    2    1    0    0    0  0.39801216818E+01 -0.17948091813E+01  0.28760938960E+02  0.95909549359E+02  0.91391396421E+02 0.  0.
         13    1    3    3    0    0 -0.31745898157E+02 -0.14007053136E+02 -0.15267787427E+02  0.37909313952E+02  0.10566000000E+00 0. -1.
         22    1    1    0    0    0 -0.39801216818E+01  0.17948091813E+01 -0.28760938960E+02  0.29090450641E+02  0.00000000000E+00 0.  1.
</event>
<event>
 5    1  0.1691066E-003  0.9118800E+02  0.7818608E-02  0.1130116E+00
         25   -1    0    0    0    0  0.00000000000E+00  0.00000000000E+00  0.99999998245E-14  0.12500000000E+03  0.12500000000E+03 0.  0.
        -13    1    3    3    0    0  0.25955799483E+02  0.25554544080E+02 -0.17354794798E+02  0.40347717611E+02  0.10566000000E+00 0.  1.
         23    2    1    0    0    0  0.12392363969E+02 -0.39293314778E+01  0.26839047283E+02  0.95178115592E+02  0.90385446273E+02 0.  0.
         13    1    3    3    0    0 -0.13563435514E+02 -0.29483875558E+02  0.44193842080E+02  0.54830397981E+02  0.10566000000E+00 0. -1.
         22    1    1    0    0    0 -0.12392363969E+02  0.39293314778E+01 -0.26839047283E+02  0.29821884408E+02  0.00000000000E+00 0.  1.
</event>
<event>
 5    1  0.1691066E-003  0.9118800E+02  0.7818608E-02  0.1130116E+00
         25   -1    0    0    0    0  0.00000000000E+00  0.00000000000E+00  0.99999998245E-14  0.12500000000E+03  0.12500000000E+03 0.  0.
        -13    1    3    3    0    0  0.13827719903E+02  0.20718801303E+02 -0.51702901650E+02  0.57390554695E+02  0.10566000000E+00 0.  1.
         23    2    1    0    0    0 -0.16465650101E+01  0.22695172650E+02 -0.13777387174E+02  0.98399277542E+02  0.94735523356E+02 0.  0.
         13    1    3    3    0    0 -0.15474284913E+02  0.19763713472E+01  0.37925514475E+02  0.41008722847E+02  0.10566000000E+00 0. -1.
         22    1    1    0    0    0  0.16465650101E+01 -0.22695172650E+02  0.13777387174E+02  0.26600722458E+02  0.00000000000E+00 0.  1.
</event>
<event>
 5    1  0.1691066E-003  0.9118800E+02  0.7818608E-02  0.1130116E+00
         25   -1    0    0    0    0  0.00000000000E+00  0.00000000000E+00  0.99999998245E-14  0.12500000000E+03  0.12500000000E+03 0.  0.
        -13    1    3    3    0    0  0.15635681062E+02  0.14883688151E+02  0.36880068833E+02  0.42733468574E+02  0.10566000000E+00 0.  1.
         23    2    1    0    0    0 -0.21401215878E+02 -0.14669298896E+02  0.16036053789E+02  0.94498272307E+02  0.89440304543E+02 0.  0.
         13    1    3    3    0    0 -0.37036896940E+02 -0.29552987046E+02 -0.20844015044E+02  0.51764803733E+02  0.10566000000E+00 0. -1.
         22    1    1    0    0    0  0.21401215878E+02  0.14669298896E+02 -0.16036053789E+02  0.30501727693E+02  0.00000000000E+00 0. -1.
</event>
<event>
 5    1  0.1691066E-003  0.9118800E+02  0.7818608E-02  0.1130116E+00
         25   -1    0    0    0    0  0.00000000000E+00  0.00000000000E+00  0.99999998245E-14  0.12500000000E+03  0.12500000000E+03 0.  0.
        -13    1    3    3    0    0  0.25785881516E+01  0.17680795528E+02 -0.13491479207E+02  0.22389524841E+02  0.10566000000E+00 0. -1.
         23    2    1    0    0    0  0.23599815627E+02 -0.28743620224E+02  0.19409364130E+02  0.83049190507E+02  0.71674944205E+02 0.  0.
         13    1    3    3    0    0  0.21021227475E+02 -0.46424415752E+02  0.32900843337E+02  0.60659665666E+02  0.10566000000E+00 0.  1.
         22    1    1    0    0    0 -0.23599815627E+02  0.28743620224E+02 -0.19409364130E+02  0.41950809493E+02  0.00000000000E+00 0.  1.
</event>
<event>
 5    1  0.1691066E-003  0.9118800E+02  0.7818608E-02  0.1130116E+00
         25   -1    0    0    0    0  0.00000000000E+00  0.00000000000E+00  0.99999998245E-14  0.12500000000E+03  0.12500000000E+03 0.  0.
        -13    1    3    3    0    0 -0.46779433943E+02 -0.28840060951E+01  0.39653554105E+02  0.61392576492E+02  0.10566000000E+00 0.  1.
         23    2    1    0    0    0 -0.21697419669E+02 -0.78734011892E+01  0.25434990738E+02  0.90653133761E+02  0.83894478008E+02 0.  0.
         13    1    3    3    0    0  0.25082014274E+02 -0.49893950940E+01 -0.14218563367E+02  0.29260557269E+02  0.10566000000E+00 0. -1.
         22    1    1    0    0    0  0.21697419669E+02  0.78734011892E+01 -0.25434990738E+02  0.34346866239E+02  0.00000000000E+00 0.  1.
</event>
<event>
 5    1  0.1691066E-003  0.9118800E+02  0.7818608E-02  0.1130116E+00
         25   -1    0    0    0    0  0.00000000000E+00  0.00000000000E+00  0.99999998245E-14  0.12500000000E+03  0.12500000000E+03 0.  0.
        -13    1    3    3    0    0 -0.25951680859E+02 -0.52941309296E+02 -0.18807690975E+02  0.61887093753E+02  0.10566000000E+00 0.  1.
         23    2    1    0    0    0 -0.59945475220E+01 -0.25462555703E+02 -0.10205347999E+02  0.96921084944E+02  0.92764601201E+02 0.  0.
         13    1    3    3    0    0  0.19957133337E+02  0.27478753593E+02  0.86023429757E+01  0.35033991191E+02  0.10566000000E+00 0. -1.
         22    1    1    0    0    0  0.59945475220E+01  0.25462555703E+02  0.10205347999E+02  0.28078915056E+02  0.00000000000E+00 0.  1.
</event>
<event>
 5    1  0.1691066E-003  0.9118800E+02  0.7818608E-02  0.1130116E+00
         25   -1    0    0    0    0  0.00000000000E+00  0.00000000000E+00  0.99999998245E-14  0.12500000000E+03  0.12500000000E+03 0.  0.
        -13    1    3    3    0    0  0.37789395885E+02  0.21656649593E+02  0.25308296030E+02  0.50374298257E+02  0.10566000000E+00 0. -1.
         23    2    1    0    0    0  0.60090973565E+01 -0.12162764366E+02  0.24738010994E+02  0.96786328208E+02  0.92582838863E+02 0.  0.
         13    1    3    3    0    0 -0.31780298528E+02 -0.33819413959E+02 -0.57028503541E+00  0.46412029951E+02  0.10566000000E+00 0.  1.
         22    1    1    0    0    0 -0.60090973565E+01  0.12162764366E+02 -0.24738010994E+02  0.28213671792E+02  0.00000000000E+00 0. -1.
</event>
<event>
 5    1  0.1691066E-003  0.9118800E+02  0.7818608E-02  0.1130116E+00
         25   -1    0    0    0    0  0.00000000000E+00  0.00000000000E+00  0.99999998245E-14  0.12500000000E+03  0.12500000000E+03 0.  0.
        -13    1    3    3    0    0  0.25032770334E+02 -0.20475114587E+02  0.13382486905E+02  0.34999600394E+02  0.10566000000E+00 0.  1.
         23    2    1    0    0    0 -0.15856916497E+02  0.17288407184E+02 -0.14672261336E+02  0.97330412426E+02  0.93314538560E+02 0.  0.
         13    1    3    3    0    0 -0.40889686831E+02  0.37763521771E+02 -0.28054748241E+02  0.62330812033E+02  0.10566000000E+00 0. -1.
         22    1    1    0    0    0  0.15856916497E+02 -0.17288407184E+02  0.14672261336E+02  0.27669587574E+02  0.00000000000E+00 0. -1.
</event>
<event>
 5    1  0.1691066E-003  0.9118800E+02  0.7818608E-02  0.1130116E+00
         25   -1    0    0    0    0  0.00000000000E+00  0.00000000000E+00  0.99999998245E-14  0.12500000000E+03  0.12500000000E+03 0.  0.
        -13    1    3    3    0    0  0.17914131681E+02 -0.47673296156E+02 -0.17552780028E+02  0.53868084531E+02  0.10566000000E+00 0.  1.
         23    2    1    0    0    0 -0.72120262104E+01 -0.16203919967E+02 -0.24521514100E+02  0.94736408043E+02  0.89772501418E+02 0.  0.
         13    1    3    3    0    0 -0.25126157892E+02  0.31469376189E+02 -0.69687340722E+01  0.40868323512E+02  0.10566000000E+00 0. -1.
         22    1    1    0    0    0  0.72120262104E+01  0.16203919967E+02  0.24521514100E+02  0.30263591957E+02  0.00000000000E+00 0.  1.
</event>
<event>
 5    1  0.1691066E-003  0.9118800E+02  0.7818608E-02  0.1130116E+00
         25   -1    0    0    0    0  0.00000000000E+00  0.00000000000E+00  0.99999998245E-14  0.12500000000E+03  0.12500000000E+03 0.  0.
        -13    1    3    3    0    0  0.78005920732E+01 -0.58833765111E+02  0.98122501586E+01  0.60154406081E+02  0.10566000000E+00 0. -1.
         23    2    1    0    0    0  0.12824345965E+01 -0.28311743810E+02 -0.72807132115E+01  0.95738963434E+02  0.91157780022E+02 0.  0.
         13    1    3    3    0    0 -0.65181574767E+01  0.30522021301E+02 -0.17092963370E+02  0.35584557353E+02  0.10566000000E+00 0.  1.
         22    1    1    0    0    0 -0.12824345965E+01  0.28311743810E+02  0.72807132115E+01  0.29261036566E+02  0.00000000000E+00 0. -1.
</event>
<event>
 5    1  0.1691066E-003  0.9118800E+02  0.7818608E-02  0.1130116E+00
         25   -1    0    0    0    0  0.00000000000E+00  0.00000000000E+00  0.99999998245E-14  0.12500000000E+03  0.12500000000E+03 0.  0.
        -13    1    3    3    0    0 -0.49502585541E+02 -0.23032888972E+02  0.21796165473E+02  0.58788637873E+02  0.10566000000E+00 0. -1.
         23    2    1    0    0    0 -0.28344264151E+02  0.32082203051E+01  0.68414613106E+01  0.95665795040E+02  0.91057392670E+02 0.  0.
         13    1    3    3    0    0  0.21158321390E+02  0.26241109277E+02 -0.14954704162E+02  0.36877157167E+02  0.10566000000E+00 0.  1.
         22    1    1    0    0    0  0.28344264151E+02 -0.32082203051E+01 -0.68414613106E+01  0.29334204960E+02  0.00000000000E+00 0. -1.
</event>
<event>
 5    1  0.1691066E-003  0.9118800E+02  0.7818608E-02  0.1130116E+00
         25   -1    0    0    0    0  0.00000000000E+00  0.00000000000E+00  0.99999998245E-14  0.12500000000E+03  0.12500000000E+03 0.  0.
        -13    1    3    3    0    0 -0.85388518280E+01 -0.16213367586E+02 -0.44605540550E+02  0.48222927025E+02  0.10566000000E+00 0.  1.
         23    2    1    0    0    0  0.17305743062E+02  0.14110412952E+02 -0.19797050502E+02  0.95158490233E+02  0.90358300992E+02 0.  0.
         13    1    3    3    0    0  0.25844594890E+02  0.30323780538E+02  0.24808490048E+02  0.46935563208E+02  0.10566000000E+00 0. -1.
         22    1    1    0    0    0 -0.17305743062E+02 -0.14110412952E+02  0.19797050502E+02  0.29841509767E+02  0.00000000000E+00 0. -1.
</event>
<event>
 5    1  0.1691066E-003  0.9118800E+02  0.7818608E-02  0.1130116E+00
         25   -1    0    0    0    0  0.00000000000E+00  0.00000000000E+00  0.99999998245E-14  0.12500000000E+03  0.12500000000E+03 0.  0.
        -13    1    3    3    0    0 -0.22798520820E+02  0.27486003983E+02  0.21570248611E+02  0.41719776554E+02  0.10566000000E+00 0. -1.
         23    2    1    0    0    0  0.22152159813E+01 -0.20904222875E+02  0.19647028815E+02  0.96226757966E+02  0.91824231505E+02 0.  0.
         13    1    3    3    0    0  0.25013736802E+02 -0.48390226859E+02 -0.19232197958E+01  0.54506981412E+02  0.10566000000E+00 0.  1.
         22    1    1    0    0    0 -0.22152159813E+01  0.20904222875E+02 -0.19647028815E+02  0.28773242034E+02  0.00000000000E+00 0. -1.
</event>
<event>
 5    1  0.1691066E-003  0.9118800E+02  0.7818608E-02  0.1130116E+00
         25   -1    0    0    0    0  0.00000000000E+00  0.00000000000E+00  0.99999998245E-14  0.12500000000E+03  0.12500000000E+03 0.  0.
        -13    1    3    3    0    0 -0.28264893440E+01 -0.57434037836E+02 -0.16886726861E+02  0.59931881768E+02  0.10566000000E+00 0.  1.
         23    2    1    0    0    0 -0.12996919009E+02 -0.23575815327E+02 -0.11633375895E+02  0.95672974805E+02  0.91067248236E+02 0.  0.
         13    1    3    3    0    0 -0.10170429665E+02  0.33858222509E+02  0.52533509660E+01  0.35741093037E+02  0.10566000000E+00 0. -1.
         22    1    1    0    0    0  0.12996919009E+02  0.23575815327E+02  0.11633375895E+02  0.29327025195E+02  0.00000000000E+00 0.  1.
</event>
<event>
 5    1  0.1691066E-003  0.9118800E+02  0.7818608E-02  0.1130116E+00
         25   -1    0    0    0    0  0.00000000000E+00  0.00000000000E+00  0.99999998245E-14  0.12500000000E+03  0.12500000000E+03 0.  0.
        -13    1    3    3    0    0 -0.12547458844E+02 -0.25828692759E+02  0.36864450277E+02  0.46728566759E+02  0.10566000000E+00 0.  1.
         23    2    1    0    0    0 -0.25141187645E+02 -0.84127622423E+01 -0.86917779628E+01  0.97100163282E+02  0.93005595641E+02 0.  0.
         13    1    3    3    0    0 -0.12593728801E+02  0.17415930516E+02 -0.45556228240E+02  0.50371596523E+02  0.10566000000E+00 0. -1.
         22    1    1    0    0    0  0.25141187645E+02  0.84127622423E+01  0.86917779628E+01  0.27899836718E+02  0.00000000000E+00 0.  1.
</event>
<event>
 5    1  0.1691066E-003  0.9118800E+02  0.7818608E-02  0.1130116E+00
         25   -1    0    0    0    0  0.00000000000E+00  0.00000000000E+00  0.99999998245E-14  0.12500000000E+03  0.12500000000E+03 0.  0.
        -13    1    3    3    0    0  0.19752138468E+02  0.52132185009E+02  0.36745277300E+01  0.55869714568E+02  0.10566000000E+00 0.  1.
         23    2    1    0    0    0  0.24415039870E+01  0.24201316431E+02  0.20863209395E+02  0.92954124057E+02  0.87255550048E+02 0.  0.
         13    1    3    3    0    0 -0.17310634481E+02 -0.27930868578E+02  0.17188681665E+02  0.37084409488E+02  0.10566000000E+00 0. -1.
         22    1    1    0    0    0 -0.24415039870E+01 -0.24201316431E+02 -0.20863209395E+02  0.32045875943E+02  0.00000000000E+00 0.  1.
</event>
<event>
 5    1  0.1691066E-003  0.9118800E+02  0.7818608E-02  0.1130116E+00
         25   -1    0    0    0    0  0.00000000000E+00  0.00000000000E+00  0.99999998245E-14  0.12500000000E+03  0.12500000000E+03 0.  0.
        -13    1    3    3    0    0  0.35250564558E+02  0.45092247696E+02 -0.33098332776E+01  0.57331311378E+02  0.10566000000E+00 0. -1.
         23    2    1    0    0    0  0.20732953442E+02  0.12710698930E+02 -0.16957717092E+02  0.95352379612E+02  0.90626127044E+02 0.  0.
         13    1    3    3    0    0 -0.14517611116E+02 -0.32381548766E+02 -0.13647883814E+02  0.38021068234E+02  0.10566000000E+00 0.  1.
         22    1    1    0    0    0 -0.20732953442E+02 -0.12710698930E+02  0.16957717092E+02  0.29647620388E+02  0.00000000000E+00 0. -1.
</event>
<event>
 5    1  0.1691066E-003  0.9118800E+02  0.7818608E-02  0.1130116E+00
         25   -1    0    0    0    0  0.00000000000E+00  0.00000000000E+00  0.99999998245E-14  0.12500000000E+03  0.12500000000E+03 0.  0.
        -13    1    3    3    0    0  0.31408098938E+02  0.21414012181E+01 -0.19849216962E+02  0.37216351999E+02  0.10566000000E+00 0. -1.
         23    2    1    0    0    0 -0.12195913101E+02  0.20575838355E+02  0.15674212526E+02  0.96403035848E+02  0.92063885221E+02 0.  0.
         13    1    3    3    0    0 -0.43604012039E+02  0.18434437137E+02  0.35523429488E+02  0.59186683849E+02  0.10566000000E+00 0.  1.
         22    1    1    0    0    0  0.12195913101E+02 -0.20575838355E+02 -0.15674212526E+02  0.28596964152E+02  0.00000000000E+00 0.  1.
</event>
<event>
 5    1  0.1691066E-003  0.9118800E+02  0.7818608E-02  0.1130116E+00
         25   -1    0    0    0    0  0.00000000000E+00  0.00000000000E+00  0.99999998245E-14  0.12500000000E+03  0.12500000000E+03 0.  0.
        -13    1    3    3    0    0  0.16171744804E+02 -0.42380170227E+01  0.33749699912E+02  0.37663503906E+02  0.10566000000E+00 0.  1.
         23    2    1    0    0    0  0.40052032118E+00 -0.23900318444E+02 -0.17900978476E+02  0.95136465905E+02  0.90327827807E+02 0.  0.
         13    1    3    3    0    0 -0.15771224483E+02 -0.19662301421E+02 -0.51650678389E+02  0.57472961999E+02  0.10566000000E+00 0. -1.
         22    1    1    0    0    0 -0.40052032118E+00  0.23900318444E+02  0.17900978476E+02  0.29863534095E+02  0.00000000000E+00 0. -1.
</event>
<event>
 5    1  0.1691066E-003  0.9118800E+02  0.7818608E-02  0.1130116E+00
         25   -1    0    0    0    0  0.00000000000E+00  0.00000000000E+00  0.99999998245E-14  0.12500000000E+03  0.12500000000E+03 0.  0.
        -13    1    3    3    0    0  0.28242062935E+02 -0.38507811838E+02 -0.80152441158E+01  0.48422319169E+02  0.10566000000E+00 0. -1.
         23    2    1    0    0    0  0.22838240099E+02  0.80961825249E+01 -0.15930212671E+02  0.96001636977E+02  0.91517262001E+02 0.  0.
         13    1    3    3    0    0 -0.54038228365E+01  0.46603994363E+02 -0.79149685552E+01  0.47579317808E+02  0.10566000000E+00 0.  1.
         22    1    1    0    0    0 -0.22838240099E+02 -0.80961825249E+01  0.15930212671E+02  0.28998363023E+02  0.00000000000E+00 0.  1.
</event>
<event>
 5    1  0.1691066E-003  0.9118800E+02  0.7818608E-02  0.1130116E+00
         25   -1    0    0    0    0  0.00000000000E+00  0.00000000000E+00  0.99999998245E-14  0.12500000000E+03  0.12500000000E+03 0.  0.
        -13    1    3    3    0    0 -0.35272557392E+02 -0.13680490323E+02 -0.14230243419E+01  0.37859546785E+02  0.10566000000E+00 0.  1.
         23    2    1    0    0    0  0.17089650382E+02 -0.27656451556E+02 -0.46880166612E+01  0.92153189454E+02  0.86100507336E+02 0.  0.
         13    1    3    3    0    0  0.52362207774E+02 -0.13975961232E+02 -0.32649923193E+01  0.54293642669E+02  0.10566000000E+00 0. -1.
         22    1    1    0    0    0 -0.17089650382E+02  0.27656451556E+02  0.46880166612E+01  0.32846810546E+02  0.00000000000E+00 0. -1.
</event>
<event>
 5    1  0.1691066E-003  0.9118800E+02  0.7818608E-02  0.1130116E+00
         25   -1    0    0    0    0  0.00000000000E+00  0.00000000000E+00  0.99999998245E-14  0.12500000000E+03  0.12500000000E+03 0.  0.
        -13    1    3    3    0    0  0.24726371274E+01 -0.15313020402E+02 -0.30471735701E+02  0.34192694671E+02  0.10566000000E+00 0.  1.
         23    2    1    0    0    0  0.97989564893E+01 -0.10335755212E+02  0.28135246510E+02  0.93465265495E+02  0.87984750803E+02 0.  0.
         13    1    3    3    0    0  0.73263193620E+01  0.49772651900E+01  0.58606982211E+02  0.59272570824E+02  0.10566000000E+00 0. -1.
         22    1    1    0    0    0 -0.97989564893E+01  0.10335755212E+02 -0.28135246510E+02  0.31534734505E+02  0.00000000000E+00 0. -1.
</event>
<event>
 5    1  0.1691066E-003  0.9118800E+02  0.7818608E-02  0.1130116E+00
         25   -1    0    0    0    0  0.00000000000E+00  0.00000000000E+00  0.99999998245E-14  0.12500000000E+03  0.12500000000E+03 0.  0.
        -13    1    3    3    0    0 -0.11376309508E+02  0.15002055670E+02  0.29719608122E+02  0.35181648104E+02  0.10566000000E+00 0.  1.
         23    2    1    0    0    0 -0.51588381816E+01 -0.12938430123E+02 -0.24684682881E+02  0.96656567703E+02  0.92407477650E+02 0.  0.
         13    1    3    3    0    0  0.62174713260E+01 -0.27940485793E+02 -0.54404291003E+02  0.61474919599E+02  0.10566000000E+00 0. -1.
         22    1    1    0    0    0  0.51588381816E+01  0.12938430123E+02  0.24684682881E+02  0.28343432297E+02  0.00000000000E+00 0. -1.
</event>
<event>
 5    1  0.1691066E-003  0.9118800E+02  0.7818608E-02  0.1130116E+00
         25   -1    0    0    0    0  0.00000000000E+00  0.00000000000E+00  0.99999998245E-14  0.12500000000E+03  0.12500000000E+03 0.  0.
        -13    1    3    3    0    0  0.31374493308E+02  0.18018371959E+02 -0.29838271193E+02  0.46897272311E+02  0.10566000000E+00 0. -1.
         23    2    1    0    0    0  0.23480205624E+02 -0.19356927509E+02 -0.13695400339E+01  0.94538773192E+02  0.89496889879E+02 0.  0.
         13    1    3    3    0    0 -0.78942876839E+01 -0.37375299468E+02  0.28468731159E+02  0.47641500881E+02  0.10566000000E+00 0.  1.
         22    1    1    0    0    0 -0.23480205624E+02  0.19356927509E+02  0.13695400339E+01  0.30461226808E+02  0.00000000000E+00 0. -1.
</event>
<event>
 5    1  0.1691066E-003  0.9118800E+02  0.7818608E-02  0.1130116E+00
         25   -1    0    0    0    0  0.00000000000E+00  0.00000000000E+00  0.99999998245E-14  0.12500000000E+03  0.12500000000E+03 0.  0.
        -13    1    3    3    0    0  0.35446773064E+02 -0.28269694767E+02  0.24336503047E+02  0.51458001394E+02  0.10566000000E+00 0. -1.
         23    2    1    0    0    0  0.92151619912E+01 -0.30378211054E+02 -0.71151128243E+01  0.92467251148E+02  0.86555258575E+02 0.  0.
         13    1    3    3    0    0 -0.26231611073E+02 -0.21085162873E+01 -0.31451615872E+02  0.41009249754E+02  0.10566000000E+00 0.  1.
         22    1    1    0    0    0 -0.92151619912E+01  0.30378211054E+02  0.71151128243E+01  0.32532748852E+02  0.00000000000E+00 0. -1.
</event>
<event>
 5    1  0.1691066E-003  0.9118800E+02  0.7818608E-02  0.1130116E+00
         25   -1    0    0    0    0  0.00000000000E+00  0.00000000000E+00  0.99999998245E-14  0.12500000000E+03  0.12500000000E+03 0.  0.
        -13    1    3    3    0    0  0.17963724946E+02 -0.34692851920E+02  0.46346890041E+02  0.60616291282E+02  0.10566000000E+00 0.  1.
         23    2    1    0    0    0 -0.20482700812E+01 -0.15766774298E+02  0.24593704364E+02  0.95714562041E+02  0.91124313497E+02 0.  0.
         13    1    3    3    0    0 -0.20011995027E+02  0.18926077622E+02 -0.21753185677E+02  0.35098270759E+02  0.10566000000E+00 0. -1.
         22    1    1    0    0    0  0.20482700812E+01  0.15766774298E+02 -0.24593704364E+02  0.29285437959E+02  0.00000000000E+00 0.  1.
</event>
<event>
 5    1  0.1691066E-003  0.9118800E+02  0.7818608E-02  0.1130116E+00
         25   -1    0    0    0    0  0.00000000000E+00  0.00000000000E+00  0.99999998245E-14  0.12500000000E+03  0.12500000000E+03 0.  0.
        -13    1    3    3    0    0 -0.18323658034E+02 -0.18543664460E+02  0.44795479552E+02  0.51829239698E+02  0.10566000000E+00 0. -1.
         23    2    1    0    0    0 -0.25278185485E+02 -0.79746109202E+01 -0.12077252970E+00  0.98493478789E+02  0.94859736966E+02 0.  0.
         13    1    3    3    0    0 -0.69545274507E+01  0.10569053540E+02 -0.44916252082E+02  0.46664239091E+02  0.10566000000E+00 0.  1.
         22    1    1    0    0    0  0.25278185485E+02  0.79746109202E+01  0.12077252970E+00  0.26506521211E+02  0.00000000000E+00 0.  1.
</event>
<event>
 5    1  0.1691066E-003  0.9118800E+02  0.7818608E-02  0.1130116E+00
         25   -1    0    0    0    0  0.00000000000E+00  0.00000000000E+00  0.99999998245E-14  0.12500000000E+03  0.12500000000E+03 0.  0.
        -13    1    3    3    0    0  0.44971340196E+02 -0.14403733220E+02 -0.29233340894E+02  0.55538170239E+02  0.10566000000E+00 0.  1.
         23    2    1    0    0    0  0.11621770924E+02  0.73153632449E+01 -0.26159357889E+02  0.95455252515E+02  0.90767908033E+02 0.  0.
         13    1    3    3    0    0 -0.33349569272E+02  0.21719096464E+02  0.30739830054E+01  0.39917082276E+02  0.10566000000E+00 0. -1.
         22    1    1    0    0    0 -0.11621770924E+02 -0.73153632449E+01  0.26159357889E+02  0.29544747485E+02  0.00000000000E+00 0.  1.
</event>
<event>
 5    1  0.1691066E-003  0.9118800E+02  0.7818608E-02  0.1130116E+00
         25   -1    0    0    0    0  0.00000000000E+00  0.00000000000E+00  0.99999998245E-14  0.12500000000E+03  0.12500000000E+03 0.  0.
        -13    1    3    3    0    0 -0.53362779858E+01 -0.28550980891E+02 -0.18318130994E+02  0.34339473784E+02  0.10566000000E+00 0. -1.
         23    2    1    0    0    0  0.14025785489E+02  0.19245469901E+02  0.16023381454E+02  0.96297046780E+02  0.91919865617E+02 0.  0.
         13    1    3    3    0    0  0.19362063475E+02  0.47796450793E+02  0.34341512448E+02  0.61957572997E+02  0.10566000000E+00 0.  1.
         22    1    1    0    0    0 -0.14025785489E+02 -0.19245469901E+02 -0.16023381454E+02  0.28702953220E+02  0.00000000000E+00 0.  1.
</event>
<event>
 5    1  0.1691066E-003  0.9118800E+02  0.7818608E-02  0.1130116E+00
         25   -1    0    0    0    0  0.00000000000E+00  0.00000000000E+00  0.99999998245E-14  0.12500000000E+03  0.12500000000E+03 0.  0.
        -13    1    3    3    0    0 -0.42009166424E+02 -0.23818142762E+02 -0.14621911651E+02  0.50456768155E+02  0.10566000000E+00 0. -1.
         23    2    1    0    0    0 -0.22115605045E+02  0.32699574290E+01  0.17240640844E+02  0.96768239431E+02  0.92558413220E+02 0.  0.
         13    1    3    3    0    0  0.19893561379E+02  0.27088100191E+02  0.31862552495E+02  0.46311471276E+02  0.10566000000E+00 0.  1.
         22    1    1    0    0    0  0.22115605045E+02 -0.32699574290E+01 -0.17240640844E+02  0.28231760569E+02  0.00000000000E+00 0. -1.
</event>
<event>
 5    1  0.1691066E-003  0.9118800E+02  0.7818608E-02  0.1130116E+00
         25   -1    0    0    0    0  0.00000000000E+00  0.00000000000E+00  0.99999998245E-14  0.12500000000E+03  0.12500000000E+03 0.  0.
        -13    1    3    3    0    0 -0.21631783287E+02 -0.48257316867E+02 -0.28682943690E+02  0.60161658073E+02  0.10566000000E+00 0. -1.
         23    2    1    0    0    0 -0.12518315055E+02 -0.30363132320E+02 -0.41024737256E+01  0.91902291518E+02  0.85735482034E+02 0.  0.
         13    1    3    3    0    0  0.91134682325E+01  0.17894184547E+02  0.24580469964E+02  0.31740633445E+02  0.10566000000E+00 0.  1.
         22    1    1    0    0    0  0.12518315055E+02  0.30363132320E+02  0.41024737256E+01  0.33097708482E+02  0.00000000000E+00 0. -1.
</event>
<event>
 5    1  0.1691066E-003  0.9118800E+02  0.7818608E-02  0.1130116E+00
         25   -1    0    0    0    0  0.00000000000E+00  0.00000000000E+00  0.99999998245E-14  0.12500000000E+03  0.12500000000E+03 0.  0.
        -13    1    3    3    0    0  0.50308759393E+02  0.20499588726E+01  0.36712684685E+02  0.62313770419E+02  0.10566000000E+00 0. -1.
         23    2    1    0    0    0  0.25795836578E+02 -0.18778546374E+00  0.14859421332E+02  0.95229832878E+02  0.90456941246E+02 0.  0.
         13    1    3    3    0    0 -0.24512922815E+02 -0.22377443364E+01 -0.21853263352E+02  0.32916062459E+02  0.10566000000E+00 0.  1.
         22    1    1    0    0    0 -0.25795836578E+02  0.18778546374E+00 -0.14859421332E+02  0.29770167122E+02  0.00000000000E+00 0. -1.
</event>
<event>
 5    1  0.1691066E-003  0.9118800E+02  0.7818608E-02  0.1130116E+00
         25   -1    0    0    0    0  0.00000000000E+00  0.00000000000E+00  0.99999998245E-14  0.12500000000E+03  0.12500000000E+03 0.  0.
        -13    1    3    3    0    0 -0.38081003664E+01  0.55328759322E+02  0.25076520451E+02  0.60865559050E+02  0.10566000000E+00 0. -1.
         23    2    1    0    0    0 -0.21424447336E+01  0.22239996834E+02  0.21160559477E+02  0.94227011748E+02  0.89060389270E+02 0.  0.
         13    1    3    3    0    0  0.16656556328E+01 -0.33088762489E+02 -0.39159609742E+01  0.33361452698E+02  0.10566000000E+00 0.  1.
         22    1    1    0    0    0  0.21424447336E+01 -0.22239996834E+02 -0.21160559477E+02  0.30772988252E+02  0.00000000000E+00 0. -1.
</event>
<event>
 5    1  0.1691066E-003  0.9118800E+02  0.7818608E-02  0.1130116E+00
         25   -1    0    0    0    0  0.00000000000E+00  0.00000000000E+00  0.99999998245E-14  0.12500000000E+03  0.12500000000E+03 0.  0.
        -13    1    3    3    0    0  0.58195017433E+02  0.93168555793E+01  0.19357634434E+02  0.62033805516E+02  0.10566000000E+00 0. -1.
         23    2    1    0    0    0  0.30478488119E+02 -0.11804329928E+00  0.75768012558E+01  0.93593629794E+02  0.88166929449E+02 0.  0.
         13    1    3    3    0    0 -0.27716529313E+02 -0.94348988786E+01 -0.11780833179E+02  0.31559824278E+02  0.10566000000E+00 0.  1.
         22    1    1    0    0    0 -0.30478488119E+02  0.11804329928E+00 -0.75768012558E+01  0.31406370206E+02  0.00000000000E+00 0. -1.
</event>
<event>
 5    1  0.1691066E-003  0.9118800E+02  0.7818608E-02  0.1130116E+00
         25   -1    0    0    0    0  0.00000000000E+00  0.00000000000E+00  0.99999998245E-14  0.12500000000E+03  0.12500000000E+03 0.  0.
        -13    1    3    3    0    0  0.82753997281E+01  0.11917002530E+02  0.38722418473E+02  0.41351348786E+02  0.10566000000E+00 0. -1.
         23    2    1    0    0    0 -0.17861781364E+02 -0.21260491261E+02  0.22757182693E+01  0.97139084441E+02  0.93057891176E+02 0.  0.
         13    1    3    3    0    0 -0.26137181092E+02 -0.33177493791E+02 -0.36446700204E+02  0.55787735655E+02  0.10566000000E+00 0.  1.
         22    1    1    0    0    0  0.17861781364E+02  0.21260491261E+02 -0.22757182693E+01  0.27860915559E+02  0.00000000000E+00 0.  1.
</event>
<event>
 5    1  0.1691066E-003  0.9118800E+02  0.7818608E-02  0.1130116E+00
         25   -1    0    0    0    0  0.00000000000E+00  0.00000000000E+00  0.99999998245E-14  0.12500000000E+03  0.12500000000E+03 0.  0.
        -13    1    3    3    0    0 -0.57298125936E+02 -0.24865579652E+00  0.50984407408E+01  0.57525145176E+02  0.10566000000E+00 0.  1.
         23    2    1    0    0    0 -0.25203083975E+02 -0.10952975721E+02  0.16159637911E+02  0.93120586323E+02  0.87493694519E+02 0.  0.
         13    1    3    3    0    0  0.32095041961E+02 -0.10704319925E+02  0.11061197170E+02  0.35595441146E+02  0.10566000000E+00 0. -1.
         22    1    1    0    0    0  0.25203083975E+02  0.10952975721E+02 -0.16159637911E+02  0.31879413677E+02  0.00000000000E+00 0.  1.
</event>
<event>
 5    1  0.1691066E-003  0.9118800E+02  0.7818608E-02  0.1130116E+00
         25   -1    0    0    0    0  0.00000000000E+00  0.00000000000E+00  0.99999998245E-14  0.12500000000E+03  0.12500000000E+03 0.  0.
        -13    1    3    3    0    0  0.51465228401E+02  0.11890326985E+01  0.18530488846E+02  0.54712646747E+02  0.10566000000E+00 0.  1.
         23    2    1    0    0    0  0.69406166884E+01 -0.98254170320E+01  0.21165108951E+02  0.10065512751E+03  0.97666687649E+02 0.  0.
         13    1    3    3    0    0 -0.44524611713E+02 -0.11014449730E+02  0.26346201050E+01  0.45942480758E+02  0.10566000000E+00 0. -1.
         22    1    1    0    0    0 -0.69406166884E+01  0.98254170320E+01 -0.21165108951E+02  0.24344872495E+02  0.00000000000E+00 0.  1.
</event>
<event>
 5    1  0.1691066E-003  0.9118800E+02  0.7818608E-02  0.1130116E+00
         25   -1    0    0    0    0  0.00000000000E+00  0.00000000000E+00  0.99999998245E-14  0.12500000000E+03  0.12500000000E+03 0.  0.
        -13    1    3    3    0    0 -0.13100420850E+02 -0.34574790319E+02 -0.40299174685E+02  0.54690692046E+02  0.10566000000E+00 0.  1.
         23    2    1    0    0    0  0.15806328443E+02 -0.19110426049E+02 -0.16229090383E+02  0.95361650227E+02  0.90638913038E+02 0.  0.
         13    1    3    3    0    0  0.28906749293E+02  0.15464364271E+02  0.24070084302E+02  0.40670958181E+02  0.10566000000E+00 0. -1.
         22    1    1    0    0    0 -0.15806328443E+02  0.19110426049E+02  0.16229090383E+02  0.29638349773E+02  0.00000000000E+00 0.  1.
</event>
<event>
 5    1  0.1691066E-003  0.9118800E+02  0.7818608E-02  0.1130116E+00
         25   -1    0    0    0    0  0.00000000000E+00  0.00000000000E+00  0.99999998245E-14  0.12500000000E+03  0.12500000000E+03 0.  0.
        -13    1    3    3    0    0  0.24569431603E+02 -0.20624906265E+02 -0.21180668488E+02  0.38440546424E+02  0.10566000000E+00 0.  1.
         23    2    1    0    0    0 -0.97857999053E+01 -0.12013685077E+02  0.24358025628E+02  0.96131263945E+02  0.91694143686E+02 0.  0.
         13    1    3    3    0    0 -0.34355231508E+02  0.86112211887E+01  0.45538694116E+02  0.57690717521E+02  0.10566000000E+00 0. -1.
         22    1    1    0    0    0  0.97857999053E+01  0.12013685077E+02 -0.24358025628E+02  0.28868736055E+02  0.00000000000E+00 0. -1.
</event>
<event>
 5    1  0.1691066E-003  0.9118800E+02  0.7818608E-02  0.1130116E+00
         25   -1    0    0    0    0  0.00000000000E+00  0.00000000000E+00  0.99999998245E-14  0.12500000000E+03  0.12500000000E+03 0.  0.
        -13    1    3    3    0    0 -0.17845701130E+01  0.11214218219E+02 -0.36834540558E+02  0.38545271084E+02  0.10566000000E+00 0. -1.
         23    2    1    0    0    0 -0.60663274975E+01  0.21065903250E+02  0.19357379042E+02  0.95754816936E+02  0.91179516527E+02 0.  0.
         13    1    3    3    0    0 -0.42817573845E+01  0.98516850315E+01  0.56191919600E+02  0.57209545853E+02  0.10566000000E+00 0.  1.
         22    1    1    0    0    0  0.60663274975E+01 -0.21065903250E+02 -0.19357379042E+02  0.29245183064E+02  0.00000000000E+00 0.  1.
</event>
<event>
 5    1  0.1691066E-003  0.9118800E+02  0.7818608E-02  0.1130116E+00
         25   -1    0    0    0    0  0.00000000000E+00  0.00000000000E+00  0.99999998245E-14  0.12500000000E+03  0.12500000000E+03 0.  0.
        -13    1    3    3    0    0  0.25335407733E+02  0.17299323245E+02 -0.52280036504E+02  0.60616522918E+02  0.10566000000E+00 0.  1.
         23    2    1    0    0    0  0.97605107104E+01  0.17921596772E+02 -0.20184970624E+02  0.96296616240E+02  0.91919280132E+02 0.  0.
         13    1    3    3    0    0 -0.15574897022E+02  0.62227352702E+00  0.32095065880E+02  0.35680093322E+02  0.10566000000E+00 0. -1.
         22    1    1    0    0    0 -0.97605107104E+01 -0.17921596772E+02  0.20184970624E+02  0.28703383760E+02  0.00000000000E+00 0.  1.
</event>
<event>
 5    1  0.1691066E-003  0.9118800E+02  0.7818608E-02  0.1130116E+00
         25   -1    0    0    0    0  0.00000000000E+00  0.00000000000E+00  0.99999998245E-14  0.12500000000E+03  0.12500000000E+03 0.  0.
        -13    1    3    3    0    0 -0.53335730758E+02  0.11277858945E+02  0.23703534038E+02  0.59445428485E+02  0.10566000000E+00 0.  1.
         23    2    1    0    0    0 -0.25965048003E+02  0.12168642961E+02 -0.97281578383E+00  0.96308433994E+02  0.91935349559E+02 0.  0.
         13    1    3    3    0    0  0.27370682755E+02  0.89078401547E+00 -0.24676349822E+02  0.36863005509E+02  0.10566000000E+00 0. -1.
         22    1    1    0    0    0  0.25965048003E+02 -0.12168642961E+02  0.97281578383E+00  0.28691566006E+02  0.00000000000E+00 0.  1.
</event>
<event>
 5    1  0.1691066E-003  0.9118800E+02  0.7818608E-02  0.1130116E+00
         25   -1    0    0    0    0  0.00000000000E+00  0.00000000000E+00  0.99999998245E-14  0.12500000000E+03  0.12500000000E+03 0.  0.
        -13    1    3    3    0    0  0.12306446423E+02  0.35276155338E+02  0.52868854574E+01  0.37733514027E+02  0.10566000000E+00 0. -1.
         23    2    1    0    0    0 -0.10705355807E+02 -0.21801645307E+02  0.82554047157E+01  0.99347162183E+02  0.95978073255E+02 0.  0.
         13    1    3    3    0    0 -0.23011802230E+02 -0.57077800645E+02  0.29685192583E+01  0.61613648155E+02  0.10566000000E+00 0.  1.
         22    1    1    0    0    0  0.10705355807E+02  0.21801645307E+02 -0.82554047157E+01  0.25652837817E+02  0.00000000000E+00 0.  1.
</event>
<event>
 5    1  0.1691066E-003  0.9118800E+02  0.7818608E-02  0.1130116E+00
         25   -1    0    0    0    0  0.00000000000E+00  0.00000000000E+00  0.99999998245E-14  0.12500000000E+03  0.12500000000E+03 0.  0.
        -13    1    3    3    0    0 -0.31042803533E+02 -0.16307174933E+02  0.48745256060E+01  0.35402708504E+02  0.10566000000E+00 0. -1.
         23    2    1    0    0    0  0.28237037737E+02 -0.43498099345E+01 -0.24814744359E+01  0.96322328163E+02  0.91954238841E+02 0.  0.
         13    1    3    3    0    0  0.59279841270E+02  0.11957364999E+02 -0.73560000419E+01  0.60919619659E+02  0.10566000000E+00 0.  1.
         22    1    1    0    0    0 -0.28237037737E+02  0.43498099345E+01  0.24814744359E+01  0.28677671837E+02  0.00000000000E+00 0.  1.
</event>
<event>
 5    1  0.1691066E-003  0.9118800E+02  0.7818608E-02  0.1130116E+00
         25   -1    0    0    0    0  0.00000000000E+00  0.00000000000E+00  0.99999998245E-14  0.12500000000E+03  0.12500000000E+03 0.  0.
        -13    1    3    3    0    0 -0.37323722796E+02  0.33853874229E+01 -0.14383828946E+02  0.40142581264E+02  0.10566000000E+00 0.  1.
         23    2    1    0    0    0  0.69927965586E+01  0.24510777984E+02  0.13031760957E+02  0.96373015620E+02  0.92023116144E+02 0.  0.
         13    1    3    3    0    0  0.44316519355E+02  0.21125390561E+02  0.27415589903E+02  0.56230434356E+02  0.10566000000E+00 0. -1.
         22    1    1    0    0    0 -0.69927965586E+01 -0.24510777984E+02 -0.13031760957E+02  0.28626984380E+02  0.00000000000E+00 0. -1.
</event>
<event>
 5    1  0.1691066E-003  0.9118800E+02  0.7818608E-02  0.1130116E+00
         25   -1    0    0    0    0  0.00000000000E+00  0.00000000000E+00  0.99999998245E-14  0.12500000000E+03  0.12500000000E+03 0.  0.
        -13    1    3    3    0    0  0.26199502456E+02 -0.47003311347E+02 -0.11290147187E+02  0.54983668430E+02  0.10566000000E+00 0.  1.
         23    2    1    0    0    0 -0.81454520699E+01 -0.26589850991E+02  0.20741809103E+01  0.97113250609E+02  0.93023183413E+02 0.  0.
         13    1    3    3    0    0 -0.34344954526E+02  0.20413460356E+02  0.13364328097E+02  0.42129582179E+02  0.10566000000E+00 0. -1.
         22    1    1    0    0    0  0.81454520699E+01  0.26589850991E+02 -0.20741809103E+01  0.27886749391E+02  0.00000000000E+00 0.  1.
</event>
<event>
 5    1  0.1691066E-003  0.9118800E+02  0.7818608E-02  0.1130116E+00
         25   -1    0    0    0    0  0.00000000000E+00  0.00000000000E+00  0.99999998245E-14  0.12500000000E+03  0.12500000000E+03 0.  0.
        -13    1    3    3    0    0  0.76426930748E+01 -0.15171446383E+02 -0.59567614362E+02  0.61942678240E+02  0.10566000000E+00 0. -1.
         23    2    1    0    0    0  0.93277968093E+01 -0.66795082607E+01 -0.26537658024E+02  0.96088567706E+02  0.91635920503E+02 0.  0.
         13    1    3    3    0    0  0.16851037345E+01  0.84919381218E+01  0.33029956338E+02  0.34145889466E+02  0.10566000000E+00 0.  1.
         22    1    1    0    0    0 -0.93277968093E+01  0.66795082607E+01  0.26537658024E+02  0.28911432294E+02  0.00000000000E+00 0. -1.
</event>
<event>
 5    1  0.1691066E-003  0.9118800E+02  0.7818608E-02  0.1130116E+00
         25   -1    0    0    0    0  0.00000000000E+00  0.00000000000E+00  0.99999998245E-14  0.12500000000E+03  0.12500000000E+03 0.  0.
        -13    1    3    3    0    0 -0.36593437670E+02 -0.13148751888E+02  0.33519837247E+02  0.51337705537E+02  0.10566000000E+00 0.  1.
         23    2    1    0    0    0 -0.15346493280E+02  0.20015964670E+02  0.19402802767E+02  0.93178270744E+02  0.87576067997E+02 0.  0.
         13    1    3    3    0    0  0.21246944390E+02  0.33164716558E+02 -0.14117034480E+02  0.41840565207E+02  0.10566000000E+00 0. -1.
         22    1    1    0    0    0  0.15346493280E+02 -0.20015964670E+02 -0.19402802767E+02  0.31821729256E+02  0.00000000000E+00 0.  1.
</event>
<event>
 5    1  0.1691066E-003  0.9118800E+02  0.7818608E-02  0.1130116E+00
         25   -1    0    0    0    0  0.00000000000E+00  0.00000000000E+00  0.99999998245E-14  0.12500000000E+03  0.12500000000E+03 0.  0.
        -13    1    3    3    0    0  0.17853470202E+02  0.33240871502E+02  0.55767373019E+01  0.38142012262E+02  0.10566000000E+00 0.  1.
         23    2    1    0    0    0 -0.13696680350E+02 -0.27135558474E+01 -0.26020215713E+02  0.95470115752E+02  0.90788374465E+02 0.  0.
         13    1    3    3    0    0 -0.31550150552E+02 -0.35954427349E+02 -0.31596953015E+02  0.57328103490E+02  0.10566000000E+00 0. -1.
         22    1    1    0    0    0  0.13696680350E+02  0.27135558474E+01  0.26020215713E+02  0.29529884248E+02  0.00000000000E+00 0. -1.
</event>
<event>
 5    1  0.1691066E-003  0.9118800E+02  0.7818608E-02  0.1130116E+00
         25   -1    0    0    0    0  0.00000000000E+00  0.00000000000E+00  0.99999998245E-14  0.12500000000E+03  0.12500000000E+03 0.  0.
        -13    1    3    3    0    0  0.59706356938E+01 -0.54122697789E+02 -0.12753650271E+02  0.55924785791E+02  0.10566000000E+00 0.  1.
         23    2    1    0    0    0 -0.10839551907E+02 -0.25212325080E+02  0.93447054980E+01  0.96008954101E+02  0.91527255642E+02 0.  0.
         13    1    3    3    0    0 -0.16810187601E+02  0.28910372709E+02  0.22098355769E+02  0.40084168310E+02  0.10566000000E+00 0. -1.
         22    1    1    0    0    0  0.10839551907E+02  0.25212325080E+02 -0.93447054980E+01  0.28991045899E+02  0.00000000000E+00 0.  1.
</event>
<event>
 5    1  0.1691066E-003  0.9118800E+02  0.7818608E-02  0.1130116E+00
         25   -1    0    0    0    0  0.00000000000E+00  0.00000000000E+00  0.99999998245E-14  0.12500000000E+03  0.12500000000E+03 0.  0.
        -13    1    3    3    0    0 -0.46187167522E+02  0.24038827763E+02  0.23127350262E+01  0.52119857936E+02  0.10566000000E+00 0. -1.
         23    2    1    0    0    0 -0.23976481995E+02 -0.13627581116E+02 -0.63563764798E+01  0.96698300795E+02  0.92463912955E+02 0.  0.
         13    1    3    3    0    0  0.22210685528E+02 -0.37666408879E+02 -0.86691115061E+01  0.44578442859E+02  0.10566000000E+00 0.  1.
         22    1    1    0    0    0  0.23976481995E+02  0.13627581116E+02  0.63563764798E+01  0.28301699205E+02  0.00000000000E+00 0. -1.
</event>
<event>
 5    1  0.1691066E-003  0.9118800E+02  0.7818608E-02  0.1130116E+00
         25   -1    0    0    0    0  0.00000000000E+00  0.00000000000E+00  0.99999998245E-14  0.12500000000E+03  0.12500000000E+03 0.  0.
        -13    1    3    3    0    0 -0.32029632909E+02  0.20443804688E+02 -0.10890482534E+02  0.39527968684E+02  0.10566000000E+00 0.  1.
         23    2    1    0    0    0 -0.65090004222E+01 -0.24836678550E+02  0.12402659095E+02  0.96485904529E+02  0.92176331736E+02 0.  0.
         13    1    3    3    0    0  0.25520632487E+02 -0.45280483238E+02  0.23293141628E+02  0.56957935845E+02  0.10566000000E+00 0. -1.
         22    1    1    0    0    0  0.65090004222E+01  0.24836678550E+02 -0.12402659095E+02  0.28514095471E+02  0.00000000000E+00 0. -1.
</event>
<event>
 5    1  0.1691066E-003  0.9118800E+02  0.7818608E-02  0.1130116E+00
         25   -1    0    0    0    0  0.00000000000E+00  0.00000000000E+00  0.99999998245E-14  0.12500000000E+03  0.12500000000E+03 0.  0.
        -13    1    3    3    0    0  0.12722645718E+02 -0.30519245753E+02  0.33905939486E+02  0.47359412706E+02  0.10566000000E+00 0.  1.
         23    2    1    0    0    0  0.21436033045E+02 -0.43935593996E+01 -0.11360060133E+02  0.10034522677E+03  0.97269248439E+02 0.  0.
         13    1    3    3    0    0  0.87133873272E+01  0.26125686354E+02 -0.45265999619E+02  0.52985814061E+02  0.10566000000E+00 0. -1.
         22    1    1    0    0    0 -0.21436033045E+02  0.43935593996E+01  0.11360060133E+02  0.24654773232E+02  0.00000000000E+00 0. -1.
</event>
<event>
 5    1  0.1691066E-003  0.9118800E+02  0.7818608E-02  0.1130116E+00
         25   -1    0    0    0    0  0.00000000000E+00  0.00000000000E+00  0.99999998245E-14  0.12500000000E+03  0.12500000000E+03 0.  0.
        -13    1    3    3    0    0 -0.30763836358E+02  0.46192550927E+02 -0.14139779452E+02  0.57272243849E+02  0.10566000000E+00 0. -1.
         23    2    1    0    0    0  0.18520720198E+00  0.27839661470E+02 -0.15221649677E+02  0.93270208457E+02  0.87707195339E+02 0.  0.
         13    1    3    3    0    0  0.30949043560E+02 -0.18352889456E+02 -0.10818702254E+01  0.35997964607E+02  0.10566000000E+00 0.  1.
         22    1    1    0    0    0 -0.18520720198E+00 -0.27839661470E+02  0.15221649677E+02  0.31729791543E+02  0.00000000000E+00 0. -1.
</event>
<event>
 5    1  0.1691066E-003  0.9118800E+02  0.7818608E-02  0.1130116E+00
         25   -1    0    0    0    0  0.00000000000E+00  0.00000000000E+00  0.99999998245E-14  0.12500000000E+03  0.12500000000E+03 0.  0.
        -13    1    3    3    0    0  0.99049091003E+01  0.10768344724E+02 -0.29939376078E+02  0.33323293300E+02  0.10566000000E+00 0.  1.
         23    2    1    0    0    0 -0.20548754896E+01 -0.10648686167E+02  0.27314698595E+02  0.95611060079E+02  0.90982223647E+02 0.  0.
         13    1    3    3    0    0 -0.11959784590E+02 -0.21417030890E+02  0.57254074673E+02  0.62287766779E+02  0.10566000000E+00 0. -1.
         22    1    1    0    0    0  0.20548754896E+01  0.10648686167E+02 -0.27314698595E+02  0.29388939921E+02  0.00000000000E+00 0. -1.
</event>
<event>
 5    1  0.1691066E-003  0.9118800E+02  0.7818608E-02  0.1130116E+00
         25   -1    0    0    0    0  0.00000000000E+00  0.00000000000E+00  0.99999998245E-14  0.12500000000E+03  0.12500000000E+03 0.  0.
        -13    1    3    3    0    0 -0.25750803675E+02  0.16033185385E+02 -0.15240053562E+02  0.33947567219E+02  0.10566000000E+00 0. -1.
         23    2    1    0    0    0 -0.92647886560E+01 -0.55313437285E+01  0.33537486466E+02  0.89769401499E+02  0.82567247591E+02 0.  0.
         13    1    3    3    0    0  0.16486015019E+02 -0.21564529113E+02  0.48777540029E+02  0.55821834280E+02  0.10566000000E+00 0.  1.
         22    1    1    0    0    0  0.92647886560E+01  0.55313437285E+01 -0.33537486466E+02  0.35230598501E+02  0.00000000000E+00 0.  1.
</event>
<event>
 5    1  0.1691066E-003  0.9118800E+02  0.7818608E-02  0.1130116E+00
         25   -1    0    0    0    0  0.00000000000E+00  0.00000000000E+00  0.99999998245E-14  0.12500000000E+03  0.12500000000E+03 0.  0.
        -13    1    3    3    0    0 -0.25306924073E+02  0.23627703551E+02 -0.13923316010E+02  0.37317270451E+02  0.10566000000E+00 0.  1.
         23    2    1    0    0    0  0.11512758710E+02 -0.19752973973E+02 -0.20108322810E+02  0.94552204676E+02  0.89515647621E+02 0.  0.
         13    1    3    3    0    0  0.36819682783E+02 -0.43380677523E+02 -0.61850067999E+01  0.57234934225E+02  0.10566000000E+00 0. -1.
         22    1    1    0    0    0 -0.11512758710E+02  0.19752973973E+02  0.20108322810E+02  0.30447795324E+02  0.00000000000E+00 0. -1.
</event>
<event>
 5    1  0.1691066E-003  0.9118800E+02  0.7818608E-02  0.1130116E+00
         25   -1    0    0    0    0  0.00000000000E+00  0.00000000000E+00  0.99999998245E-14  0.12500000000E+03  0.12500000000E+03 0.  0.
        -13    1    3    3    0    0 -0.34647769313E+02 -0.11281895143E+02  0.85826940625E+01  0.37435583044E+02  0.10566000000E+00 0.  1.
         23    2    1    0    0    0  0.10456181889E+02  0.26239757420E+02 -0.15404291400E+00  0.96753224283E+02  0.92538133063E+02 0.  0.
         13    1    3    3    0    0  0.45103951202E+02  0.37521652564E+02 -0.87367369766E+01  0.59317641239E+02  0.10566000000E+00 0. -1.
         22    1    1    0    0    0 -0.10456181889E+02 -0.26239757420E+02  0.15404291400E+00  0.28246775717E+02  0.00000000000E+00 0. -1.
</event>
<event>
 5    1  0.1691066E-003  0.9118800E+02  0.7818608E-02  0.1130116E+00
         25   -1    0    0    0    0  0.00000000000E+00  0.00000000000E+00  0.99999998245E-14  0.12500000000E+03  0.12500000000E+03 0.  0.
        -13    1    3    3    0    0  0.44050086706E+02  0.87284891731E+01 -0.20651960738E+02  0.49427839407E+02  0.10566000000E+00 0. -1.
         23    2    1    0    0    0  0.17768259084E+02  0.16010387668E+02  0.16810516512E+02  0.95765824630E+02  0.91194605967E+02 0.  0.
         13    1    3    3    0    0 -0.26281827622E+02  0.72818984954E+01  0.37462477250E+02  0.46337985223E+02  0.10566000000E+00 0.  1.
         22    1    1    0    0    0 -0.17768259084E+02 -0.16010387668E+02 -0.16810516512E+02  0.29234175370E+02  0.00000000000E+00 0.  1.
</event>
<event>
 5    1  0.1691066E-003  0.9118800E+02  0.7818608E-02  0.1130116E+00
         25   -1    0    0    0    0  0.00000000000E+00  0.00000000000E+00  0.99999998245E-14  0.12500000000E+03  0.12500000000E+03 0.  0.
        -13    1    3    3    0    0 -0.33004910577E+02  0.17007299923E+02  0.49873556033E+02  0.62176805388E+02  0.10566000000E+00 0. -1.
         23    2    1    0    0    0 -0.14209406049E+02  0.44268872340E+01  0.25848179939E+02  0.95173284509E+02  0.90378764802E+02 0.  0.
         13    1    3    3    0    0  0.18795504528E+02 -0.12580412689E+02 -0.24025376093E+02  0.32996479121E+02  0.10566000000E+00 0.  1.
         22    1    1    0    0    0  0.14209406049E+02 -0.44268872340E+01 -0.25848179939E+02  0.29826715491E+02  0.00000000000E+00 0. -1.
</event>
<event>
 5    1  0.1691066E-003  0.9118800E+02  0.7818608E-02  0.1130116E+00
         25   -1    0    0    0    0  0.00000000000E+00  0.00000000000E+00  0.99999998245E-14  0.12500000000E+03  0.12500000000E+03 0.  0.
        -13    1    3    3    0    0  0.43365989317E+02  0.10915878472E+02  0.51499709139E+01  0.45014428761E+02  0.10566000000E+00 0.  1.
         23    2    1    0    0    0 -0.25514083816E+01  0.28067814496E+02 -0.78846364518E+01  0.95734330910E+02  0.91151427457E+02 0.  0.
         13    1    3    3    0    0 -0.45917397698E+02  0.17151936024E+02 -0.13034607366E+02  0.50719902149E+02  0.10566000000E+00 0. -1.
         22    1    1    0    0    0  0.25514083816E+01 -0.28067814496E+02  0.78846364518E+01  0.29265669090E+02  0.00000000000E+00 0. -1.
</event>
<event>
 5    1  0.1691066E-003  0.9118800E+02  0.7818608E-02  0.1130116E+00
         25   -1    0    0    0    0  0.00000000000E+00  0.00000000000E+00  0.99999998245E-14  0.12500000000E+03  0.12500000000E+03 0.  0.
        -13    1    3    3    0    0  0.29444710812E+01  0.41488775512E+02 -0.30672585112E+02  0.51679851441E+02  0.10566000000E+00 0.  1.
         23    2    1    0    0    0 -0.54871262141E+01 -0.35108479562E+01 -0.26566555040E+02  0.97646454450E+02  0.93736938356E+02 0.  0.
         13    1    3    3    0    0 -0.84315972953E+01 -0.44999623468E+02  0.41060300720E+01  0.45966603009E+02  0.10566000000E+00 0. -1.
         22    1    1    0    0    0  0.54871262141E+01  0.35108479562E+01  0.26566555040E+02  0.27353545550E+02  0.00000000000E+00 0.  1.
</event>
<event>
 5    1  0.1691066E-003  0.9118800E+02  0.7818608E-02  0.1130116E+00
         25   -1    0    0    0    0  0.00000000000E+00  0.00000000000E+00  0.99999998245E-14  0.12500000000E+03  0.12500000000E+03 0.  0.
        -13    1    3    3    0    0 -0.26594772411E+02 -0.11382648136E+02 -0.17156591703E+02  0.33633411975E+02  0.10566000000E+00 0.  1.
         23    2    1    0    0    0  0.19639946100E+02  0.10107998846E+01  0.22011323765E+02  0.95483096824E+02  0.90806245413E+02 0.  0.
         13    1    3    3    0    0  0.46234718512E+02  0.12393448021E+02  0.39167915468E+02  0.61849684848E+02  0.10566000000E+00 0. -1.
         22    1    1    0    0    0 -0.19639946100E+02 -0.10107998846E+01 -0.22011323765E+02  0.29516903176E+02  0.00000000000E+00 0. -1.
</event>
<event>
 5    1  0.1691066E-003  0.9118800E+02  0.7818608E-02  0.1130116E+00
         25   -1    0    0    0    0  0.00000000000E+00  0.00000000000E+00  0.99999998245E-14  0.12500000000E+03  0.12500000000E+03 0.  0.
        -13    1    3    3    0    0  0.73839590057E+01  0.40234190612E+02 -0.80351706443E+00  0.40914175398E+02  0.10566000000E+00 0. -1.
         23    2    1    0    0    0 -0.23006511979E+02 -0.33442498499E+01 -0.16705859207E+02  0.96371878644E+02  0.92021571716E+02 0.  0.
         13    1    3    3    0    0 -0.30390470985E+02 -0.43578440462E+02 -0.15902342143E+02  0.55457703247E+02  0.10566000000E+00 0.  1.
         22    1    1    0    0    0  0.23006511979E+02  0.33442498499E+01  0.16705859207E+02  0.28628121356E+02  0.00000000000E+00 0. -1.
</event>
<event>
 5    1  0.1691066E-003  0.9118800E+02  0.7818608E-02  0.1130116E+00
         25   -1    0    0    0    0  0.00000000000E+00  0.00000000000E+00  0.99999998245E-14  0.12500000000E+03  0.12500000000E+03 0.  0.
        -13    1    3    3    0    0  0.49560045759E+01  0.50189039511E+02  0.17226542665E+02  0.53294151692E+02  0.10566000000E+00 0.  1.
         23    2    1    0    0    0  0.90525495943E+01  0.21907894417E+02 -0.15451147083E+02  0.96704374223E+02  0.92472123128E+02 0.  0.
         13    1    3    3    0    0  0.40965450184E+01 -0.28281145094E+02 -0.32677689748E+02  0.43410222531E+02  0.10566000000E+00 0. -1.
         22    1    1    0    0    0 -0.90525495943E+01 -0.21907894417E+02  0.15451147083E+02  0.28295625777E+02  0.00000000000E+00 0.  1.
</event>
<event>
 5    1  0.1691066E-003  0.9118800E+02  0.7818608E-02  0.1130116E+00
         25   -1    0    0    0    0  0.00000000000E+00  0.00000000000E+00  0.99999998245E-14  0.12500000000E+03  0.12500000000E+03 0.  0.
        -13    1    3    3    0    0  0.14566183048E+02 -0.26572919922E+02  0.18087244791E+02  0.35290981141E+02  0.10566000000E+00 0.  1.
         23    2    1    0    0    0  0.16362643387E+02  0.24462074442E+02 -0.10424799097E+02  0.93778122721E+02  0.88428110238E+02 0.  0.
         13    1    3    3    0    0  0.17964603391E+01  0.51034994363E+02 -0.28512043888E+02  0.58487141580E+02  0.10566000000E+00 0. -1.
         22    1    1    0    0    0 -0.16362643387E+02 -0.24462074442E+02  0.10424799097E+02  0.31221877279E+02  0.00000000000E+00 0. -1.
</event>
<event>
 5    1  0.1691066E-003  0.9118800E+02  0.7818608E-02  0.1130116E+00
         25   -1    0    0    0    0  0.00000000000E+00  0.00000000000E+00  0.99999998245E-14  0.12500000000E+03  0.12500000000E+03 0.  0.
        -13    1    3    3    0    0  0.35964059062E+02 -0.49035285647E+02 -0.15064980120E+01  0.60828886913E+02  0.10566000000E+00 0. -1.
         23    2    1    0    0    0  0.19509186638E+02 -0.20244060077E+02 -0.10167959863E+02  0.95103215232E+02  0.90281802197E+02 0.  0.
         13    1    3    3    0    0 -0.16454872424E+02  0.28791225570E+02 -0.86614618506E+01  0.34274328319E+02  0.10566000000E+00 0.  1.
         22    1    1    0    0    0 -0.19509186638E+02  0.20244060077E+02  0.10167959863E+02  0.29896784768E+02  0.00000000000E+00 0. -1.
</event>
<event>
 5    1  0.1691066E-003  0.9118800E+02  0.7818608E-02  0.1130116E+00
         25   -1    0    0    0    0  0.00000000000E+00  0.00000000000E+00  0.99999998245E-14  0.12500000000E+03  0.12500000000E+03 0.  0.
        -13    1    3    3    0    0  0.15425241992E+02 -0.40346529963E+02 -0.24081726116E+02  0.49454234069E+02  0.10566000000E+00 0.  1.
         23    2    1    0    0    0  0.27486945190E+02  0.18289995514E+01 -0.11984758090E+02  0.94958165474E+02  0.90080749156E+02 0.  0.
         13    1    3    3    0    0  0.12061703198E+02  0.42175529515E+02  0.12096968026E+02  0.45503931405E+02  0.10566000000E+00 0. -1.
         22    1    1    0    0    0 -0.27486945190E+02 -0.18289995514E+01  0.11984758090E+02  0.30041834526E+02  0.00000000000E+00 0. -1.
</event>
<event>
 5    1  0.1691066E-003  0.9118800E+02  0.7818608E-02  0.1130116E+00
         25   -1    0    0    0    0  0.00000000000E+00  0.00000000000E+00  0.99999998245E-14  0.12500000000E+03  0.12500000000E+03 0.  0.
        -13    1    3    3    0    0  0.42050893609E+02 -0.16364016425E+02 -0.12335666264E+02  0.46778611706E+02  0.10566000000E+00 0.  1.
         23    2    1    0    0    0  0.15661908184E+02  0.83852545020E+01  0.22044757570E+02  0.96687825987E+02  0.92449751199E+02 0.  0.
         13    1    3    3    0    0 -0.26388985425E+02  0.24749270927E+02  0.34380423834E+02  0.49909214282E+02  0.10566000000E+00 0. -1.
         22    1    1    0    0    0 -0.15661908184E+02 -0.83852545020E+01 -0.22044757570E+02  0.28312174013E+02  0.00000000000E+00 0. -1.
</event>
<event>
 5    1  0.1691066E-003  0.9118800E+02  0.7818608E-02  0.1130116E+00
         25   -1    0    0    0    0  0.00000000000E+00  0.00000000000E+00  0.99999998245E-14  0.12500000000E+03  0.12500000000E+03 0.  0.
        -13    1    3    3    0    0  0.34499450806E+02 -0.94053975424E+00 -0.20402069791E+02  0.40091798871E+02  0.10566000000E+00 0. -1.
         23    2    1    0    0    0 -0.17049638517E+02 -0.21049006769E+02 -0.68326013540E+01  0.97063727865E+02  0.92956613355E+02 0.  0.
         13    1    3    3    0    0 -0.51549089323E+02 -0.20108467015E+02  0.13569468437E+02  0.56971928995E+02  0.10566000000E+00 0.  1.
         22    1    1    0    0    0  0.17049638517E+02  0.21049006769E+02  0.68326013540E+01  0.27936272135E+02  0.00000000000E+00 0.  1.
</event>
<event>
 5    1  0.1691066E-003  0.9118800E+02  0.7818608E-02  0.1130116E+00
         25   -1    0    0    0    0  0.00000000000E+00  0.00000000000E+00  0.99999998245E-14  0.12500000000E+03  0.12500000000E+03 0.  0.
        -13    1    3    3    0    0  0.50864804811E+02 -0.19243638771E+02  0.17028043491E+01  0.54410079106E+02  0.10566000000E+00 0.  1.
         23    2    1    0    0    0  0.11559308085E+02 -0.25567519763E+02  0.10248065034E+02  0.95127964462E+02  0.90316062335E+02 0.  0.
         13    1    3    3    0    0 -0.39305496726E+02 -0.63238809916E+01  0.85452606850E+01  0.40717885357E+02  0.10566000000E+00 0. -1.
         22    1    1    0    0    0 -0.11559308085E+02  0.25567519763E+02 -0.10248065034E+02  0.29872035538E+02  0.00000000000E+00 0.  1.
</event>
<event>
 5    1  0.1691066E-003  0.9118800E+02  0.7818608E-02  0.1130116E+00
         25   -1    0    0    0    0  0.00000000000E+00  0.00000000000E+00  0.99999998245E-14  0.12500000000E+03  0.12500000000E+03 0.  0.
        -13    1    3    3    0    0  0.13298574894E+02 -0.13228185197E+02  0.27164495913E+02  0.33011482549E+02  0.10566000000E+00 0.  1.
         23    2    1    0    0    0 -0.17043389550E+02  0.10768600389E+02 -0.21729773641E+02  0.95358425410E+02  0.90634465588E+02 0.  0.
         13    1    3    3    0    0 -0.30341964444E+02  0.23996785587E+02 -0.48894269554E+02  0.62346942861E+02  0.10566000000E+00 0. -1.
         22    1    1    0    0    0  0.17043389550E+02 -0.10768600389E+02  0.21729773641E+02  0.29641574590E+02  0.00000000000E+00 0. -1.
</event>
<event>
 5    1  0.1691066E-003  0.9118800E+02  0.7818608E-02  0.1130116E+00
         25   -1    0    0    0    0  0.00000000000E+00  0.00000000000E+00  0.99999998245E-14  0.12500000000E+03  0.12500000000E+03 0.  0.
        -13    1    3    3    0    0 -0.44056429546E+02  0.62863080638E+01 -0.20137761390E+02  0.48846977913E+02  0.10566000000E+00 0. -1.
         23    2    1    0    0    0 -0.16182608821E+02 -0.25478550391E+02 -0.22644962791E+01  0.94731843438E+02  0.89766145397E+02 0.  0.
         13    1    3    3    0    0  0.27873820725E+02 -0.31764858455E+02  0.17873265111E+02  0.45884865525E+02  0.10566000000E+00 0.  1.
         22    1    1    0    0    0  0.16182608821E+02  0.25478550391E+02  0.22644962791E+01  0.30268156562E+02  0.00000000000E+00 0. -1.
</event>
<event>
 5    1  0.1691066E-003  0.9118800E+02  0.7818608E-02  0.1130116E+00
         25   -1    0    0    0    0  0.00000000000E+00  0.00000000000E+00  0.99999998245E-14  0.12500000000E+03  0.12500000000E+03 0.  0.
        -13    1    3    3    0    0  0.14841219733E+02  0.25357933443E+02 -0.48015243806E+01  0.29771670966E+02  0.10566000000E+00 0.  1.
         23    2    1    0    0    0 -0.11404863864E+02 -0.27463287861E+02  0.14611592085E+02  0.91866908941E+02  0.85683879669E+02 0.  0.
         13    1    3    3    0    0 -0.26246083597E+02 -0.52821221304E+02  0.19413116466E+02  0.62095237975E+02  0.10566000000E+00 0. -1.
         22    1    1    0    0    0  0.11404863864E+02  0.27463287861E+02 -0.14611592085E+02  0.33133091059E+02  0.00000000000E+00 0. -1.
</event>
<event>
 5    1  0.1691066E-003  0.9118800E+02  0.7818608E-02  0.1130116E+00
         25   -1    0    0    0    0  0.00000000000E+00  0.00000000000E+00  0.99999998245E-14  0.12500000000E+03  0.12500000000E+03 0.  0.
        -13    1    3    3    0    0 -0.36834030222E+01  0.33677779915E+02  0.26242862714E+02  0.42853930103E+02  0.10566000000E+00 0. -1.
         23    2    1    0    0    0 -0.26708525048E+02 -0.99544821896E+01  0.92535185079E+01  0.95032273515E+02  0.90183526094E+02 0.  0.
         13    1    3    3    0    0 -0.23025122025E+02 -0.43632262105E+02 -0.16989344206E+02  0.52178343412E+02  0.10566000000E+00 0.  1.
         22    1    1    0    0    0  0.26708525048E+02  0.99544821896E+01 -0.92535185079E+01  0.29967726485E+02  0.00000000000E+00 0.  1.
</event>
<event>
 5    1  0.1691066E-003  0.9118800E+02  0.7818608E-02  0.1130116E+00
         25   -1    0    0    0    0  0.00000000000E+00  0.00000000000E+00  0.99999998245E-14  0.12500000000E+03  0.12500000000E+03 0.  0.
        -13    1    3    3    0    0  0.29928552902E+02  0.29183835817E+02 -0.42748065886E+02  0.59789822318E+02  0.10566000000E+00 0. -1.
         23    2    1    0    0    0  0.28486461715E+01  0.10373196144E+02 -0.26191392048E+02  0.96685569039E+02  0.92446699561E+02 0.  0.
         13    1    3    3    0    0 -0.27079906731E+02 -0.18810639673E+02  0.16556673838E+02  0.36895746721E+02  0.10566000000E+00 0.  1.
         22    1    1    0    0    0 -0.28486461715E+01 -0.10373196144E+02  0.26191392048E+02  0.28314430961E+02  0.00000000000E+00 0. -1.
</event>
<event>
 5    1  0.1691066E-003  0.9118800E+02  0.7818608E-02  0.1130116E+00
         25   -1    0    0    0    0  0.00000000000E+00  0.00000000000E+00  0.99999998245E-14  0.12500000000E+03  0.12500000000E+03 0.  0.
        -13    1    3    3    0    0  0.11059383009E+02 -0.63036132002E+01 -0.17235907366E+02  0.21427392718E+02  0.10566000000E+00 0. -1.
         23    2    1    0    0    0 -0.55332584779E+01  0.35681323111E+02  0.23239406380E+02  0.82059997936E+02  0.69928531259E+02 0.  0.
         13    1    3    3    0    0 -0.16592641487E+02  0.41984936311E+02  0.40475313746E+02  0.60632605218E+02  0.10566000000E+00 0.  1.
         22    1    1    0    0    0  0.55332584779E+01 -0.35681323111E+02 -0.23239406380E+02  0.42940002064E+02  0.00000000000E+00 0.  1.
</event>
<event>
 5    1  0.1691066E-003  0.9118800E+02  0.7818608E-02  0.1130116E+00
         25   -1    0    0    0    0  0.00000000000E+00  0.00000000000E+00  0.99999998245E-14  0.12500000000E+03  0.12500000000E+03 0.  0.
        -13    1    3    3    0    0  0.44348997778E+02 -0.28129754913E+02 -0.32399880950E+02  0.61708023506E+02  0.10566000000E+00 0. -1.
         23    2    1    0    0    0  0.13762074931E+02 -0.14664844226E+02 -0.17667042928E+02  0.98231048426E+02  0.94513290634E+02 0.  0.
         13    1    3    3    0    0 -0.30586922847E+02  0.13464910687E+02  0.14732838023E+02  0.36523024920E+02  0.10566000000E+00 0.  1.
         22    1    1    0    0    0 -0.13762074931E+02  0.14664844226E+02  0.17667042928E+02  0.26768951574E+02  0.00000000000E+00 0. -1.
</event>
<event>
 5    1  0.1691066E-003  0.9118800E+02  0.7818608E-02  0.1130116E+00
         25   -1    0    0    0    0  0.00000000000E+00  0.00000000000E+00  0.99999998245E-14  0.12500000000E+03  0.12500000000E+03 0.  0.
        -13    1    3    3    0    0 -0.82371375398E+01 -0.36808426487E+02 -0.26211109925E+01  0.37809946868E+02  0.10566000000E+00 0. -1.
         23    2    1    0    0    0  0.16876276473E+02  0.18687347137E+00  0.28212682186E+02  0.92124491404E+02  0.86058833661E+02 0.  0.
         13    1    3    3    0    0  0.25113414013E+02  0.36995299958E+02  0.30833793179E+02  0.54314544536E+02  0.10566000000E+00 0.  1.
         22    1    1    0    0    0 -0.16876276473E+02 -0.18687347137E+00 -0.28212682186E+02  0.32875508596E+02  0.00000000000E+00 0.  1.
</event>
<event>
 5    1  0.1691066E-003  0.9118800E+02  0.7818608E-02  0.1130116E+00
         25   -1    0    0    0    0  0.00000000000E+00  0.00000000000E+00  0.99999998245E-14  0.12500000000E+03  0.12500000000E+03 0.  0.
        -13    1    3    3    0    0  0.33323805702E+02 -0.16399028169E+02  0.17703824451E+02  0.41144145581E+02  0.10566000000E+00 0. -1.
         23    2    1    0    0    0  0.12911719522E+02  0.18334679340E+02 -0.18972713374E+02  0.95625915839E+02  0.91002631609E+02 0.  0.
         13    1    3    3    0    0 -0.20412086180E+02  0.34733707509E+02 -0.36676537825E+02  0.54481770258E+02  0.10566000000E+00 0.  1.
         22    1    1    0    0    0 -0.12911719522E+02 -0.18334679340E+02  0.18972713374E+02  0.29374084161E+02  0.00000000000E+00 0.  1.
</event>
<event>
 5    1  0.1691066E-003  0.9118800E+02  0.7818608E-02  0.1130116E+00
         25   -1    0    0    0    0  0.00000000000E+00  0.00000000000E+00  0.99999998245E-14  0.12500000000E+03  0.12500000000E+03 0.  0.
        -13    1    3    3    0    0 -0.39841163186E+02  0.19203149990E+02 -0.16598929354E+02  0.47239971139E+02  0.10566000000E+00 0.  1.
         23    2    1    0    0    0  0.38688897186E+01  0.30171915732E+02 -0.24127768108E+01  0.94485506746E+02  0.89422461868E+02 0.  0.
         13    1    3    3    0    0  0.43710052904E+02  0.10968765742E+02  0.14186152543E+02  0.47245535607E+02  0.10566000000E+00 0. -1.
         22    1    1    0    0    0 -0.38688897186E+01 -0.30171915732E+02  0.24127768108E+01  0.30514493254E+02  0.00000000000E+00 0.  1.
</event>
<event>
 5    1  0.1691066E-003  0.9118800E+02  0.7818608E-02  0.1130116E+00
         25   -1    0    0    0    0  0.00000000000E+00  0.00000000000E+00  0.99999998245E-14  0.12500000000E+03  0.12500000000E+03 0.  0.
        -13    1    3    3    0    0  0.23695087730E+02  0.25881281059E+01  0.21757472250E+02  0.32273121206E+02  0.10566000000E+00 0. -1.
         23    2    1    0    0    0 -0.20241960468E+02  0.26653875631E+02 -0.80635519579E+01  0.90573456172E+02  0.83775676918E+02 0.  0.
         13    1    3    3    0    0 -0.43937048198E+02  0.24065747525E+02 -0.29821024208E+02  0.58300334966E+02  0.10566000000E+00 0.  1.
         22    1    1    0    0    0  0.20241960468E+02 -0.26653875631E+02  0.80635519579E+01  0.34426543828E+02  0.00000000000E+00 0.  1.
</event>
<event>
 5    1  0.1691066E-003  0.9118800E+02  0.7818608E-02  0.1130116E+00
         25   -1    0    0    0    0  0.00000000000E+00  0.00000000000E+00  0.99999998245E-14  0.12500000000E+03  0.12500000000E+03 0.  0.
        -13    1    3    3    0    0 -0.27547521455E+02 -0.49143904511E+02  0.25819447702E+02  0.61972932257E+02  0.10566000000E+00 0. -1.
         23    2    1    0    0    0 -0.77724128161E+01 -0.25416285537E+02  0.12952396506E+02  0.95433760017E+02  0.90738305055E+02 0.  0.
         13    1    3    3    0    0  0.19775108639E+02  0.23727618974E+02 -0.12867051195E+02  0.33460827760E+02  0.10566000000E+00 0.  1.
         22    1    1    0    0    0  0.77724128161E+01  0.25416285537E+02 -0.12952396506E+02  0.29566239983E+02  0.00000000000E+00 0. -1.
</event>
<event>
 5    1  0.1691066E-003  0.9118800E+02  0.7818608E-02  0.1130116E+00
         25   -1    0    0    0    0  0.00000000000E+00  0.00000000000E+00  0.99999998245E-14  0.12500000000E+03  0.12500000000E+03 0.  0.
        -13    1    3    3    0    0  0.45697014034E+02 -0.23546888116E+02  0.87051155052E+01  0.52138884065E+02  0.10566000000E+00 0.  1.
         23    2    1    0    0    0  0.45100356046E+01 -0.15057350920E+02  0.23508070044E+02  0.96721145796E+02  0.92494791470E+02 0.  0.
         13    1    3    3    0    0 -0.41186978429E+02  0.84895371963E+01  0.14802954539E+02  0.44582261731E+02  0.10566000000E+00 0. -1.
         22    1    1    0    0    0 -0.45100356046E+01  0.15057350920E+02 -0.23508070044E+02  0.28278854204E+02  0.00000000000E+00 0.  1.
</event>
<event>
 5    1  0.1691066E-003  0.9118800E+02  0.7818608E-02  0.1130116E+00
         25   -1    0    0    0    0  0.00000000000E+00  0.00000000000E+00  0.99999998245E-14  0.12500000000E+03  0.12500000000E+03 0.  0.
        -13    1    3    3    0    0  0.49558013121E+02  0.18678071565E+02 -0.10697751867E+02  0.54030732745E+02  0.10566000000E+00 0.  1.
         23    2    1    0    0    0  0.21915348170E+02  0.14733880400E+02  0.17186359381E+02  0.93492212617E+02  0.88023026273E+02 0.  0.
         13    1    3    3    0    0 -0.27642664952E+02 -0.39441911650E+01  0.27884111248E+02  0.39461479872E+02  0.10566000000E+00 0. -1.
         22    1    1    0    0    0 -0.21915348170E+02 -0.14733880400E+02 -0.17186359381E+02  0.31507787383E+02  0.00000000000E+00 0. -1.
</event>
<event>
 5    1  0.1691066E-003  0.9118800E+02  0.7818608E-02  0.1130116E+00
         25   -1    0    0    0    0  0.00000000000E+00  0.00000000000E+00  0.99999998245E-14  0.12500000000E+03  0.12500000000E+03 0.  0.
        -13    1    3    3    0    0 -0.18492776094E+02  0.27327707959E+02  0.32340776315E+02  0.46203066637E+02  0.10566000000E+00 0. -1.
         23    2    1    0    0    0 -0.28923447668E+02 -0.15289640991E+01 -0.61123937938E+01  0.95398227855E+02  0.90689343165E+02 0.  0.
         13    1    3    3    0    0 -0.10430671574E+02 -0.28856672058E+02 -0.38453170109E+02  0.49195161218E+02  0.10566000000E+00 0.  1.
         22    1    1    0    0    0  0.28923447668E+02  0.15289640991E+01  0.61123937938E+01  0.29601772145E+02  0.00000000000E+00 0. -1.
</event>
<event>
 5    1  0.1691066E-003  0.9118800E+02  0.7818608E-02  0.1130116E+00
         25   -1    0    0    0    0  0.00000000000E+00  0.00000000000E+00  0.99999998245E-14  0.12500000000E+03  0.12500000000E+03 0.  0.
        -13    1    3    3    0    0  0.13104244360E+02 -0.23483951867E+02  0.47096822486E+02  0.54234113506E+02  0.10566000000E+00 0.  1.
         23    2    1    0    0    0 -0.12761418129E+01 -0.34168601350E+02  0.25208723202E+02  0.82519397584E+02  0.70744960216E+02 0.  0.
         13    1    3    3    0    0 -0.14380386173E+02 -0.10684649484E+02 -0.21888099284E+02  0.28285284078E+02  0.10566000000E+00 0. -1.
         22    1    1    0    0    0  0.12761418129E+01  0.34168601350E+02 -0.25208723202E+02  0.42480602416E+02  0.00000000000E+00 0.  1.
</event>
<event>
 5    1  0.1691066E-003  0.9118800E+02  0.7818608E-02  0.1130116E+00
         25   -1    0    0    0    0  0.00000000000E+00  0.00000000000E+00  0.99999998245E-14  0.12500000000E+03  0.12500000000E+03 0.  0.
        -13    1    3    3    0    0 -0.60399303821E+02 -0.10599349295E+02 -0.10555829550E+02  0.62224262222E+02  0.10566000000E+00 0. -1.
         23    2    1    0    0    0 -0.25648807248E+02 -0.83152020199E+01 -0.28999674714E+01  0.97881487703E+02  0.94049837457E+02 0.  0.
         13    1    3    3    0    0  0.34750496573E+02  0.22841472748E+01  0.76558620790E+01  0.35657225482E+02  0.10566000000E+00 0.  1.
         22    1    1    0    0    0  0.25648807248E+02  0.83152020199E+01  0.28999674714E+01  0.27118512297E+02  0.00000000000E+00 0. -1.
</event>
<event>
 5    1  0.1691066E-003  0.9118800E+02  0.7818608E-02  0.1130116E+00
         25   -1    0    0    0    0  0.00000000000E+00  0.00000000000E+00  0.99999998245E-14  0.12500000000E+03  0.12500000000E+03 0.  0.
        -13    1    3    3    0    0  0.59716411687E+02 -0.16411196806E+02 -0.65716851217E+01  0.62278209791E+02  0.10566000000E+00 0.  1.
         23    2    1    0    0    0  0.25065205719E+02 -0.41276559040E+01 -0.16345531247E+00  0.99596677409E+02  0.96302488817E+02 0.  0.
         13    1    3    3    0    0 -0.34651205968E+02  0.12283540902E+02  0.64082298093E+01  0.37318467619E+02  0.10566000000E+00 0. -1.
         22    1    1    0    0    0 -0.25065205719E+02  0.41276559040E+01  0.16345531247E+00  0.25403322591E+02  0.00000000000E+00 0.  1.
</event>
<event>
 4    1  0.1691066E-003  0.9118800E+02  0.7818608E-02  0.1130116E+00
         25   -1    0    0    0    0  0.00000000000E+00  0.00000000000E+00  0.99999998245E-14  0.12500000000E+03  0.12500000000E+03 0.  0.
        -13    1    1    0    0    0 -0.19333293404E+01  0.12317355969E+02 -0.10821719158E+02  0.16509869472E+02  0.10566000000E+00 0.  1.
         13    1    1    0    0    0  0.12009329232E+02 -0.49250939852E+02 -0.24587379452E+02  0.56342075372E+02  0.10566000000E+00 0. -1.
         22    1    1    0    0    0 -0.10075999892E+02  0.36933583883E+02  0.35409098610E+02  0.52148055156E+02  0.00000000000E+00 0. -1.
</event>
<event>
 5    1  0.1691066E-003  0.9118800E+02  0.7818608E-02  0.1130116E+00
         25   -1    0    0    0    0  0.00000000000E+00  0.00000000000E+00  0.99999998245E-14  0.12500000000E+03  0.12500000000E+03 0.  0.
        -13    1    3    3    0    0 -0.36981827113E+02 -0.25821232708E+02 -0.14585256160E+01  0.45127929890E+02  0.10566000000E+00 0. -1.
         23    2    1    0    0    0  0.13111840597E+02 -0.21068234115E+02 -0.13334421167E+02  0.96829134900E+02  0.92640615958E+02 0.  0.
         13    1    3    3    0    0  0.50093667710E+02  0.47529985927E+01 -0.11875895551E+02  0.51701205010E+02  0.10566000000E+00 0.  1.
         22    1    1    0    0    0 -0.13111840597E+02  0.21068234115E+02  0.13334421167E+02  0.28170865100E+02  0.00000000000E+00 0.  1.
</event>
<event>
 5    1  0.1691066E-003  0.9118800E+02  0.7818608E-02  0.1130116E+00
         25   -1    0    0    0    0  0.00000000000E+00  0.00000000000E+00  0.99999998245E-14  0.12500000000E+03  0.12500000000E+03 0.  0.
        -13    1    3    3    0    0  0.30974002247E+02 -0.10095404884E+02 -0.43770397021E+01  0.32870589523E+02  0.10566000000E+00 0.  1.
         23    2    1    0    0    0 -0.28447280739E+02 -0.23184679153E+01  0.10449686471E+02  0.94605608704E+02  0.89590190177E+02 0.  0.
         13    1    3    3    0    0 -0.59421282986E+02  0.77769369691E+01  0.14826726173E+02  0.61735019181E+02  0.10566000000E+00 0. -1.
         22    1    1    0    0    0  0.28447280739E+02  0.23184679153E+01 -0.10449686471E+02  0.30394391296E+02  0.00000000000E+00 0. -1.
</event>
<event>
 5    1  0.1691066E-003  0.9118800E+02  0.7818608E-02  0.1130116E+00
         25   -1    0    0    0    0  0.00000000000E+00  0.00000000000E+00  0.99999998245E-14  0.12500000000E+03  0.12500000000E+03 0.  0.
        -13    1    3    3    0    0  0.25528355872E+02 -0.50306370658E+02 -0.75940985849E+01  0.56921958677E+02  0.10566000000E+00 0.  1.
         23    2    1    0    0    0  0.67783809393E+01 -0.26893186655E+02  0.14048606934E+02  0.93910559776E+02  0.88615122547E+02 0.  0.
         13    1    3    3    0    0 -0.18749974933E+02  0.23413184002E+02  0.21642705519E+02  0.36988601100E+02  0.10566000000E+00 0. -1.
         22    1    1    0    0    0 -0.67783809393E+01  0.26893186655E+02 -0.14048606934E+02  0.31089440224E+02  0.00000000000E+00 0.  1.
</event>
<event>
 5    1  0.1691066E-003  0.9118800E+02  0.7818608E-02  0.1130116E+00
         25   -1    0    0    0    0  0.00000000000E+00  0.00000000000E+00  0.99999998245E-14  0.12500000000E+03  0.12500000000E+03 0.  0.
        -13    1    3    3    0    0  0.25468027047E+02 -0.33000755917E+02 -0.88615493050E+01  0.42616997933E+02  0.10566000000E+00 0.  1.
         23    2    1    0    0    0 -0.21890684961E+02 -0.95949529407E+01 -0.16448326099E+02  0.95985992323E+02  0.91495891060E+02 0.  0.
         13    1    3    3    0    0 -0.47358712008E+02  0.23405802976E+02 -0.75867767937E+01  0.53368994390E+02  0.10566000000E+00 0. -1.
         22    1    1    0    0    0  0.21890684961E+02  0.95949529407E+01  0.16448326099E+02  0.29014007677E+02  0.00000000000E+00 0.  1.
</event>
<event>
 5    1  0.1691066E-003  0.9118800E+02  0.7818608E-02  0.1130116E+00
         25   -1    0    0    0    0  0.00000000000E+00  0.00000000000E+00  0.99999998245E-14  0.12500000000E+03  0.12500000000E+03 0.  0.
        -13    1    3    3    0    0  0.28668758211E+01  0.48334857871E+02  0.20697049033E+02  0.52657919301E+02  0.10566000000E+00 0.  1.
         23    2    1    0    0    0 -0.11812551782E+01  0.96194506267E+01  0.30664492620E+02  0.92840393320E+02  0.87092469997E+02 0.  0.
         13    1    3    3    0    0 -0.40481309994E+01 -0.38715407244E+02  0.99674435865E+01  0.40182474020E+02  0.10566000000E+00 0. -1.
         22    1    1    0    0    0  0.11812551782E+01 -0.96194506267E+01 -0.30664492620E+02  0.32159606680E+02  0.00000000000E+00 0.  1.
</event>
<event>
 5    1  0.1691066E-003  0.9118800E+02  0.7818608E-02  0.1130116E+00
         25   -1    0    0    0    0  0.00000000000E+00  0.00000000000E+00  0.99999998245E-14  0.12500000000E+03  0.12500000000E+03 0.  0.
        -13    1    3    3    0    0 -0.20526666982E+02  0.10992702125E+02 -0.34448506168E+02  0.41579974731E+02  0.10566000000E+00 0.  1.
         23    2    1    0    0    0 -0.24532144904E+02  0.41843353187E+01  0.17787703096E+02  0.94410178538E+02  0.89317101579E+02 0.  0.
         13    1    3    3    0    0 -0.40054779217E+01 -0.68083668067E+01  0.52236209264E+02  0.52830203807E+02  0.10566000000E+00 0. -1.
         22    1    1    0    0    0  0.24532144904E+02 -0.41843353187E+01 -0.17787703096E+02  0.30589821462E+02  0.00000000000E+00 0. -1.
</event>
<event>
 5    1  0.1691066E-003  0.9118800E+02  0.7818608E-02  0.1130116E+00
         25   -1    0    0    0    0  0.00000000000E+00  0.00000000000E+00  0.99999998245E-14  0.12500000000E+03  0.12500000000E+03 0.  0.
        -13    1    3    3    0    0 -0.11812136740E+02 -0.21833508958E+02 -0.30167137931E+02  0.39067839239E+02  0.10566000000E+00 0.  1.
         23    2    1    0    0    0 -0.19140533165E+02 -0.44227367245E+01  0.22565167090E+02  0.95081654863E+02  0.90251945772E+02 0.  0.
         13    1    3    3    0    0 -0.73283964246E+01  0.17410772233E+02  0.52732305021E+02  0.56013815624E+02  0.10566000000E+00 0. -1.
         22    1    1    0    0    0  0.19140533165E+02  0.44227367245E+01 -0.22565167090E+02  0.29918345137E+02  0.00000000000E+00 0. -1.
</event>
<event>
 5    1  0.1691066E-003  0.9118800E+02  0.7818608E-02  0.1130116E+00
         25   -1    0    0    0    0  0.00000000000E+00  0.00000000000E+00  0.99999998245E-14  0.12500000000E+03  0.12500000000E+03 0.  0.
        -13    1    3    3    0    0  0.17129594542E+02 -0.44545246839E+02  0.59932560422E+01  0.48100231883E+02  0.10566000000E+00 0. -1.
         23    2    1    0    0    0 -0.24485134756E+01 -0.10887245542E+02 -0.24840496952E+02  0.97768077142E+02  0.93898984475E+02 0.  0.
         13    1    3    3    0    0 -0.19578108018E+02  0.33658001297E+02 -0.30833752994E+02  0.49667845259E+02  0.10566000000E+00 0.  1.
         22    1    1    0    0    0  0.24485134756E+01  0.10887245542E+02  0.24840496952E+02  0.27231922858E+02  0.00000000000E+00 0. -1.
</event>
<event>
 5    1  0.1691066E-003  0.9118800E+02  0.7818608E-02  0.1130116E+00
         25   -1    0    0    0    0  0.00000000000E+00  0.00000000000E+00  0.99999998245E-14  0.12500000000E+03  0.12500000000E+03 0.  0.
        -13    1    3    3    0    0 -0.17190168510E+02  0.55848074781E+01  0.21151683796E+02  0.27822596202E+02  0.10566000000E+00 0. -1.
         23    2    1    0    0    0  0.15361629403E+02 -0.36153801575E+02 -0.21568118457E+01  0.85658814665E+02  0.76090102288E+02 0.  0.
         13    1    3    3    0    0  0.32551797913E+02 -0.41738609053E+02 -0.23308495642E+02  0.57836218463E+02  0.10566000000E+00 0.  1.
         22    1    1    0    0    0 -0.15361629403E+02  0.36153801575E+02  0.21568118457E+01  0.39341185335E+02  0.00000000000E+00 0.  1.
</event>
<event>
 5    1  0.1691066E-003  0.9118800E+02  0.7818608E-02  0.1130116E+00
         25   -1    0    0    0    0  0.00000000000E+00  0.00000000000E+00  0.99999998245E-14  0.12500000000E+03  0.12500000000E+03 0.  0.
        -13    1    3    3    0    0 -0.25216103629E+02 -0.20624601279E+02  0.28469776568E+02  0.43263904147E+02  0.10566000000E+00 0.  1.
         23    2    1    0    0    0 -0.19703735654E+02  0.20459624874E+02 -0.45151320873E+01  0.96238569812E+02  0.91840309521E+02 0.  0.
         13    1    3    3    0    0  0.55123679748E+01  0.41084226152E+02 -0.32984908656E+02  0.52974665665E+02  0.10566000000E+00 0. -1.
         22    1    1    0    0    0  0.19703735654E+02 -0.20459624874E+02  0.45151320873E+01  0.28761430188E+02  0.00000000000E+00 0. -1.
</event>
<event>
 5    1  0.1691066E-003  0.9118800E+02  0.7818608E-02  0.1130116E+00
         25   -1    0    0    0    0  0.00000000000E+00  0.00000000000E+00  0.99999998245E-14  0.12500000000E+03  0.12500000000E+03 0.  0.
        -13    1    3    3    0    0 -0.19053889357E+01 -0.20698820814E+02 -0.53798975488E+02  0.57675060621E+02  0.10566000000E+00 0. -1.
         23    2    1    0    0    0  0.10933906516E+02 -0.81470089658E+01 -0.45583212119E+02  0.77421083515E+02  0.61075943536E+02 0.  0.
         13    1    3    3    0    0  0.12839295452E+02  0.12551811848E+02  0.82157633687E+01  0.19746022894E+02  0.10566000000E+00 0.  1.
         22    1    1    0    0    0 -0.10933906516E+02  0.81470089658E+01  0.45583212119E+02  0.47578916485E+02  0.00000000000E+00 0. -1.
</event>
<event>
 5    1  0.1691066E-003  0.9118800E+02  0.7818608E-02  0.1130116E+00
         25   -1    0    0    0    0  0.00000000000E+00  0.00000000000E+00  0.99999998245E-14  0.12500000000E+03  0.12500000000E+03 0.  0.
        -13    1    3    3    0    0 -0.10316694449E+02  0.15465192153E+02 -0.47456587594E+02  0.50968080430E+02  0.10566000000E+00 0. -1.
         23    2    1    0    0    0 -0.20315233210E+02  0.20899706304E+02 -0.43753512119E+01  0.95527129047E+02  0.90866838075E+02 0.  0.
         13    1    3    3    0    0 -0.99985387608E+01  0.54345141509E+01  0.43081236382E+02  0.44559048617E+02  0.10566000000E+00 0.  1.
         22    1    1    0    0    0  0.20315233210E+02 -0.20899706304E+02  0.43753512119E+01  0.29472870953E+02  0.00000000000E+00 0.  1.
</event>
<event>
 5    1  0.1691066E-003  0.9118800E+02  0.7818608E-02  0.1130116E+00
         25   -1    0    0    0    0  0.00000000000E+00  0.00000000000E+00  0.99999998245E-14  0.12500000000E+03  0.12500000000E+03 0.  0.
        -13    1    3    3    0    0 -0.13042507062E+02  0.46243495852E+02  0.98682019888E+01  0.49050590961E+02  0.10566000000E+00 0. -1.
         23    2    1    0    0    0 -0.44550862831E+01  0.16499144868E+02 -0.24385587034E+02  0.95222047919E+02  0.90446182781E+02 0.  0.
         13    1    3    3    0    0  0.85874207791E+01 -0.29744350984E+02 -0.34253789023E+02  0.46171456957E+02  0.10566000000E+00 0.  1.
         22    1    1    0    0    0  0.44550862831E+01 -0.16499144868E+02  0.24385587034E+02  0.29777952081E+02  0.00000000000E+00 0. -1.
</event>
<event>
 5    1  0.1691066E-003  0.9118800E+02  0.7818608E-02  0.1130116E+00
         25   -1    0    0    0    0  0.00000000000E+00  0.00000000000E+00  0.99999998245E-14  0.12500000000E+03  0.12500000000E+03 0.  0.
        -13    1    3    3    0    0  0.15688349291E+02 -0.47283112922E+02  0.28004358571E+02  0.57149561101E+02  0.10566000000E+00 0. -1.
         23    2    1    0    0    0 -0.78964827151E+01 -0.28186308185E+02  0.48313442025E+01  0.95332436986E+02  0.90598616141E+02 0.  0.
         13    1    3    3    0    0 -0.23584832006E+02  0.19096804737E+02 -0.23173014369E+02  0.38182875885E+02  0.10566000000E+00 0.  1.
         22    1    1    0    0    0  0.78964827151E+01  0.28186308185E+02 -0.48313442025E+01  0.29667563014E+02  0.00000000000E+00 0. -1.
</event>
<event>
 5    1  0.1691066E-003  0.9118800E+02  0.7818608E-02  0.1130116E+00
         25   -1    0    0    0    0  0.00000000000E+00  0.00000000000E+00  0.99999998245E-14  0.12500000000E+03  0.12500000000E+03 0.  0.
        -13    1    3    3    0    0  0.41236365505E+02  0.28396400435E+02 -0.26881132429E+02  0.56827808707E+02  0.10566000000E+00 0.  1.
         23    2    1    0    0    0  0.58229645223E+01  0.13244795951E+02 -0.25869074753E+02  0.95359815044E+02  0.90636382105E+02 0.  0.
         13    1    3    3    0    0 -0.35413400983E+02 -0.15151604483E+02  0.10120576763E+01  0.38532006337E+02  0.10566000000E+00 0. -1.
         22    1    1    0    0    0 -0.58229645223E+01 -0.13244795951E+02  0.25869074753E+02  0.29640184956E+02  0.00000000000E+00 0.  1.
</event>
<event>
 5    1  0.1691066E-003  0.9118800E+02  0.7818608E-02  0.1130116E+00
         25   -1    0    0    0    0  0.00000000000E+00  0.00000000000E+00  0.99999998245E-14  0.12500000000E+03  0.12500000000E+03 0.  0.
        -13    1    3    3    0    0 -0.31182153652E+02 -0.32513979128E+02 -0.43285082909E+02  0.62474755795E+02  0.10566000000E+00 0.  1.
         23    2    1    0    0    0 -0.15606897934E+02 -0.15289285092E+02 -0.19524212748E+02  0.95699276713E+02  0.91103343397E+02 0.  0.
         13    1    3    3    0    0  0.15575255718E+02  0.17224694036E+02  0.23760870161E+02  0.33224520917E+02  0.10566000000E+00 0. -1.
         22    1    1    0    0    0  0.15606897934E+02  0.15289285092E+02  0.19524212748E+02  0.29300723287E+02  0.00000000000E+00 0.  1.
</event>
<event>
 5    1  0.1691066E-003  0.9118800E+02  0.7818608E-02  0.1130116E+00
         25   -1    0    0    0    0  0.00000000000E+00  0.00000000000E+00  0.99999998245E-14  0.12500000000E+03  0.12500000000E+03 0.  0.
        -13    1    3    3    0    0 -0.11483112768E+02  0.40673161337E+02 -0.32941304925E+02  0.53584593552E+02  0.10566000000E+00 0.  1.
         23    2    1    0    0    0  0.23299801394E+01  0.18054435576E+01 -0.29909884077E+02  0.94945223352E+02  0.90062788309E+02 0.  0.
         13    1    3    3    0    0  0.13813092907E+02 -0.38867717779E+02  0.30314208486E+01  0.41360629799E+02  0.10566000000E+00 0. -1.
         22    1    1    0    0    0 -0.23299801394E+01 -0.18054435576E+01  0.29909884077E+02  0.30054776648E+02  0.00000000000E+00 0.  1.
</event>
<event>
 5    1  0.1691066E-003  0.9118800E+02  0.7818608E-02  0.1130116E+00
         25   -1    0    0    0    0  0.00000000000E+00  0.00000000000E+00  0.99999998245E-14  0.12500000000E+03  0.12500000000E+03 0.  0.
        -13    1    3    3    0    0  0.55953863369E+02  0.13854966302E+02 -0.12892045869E+02  0.59067850205E+02  0.10566000000E+00 0.  1.
         23    2    1    0    0    0  0.26608548926E+02  0.21457856739E+02 -0.44999934544E+01  0.90522406800E+02  0.83699472519E+02 0.  0.
         13    1    3    3    0    0 -0.29345314443E+02  0.76028904378E+01  0.83920524143E+01  0.31454556594E+02  0.10566000000E+00 0. -1.
         22    1    1    0    0    0 -0.26608548926E+02 -0.21457856739E+02  0.44999934544E+01  0.34477593200E+02  0.00000000000E+00 0.  1.
</event>
<event>
 5    1  0.1691066E-003  0.9118800E+02  0.7818608E-02  0.1130116E+00
         25   -1    0    0    0    0  0.00000000000E+00  0.00000000000E+00  0.99999998245E-14  0.12500000000E+03  0.12500000000E+03 0.  0.
        -13    1    3    3    0    0  0.10222395413E+02  0.82695727185E+01  0.36117242256E+02  0.38436305144E+02  0.10566000000E+00 0.  1.
         23    2    1    0    0    0  0.65821773630E+01  0.20397453951E+02 -0.19831108910E+02  0.95799759126E+02  0.91241107959E+02 0.  0.
         13    1    3    3    0    0 -0.36402180496E+01  0.12127881232E+02 -0.55948351165E+02  0.57363453982E+02  0.10566000000E+00 0. -1.
         22    1    1    0    0    0 -0.65821773630E+01 -0.20397453951E+02  0.19831108910E+02  0.29200240874E+02  0.00000000000E+00 0. -1.
</event>
<event>
 5    1  0.1691066E-003  0.9118800E+02  0.7818608E-02  0.1130116E+00
         25   -1    0    0    0    0  0.00000000000E+00  0.00000000000E+00  0.99999998245E-14  0.12500000000E+03  0.12500000000E+03 0.  0.
        -13    1    3    3    0    0  0.24032637283E+02 -0.25173752695E+02  0.12323677465E+02  0.36921127689E+02  0.10566000000E+00 0.  1.
         23    2    1    0    0    0 -0.11758843295E+02  0.35615911120E+01 -0.25693264394E+02  0.96520197295E+02  0.92222824310E+02 0.  0.
         13    1    3    3    0    0 -0.35791480577E+02  0.28735343807E+02 -0.38016941859E+02  0.59599069607E+02  0.10566000000E+00 0. -1.
         22    1    1    0    0    0  0.11758843295E+02 -0.35615911120E+01  0.25693264394E+02  0.28479802705E+02  0.00000000000E+00 0. -1.
</event>
<event>
 5    1  0.1691066E-003  0.9118800E+02  0.7818608E-02  0.1130116E+00
         25   -1    0    0    0    0  0.00000000000E+00  0.00000000000E+00  0.99999998245E-14  0.12500000000E+03  0.12500000000E+03 0.  0.
        -13    1    3    3    0    0  0.41255236111E+02 -0.64785108860E+01 -0.16796440799E+02  0.45012189432E+02  0.10566000000E+00 0. -1.
         23    2    1    0    0    0  0.10979485257E+01 -0.24048112074E+02  0.12638268269E+02  0.97810976293E+02  0.93956075234E+02 0.  0.
         13    1    3    3    0    0 -0.40157287586E+02 -0.17569601188E+02  0.29434709067E+02  0.52798786862E+02  0.10566000000E+00 0.  1.
         22    1    1    0    0    0 -0.10979485257E+01  0.24048112074E+02 -0.12638268269E+02  0.27189023707E+02  0.00000000000E+00 0.  1.
</event>
<event>
 5    1  0.1691066E-003  0.9118800E+02  0.7818608E-02  0.1130116E+00
         25   -1    0    0    0    0  0.00000000000E+00  0.00000000000E+00  0.99999998245E-14  0.12500000000E+03  0.12500000000E+03 0.  0.
        -13    1    3    3    0    0  0.39141231067E+01  0.33638566961E+01 -0.37450545122E+02  0.37804634445E+02  0.10566000000E+00 0. -1.
         23    2    1    0    0    0 -0.25566602757E+02 -0.18162206921E+02  0.43929233998E+01  0.93332750155E+02  0.87796284310E+02 0.  0.
         13    1    3    3    0    0 -0.29480725863E+02 -0.21526063618E+02  0.41843468522E+02  0.55528115710E+02  0.10566000000E+00 0.  1.
         22    1    1    0    0    0  0.25566602757E+02  0.18162206921E+02 -0.43929233998E+01  0.31667249845E+02  0.00000000000E+00 0.  1.
</event>
<event>
 5    1  0.1691066E-003  0.9118800E+02  0.7818608E-02  0.1130116E+00
         25   -1    0    0    0    0  0.00000000000E+00  0.00000000000E+00  0.99999998245E-14  0.12500000000E+03  0.12500000000E+03 0.  0.
        -13    1    3    3    0    0 -0.99374853125E+01 -0.15904707763E+01  0.45722472681E+02  0.46817078975E+02  0.10566000000E+00 0. -1.
         23    2    1    0    0    0  0.15536230391E+02  0.22168633063E+02  0.11701067318E+02  0.95508683938E+02  0.90841460713E+02 0.  0.
         13    1    3    3    0    0  0.25473715704E+02  0.23759103840E+02 -0.34021405363E+02  0.48691604963E+02  0.10566000000E+00 0.  1.
         22    1    1    0    0    0 -0.15536230391E+02 -0.22168633063E+02 -0.11701067318E+02  0.29491316062E+02  0.00000000000E+00 0.  1.
</event>
<event>
 5    1  0.1691066E-003  0.9118800E+02  0.7818608E-02  0.1130116E+00
         25   -1    0    0    0    0  0.00000000000E+00  0.00000000000E+00  0.99999998245E-14  0.12500000000E+03  0.12500000000E+03 0.  0.
        -13    1    3    3    0    0 -0.57766488396E+01  0.33628217046E+02 -0.15410840919E+02  0.37439709339E+02  0.10566000000E+00 0. -1.
         23    2    1    0    0    0 -0.37506502946E+01 -0.23330098896E+02 -0.19190453371E+02  0.94559329956E+02  0.89525596837E+02 0.  0.
         13    1    3    3    0    0  0.20259985451E+01 -0.56958315942E+02 -0.37796124525E+01  0.57119620617E+02  0.10566000000E+00 0.  1.
         22    1    1    0    0    0  0.37506502946E+01  0.23330098896E+02  0.19190453371E+02  0.30440670044E+02  0.00000000000E+00 0.  1.
</event>
<event>
 5    1  0.1691066E-003  0.9118800E+02  0.7818608E-02  0.1130116E+00
         25   -1    0    0    0    0  0.00000000000E+00  0.00000000000E+00  0.99999998245E-14  0.12500000000E+03  0.12500000000E+03 0.  0.
        -13    1    3    3    0    0  0.62831172329E+00 -0.53040730493E+02 -0.58600914722E+01  0.53367271833E+02  0.10566000000E+00 0.  1.
         23    2    1    0    0    0 -0.21077496154E+02 -0.17092668503E+02  0.64098673835E+01  0.97116195372E+02  0.93027140357E+02 0.  0.
         13    1    3    3    0    0 -0.21705807877E+02  0.35948061990E+02  0.12269958856E+02  0.43748923539E+02  0.10566000000E+00 0. -1.
         22    1    1    0    0    0  0.21077496154E+02  0.17092668503E+02 -0.64098673835E+01  0.27883804628E+02  0.00000000000E+00 0.  1.
</event>
<event>
 5    1  0.1691066E-003  0.9118800E+02  0.7818608E-02  0.1130116E+00
         25   -1    0    0    0    0  0.00000000000E+00  0.00000000000E+00  0.99999998245E-14  0.12500000000E+03  0.12500000000E+03 0.  0.
        -13    1    3    3    0    0 -0.21485665461E+01  0.60123179683E+02  0.70141057367E+01  0.60569149876E+02  0.10566000000E+00 0.  1.
         23    2    1    0    0    0 -0.11945940589E+02  0.28806632771E+02  0.46781270590E+01  0.93465693904E+02  0.87985359441E+02 0.  0.
         13    1    3    3    0    0 -0.97973740425E+01 -0.31316546911E+02 -0.23359786777E+01  0.32896544028E+02  0.10566000000E+00 0. -1.
         22    1    1    0    0    0  0.11945940589E+02 -0.28806632771E+02 -0.46781270590E+01  0.31534306096E+02  0.00000000000E+00 0.  1.
</event>
<event>
 5    1  0.1691066E-003  0.9118800E+02  0.7818608E-02  0.1130116E+00
         25   -1    0    0    0    0  0.00000000000E+00  0.00000000000E+00  0.99999998245E-14  0.12500000000E+03  0.12500000000E+03 0.  0.
        -13    1    3    3    0    0  0.16285092953E+02  0.15993616425E+02  0.34248556780E+02  0.41157925414E+02  0.10566000000E+00 0. -1.
         23    2    1    0    0    0 -0.10131660295E+02 -0.25114711335E+02  0.73401949960E+01  0.96941530185E+02  0.92792147008E+02 0.  0.
         13    1    3    3    0    0 -0.26416753248E+02 -0.41108327760E+02 -0.26908361784E+02  0.55783604771E+02  0.10566000000E+00 0.  1.
         22    1    1    0    0    0  0.10131660295E+02  0.25114711335E+02 -0.73401949960E+01  0.28058469815E+02  0.00000000000E+00 0.  1.
</event>
<event>
 5    1  0.1691066E-003  0.9118800E+02  0.7818608E-02  0.1130116E+00
         25   -1    0    0    0    0  0.00000000000E+00  0.00000000000E+00  0.99999998245E-14  0.12500000000E+03  0.12500000000E+03 0.  0.
        -13    1    3    3    0    0  0.15307523055E+02  0.24247364631E+02  0.13498536482E+02  0.31693478900E+02  0.10566000000E+00 0.  1.
         23    2    1    0    0    0 -0.30863229506E+01 -0.52943769140E+00 -0.35371224086E+02  0.89490435275E+02  0.82143830071E+02 0.  0.
         13    1    3    3    0    0 -0.18393846005E+02 -0.24776802322E+02 -0.48869760568E+02  0.57796956375E+02  0.10566000000E+00 0. -1.
         22    1    1    0    0    0  0.30863229506E+01  0.52943769140E+00  0.35371224086E+02  0.35509564725E+02  0.00000000000E+00 0. -1.
</event>
<event>
 5    1  0.1691066E-003  0.9118800E+02  0.7818608E-02  0.1130116E+00
         25   -1    0    0    0    0  0.00000000000E+00  0.00000000000E+00  0.99999998245E-14  0.12500000000E+03  0.12500000000E+03 0.  0.
        -13    1    3    3    0    0 -0.69861327082E+01 -0.45868823574E+02  0.24350922566E+02  0.52399748283E+02  0.10566000000E+00 0.  1.
         23    2    1    0    0    0 -0.63552063584E+01 -0.24910195535E+02 -0.13717583533E+02  0.95861046906E+02  0.91325033405E+02 0.  0.
         13    1    3    3    0    0  0.63092634983E+00  0.20958628039E+02 -0.38068506099E+02  0.43461298623E+02  0.10566000000E+00 0. -1.
         22    1    1    0    0    0  0.63552063584E+01  0.24910195535E+02  0.13717583533E+02  0.29138953094E+02  0.00000000000E+00 0. -1.
</event>
<event>
 5    1  0.1691066E-003  0.9118800E+02  0.7818608E-02  0.1130116E+00
         25   -1    0    0    0    0  0.00000000000E+00  0.00000000000E+00  0.99999998245E-14  0.12500000000E+03  0.12500000000E+03 0.  0.
        -13    1    3    3    0    0  0.42219109755E+02  0.24455771860E+01  0.41757868870E+02  0.59432018752E+02  0.10566000000E+00 0.  1.
         23    2    1    0    0    0  0.23899965058E+02 -0.10068318374E+02  0.12334788627E+02  0.96281950360E+02  0.91899334002E+02 0.  0.
         13    1    3    3    0    0 -0.18319144697E+02 -0.12513895560E+02 -0.29423080243E+02  0.36849931609E+02  0.10566000000E+00 0. -1.
         22    1    1    0    0    0 -0.23899965058E+02  0.10068318374E+02 -0.12334788627E+02  0.28718049640E+02  0.00000000000E+00 0.  1.
</event>
<event>
 5    1  0.1691066E-003  0.9118800E+02  0.7818608E-02  0.1130116E+00
         25   -1    0    0    0    0  0.00000000000E+00  0.00000000000E+00  0.99999998245E-14  0.12500000000E+03  0.12500000000E+03 0.  0.
        -13    1    3    3    0    0  0.66180736994E+01 -0.49770842630E+02 -0.18527635125E+02  0.53518409010E+02  0.10566000000E+00 0.  1.
         23    2    1    0    0    0 -0.81538156047E+01 -0.24128745325E+02  0.12699562525E+02  0.96540204706E+02  0.92249938625E+02 0.  0.
         13    1    3    3    0    0 -0.14771889304E+02  0.25642097305E+02  0.31227197650E+02  0.43021795696E+02  0.10566000000E+00 0. -1.
         22    1    1    0    0    0  0.81538156047E+01  0.24128745325E+02 -0.12699562525E+02  0.28459795294E+02  0.00000000000E+00 0.  1.
</event>
<event>
 5    1  0.1691066E-003  0.9118800E+02  0.7818608E-02  0.1130116E+00
         25   -1    0    0    0    0  0.00000000000E+00  0.00000000000E+00  0.99999998245E-14  0.12500000000E+03  0.12500000000E+03 0.  0.
        -13    1    3    3    0    0 -0.15848923324E+02 -0.24743704015E+02 -0.51215186121E+02  0.59046132070E+02  0.10566000000E+00 0. -1.
         23    2    1    0    0    0  0.64195820169E+01 -0.16617684412E+02 -0.23350389610E+02  0.95629961467E+02  0.91008188460E+02 0.  0.
         13    1    3    3    0    0  0.22268505341E+02  0.81260196026E+01  0.27864796512E+02  0.36583829397E+02  0.10566000000E+00 0.  1.
         22    1    1    0    0    0 -0.64195820169E+01  0.16617684412E+02  0.23350389610E+02  0.29370038533E+02  0.00000000000E+00 0. -1.
</event>
<event>
 5    1  0.1691066E-003  0.9118800E+02  0.7818608E-02  0.1130116E+00
         25   -1    0    0    0    0  0.00000000000E+00  0.00000000000E+00  0.99999998245E-14  0.12500000000E+03  0.12500000000E+03 0.  0.
        -13    1    3    3    0    0 -0.15160923925E+01 -0.35178115507E+02  0.27330747723E+02  0.44573302344E+02  0.10566000000E+00 0.  1.
         23    2    1    0    0    0 -0.26474512496E+02  0.63140358580E+01  0.94862205619E+01  0.96177174995E+02  0.91756709558E+02 0.  0.
         13    1    3    3    0    0 -0.24958420103E+02  0.41492151365E+02 -0.17844527161E+02  0.51603872651E+02  0.10566000000E+00 0. -1.
         22    1    1    0    0    0  0.26474512496E+02 -0.63140358580E+01 -0.94862205619E+01  0.28822825005E+02  0.00000000000E+00 0. -1.
</event>
<event>
 5    1  0.1691066E-003  0.9118800E+02  0.7818608E-02  0.1130116E+00
         25   -1    0    0    0    0  0.00000000000E+00  0.00000000000E+00  0.99999998245E-14  0.12500000000E+03  0.12500000000E+03 0.  0.
        -13    1    3    3    0    0 -0.14701265699E+02  0.56500466292E+02  0.46726163454E+01  0.58568544560E+02  0.10566000000E+00 0.  1.
         23    2    1    0    0    0  0.13509913522E+01  0.27531198563E+02  0.15454419283E+02  0.93398874272E+02  0.87890378130E+02 0.  0.
         13    1    3    3    0    0  0.16052257051E+02 -0.28969267729E+02  0.10781802937E+02  0.34830329711E+02  0.10566000000E+00 0. -1.
         22    1    1    0    0    0 -0.13509913522E+01 -0.27531198563E+02 -0.15454419283E+02  0.31601125728E+02  0.00000000000E+00 0.  1.
</event>
<event>
 5    1  0.1691066E-003  0.9118800E+02  0.7818608E-02  0.1130116E+00
         25   -1    0    0    0    0  0.00000000000E+00  0.00000000000E+00  0.99999998245E-14  0.12500000000E+03  0.12500000000E+03 0.  0.
        -13    1    3    3    0    0  0.35728320741E+00 -0.17830584395E+02  0.41049175244E+02  0.44756042535E+02  0.10566000000E+00 0. -1.
         23    2    1    0    0    0  0.93261648597E+01  0.24193035600E+02  0.13958581947E+02  0.95553059030E+02  0.90902501382E+02 0.  0.
         13    1    3    3    0    0  0.89688816523E+01  0.42023619995E+02 -0.27090593297E+02  0.50797016495E+02  0.10566000000E+00 0.  1.
         22    1    1    0    0    0 -0.93261648597E+01 -0.24193035600E+02 -0.13958581947E+02  0.29446940970E+02  0.00000000000E+00 0. -1.
</event>
<event>
 5    1  0.1691066E-003  0.9118800E+02  0.7818608E-02  0.1130116E+00
         25   -1    0    0    0    0  0.00000000000E+00  0.00000000000E+00  0.99999998245E-14  0.12500000000E+03  0.12500000000E+03 0.  0.
        -13    1    3    3    0    0  0.68940698190E+01  0.53137298150E+02 -0.25967417902E+02  0.59543417855E+02  0.10566000000E+00 0.  1.
         23    2    1    0    0    0  0.15676096862E+02  0.24467022840E+02 -0.67189695633E+01  0.95175181954E+02  0.90381389061E+02 0.  0.
         13    1    3    3    0    0  0.87820270429E+01 -0.28670275310E+02  0.19248448339E+02  0.35631764099E+02  0.10566000000E+00 0. -1.
         22    1    1    0    0    0 -0.15676096862E+02 -0.24467022840E+02  0.67189695633E+01  0.29824818046E+02  0.00000000000E+00 0. -1.
</event>
<event>
 5    1  0.1691066E-003  0.9118800E+02  0.7818608E-02  0.1130116E+00
         25   -1    0    0    0    0  0.00000000000E+00  0.00000000000E+00  0.99999998245E-14  0.12500000000E+03  0.12500000000E+03 0.  0.
        -13    1    3    3    0    0 -0.75934717932E+01  0.99975717837E+01 -0.31843964436E+02  0.34229541196E+02  0.10566000000E+00 0.  1.
         23    2    1    0    0    0 -0.60715543177E+01 -0.25773396501E+02  0.16057343379E+02  0.94032758996E+02  0.88787328763E+02 0.  0.
         13    1    3    3    0    0  0.15219174755E+01 -0.35770968285E+02  0.47901307815E+02  0.59803217800E+02  0.10566000000E+00 0. -1.
         22    1    1    0    0    0  0.60715543177E+01  0.25773396501E+02 -0.16057343379E+02  0.30967241004E+02  0.00000000000E+00 0. -1.
</event>
<event>
 5    1  0.1691066E-003  0.9118800E+02  0.7818608E-02  0.1130116E+00
         25   -1    0    0    0    0  0.00000000000E+00  0.00000000000E+00  0.99999998245E-14  0.12500000000E+03  0.12500000000E+03 0.  0.
        -13    1    3    3    0    0 -0.24656903293E+02 -0.30261869593E+02  0.46002863760E+02  0.60332563922E+02  0.10566000000E+00 0. -1.
         23    2    1    0    0    0 -0.55783011290E+01 -0.22950755739E+02  0.16625648619E+02  0.96116322526E+02  0.91673772865E+02 0.  0.
         13    1    3    3    0    0  0.19078602164E+02  0.73111138541E+01 -0.29377215141E+02  0.35783758604E+02  0.10566000000E+00 0.  1.
         22    1    1    0    0    0  0.55783011290E+01  0.22950755739E+02 -0.16625648619E+02  0.28883677474E+02  0.00000000000E+00 0. -1.
</event>
<event>
 5    1  0.1691066E-003  0.9118800E+02  0.7818608E-02  0.1130116E+00
         25   -1    0    0    0    0  0.00000000000E+00  0.00000000000E+00  0.99999998245E-14  0.12500000000E+03  0.12500000000E+03 0.  0.
        -13    1    3    3    0    0  0.26746411808E+02 -0.31771205020E+02  0.29985561595E+02  0.51224262623E+02  0.10566000000E+00 0.  1.
         23    2    1    0    0    0  0.13047996764E+02  0.99725060985E+01  0.24508036185E+02  0.95498390974E+02  0.90827296247E+02 0.  0.
         13    1    3    3    0    0 -0.13698415043E+02  0.41743711119E+02 -0.54775254099E+01  0.44274128352E+02  0.10566000000E+00 0. -1.
         22    1    1    0    0    0 -0.13047996764E+02 -0.99725060985E+01 -0.24508036185E+02  0.29501609026E+02  0.00000000000E+00 0.  1.
</event>
<event>
 5    1  0.1691066E-003  0.9118800E+02  0.7818608E-02  0.1130116E+00
         25   -1    0    0    0    0  0.00000000000E+00  0.00000000000E+00  0.99999998245E-14  0.12500000000E+03  0.12500000000E+03 0.  0.
        -13    1    3    3    0    0 -0.29990985403E+02 -0.83970275726E+01 -0.15184794668E+02  0.34649075466E+02  0.10566000000E+00 0. -1.
         23    2    1    0    0    0  0.10314472855E+02  0.12958408212E+02  0.24713476158E+02  0.95249964748E+02  0.90484756656E+02 0.  0.
         13    1    3    3    0    0  0.40305458258E+02  0.21355435785E+02  0.39898270826E+02  0.60600889283E+02  0.10566000000E+00 0.  1.
         22    1    1    0    0    0 -0.10314472855E+02 -0.12958408212E+02 -0.24713476158E+02  0.29750035252E+02  0.00000000000E+00 0.  1.
</event>
<event>
 5    1  0.1691066E-003  0.9118800E+02  0.7818608E-02  0.1130116E+00
         25   -1    0    0    0    0  0.00000000000E+00  0.00000000000E+00  0.99999998245E-14  0.12500000000E+03  0.12500000000E+03 0.  0.
        -13    1    3    3    0    0  0.15958911165E+02 -0.35703275841E+02 -0.55189244199E+01  0.39495321775E+02  0.10566000000E+00 0.  1.
         23    2    1    0    0    0  0.14459020769E+02  0.11837466370E+02  0.23317728203E+02  0.95118478281E+02  0.90302932236E+02 0.  0.
         13    1    3    3    0    0 -0.14998903961E+01  0.47540742211E+02  0.28836652623E+02  0.55623156506E+02  0.10566000000E+00 0. -1.
         22    1    1    0    0    0 -0.14459020769E+02 -0.11837466370E+02 -0.23317728203E+02  0.29881521719E+02  0.00000000000E+00 0.  1.
</event>
<event>
 5    1  0.1691066E-003  0.9118800E+02  0.7818608E-02  0.1130116E+00
         25   -1    0    0    0    0  0.00000000000E+00  0.00000000000E+00  0.99999998245E-14  0.12500000000E+03  0.12500000000E+03 0.  0.
        -13    1    3    3    0    0  0.43437851059E+02 -0.27013696068E+02 -0.42903377976E+01  0.51332298237E+02  0.10566000000E+00 0.  1.
         23    2    1    0    0    0  0.16954038910E+01 -0.27257802230E+02  0.10675315578E+02  0.95677235133E+02  0.91073095826E+02 0.  0.
         13    1    3    3    0    0 -0.41742447168E+02 -0.24410616188E+00  0.14965653375E+02  0.44344936896E+02  0.10566000000E+00 0. -1.
         22    1    1    0    0    0 -0.16954038910E+01  0.27257802230E+02 -0.10675315578E+02  0.29322764867E+02  0.00000000000E+00 0.  1.
</event>
<event>
 5    1  0.1691066E-003  0.9118800E+02  0.7818608E-02  0.1130116E+00
         25   -1    0    0    0    0  0.00000000000E+00  0.00000000000E+00  0.99999998245E-14  0.12500000000E+03  0.12500000000E+03 0.  0.
        -13    1    3    3    0    0 -0.24017158271E+02 -0.17242445075E+02 -0.32001701556E+02  0.43568863539E+02  0.10566000000E+00 0.  1.
         23    2    1    0    0    0 -0.21322134150E+02  0.14168474537E+02  0.11205093485E+02  0.97054818028E+02  0.92944631405E+02 0.  0.
         13    1    3    3    0    0  0.26950241208E+01  0.31410919612E+02  0.43206795041E+02  0.53485954489E+02  0.10566000000E+00 0. -1.
         22    1    1    0    0    0  0.21322134150E+02 -0.14168474537E+02 -0.11205093485E+02  0.27945181972E+02  0.00000000000E+00 0. -1.
</event>
<event>
 5    1  0.1691066E-003  0.9118800E+02  0.7818608E-02  0.1130116E+00
         25   -1    0    0    0    0  0.00000000000E+00  0.00000000000E+00  0.99999998245E-14  0.12500000000E+03  0.12500000000E+03 0.  0.
        -13    1    3    3    0    0 -0.10679050957E+02  0.18484108909E+02 -0.54895494432E+02  0.58900177287E+02  0.10566000000E+00 0.  1.
         23    2    1    0    0    0 -0.18820018452E+02  0.11351659122E+02 -0.20550070355E+02  0.94910821697E+02  0.90015028879E+02 0.  0.
         13    1    3    3    0    0 -0.81409674956E+01 -0.71324497871E+01  0.34345424077E+02  0.36010644409E+02  0.10566000000E+00 0. -1.
         22    1    1    0    0    0  0.18820018452E+02 -0.11351659122E+02  0.20550070355E+02  0.30089178303E+02  0.00000000000E+00 0.  1.
</event>
<event>
 5    1  0.1691066E-003  0.9118800E+02  0.7818608E-02  0.1130116E+00
         25   -1    0    0    0    0  0.00000000000E+00  0.00000000000E+00  0.99999998245E-14  0.12500000000E+03  0.12500000000E+03 0.  0.
        -13    1    3    3    0    0 -0.25746035964E+02  0.88043094506E+01  0.19678554924E+02  0.33580216210E+02  0.10566000000E+00 0.  1.
         23    2    1    0    0    0  0.11616705092E+02 -0.22423032587E+01 -0.27675026561E+02  0.94902112096E+02  0.90002933419E+02 0.  0.
         13    1    3    3    0    0  0.37362741056E+02 -0.11046612709E+02 -0.47353581486E+02  0.61321895886E+02  0.10566000000E+00 0. -1.
         22    1    1    0    0    0 -0.11616705092E+02  0.22423032587E+01  0.27675026561E+02  0.30097887904E+02  0.00000000000E+00 0. -1.
</event>
<event>
 5    1  0.1691066E-003  0.9118800E+02  0.7818608E-02  0.1130116E+00
         25   -1    0    0    0    0  0.00000000000E+00  0.00000000000E+00  0.99999998245E-14  0.12500000000E+03  0.12500000000E+03 0.  0.
        -13    1    3    3    0    0  0.28250869945E+02  0.23726080360E+01  0.54626007131E+02  0.61544721469E+02  0.10566000000E+00 0.  1.
         23    2    1    0    0    0  0.18545622410E+02 -0.49631005681E+00  0.19564068277E+02  0.98038189938E+02  0.94257877573E+02 0.  0.
         13    1    3    3    0    0 -0.97052475348E+01 -0.28689180928E+01 -0.35061938854E+02  0.36493468470E+02  0.10566000000E+00 0. -1.
         22    1    1    0    0    0 -0.18545622410E+02  0.49631005681E+00 -0.19564068277E+02  0.26961810062E+02  0.00000000000E+00 0.  1.
</event>
<event>
 5    1  0.1691066E-003  0.9118800E+02  0.7818608E-02  0.1130116E+00
         25   -1    0    0    0    0  0.00000000000E+00  0.00000000000E+00  0.99999998245E-14  0.12500000000E+03  0.12500000000E+03 0.  0.
        -13    1    3    3    0    0  0.28125143274E+02  0.11693182701E+02  0.19035611301E+02  0.35918238647E+02  0.10566000000E+00 0. -1.
         23    2    1    0    0    0 -0.12354870485E+02  0.80801122509E+01 -0.25078251199E+02  0.95899317502E+02  0.91377400791E+02 0.  0.
         13    1    3    3    0    0 -0.40480013758E+02 -0.36130704505E+01 -0.44113862500E+02  0.59981078855E+02  0.10566000000E+00 0.  1.
         22    1    1    0    0    0  0.12354870485E+02 -0.80801122509E+01  0.25078251199E+02  0.29100682498E+02  0.00000000000E+00 0.  1.
</event>
<event>
 5    1  0.1691066E-003  0.9118800E+02  0.7818608E-02  0.1130116E+00
         25   -1    0    0    0    0  0.00000000000E+00  0.00000000000E+00  0.99999998245E-14  0.12500000000E+03  0.12500000000E+03 0.  0.
        -13    1    3    3    0    0  0.34152309835E+02  0.48342427722E+01  0.32127612097E+01  0.34642216569E+02  0.10566000000E+00 0. -1.
         23    2    1    0    0    0 -0.26594167486E+02 -0.48329293181E+01 -0.71986568392E+01  0.97028092479E+02  0.92908681616E+02 0.  0.
         13    1    3    3    0    0 -0.60746477321E+02 -0.96671720903E+01 -0.10411418049E+02  0.62385875909E+02  0.10566000000E+00 0.  1.
         22    1    1    0    0    0  0.26594167486E+02  0.48329293181E+01  0.71986568392E+01  0.27971907521E+02  0.00000000000E+00 0.  1.
</event>
<event>
 5    1  0.1691066E-003  0.9118800E+02  0.7818608E-02  0.1130116E+00
         25   -1    0    0    0    0  0.00000000000E+00  0.00000000000E+00  0.99999998245E-14  0.12500000000E+03  0.12500000000E+03 0.  0.
        -13    1    3    3    0    0  0.33362227415E+02 -0.20422225936E+01 -0.21780172585E+02  0.39894811355E+02  0.10566000000E+00 0.  1.
         23    2    1    0    0    0 -0.38219391389E+01 -0.24161877806E+02  0.14676676651E+02  0.96472672831E+02  0.92158386530E+02 0.  0.
         13    1    3    3    0    0 -0.37184166554E+02 -0.22119655212E+02  0.36456849235E+02  0.56577861476E+02  0.10566000000E+00 0. -1.
         22    1    1    0    0    0  0.38219391389E+01  0.24161877806E+02 -0.14676676651E+02  0.28527327169E+02  0.00000000000E+00 0. -1.
</event>
<event>
 5    1  0.1691066E-003  0.9118800E+02  0.7818608E-02  0.1130116E+00
         25   -1    0    0    0    0  0.00000000000E+00  0.00000000000E+00  0.99999998245E-14  0.12500000000E+03  0.12500000000E+03 0.  0.
        -13    1    3    3    0    0  0.10791363430E+02 -0.33630005715E+02  0.29520074445E+02  0.46031258600E+02  0.10566000000E+00 0.  1.
         23    2    1    0    0    0 -0.19594496146E+02 -0.29016362130E+02 -0.18374949568E+01  0.89939053946E+02  0.82823689162E+02 0.  0.
         13    1    3    3    0    0 -0.30385859576E+02  0.46136435846E+01 -0.31357569402E+02  0.43907795346E+02  0.10566000000E+00 0. -1.
         22    1    1    0    0    0  0.19594496146E+02  0.29016362130E+02  0.18374949568E+01  0.35060946054E+02  0.00000000000E+00 0.  1.
</event>
<event>
 5    1  0.1691066E-003  0.9118800E+02  0.7818608E-02  0.1130116E+00
         25   -1    0    0    0    0  0.00000000000E+00  0.00000000000E+00  0.99999998245E-14  0.12500000000E+03  0.12500000000E+03 0.  0.
        -13    1    3    3    0    0  0.33400745480E+02 -0.17500703106E+01 -0.52397949447E+02  0.62162921545E+02  0.10566000000E+00 0. -1.
         23    2    1    0    0    0  0.17943426875E+02 -0.54098295698E+01 -0.26552266672E+02  0.92499912471E+02  0.86602414041E+02 0.  0.
         13    1    3    3    0    0 -0.15457318605E+02 -0.36597592591E+01  0.25845682775E+02  0.30336990926E+02  0.10566000000E+00 0.  1.
         22    1    1    0    0    0 -0.17943426875E+02  0.54098295698E+01  0.26552266672E+02  0.32500087529E+02  0.00000000000E+00 0. -1.
</event>
<event>
 5    1  0.1691066E-003  0.9118800E+02  0.7818608E-02  0.1130116E+00
         25   -1    0    0    0    0  0.00000000000E+00  0.00000000000E+00  0.99999998245E-14  0.12500000000E+03  0.12500000000E+03 0.  0.
        -13    1    3    3    0    0 -0.58389961563E+02 -0.18474608888E+02  0.51473254747E+01  0.61458969308E+02  0.10566000000E+00 0.  1.
         23    2    1    0    0    0 -0.24574083754E+02 -0.86626081614E+01 -0.57487735777E+01  0.98317144640E+02  0.94627089990E+02 0.  0.
         13    1    3    3    0    0  0.33815877808E+02  0.98120007261E+01 -0.10896099052E+02  0.36858175332E+02  0.10566000000E+00 0. -1.
         22    1    1    0    0    0  0.24574083754E+02  0.86626081614E+01  0.57487735777E+01  0.26682855360E+02  0.00000000000E+00 0.  1.
</event>
<event>
 5    1  0.1691066E-003  0.9118800E+02  0.7818608E-02  0.1130116E+00
         25   -1    0    0    0    0  0.00000000000E+00  0.00000000000E+00  0.99999998245E-14  0.12500000000E+03  0.12500000000E+03 0.  0.
        -13    1    3    3    0    0 -0.48866509129E+02  0.29264204328E+02  0.96643667726E+01  0.57773181655E+02  0.10566000000E+00 0.  1.
         23    2    1    0    0    0 -0.27129102429E+02  0.89876751293E+01 -0.11426116273E+02  0.94221393210E+02  0.89052503067E+02 0.  0.
         13    1    3    3    0    0  0.21737406700E+02 -0.20276529199E+02 -0.21090483046E+02  0.36448211555E+02  0.10566000000E+00 0. -1.
         22    1    1    0    0    0  0.27129102429E+02 -0.89876751293E+01  0.11426116273E+02  0.30778606790E+02  0.00000000000E+00 0.  1.
</event>
<event>
 5    1  0.1691066E-003  0.9118800E+02  0.7818608E-02  0.1130116E+00
         25   -1    0    0    0    0  0.00000000000E+00  0.00000000000E+00  0.99999998245E-14  0.12500000000E+03  0.12500000000E+03 0.  0.
        -13    1    3    3    0    0 -0.36708839603E+02  0.45471999854E+02 -0.12587260310E+02  0.59780364350E+02  0.10566000000E+00 0. -1.
         23    2    1    0    0    0 -0.26213163234E+02  0.12327339461E+02 -0.86467855236E+01  0.94769880503E+02  0.89819096665E+02 0.  0.
         13    1    3    3    0    0  0.10495676369E+02 -0.33144660393E+02  0.39404747860E+01  0.34989516153E+02  0.10566000000E+00 0.  1.
         22    1    1    0    0    0  0.26213163234E+02 -0.12327339461E+02  0.86467855236E+01  0.30230119497E+02  0.00000000000E+00 0. -1.
</event>
<event>
 5    1  0.1691066E-003  0.9118800E+02  0.7818608E-02  0.1130116E+00
         25   -1    0    0    0    0  0.00000000000E+00  0.00000000000E+00  0.99999998245E-14  0.12500000000E+03  0.12500000000E+03 0.  0.
        -13    1    3    3    0    0  0.47394834173E+02 -0.69412972693E+01 -0.10215698160E+02  0.48977786464E+02  0.10566000000E+00 0.  1.
         23    2    1    0    0    0  0.11524473503E+02  0.23611819040E+02 -0.11966373802E+02  0.96129156752E+02  0.91691271056E+02 0.  0.
         13    1    3    3    0    0 -0.35870360669E+02  0.30553116309E+02 -0.17506756427E+01  0.47151370287E+02  0.10566000000E+00 0. -1.
         22    1    1    0    0    0 -0.11524473503E+02 -0.23611819040E+02  0.11966373802E+02  0.28870843248E+02  0.00000000000E+00 0. -1.
</event>
<event>
 5    1  0.1691066E-003  0.9118800E+02  0.7818608E-02  0.1130116E+00
         25   -1    0    0    0    0  0.00000000000E+00  0.00000000000E+00  0.99999998245E-14  0.12500000000E+03  0.12500000000E+03 0.  0.
        -13    1    3    3    0    0 -0.39160262613E+01 -0.18079975222E+02 -0.28682480861E+02  0.34130875144E+02  0.10566000000E+00 0.  1.
         23    2    1    0    0    0 -0.26506614328E+01  0.30080604094E+02  0.69008702585E+01  0.94024352161E+02  0.88775492341E+02 0.  0.
         13    1    3    3    0    0  0.12653648285E+01  0.48160579316E+02  0.35583351120E+02  0.59893477017E+02  0.10566000000E+00 0. -1.
         22    1    1    0    0    0  0.26506614328E+01 -0.30080604094E+02 -0.69008702585E+01  0.30975647839E+02  0.00000000000E+00 0. -1.
</event>
<event>
 5    1  0.1691066E-003  0.9118800E+02  0.7818608E-02  0.1130116E+00
         25   -1    0    0    0    0  0.00000000000E+00  0.00000000000E+00  0.99999998245E-14  0.12500000000E+03  0.12500000000E+03 0.  0.
        -13    1    3    3    0    0 -0.32404731759E+02 -0.28192017928E+02 -0.27742495082E+02  0.51132315737E+02  0.10566000000E+00 0.  1.
         23    2    1    0    0    0 -0.25221673396E+02 -0.13755224431E+02  0.11881049401E+02  0.93911443537E+02  0.88616369167E+02 0.  0.
         13    1    3    3    0    0  0.71830583627E+01  0.14436793497E+02  0.39623544483E+02  0.42779127800E+02  0.10566000000E+00 0. -1.
         22    1    1    0    0    0  0.25221673396E+02  0.13755224431E+02 -0.11881049401E+02  0.31088556463E+02  0.00000000000E+00 0.  1.
</event>
<event>
 5    1  0.1691066E-003  0.9118800E+02  0.7818608E-02  0.1130116E+00
         25   -1    0    0    0    0  0.00000000000E+00  0.00000000000E+00  0.99999998245E-14  0.12500000000E+03  0.12500000000E+03 0.  0.
        -13    1    3    3    0    0 -0.19849467842E+02  0.80167739690E+01  0.51492706146E+02  0.55765401359E+02  0.10566000000E+00 0.  1.
         23    2    1    0    0    0 -0.84835379758E+01  0.22970243172E+02  0.16523842619E+02  0.95459521621E+02  0.90773786994E+02 0.  0.
         13    1    3    3    0    0  0.11365929866E+02  0.14953469203E+02 -0.34968863527E+02  0.39694120261E+02  0.10566000000E+00 0. -1.
         22    1    1    0    0    0  0.84835379758E+01 -0.22970243172E+02 -0.16523842619E+02  0.29540478379E+02  0.00000000000E+00 0.  1.
</event>
<event>
 5    1  0.1691066E-003  0.9118800E+02  0.7818608E-02  0.1130116E+00
         25   -1    0    0    0    0  0.00000000000E+00  0.00000000000E+00  0.99999998245E-14  0.12500000000E+03  0.12500000000E+03 0.  0.
        -13    1    3    3    0    0  0.14950302023E+02  0.25116045674E+02 -0.15390233314E+02  0.33033282101E+02  0.10566000000E+00 0.  1.
         23    2    1    0    0    0 -0.21295347533E+02 -0.21239303054E+02  0.32245303187E+01  0.94751075779E+02  0.89792922576E+02 0.  0.
         13    1    3    3    0    0 -0.36245649555E+02 -0.46355348728E+02  0.18614763632E+02  0.61717793678E+02  0.10566000000E+00 0. -1.
         22    1    1    0    0    0  0.21295347533E+02  0.21239303054E+02 -0.32245303187E+01  0.30248924221E+02  0.00000000000E+00 0. -1.
</event>
<event>
 5    1  0.1691066E-003  0.9118800E+02  0.7818608E-02  0.1130116E+00
         25   -1    0    0    0    0  0.00000000000E+00  0.00000000000E+00  0.99999998245E-14  0.12500000000E+03  0.12500000000E+03 0.  0.
        -13    1    3    3    0    0  0.27801130414E+02  0.34824918654E+02 -0.21545223817E+02  0.49496319509E+02  0.10566000000E+00 0. -1.
         23    2    1    0    0    0  0.23108027638E+02  0.79286554218E+01  0.15909417242E+02  0.95846028142E+02  0.91304474346E+02 0.  0.
         13    1    3    3    0    0 -0.46931027767E+01 -0.26896263232E+02  0.37454641059E+02  0.46349708633E+02  0.10566000000E+00 0.  1.
         22    1    1    0    0    0 -0.23108027638E+02 -0.79286554218E+01 -0.15909417242E+02  0.29153971858E+02  0.00000000000E+00 0. -1.
</event>
<event>
 5    1  0.1691066E-003  0.9118800E+02  0.7818608E-02  0.1130116E+00
         25   -1    0    0    0    0  0.00000000000E+00  0.00000000000E+00  0.99999998245E-14  0.12500000000E+03  0.12500000000E+03 0.  0.
        -13    1    3    3    0    0  0.56349335645E+02  0.48462865456E+01 -0.16332358820E+02  0.58868423026E+02  0.10566000000E+00 0. -1.
         23    2    1    0    0    0  0.37734310709E+02 -0.89913699936E+01 -0.19507286177E+01  0.86160222951E+02  0.76909399541E+02 0.  0.
         13    1    3    3    0    0 -0.18615024935E+02 -0.13837656539E+02  0.14381630202E+02  0.27291799925E+02  0.10566000000E+00 0.  1.
         22    1    1    0    0    0 -0.37734310709E+02  0.89913699936E+01  0.19507286177E+01  0.38839777049E+02  0.00000000000E+00 0. -1.
</event>
<event>
 5    1  0.1691066E-003  0.9118800E+02  0.7818608E-02  0.1130116E+00
         25   -1    0    0    0    0  0.00000000000E+00  0.00000000000E+00  0.99999998245E-14  0.12500000000E+03  0.12500000000E+03 0.  0.
        -13    1    3    3    0    0 -0.29055886657E+01 -0.23706510119E+02 -0.19739102202E+02  0.30985228534E+02  0.10566000000E+00 0.  1.
         23    2    1    0    0    0  0.27512534411E+02  0.79488406079E+01  0.19894163486E+02  0.90130222864E+02  0.83111706251E+02 0.  0.
         13    1    3    3    0    0  0.30418123076E+02  0.31655350727E+02  0.39633265688E+02  0.59144994330E+02  0.10566000000E+00 0. -1.
         22    1    1    0    0    0 -0.27512534411E+02 -0.79488406079E+01 -0.19894163486E+02  0.34869777136E+02  0.00000000000E+00 0. -1.
</event>
<event>
 5    1  0.1691066E-003  0.9118800E+02  0.7818608E-02  0.1130116E+00
         25   -1    0    0    0    0  0.00000000000E+00  0.00000000000E+00  0.99999998245E-14  0.12500000000E+03  0.12500000000E+03 0.  0.
        -13    1    3    3    0    0 -0.26904962048E+01  0.33804549066E+02  0.49079288480E+01  0.34264927214E+02  0.10566000000E+00 0.  1.
         23    2    1    0    0    0 -0.27839191718E+01 -0.24108226319E+02  0.19361763695E+02  0.93954313092E+02  0.88676819254E+02 0.  0.
         13    1    3    3    0    0 -0.93422967042E-01 -0.57912775385E+02  0.14453834847E+02  0.59689385878E+02  0.10566000000E+00 0. -1.
         22    1    1    0    0    0  0.27839191718E+01  0.24108226319E+02 -0.19361763695E+02  0.31045686908E+02  0.00000000000E+00 0. -1.
</event>
<event>
 5    1  0.1691066E-003  0.9118800E+02  0.7818608E-02  0.1130116E+00
         25   -1    0    0    0    0  0.00000000000E+00  0.00000000000E+00  0.99999998245E-14  0.12500000000E+03  0.12500000000E+03 0.  0.
        -13    1    3    3    0    0 -0.13847952074E+02 -0.39065429333E+02 -0.18455440111E+02  0.45370562916E+02  0.10566000000E+00 0.  1.
         23    2    1    0    0    0 -0.24202063147E+02 -0.70807012290E-01  0.13902157981E+02  0.97089162128E+02  0.92990808857E+02 0.  0.
         13    1    3    3    0    0 -0.10354111073E+02  0.38994622321E+02  0.32357598093E+02  0.51718599212E+02  0.10566000000E+00 0. -1.
         22    1    1    0    0    0  0.24202063147E+02  0.70807012290E-01 -0.13902157981E+02  0.27910837872E+02  0.00000000000E+00 0. -1.
</event>
<event>
 5    1  0.1691066E-003  0.9118800E+02  0.7818608E-02  0.1130116E+00
         25   -1    0    0    0    0  0.00000000000E+00  0.00000000000E+00  0.99999998245E-14  0.12500000000E+03  0.12500000000E+03 0.  0.
        -13    1    3    3    0    0  0.20603950821E+02  0.32894881729E+02 -0.47533305026E+02  0.61367925532E+02  0.10566000000E+00 0. -1.
         23    2    1    0    0    0  0.16582857750E+02  0.10763284158E+02 -0.20854792012E+02  0.96263928471E+02  0.91874817648E+02 0.  0.
         13    1    3    3    0    0 -0.40210930711E+01 -0.22131597571E+02  0.26678513013E+02  0.34896002940E+02  0.10566000000E+00 0.  1.
         22    1    1    0    0    0 -0.16582857750E+02 -0.10763284158E+02  0.20854792012E+02  0.28736071529E+02  0.00000000000E+00 0. -1.
</event>
<event>
 5    1  0.1691066E-003  0.9118800E+02  0.7818608E-02  0.1130116E+00
         25   -1    0    0    0    0  0.00000000000E+00  0.00000000000E+00  0.99999998245E-14  0.12500000000E+03  0.12500000000E+03 0.  0.
        -13    1    3    3    0    0  0.42512032423E+02 -0.36184883467E+02 -0.10676264155E+02  0.56838477044E+02  0.10566000000E+00 0. -1.
         23    2    1    0    0    0  0.28534550441E+02 -0.47771075159E+01  0.66177750785E+01  0.95321114035E+02  0.90582992382E+02 0.  0.
         13    1    3    3    0    0 -0.13977481982E+02  0.31407775951E+02  0.17294039234E+02  0.38482636992E+02  0.10566000000E+00 0.  1.
         22    1    1    0    0    0 -0.28534550441E+02  0.47771075159E+01 -0.66177750785E+01  0.29678885965E+02  0.00000000000E+00 0. -1.
</event>
<event>
 5    1  0.1691066E-003  0.9118800E+02  0.7818608E-02  0.1130116E+00
         25   -1    0    0    0    0  0.00000000000E+00  0.00000000000E+00  0.99999998245E-14  0.12500000000E+03  0.12500000000E+03 0.  0.
        -13    1    3    3    0    0 -0.57435273770E+00 -0.14494732368E+02 -0.32482077988E+02  0.35574199948E+02  0.10566000000E+00 0.  1.
         23    2    1    0    0    0  0.21997779886E+02  0.10885342164E+02  0.16677389590E+02  0.95326302598E+02  0.90590152056E+02 0.  0.
         13    1    3    3    0    0  0.22572132624E+02  0.25380074533E+02  0.49159467578E+02  0.59752102650E+02  0.10566000000E+00 0. -1.
         22    1    1    0    0    0 -0.21997779886E+02 -0.10885342164E+02 -0.16677389590E+02  0.29673697402E+02  0.00000000000E+00 0. -1.
</event>
<event>
 5    1  0.1691066E-003  0.9118800E+02  0.7818608E-02  0.1130116E+00
         25   -1    0    0    0    0  0.00000000000E+00  0.00000000000E+00  0.99999998245E-14  0.12500000000E+03  0.12500000000E+03 0.  0.
        -13    1    3    3    0    0  0.13345958695E+02  0.58898555909E+01  0.40413762641E+02  0.42966130698E+02  0.10566000000E+00 0. -1.
         23    2    1    0    0    0  0.24866141184E+02  0.66516488591E+01 -0.11973785964E+02  0.96610900680E+02  0.92345683006E+02 0.  0.
         13    1    3    3    0    0  0.11520182489E+02  0.76179326822E+00 -0.52387548604E+02  0.53644769982E+02  0.10566000000E+00 0.  1.
         22    1    1    0    0    0 -0.24866141184E+02 -0.66516488591E+01  0.11973785964E+02  0.28389099320E+02  0.00000000000E+00 0.  1.
</event>
<event>
 5    1  0.1691066E-003  0.9118800E+02  0.7818608E-02  0.1130116E+00
         25   -1    0    0    0    0  0.00000000000E+00  0.00000000000E+00  0.99999998245E-14  0.12500000000E+03  0.12500000000E+03 0.  0.
        -13    1    3    3    0    0 -0.28544716658E+02  0.11157388246E+02  0.42333837616E+02  0.52263305798E+02  0.10566000000E+00 0.  1.
         23    2    1    0    0    0 -0.15097861475E+02  0.25160574818E+02  0.37992552123E+01  0.95412261214E+02  0.90708683728E+02 0.  0.
         13    1    3    3    0    0  0.13446855183E+02  0.14003186571E+02 -0.38534582404E+02  0.43148955417E+02  0.10566000000E+00 0. -1.
         22    1    1    0    0    0  0.15097861475E+02 -0.25160574818E+02 -0.37992552123E+01  0.29587738786E+02  0.00000000000E+00 0.  1.
</event>
<event>
 5    1  0.1691066E-003  0.9118800E+02  0.7818608E-02  0.1130116E+00
         25   -1    0    0    0    0  0.00000000000E+00  0.00000000000E+00  0.99999998245E-14  0.12500000000E+03  0.12500000000E+03 0.  0.
        -13    1    3    3    0    0  0.22660575092E+02 -0.26283648431E+02  0.69812892724E+01  0.35398889845E+02  0.10566000000E+00 0.  1.
         23    2    1    0    0    0  0.11079496154E+01  0.29245257257E+02 -0.21285267672E+01  0.95656461519E+02  0.91044579080E+02 0.  0.
         13    1    3    3    0    0 -0.21552625477E+02  0.55528905687E+02 -0.91098160396E+01  0.60257571674E+02  0.10566000000E+00 0. -1.
         22    1    1    0    0    0 -0.11079496154E+01 -0.29245257257E+02  0.21285267672E+01  0.29343538481E+02  0.00000000000E+00 0. -1.
</event>
<event>
 5    1  0.1691066E-003  0.9118800E+02  0.7818608E-02  0.1130116E+00
         25   -1    0    0    0    0  0.00000000000E+00  0.00000000000E+00  0.99999998245E-14  0.12500000000E+03  0.12500000000E+03 0.  0.
        -13    1    3    3    0    0 -0.29922963140E+02  0.28418817887E+02  0.26414521605E+02  0.48997459616E+02  0.10566000000E+00 0. -1.
         23    2    1    0    0    0 -0.26685070777E+02 -0.52780325613E+01 -0.73631439281E+01  0.96819039786E+02  0.92626993617E+02 0.  0.
         13    1    3    3    0    0  0.32378923631E+01 -0.33696850448E+02 -0.33777665533E+02  0.47821580170E+02  0.10566000000E+00 0.  1.
         22    1    1    0    0    0  0.26685070777E+02  0.52780325613E+01  0.73631439281E+01  0.28180960214E+02  0.00000000000E+00 0. -1.
</event>
<event>
 5    1  0.1691066E-003  0.9118800E+02  0.7818608E-02  0.1130116E+00
         25   -1    0    0    0    0  0.00000000000E+00  0.00000000000E+00  0.99999998245E-14  0.12500000000E+03  0.12500000000E+03 0.  0.
        -13    1    3    3    0    0  0.30101699735E+02  0.50359144099E+01  0.47906434272E+02  0.56802379964E+02  0.10566000000E+00 0. -1.
         23    2    1    0    0    0  0.27577352373E+02 -0.64651123960E+01  0.12640198480E+02  0.93982542660E+02  0.88716603097E+02 0.  0.
         13    1    3    3    0    0 -0.25243473617E+01 -0.11501026806E+02 -0.35266235792E+02  0.37180162697E+02  0.10566000000E+00 0.  1.
         22    1    1    0    0    0 -0.27577352373E+02  0.64651123960E+01 -0.12640198480E+02  0.31017457340E+02  0.00000000000E+00 0. -1.
</event>
<event>
 5    1  0.1691066E-003  0.9118800E+02  0.7818608E-02  0.1130116E+00
         25   -1    0    0    0    0  0.00000000000E+00  0.00000000000E+00  0.99999998245E-14  0.12500000000E+03  0.12500000000E+03 0.  0.
        -13    1    3    3    0    0  0.16371761047E+02 -0.33990579779E+02 -0.44823711630E+02  0.58588141819E+02  0.10566000000E+00 0.  1.
         23    2    1    0    0    0 -0.71381418214E+01 -0.19642811444E+02 -0.14441374287E+02  0.99596330946E+02  0.96302039109E+02 0.  0.
         13    1    3    3    0    0 -0.23509902868E+02  0.14347768335E+02  0.30382337343E+02  0.41008189127E+02  0.10566000000E+00 0. -1.
         22    1    1    0    0    0  0.71381418214E+01  0.19642811444E+02  0.14441374287E+02  0.25403669054E+02  0.00000000000E+00 0.  1.
</event>
<event>
 4    1  0.1691066E-003  0.9118800E+02  0.7818608E-02  0.1130116E+00
         25   -1    0    0    0    0  0.00000000000E+00  0.00000000000E+00  0.99999998245E-14  0.12500000000E+03  0.12500000000E+03 0.  0.
        -13    1    1    0    0    0 -0.63748742017E+01 -0.17923550041E+02 -0.21673978572E+01  0.19146839026E+02  0.10566000000E+00 0.  1.
         13    1    1    0    0    0 -0.47961618379E+02  0.81902499726E+00  0.78444486233E+01  0.48605906819E+02  0.10566000000E+00 0. -1.
         22    1    1    0    0    0  0.54336492580E+02  0.17104525044E+02 -0.56770507661E+01  0.57247254155E+02  0.00000000000E+00 0. -1.
</event>
<event>
 5    1  0.1691066E-003  0.9118800E+02  0.7818608E-02  0.1130116E+00
         25   -1    0    0    0    0  0.00000000000E+00  0.00000000000E+00  0.99999998245E-14  0.12500000000E+03  0.12500000000E+03 0.  0.
        -13    1    3    3    0    0 -0.19552640526E+02  0.77609689846E+01 -0.56702090568E+02  0.60478728740E+02  0.10566000000E+00 0.  1.
         23    2    1    0    0    0 -0.17788604545E+01 -0.46870757058E+01 -0.28497776236E+02  0.96064619000E+02  0.91603246395E+02 0.  0.
         13    1    3    3    0    0  0.17773780072E+02 -0.12448044690E+02  0.28204314332E+02  0.35585890260E+02  0.10566000000E+00 0. -1.
         22    1    1    0    0    0  0.17788604545E+01  0.46870757058E+01  0.28497776236E+02  0.28935381000E+02  0.00000000000E+00 0.  1.
</event>
<event>
 5    1  0.1691066E-003  0.9118800E+02  0.7818608E-02  0.1130116E+00
         25   -1    0    0    0    0  0.00000000000E+00  0.00000000000E+00  0.99999998245E-14  0.12500000000E+03  0.12500000000E+03 0.  0.
        -13    1    3    3    0    0 -0.39058934677E+01 -0.12792056614E+02  0.42381180009E+02  0.44441740506E+02  0.10566000000E+00 0.  1.
         23    2    1    0    0    0  0.47073041235E+01  0.26727007368E+02  0.10663579325E+02  0.95841749727E+02  0.91298616811E+02 0.  0.
         13    1    3    3    0    0  0.86131975911E+01  0.39519063982E+02 -0.31717600684E+02  0.51400009221E+02  0.10566000000E+00 0. -1.
         22    1    1    0    0    0 -0.47073041235E+01 -0.26727007368E+02 -0.10663579325E+02  0.29158250273E+02  0.00000000000E+00 0. -1.
</event>
<event>
 5    1  0.1691066E-003  0.9118800E+02  0.7818608E-02  0.1130116E+00
         25   -1    0    0    0    0  0.00000000000E+00  0.00000000000E+00  0.99999998245E-14  0.12500000000E+03  0.12500000000E+03 0.  0.
        -13    1    3    3    0    0 -0.26835729038E+00  0.34557346634E+01  0.33354503419E+02  0.33534283653E+02  0.10566000000E+00 0.  1.
         23    2    1    0    0    0  0.15484503827E+01  0.82377008869E+00 -0.28988066809E+02  0.95958920250E+02  0.91458898214E+02 0.  0.
         13    1    3    3    0    0  0.18168076730E+01 -0.26319645747E+01 -0.62342570228E+02  0.62424636597E+02  0.10566000000E+00 0. -1.
         22    1    1    0    0    0 -0.15484503827E+01 -0.82377008869E+00  0.28988066809E+02  0.29041079750E+02  0.00000000000E+00 0. -1.
</event>
<event>
 5    1  0.1691066E-003  0.9118800E+02  0.7818608E-02  0.1130116E+00
         25   -1    0    0    0    0  0.00000000000E+00  0.00000000000E+00  0.99999998245E-14  0.12500000000E+03  0.12500000000E+03 0.  0.
        -13    1    3    3    0    0 -0.21713682412E+02 -0.23752607976E+02  0.20515149112E+02  0.38164812284E+02  0.10566000000E+00 0. -1.
         23    2    1    0    0    0 -0.81572324846E+01 -0.53801871066E+00 -0.29196891220E+02  0.94680231484E+02  0.89694246588E+02 0.  0.
         13    1    3    3    0    0  0.13556449927E+02  0.23214589266E+02 -0.49712040332E+02  0.56515419200E+02  0.10566000000E+00 0.  1.
         22    1    1    0    0    0  0.81572324846E+01  0.53801871066E+00  0.29196891220E+02  0.30319768516E+02  0.00000000000E+00 0.  1.
</event>
<event>
 5    1  0.1691066E-003  0.9118800E+02  0.7818608E-02  0.1130116E+00
         25   -1    0    0    0    0  0.00000000000E+00  0.00000000000E+00  0.99999998245E-14  0.12500000000E+03  0.12500000000E+03 0.  0.
        -13    1    3    3    0    0 -0.32618176244E+02  0.39219839835E+02  0.15815588735E+02  0.53406790479E+02  0.10566000000E+00 0.  1.
         23    2    1    0    0    0 -0.24020761010E+02  0.94701471685E+01 -0.13338266377E+02  0.95938169417E+02  0.91430532943E+02 0.  0.
         13    1    3    3    0    0  0.85974152342E+01 -0.29749692666E+02 -0.29153855112E+02  0.42531378938E+02  0.10566000000E+00 0. -1.
         22    1    1    0    0    0  0.24020761010E+02 -0.94701471685E+01  0.13338266377E+02  0.29061830583E+02  0.00000000000E+00 0. -1.
</event>
<event>
 5    1  0.1691066E-003  0.9118800E+02  0.7818608E-02  0.1130116E+00
         25   -1    0    0    0    0  0.00000000000E+00  0.00000000000E+00  0.99999998245E-14  0.12500000000E+03  0.12500000000E+03 0.  0.
        -13    1    3    3    0    0  0.16988171393E+02  0.11285537454E+02 -0.25995745822E+02  0.33041659882E+02  0.10566000000E+00 0. -1.
         23    2    1    0    0    0 -0.19434340679E+02 -0.61291102417E+01  0.21499971092E+02  0.95377232625E+02  0.90660400156E+02 0.  0.
         13    1    3    3    0    0 -0.36422512072E+02 -0.17414647696E+02  0.47495716914E+02  0.62335572743E+02  0.10566000000E+00 0.  1.
         22    1    1    0    0    0  0.19434340679E+02  0.61291102417E+01 -0.21499971092E+02  0.29622767375E+02  0.00000000000E+00 0.  1.
</event>
<event>
 5    1  0.1691066E-003  0.9118800E+02  0.7818608E-02  0.1130116E+00
         25   -1    0    0    0    0  0.00000000000E+00  0.00000000000E+00  0.99999998245E-14  0.12500000000E+03  0.12500000000E+03 0.  0.
        -13    1    3    3    0    0 -0.49820896811E+02  0.12653630827E+02 -0.33651312947E+02  0.61438246714E+02  0.10566000000E+00 0.  1.
         23    2    1    0    0    0 -0.20061089248E+02  0.13427904059E+02 -0.15751476249E+02  0.96175272538E+02  0.91754117806E+02 0.  0.
         13    1    3    3    0    0  0.29759807563E+02  0.77427323274E+00  0.17899836698E+02  0.34737025824E+02  0.10566000000E+00 0. -1.
         22    1    1    0    0    0  0.20061089248E+02 -0.13427904059E+02  0.15751476249E+02  0.28824727462E+02  0.00000000000E+00 0.  1.
</event>
<event>
 5    1  0.1691066E-003  0.9118800E+02  0.7818608E-02  0.1130116E+00
         25   -1    0    0    0    0  0.00000000000E+00  0.00000000000E+00  0.99999998245E-14  0.12500000000E+03  0.12500000000E+03 0.  0.
        -13    1    3    3    0    0 -0.30339099434E+02  0.20787393957E+02  0.11547438937E+02  0.38547778302E+02  0.10566000000E+00 0.  1.
         23    2    1    0    0    0  0.32531493438E+01 -0.23210129985E+02  0.19551069756E+02  0.94478901671E+02  0.89413228427E+02 0.  0.
         13    1    3    3    0    0  0.33592248778E+02 -0.43997523942E+02  0.80036308195E+01  0.55931123369E+02  0.10566000000E+00 0. -1.
         22    1    1    0    0    0 -0.32531493438E+01  0.23210129985E+02 -0.19551069756E+02  0.30521098329E+02  0.00000000000E+00 0. -1.
</event>
<event>
 5    1  0.1691066E-003  0.9118800E+02  0.7818608E-02  0.1130116E+00
         25   -1    0    0    0    0  0.00000000000E+00  0.00000000000E+00  0.99999998245E-14  0.12500000000E+03  0.12500000000E+03 0.  0.
        -13    1    3    3    0    0 -0.24320948624E+02  0.11706373167E+02  0.37223275596E+02  0.45979681652E+02  0.10566000000E+00 0. -1.
         23    2    1    0    0    0  0.14451572142E+02  0.24062330750E+02  0.89211011847E+01  0.95547839725E+02  0.90895324034E+02 0.  0.
         13    1    3    3    0    0  0.38772520766E+02  0.12355957583E+02 -0.28302174411E+02  0.49568158073E+02  0.10566000000E+00 0.  1.
         22    1    1    0    0    0 -0.14451572142E+02 -0.24062330750E+02 -0.89211011847E+01  0.29452160275E+02  0.00000000000E+00 0. -1.
</event>
<event>
 5    1  0.1691066E-003  0.9118800E+02  0.7818608E-02  0.1130116E+00
         25   -1    0    0    0    0  0.00000000000E+00  0.00000000000E+00  0.99999998245E-14  0.12500000000E+03  0.12500000000E+03 0.  0.
        -13    1    3    3    0    0  0.94223643039E+01 -0.48992630152E+02  0.20196406675E+02  0.53823459243E+02  0.10566000000E+00 0. -1.
         23    2    1    0    0    0 -0.78369456492E+01 -0.11455074974E+02  0.25983220149E+02  0.95542162519E+02  0.90887516358E+02 0.  0.
         13    1    3    3    0    0 -0.17259309953E+02  0.37537555178E+02  0.57868134737E+01  0.41718703276E+02  0.10566000000E+00 0.  1.
         22    1    1    0    0    0  0.78369456492E+01  0.11455074974E+02 -0.25983220149E+02  0.29457837481E+02  0.00000000000E+00 0. -1.
</event>
<event>
 5    1  0.1691066E-003  0.9118800E+02  0.7818608E-02  0.1130116E+00
         25   -1    0    0    0    0  0.00000000000E+00  0.00000000000E+00  0.99999998245E-14  0.12500000000E+03  0.12500000000E+03 0.  0.
        -13    1    3    3    0    0  0.89198607917E+01 -0.37028596825E+02 -0.25293493976E+02  0.45721470897E+02  0.10566000000E+00 0. -1.
         23    2    1    0    0    0 -0.15069266215E+02 -0.19481278037E+02  0.15279386171E+02  0.96016166230E+02  0.91537104813E+02 0.  0.
         13    1    3    3    0    0 -0.23989127007E+02  0.17547318789E+02  0.40572880147E+02  0.50294695334E+02  0.10566000000E+00 0.  1.
         22    1    1    0    0    0  0.15069266215E+02  0.19481278037E+02 -0.15279386171E+02  0.28983833770E+02  0.00000000000E+00 0.  1.
</event>
<event>
 5    1  0.1691066E-003  0.9118800E+02  0.7818608E-02  0.1130116E+00
         25   -1    0    0    0    0  0.00000000000E+00  0.00000000000E+00  0.99999998245E-14  0.12500000000E+03  0.12500000000E+03 0.  0.
        -13    1    3    3    0    0 -0.25609466916E+02 -0.40289617108E+02  0.30055719684E+02  0.56413256352E+02  0.10566000000E+00 0. -1.
         23    2    1    0    0    0  0.62995998035E+01 -0.25632532931E+02  0.10614493134E+02  0.96550410079E+02  0.92263766018E+02 0.  0.
         13    1    3    3    0    0  0.31909066720E+02  0.14657084177E+02 -0.19441226550E+02  0.40137153727E+02  0.10566000000E+00 0.  1.
         22    1    1    0    0    0 -0.62995998035E+01  0.25632532931E+02 -0.10614493134E+02  0.28449589921E+02  0.00000000000E+00 0. -1.
</event>
<event>
 5    1  0.1691066E-003  0.9118800E+02  0.7818608E-02  0.1130116E+00
         25   -1    0    0    0    0  0.00000000000E+00  0.00000000000E+00  0.99999998245E-14  0.12500000000E+03  0.12500000000E+03 0.  0.
        -13    1    3    3    0    0  0.37988896574E+02 -0.36020369058E+02  0.38701151190E+01  0.52493925411E+02  0.10566000000E+00 0. -1.
         23    2    1    0    0    0  0.70927185510E+01 -0.11681837527E+02  0.24529040702E+02  0.96920722548E+02  0.92764112872E+02 0.  0.
         13    1    3    3    0    0 -0.30896178023E+02  0.24338531531E+02  0.20658925583E+02  0.44426797137E+02  0.10566000000E+00 0.  1.
         22    1    1    0    0    0 -0.70927185510E+01  0.11681837527E+02 -0.24529040702E+02  0.28079277452E+02  0.00000000000E+00 0.  1.
</event>
<event>
 4    1  0.1691066E-003  0.9118800E+02  0.7818608E-02  0.1130116E+00
         25   -1    0    0    0    0  0.00000000000E+00  0.00000000000E+00  0.99999998245E-14  0.12500000000E+03  0.12500000000E+03 0.  0.
        -13    1    1    0    0    0 -0.40991948484E+01  0.15978265360E+01  0.54397093376E+01  0.69970029125E+01  0.10566000000E+00 0. -1.
         13    1    1    0    0    0  0.42884971545E+02 -0.43168813827E+02  0.38148611278E+00  0.60850833744E+02  0.10566000000E+00 0.  1.
         22    1    1    0    0    0 -0.38785776697E+02  0.41570987291E+02 -0.58211954504E+01  0.57152163343E+02  0.00000000000E+00 0.  1.
</event>
<event>
 5    1  0.1691066E-003  0.9118800E+02  0.7818608E-02  0.1130116E+00
         25   -1    0    0    0    0  0.00000000000E+00  0.00000000000E+00  0.99999998245E-14  0.12500000000E+03  0.12500000000E+03 0.  0.
        -13    1    3    3    0    0 -0.31878820362E+02 -0.10012100406E+02  0.87439214279E+01  0.34539378515E+02  0.10566000000E+00 0.  1.
         23    2    1    0    0    0  0.24146865491E+02  0.10804370941E+02 -0.92795524372E+01  0.96965813051E+02  0.92824852613E+02 0.  0.
         13    1    3    3    0    0  0.56025685853E+02  0.20816471346E+02 -0.18023473865E+02  0.62426434536E+02  0.10566000000E+00 0. -1.
         22    1    1    0    0    0 -0.24146865491E+02 -0.10804370941E+02  0.92795524372E+01  0.28034186949E+02  0.00000000000E+00 0. -1.
</event>
<event>
 5    1  0.1691066E-003  0.9118800E+02  0.7818608E-02  0.1130116E+00
         25   -1    0    0    0    0  0.00000000000E+00  0.00000000000E+00  0.99999998245E-14  0.12500000000E+03  0.12500000000E+03 0.  0.
        -13    1    3    3    0    0 -0.41733444231E+02 -0.42216899966E+02  0.37845734082E+01  0.59483452909E+02  0.10566000000E+00 0. -1.
         23    2    1    0    0    0 -0.14251881695E+02 -0.20044251874E+02  0.14580947149E+02  0.96408179757E+02  0.92070869114E+02 0.  0.
         13    1    3    3    0    0  0.27481562536E+02  0.22172648092E+02  0.10796373740E+02  0.36924726848E+02  0.10566000000E+00 0.  1.
         22    1    1    0    0    0  0.14251881695E+02  0.20044251874E+02 -0.14580947149E+02  0.28591820243E+02  0.00000000000E+00 0. -1.
</event>
<event>
 5    1  0.1691066E-003  0.9118800E+02  0.7818608E-02  0.1130116E+00
         25   -1    0    0    0    0  0.00000000000E+00  0.00000000000E+00  0.99999998245E-14  0.12500000000E+03  0.12500000000E+03 0.  0.
        -13    1    3    3    0    0 -0.39043309120E+02 -0.35937082195E+02 -0.98177860831E+01  0.53965303218E+02  0.10566000000E+00 0.  1.
         23    2    1    0    0    0 -0.19487023259E+02 -0.21962459142E+02 -0.28249604230E+02  0.84255260141E+02  0.73748322253E+02 0.  0.
         13    1    3    3    0    0  0.19556285861E+02  0.13974623054E+02 -0.18431818147E+02  0.30289956923E+02  0.10566000000E+00 0. -1.
         22    1    1    0    0    0  0.19487023259E+02  0.21962459142E+02  0.28249604230E+02  0.40744739859E+02  0.00000000000E+00 0.  1.
</event>
<event>
 5    1  0.1691066E-003  0.9118800E+02  0.7818608E-02  0.1130116E+00
         25   -1    0    0    0    0  0.00000000000E+00  0.00000000000E+00  0.99999998245E-14  0.12500000000E+03  0.12500000000E+03 0.  0.
        -13    1    3    3    0    0 -0.15952375303E+02 -0.26031124485E+02  0.20921779254E+02  0.37011210882E+02  0.10566000000E+00 0.  1.
         23    2    1    0    0    0  0.14186624150E+02  0.23224732598E+02  0.22849531627E+01  0.97689388143E+02  0.93794173784E+02 0.  0.
         13    1    3    3    0    0  0.30138999453E+02  0.49255857083E+02 -0.18636826091E+02  0.60678177262E+02  0.10566000000E+00 0. -1.
         22    1    1    0    0    0 -0.14186624150E+02 -0.23224732598E+02 -0.22849531627E+01  0.27310611857E+02  0.00000000000E+00 0. -1.
</event>
<event>
 5    1  0.1691066E-003  0.9118800E+02  0.7818608E-02  0.1130116E+00
         25   -1    0    0    0    0  0.00000000000E+00  0.00000000000E+00  0.99999998245E-14  0.12500000000E+03  0.12500000000E+03 0.  0.
        -13    1    3    3    0    0  0.31465768750E+02 -0.98239060422E+01  0.21436821066E+02  0.39321141825E+02  0.10566000000E+00 0. -1.
         23    2    1    0    0    0 -0.24071273940E+02 -0.94036279587E+01  0.14704883327E+02  0.95266381963E+02  0.90507433346E+02 0.  0.
         13    1    3    3    0    0 -0.55537042690E+02  0.42027808347E+00 -0.67319377384E+01  0.55945240139E+02  0.10566000000E+00 0.  1.
         22    1    1    0    0    0  0.24071273940E+02  0.94036279587E+01 -0.14704883327E+02  0.29733618037E+02  0.00000000000E+00 0.  1.
</event>
<event>
 5    1  0.1691066E-003  0.9118800E+02  0.7818608E-02  0.1130116E+00
         25   -1    0    0    0    0  0.00000000000E+00  0.00000000000E+00  0.99999998245E-14  0.12500000000E+03  0.12500000000E+03 0.  0.
        -13    1    3    3    0    0 -0.54324679258E+02  0.15636386603E+01  0.34503716312E+01  0.54456698126E+02  0.10566000000E+00 0.  1.
         23    2    1    0    0    0 -0.18271555711E+02  0.36160938148E+01  0.22906856096E+02  0.95476281759E+02  0.90796863600E+02 0.  0.
         13    1    3    3    0    0  0.36053123547E+02  0.20524551545E+01  0.19456484465E+02  0.41019583633E+02  0.10566000000E+00 0. -1.
         22    1    1    0    0    0  0.18271555711E+02 -0.36160938148E+01 -0.22906856096E+02  0.29523718241E+02  0.00000000000E+00 0.  1.
</event>
<event>
 5    1  0.1691066E-003  0.9118800E+02  0.7818608E-02  0.1130116E+00
         25   -1    0    0    0    0  0.00000000000E+00  0.00000000000E+00  0.99999998245E-14  0.12500000000E+03  0.12500000000E+03 0.  0.
        -13    1    3    3    0    0  0.66698093252E+01 -0.22865141835E+02 -0.22710172124E+02  0.32909939980E+02  0.10566000000E+00 0. -1.
         23    2    1    0    0    0 -0.19867095554E+02  0.41134662387E+01  0.24354781990E+02  0.93301774560E+02  0.87752171711E+02 0.  0.
         13    1    3    3    0    0 -0.26536904879E+02  0.26978608073E+02  0.47064954114E+02  0.60391834580E+02  0.10566000000E+00 0.  1.
         22    1    1    0    0    0  0.19867095554E+02 -0.41134662387E+01 -0.24354781990E+02  0.31698225440E+02  0.00000000000E+00 0.  1.
</event>
<event>
 5    1  0.1691066E-003  0.9118800E+02  0.7818608E-02  0.1130116E+00
         25   -1    0    0    0    0  0.00000000000E+00  0.00000000000E+00  0.99999998245E-14  0.12500000000E+03  0.12500000000E+03 0.  0.
        -13    1    3    3    0    0  0.33220166815E+01  0.18292619062E+02  0.50675758877E+02  0.53978694026E+02  0.10566000000E+00 0. -1.
         23    2    1    0    0    0  0.21824105127E+02 -0.14908923311E+01  0.29021640873E+02  0.88657601022E+02  0.80866558326E+02 0.  0.
         13    1    3    3    0    0  0.18502088445E+02 -0.19783511393E+02 -0.21654118004E+02  0.34678906996E+02  0.10566000000E+00 0.  1.
         22    1    1    0    0    0 -0.21824105127E+02  0.14908923311E+01 -0.29021640873E+02  0.36342398978E+02  0.00000000000E+00 0. -1.
</event>
<event>
 5    1  0.1691066E-003  0.9118800E+02  0.7818608E-02  0.1130116E+00
         25   -1    0    0    0    0  0.00000000000E+00  0.00000000000E+00  0.99999998245E-14  0.12500000000E+03  0.12500000000E+03 0.  0.
        -13    1    3    3    0    0  0.94440012689E+01  0.46719724527E+02  0.13156949514E+00  0.47664979748E+02  0.10566000000E+00 0. -1.
         23    2    1    0    0    0  0.33688334068E+01  0.26641220130E+01  0.25686447758E+02  0.98956955188E+02  0.95468522546E+02 0.  0.
         13    1    3    3    0    0 -0.60751678620E+01 -0.44055602514E+02  0.25554878263E+02  0.51291975440E+02  0.10566000000E+00 0.  1.
         22    1    1    0    0    0 -0.33688334068E+01 -0.26641220130E+01 -0.25686447758E+02  0.26043044812E+02  0.00000000000E+00 0.  1.
</event>
<event>
 5    1  0.1691066E-003  0.9118800E+02  0.7818608E-02  0.1130116E+00
         25   -1    0    0    0    0  0.00000000000E+00  0.00000000000E+00  0.99999998245E-14  0.12500000000E+03  0.12500000000E+03 0.  0.
        -13    1    3    3    0    0  0.34926010209E+01 -0.13477098713E+02 -0.39808501121E+02  0.42172957889E+02  0.10566000000E+00 0.  1.
         23    2    1    0    0    0  0.24011933926E+02  0.16332394167E+02 -0.16690857125E-01  0.95960021545E+02  0.91460403379E+02 0.  0.
         13    1    3    3    0    0  0.20519332905E+02  0.29809492880E+02  0.39791810264E+02  0.53787063656E+02  0.10566000000E+00 0. -1.
         22    1    1    0    0    0 -0.24011933926E+02 -0.16332394167E+02  0.16690857125E-01  0.29039978455E+02  0.00000000000E+00 0. -1.
</event>
<event>
 5    1  0.1691066E-003  0.9118800E+02  0.7818608E-02  0.1130116E+00
         25   -1    0    0    0    0  0.00000000000E+00  0.00000000000E+00  0.99999998245E-14  0.12500000000E+03  0.12500000000E+03 0.  0.
        -13    1    3    3    0    0 -0.32988691631E+02 -0.11057700945E+02  0.28812027798E+02  0.45173782613E+02  0.10566000000E+00 0.  1.
         23    2    1    0    0    0  0.14626034241E+02 -0.28496056790E+01  0.27749684959E+02  0.93502600973E+02  0.88037777364E+02 0.  0.
         13    1    3    3    0    0  0.47614725871E+02  0.82080952660E+01 -0.10623428390E+01  0.48328818360E+02  0.10566000000E+00 0. -1.
         22    1    1    0    0    0 -0.14626034241E+02  0.28496056790E+01 -0.27749684959E+02  0.31497399027E+02  0.00000000000E+00 0.  1.
</event>
<event>
 5    1  0.1691066E-003  0.9118800E+02  0.7818608E-02  0.1130116E+00
         25   -1    0    0    0    0  0.00000000000E+00  0.00000000000E+00  0.99999998245E-14  0.12500000000E+03  0.12500000000E+03 0.  0.
        -13    1    3    3    0    0 -0.12536418066E+02 -0.30451006221E+02 -0.35600110327E+02  0.48495407795E+02  0.10566000000E+00 0. -1.
         23    2    1    0    0    0 -0.82801733179E+01  0.12633892317E+02 -0.29015464360E+02  0.92288019362E+02  0.86296030271E+02 0.  0.
         13    1    3    3    0    0  0.42562447485E+01  0.43084898537E+02  0.65846459674E+01  0.43792611567E+02  0.10566000000E+00 0.  1.
         22    1    1    0    0    0  0.82801733179E+01 -0.12633892317E+02  0.29015464360E+02  0.32711980638E+02  0.00000000000E+00 0. -1.
</event>
<event>
 5    1  0.1691066E-003  0.9118800E+02  0.7818608E-02  0.1130116E+00
         25   -1    0    0    0    0  0.00000000000E+00  0.00000000000E+00  0.99999998245E-14  0.12500000000E+03  0.12500000000E+03 0.  0.
        -13    1    3    3    0    0  0.15642798386E+02  0.11150035938E+02  0.38668638843E+02  0.43177485299E+02  0.10566000000E+00 0.  1.
         23    2    1    0    0    0  0.13242945216E+02 -0.26372472148E+02  0.24435312719E+01  0.95388283902E+02  0.90675636064E+02 0.  0.
         13    1    3    3    0    0 -0.23998531700E+01 -0.37522508085E+02 -0.36225107571E+02  0.52210798604E+02  0.10566000000E+00 0. -1.
         22    1    1    0    0    0 -0.13242945216E+02  0.26372472148E+02 -0.24435312719E+01  0.29611716098E+02  0.00000000000E+00 0. -1.
</event>
<event>
 5    1  0.1691066E-003  0.9118800E+02  0.7818608E-02  0.1130116E+00
         25   -1    0    0    0    0  0.00000000000E+00  0.00000000000E+00  0.99999998245E-14  0.12500000000E+03  0.12500000000E+03 0.  0.
        -13    1    3    3    0    0 -0.32043818415E+02 -0.15979598531E+02  0.44613800777E+02  0.57206260598E+02  0.10566000000E+00 0.  1.
         23    2    1    0    0    0 -0.23853793603E+02 -0.17294892655E+02  0.83941538795E+01  0.94363769805E+02  0.89252128553E+02 0.  0.
         13    1    3    3    0    0  0.81900248122E+01 -0.13152941241E+01 -0.36219646897E+02  0.37157509207E+02  0.10566000000E+00 0. -1.
         22    1    1    0    0    0  0.23853793603E+02  0.17294892655E+02 -0.83941538795E+01  0.30636230195E+02  0.00000000000E+00 0.  1.
</event>
<event>
 5    1  0.1691066E-003  0.9118800E+02  0.7818608E-02  0.1130116E+00
         25   -1    0    0    0    0  0.00000000000E+00  0.00000000000E+00  0.99999998245E-14  0.12500000000E+03  0.12500000000E+03 0.  0.
        -13    1    3    3    0    0  0.12436143730E+02 -0.27017451389E+02 -0.47605283783E+01  0.30120991765E+02  0.10566000000E+00 0. -1.
         23    2    1    0    0    0 -0.17701415053E+02  0.22292869923E+02  0.16966583931E+02  0.91861244523E+02  0.85675615730E+02 0.  0.
         13    1    3    3    0    0 -0.30137558783E+02  0.49310321312E+02  0.21727112310E+02  0.61740252758E+02  0.10566000000E+00 0.  1.
         22    1    1    0    0    0  0.17701415053E+02 -0.22292869923E+02 -0.16966583931E+02  0.33138755477E+02  0.00000000000E+00 0.  1.
</event>
<event>
 5    1  0.1691066E-003  0.9118800E+02  0.7818608E-02  0.1130116E+00
         25   -1    0    0    0    0  0.00000000000E+00  0.00000000000E+00  0.99999998245E-14  0.12500000000E+03  0.12500000000E+03 0.  0.
        -13    1    3    3    0    0 -0.47307045601E+02 -0.16904782728E+01  0.35280968723E+02  0.59038734729E+02  0.10566000000E+00 0.  1.
         23    2    1    0    0    0 -0.11398558822E+02  0.18079018994E+01  0.26389976630E+02  0.96196762005E+02  0.91783389026E+02 0.  0.
         13    1    3    3    0    0  0.35908486779E+02  0.34983801723E+01 -0.88909920934E+01  0.37158027276E+02  0.10566000000E+00 0. -1.
         22    1    1    0    0    0  0.11398558822E+02 -0.18079018994E+01 -0.26389976630E+02  0.28803237995E+02  0.00000000000E+00 0.  1.
</event>
<event>
 5    1  0.1691066E-003  0.9118800E+02  0.7818608E-02  0.1130116E+00
         25   -1    0    0    0    0  0.00000000000E+00  0.00000000000E+00  0.99999998245E-14  0.12500000000E+03  0.12500000000E+03 0.  0.
        -13    1    3    3    0    0  0.11862352919E+02 -0.29394909534E+02 -0.14647629577E+02  0.34919054104E+02  0.10566000000E+00 0. -1.
         23    2    1    0    0    0 -0.70452378668E+01  0.13278037245E+02  0.24779910420E+02  0.96017494758E+02  0.91538918988E+02 0.  0.
         13    1    3    3    0    0 -0.18907590786E+02  0.42672946779E+02  0.39427539997E+02  0.61098440654E+02  0.10566000000E+00 0.  1.
         22    1    1    0    0    0  0.70452378668E+01 -0.13278037245E+02 -0.24779910420E+02  0.28982505242E+02  0.00000000000E+00 0.  1.
</event>
<event>
 5    1  0.1691066E-003  0.9118800E+02  0.7818608E-02  0.1130116E+00
         25   -1    0    0    0    0  0.00000000000E+00  0.00000000000E+00  0.99999998245E-14  0.12500000000E+03  0.12500000000E+03 0.  0.
        -13    1    3    3    0    0 -0.77162438807E+01  0.21794844403E+01  0.48773145063E+02  0.49427941647E+02  0.10566000000E+00 0.  1.
         23    2    1    0    0    0 -0.78991836360E+01  0.26802445147E+02  0.10073257811E+02  0.95297496892E+02  0.90550396040E+02 0.  0.
         13    1    3    3    0    0 -0.18293975527E+00  0.24622960707E+02 -0.38699887253E+02  0.45869555245E+02  0.10566000000E+00 0. -1.
         22    1    1    0    0    0  0.78991836360E+01 -0.26802445147E+02 -0.10073257811E+02  0.29702503108E+02  0.00000000000E+00 0.  1.
</event>
<event>
 5    1  0.1691066E-003  0.9118800E+02  0.7818608E-02  0.1130116E+00
         25   -1    0    0    0    0  0.00000000000E+00  0.00000000000E+00  0.99999998245E-14  0.12500000000E+03  0.12500000000E+03 0.  0.
        -13    1    3    3    0    0 -0.36324181116E+02  0.10583376882E+02  0.16492448189E+02  0.41273066415E+02  0.10566000000E+00 0. -1.
         23    2    1    0    0    0 -0.11638118324E+02 -0.19996420827E+02 -0.19634092944E+02  0.94655309365E+02  0.89659507813E+02 0.  0.
         13    1    3    3    0    0  0.24686062792E+02 -0.30579797709E+02 -0.36126541133E+02  0.53382242950E+02  0.10566000000E+00 0.  1.
         22    1    1    0    0    0  0.11638118324E+02  0.19996420827E+02  0.19634092944E+02  0.30344690635E+02  0.00000000000E+00 0.  1.
</event>
<event>
 5    1  0.1691066E-003  0.9118800E+02  0.7818608E-02  0.1130116E+00
         25   -1    0    0    0    0  0.00000000000E+00  0.00000000000E+00  0.99999998245E-14  0.12500000000E+03  0.12500000000E+03 0.  0.
        -13    1    3    3    0    0 -0.22817315807E+02  0.29804314982E+02  0.31877695833E+02  0.49245565768E+02  0.10566000000E+00 0. -1.
         23    2    1    0    0    0  0.12664795717E+02  0.36824657930E+00  0.26456513143E+02  0.95666064979E+02  0.91057763232E+02 0.  0.
         13    1    3    3    0    0  0.35482111524E+02 -0.29436068402E+02 -0.54211826892E+01  0.46420499211E+02  0.10566000000E+00 0.  1.
         22    1    1    0    0    0 -0.12664795717E+02 -0.36824657930E+00 -0.26456513143E+02  0.29333935021E+02  0.00000000000E+00 0. -1.
</event>
<event>
 5    1  0.1691066E-003  0.9118800E+02  0.7818608E-02  0.1130116E+00
         25   -1    0    0    0    0  0.00000000000E+00  0.00000000000E+00  0.99999998245E-14  0.12500000000E+03  0.12500000000E+03 0.  0.
        -13    1    3    3    0    0  0.23606392923E+02 -0.32563900547E+02 -0.32918631004E+02  0.51974193951E+02  0.10566000000E+00 0. -1.
         23    2    1    0    0    0 -0.55965050658E+01 -0.30373029836E+02 -0.27906575574E+01  0.93989847147E+02  0.88726894382E+02 0.  0.
         13    1    3    3    0    0 -0.29202897988E+02  0.21908707105E+01  0.30127973447E+02  0.42015653196E+02  0.10566000000E+00 0.  1.
         22    1    1    0    0    0  0.55965050658E+01  0.30373029836E+02  0.27906575574E+01  0.31010152853E+02  0.00000000000E+00 0. -1.
</event>
<event>
 5    1  0.1691066E-003  0.9118800E+02  0.7818608E-02  0.1130116E+00
         25   -1    0    0    0    0  0.00000000000E+00  0.00000000000E+00  0.99999998245E-14  0.12500000000E+03  0.12500000000E+03 0.  0.
        -13    1    3    3    0    0  0.24600543171E+02 -0.26978698704E+02 -0.24793605651E+02  0.44133558131E+02  0.10566000000E+00 0.  1.
         23    2    1    0    0    0 -0.48989788075E+01  0.17288930418E+02 -0.20848542649E+02  0.97476031556E+02  0.93509400003E+02 0.  0.
         13    1    3    3    0    0 -0.29499521978E+02  0.44267629121E+02  0.39450630027E+01  0.53342473425E+02  0.10566000000E+00 0. -1.
         22    1    1    0    0    0  0.48989788075E+01 -0.17288930418E+02  0.20848542649E+02  0.27523968444E+02  0.00000000000E+00 0. -1.
</event>
<event>
 5    1  0.1691066E-003  0.9118800E+02  0.7818608E-02  0.1130116E+00
         25   -1    0    0    0    0  0.00000000000E+00  0.00000000000E+00  0.99999998245E-14  0.12500000000E+03  0.12500000000E+03 0.  0.
        -13    1    3    3    0    0 -0.12888451662E+02 -0.84694090233E+01 -0.57042282816E+02  0.59090407583E+02  0.10566000000E+00 0.  1.
         23    2    1    0    0    0  0.25905421267E+01  0.59605458470E+01 -0.34034680661E+02  0.90350346279E+02  0.83442115084E+02 0.  0.
         13    1    3    3    0    0  0.15478993789E+02  0.14429954870E+02  0.23007602155E+02  0.31259938696E+02  0.10566000000E+00 0. -1.
         22    1    1    0    0    0 -0.25905421267E+01 -0.59605458470E+01  0.34034680661E+02  0.34649653721E+02  0.00000000000E+00 0.  1.
</event>
<event>
 5    1  0.1691066E-003  0.9118800E+02  0.7818608E-02  0.1130116E+00
         25   -1    0    0    0    0  0.00000000000E+00  0.00000000000E+00  0.99999998245E-14  0.12500000000E+03  0.12500000000E+03 0.  0.
        -13    1    3    3    0    0 -0.30217862777E+02 -0.26276991926E+01 -0.17679959395E+02  0.35108633726E+02  0.10566000000E+00 0. -1.
         23    2    1    0    0    0  0.25971328786E+02 -0.14791393889E+02 -0.51380965531E+00  0.95107538534E+02  0.90287787843E+02 0.  0.
         13    1    3    3    0    0  0.56189191564E+02 -0.12163694697E+02  0.17166149740E+02  0.59998904808E+02  0.10566000000E+00 0.  1.
         22    1    1    0    0    0 -0.25971328786E+02  0.14791393889E+02  0.51380965531E+00  0.29892461466E+02  0.00000000000E+00 0.  1.
</event>
<event>
 5    1  0.1691066E-003  0.9118800E+02  0.7818608E-02  0.1130116E+00
         25   -1    0    0    0    0  0.00000000000E+00  0.00000000000E+00  0.99999998245E-14  0.12500000000E+03  0.12500000000E+03 0.  0.
        -13    1    3    3    0    0 -0.13557045667E+02  0.16030888202E+02  0.54010751544E+02  0.57947867175E+02  0.10566000000E+00 0. -1.
         23    2    1    0    0    0 -0.23994053681E+02  0.15048163791E+02  0.32408522299E+02  0.81959621713E+02  0.69748874028E+02 0.  0.
         13    1    3    3    0    0 -0.10437008014E+02 -0.98272441088E+00 -0.21602229246E+02  0.24011754537E+02  0.10566000000E+00 0.  1.
         22    1    1    0    0    0  0.23994053681E+02 -0.15048163791E+02 -0.32408522299E+02  0.43040378287E+02  0.00000000000E+00 0. -1.
</event>
<event>
 5    1  0.1691066E-003  0.9118800E+02  0.7818608E-02  0.1130116E+00
         25   -1    0    0    0    0  0.00000000000E+00  0.00000000000E+00  0.99999998245E-14  0.12500000000E+03  0.12500000000E+03 0.  0.
        -13    1    3    3    0    0  0.36409130820E+01 -0.12991607929E+02  0.52210837155E+02  0.53926067955E+02  0.10566000000E+00 0.  1.
         23    2    1    0    0    0 -0.17801654173E+02 -0.16065217107E+02  0.15831663873E+02  0.96266192856E+02  0.91877898398E+02 0.  0.
         13    1    3    3    0    0 -0.21442567255E+02 -0.30736091779E+01 -0.36379173282E+02  0.42340124901E+02  0.10566000000E+00 0. -1.
         22    1    1    0    0    0  0.17801654173E+02  0.16065217107E+02 -0.15831663873E+02  0.28733807144E+02  0.00000000000E+00 0.  1.
</event>
<event>
 5    1  0.1691066E-003  0.9118800E+02  0.7818608E-02  0.1130116E+00
         25   -1    0    0    0    0  0.00000000000E+00  0.00000000000E+00  0.99999998245E-14  0.12500000000E+03  0.12500000000E+03 0.  0.
        -13    1    3    3    0    0 -0.11237885181E+02  0.32573824966E+02  0.18508932935E+01  0.34507696334E+02  0.10566000000E+00 0.  1.
         23    2    1    0    0    0  0.87126295466E+01 -0.24711240525E+02 -0.11115036264E+02  0.96537755657E+02  0.92246620069E+02 0.  0.
         13    1    3    3    0    0  0.19950514727E+02 -0.57285065491E+02 -0.12965929558E+02  0.62030059323E+02  0.10566000000E+00 0. -1.
         22    1    1    0    0    0 -0.87126295466E+01  0.24711240525E+02  0.11115036264E+02  0.28462244343E+02  0.00000000000E+00 0. -1.
</event>
<event>
 5    1  0.1691066E-003  0.9118800E+02  0.7818608E-02  0.1130116E+00
         25   -1    0    0    0    0  0.00000000000E+00  0.00000000000E+00  0.99999998245E-14  0.12500000000E+03  0.12500000000E+03 0.  0.
        -13    1    3    3    0    0  0.24126853007E+02 -0.45938973312E+02 -0.81409710907E+01  0.52524098082E+02  0.10566000000E+00 0.  1.
         23    2    1    0    0    0 -0.12780939910E+02 -0.25751029188E+02  0.31451632793E+01  0.96080110974E+02  0.91624384001E+02 0.  0.
         13    1    3    3    0    0 -0.36907792917E+02  0.20187944124E+02  0.11286134370E+02  0.43556012892E+02  0.10566000000E+00 0. -1.
         22    1    1    0    0    0  0.12780939910E+02  0.25751029188E+02 -0.31451632793E+01  0.28919889026E+02  0.00000000000E+00 0.  1.
</event>
<event>
 5    1  0.1691066E-003  0.9118800E+02  0.7818608E-02  0.1130116E+00
         25   -1    0    0    0    0  0.00000000000E+00  0.00000000000E+00  0.99999998245E-14  0.12500000000E+03  0.12500000000E+03 0.  0.
        -13    1    3    3    0    0 -0.44674261523E+02 -0.20305365354E+01  0.15365889162E+02  0.47286725781E+02  0.10566000000E+00 0. -1.
         23    2    1    0    0    0 -0.16322493022E+02 -0.86520362182E+01 -0.23031911169E+02  0.95474579744E+02  0.90794520408E+02 0.  0.
         13    1    3    3    0    0  0.28351768502E+02 -0.66214996828E+01 -0.38397800332E+02  0.48187853963E+02  0.10566000000E+00 0.  1.
         22    1    1    0    0    0  0.16322493022E+02  0.86520362182E+01  0.23031911169E+02  0.29525420256E+02  0.00000000000E+00 0.  1.
</event>
<event>
 5    1  0.1691066E-003  0.9118800E+02  0.7818608E-02  0.1130116E+00
         25   -1    0    0    0    0  0.00000000000E+00  0.00000000000E+00  0.99999998245E-14  0.12500000000E+03  0.12500000000E+03 0.  0.
        -13    1    3    3    0    0 -0.50448643293E+02 -0.26072338376E+00 -0.30440436332E+02  0.58921684590E+02  0.10566000000E+00 0.  1.
         23    2    1    0    0    0 -0.18649922071E+02  0.13796429439E+02 -0.17183198136E+02  0.96130927333E+02  0.91693684805E+02 0.  0.
         13    1    3    3    0    0  0.31798721222E+02  0.14057152823E+02  0.13257238196E+02  0.37209242743E+02  0.10566000000E+00 0. -1.
         22    1    1    0    0    0  0.18649922071E+02 -0.13796429439E+02  0.17183198136E+02  0.28869072667E+02  0.00000000000E+00 0.  1.
</event>
<event>
 5    1  0.1691066E-003  0.9118800E+02  0.7818608E-02  0.1130116E+00
         25   -1    0    0    0    0  0.00000000000E+00  0.00000000000E+00  0.99999998245E-14  0.12500000000E+03  0.12500000000E+03 0.  0.
        -13    1    3    3    0    0 -0.20669692909E+02 -0.16004322016E+02  0.31363217678E+02  0.40829365845E+02  0.10566000000E+00 0.  1.
         23    2    1    0    0    0 -0.17006280171E+02  0.22052283618E+02 -0.83218266115E+01  0.95935079973E+02  0.91426309087E+02 0.  0.
         13    1    3    3    0    0  0.36634127386E+01  0.38056605633E+02 -0.39685044290E+02  0.55105714128E+02  0.10566000000E+00 0. -1.
         22    1    1    0    0    0  0.17006280171E+02 -0.22052283618E+02  0.83218266115E+01  0.29064920027E+02  0.00000000000E+00 0.  1.
</event>
<event>
 5    1  0.1691066E-003  0.9118800E+02  0.7818608E-02  0.1130116E+00
         25   -1    0    0    0    0  0.00000000000E+00  0.00000000000E+00  0.99999998245E-14  0.12500000000E+03  0.12500000000E+03 0.  0.
        -13    1    3    3    0    0  0.53749910223E+01  0.14453260442E+02  0.59832737440E+02  0.61787983455E+02  0.10566000000E+00 0.  1.
         23    2    1    0    0    0  0.89654141228E+01  0.50286667124E+01  0.28606290843E+02  0.94602861728E+02  0.89586357399E+02 0.  0.
         13    1    3    3    0    0  0.35904231005E+01 -0.94245937300E+01 -0.31226446596E+02  0.32814878273E+02  0.10566000000E+00 0. -1.
         22    1    1    0    0    0 -0.89654141228E+01 -0.50286667124E+01 -0.28606290843E+02  0.30397138272E+02  0.00000000000E+00 0.  1.
</event>
<event>
 5    1  0.1691066E-003  0.9118800E+02  0.7818608E-02  0.1130116E+00
         25   -1    0    0    0    0  0.00000000000E+00  0.00000000000E+00  0.99999998245E-14  0.12500000000E+03  0.12500000000E+03 0.  0.
        -13    1    3    3    0    0 -0.33304501110E+02 -0.89656164414E+01  0.29706418707E+02  0.45519825887E+02  0.10566000000E+00 0. -1.
         23    2    1    0    0    0 -0.21803178643E+02 -0.15423810366E+02 -0.16523357015E+02  0.93594684332E+02  0.88168424524E+02 0.  0.
         13    1    3    3    0    0  0.11501322466E+02 -0.64581939244E+01 -0.46229775722E+02  0.48074858445E+02  0.10566000000E+00 0.  1.
         22    1    1    0    0    0  0.21803178643E+02  0.15423810366E+02  0.16523357015E+02  0.31405315668E+02  0.00000000000E+00 0. -1.
</event>
<event>
 5    1  0.1691066E-003  0.9118800E+02  0.7818608E-02  0.1130116E+00
         25   -1    0    0    0    0  0.00000000000E+00  0.00000000000E+00  0.99999998245E-14  0.12500000000E+03  0.12500000000E+03 0.  0.
        -13    1    3    3    0    0  0.46696484220E+02  0.37176290341E+02  0.56725472420E+01  0.59956877489E+02  0.10566000000E+00 0. -1.
         23    2    1    0    0    0  0.24552303271E+02  0.12044421861E+02 -0.85496784939E+01  0.96347239291E+02  0.91988096093E+02 0.  0.
         13    1    3    3    0    0 -0.22144180949E+02 -0.25131868479E+02 -0.14222225736E+02  0.36390361802E+02  0.10566000000E+00 0.  1.
         22    1    1    0    0    0 -0.24552303271E+02 -0.12044421861E+02  0.85496784939E+01  0.28652760709E+02  0.00000000000E+00 0. -1.
</event>
<event>
 5    1  0.1691066E-003  0.9118800E+02  0.7818608E-02  0.1130116E+00
         25   -1    0    0    0    0  0.00000000000E+00  0.00000000000E+00  0.99999998245E-14  0.12500000000E+03  0.12500000000E+03 0.  0.
        -13    1    3    3    0    0 -0.57868967954E+02  0.11451261452E+02  0.36889525404E+01  0.59106415691E+02  0.10566000000E+00 0. -1.
         23    2    1    0    0    0 -0.27625063773E+02 -0.68020240807E+01 -0.63889373801E+01  0.95841292880E+02  0.91297991325E+02 0.  0.
         13    1    3    3    0    0  0.30243904181E+02 -0.18253285532E+02 -0.10077889920E+02  0.36734877190E+02  0.10566000000E+00 0.  1.
         22    1    1    0    0    0  0.27625063773E+02  0.68020240807E+01  0.63889373801E+01  0.29158707120E+02  0.00000000000E+00 0. -1.
</event>
<event>
 5    1  0.1691066E-003  0.9118800E+02  0.7818608E-02  0.1130116E+00
         25   -1    0    0    0    0  0.00000000000E+00  0.00000000000E+00  0.99999998245E-14  0.12500000000E+03  0.12500000000E+03 0.  0.
        -13    1    3    3    0    0  0.29694856773E+01  0.22110859368E+02 -0.32501645447E+02  0.39421771498E+02  0.10566000000E+00 0. -1.
         23    2    1    0    0    0 -0.68509134363E+01 -0.27622197709E+02 -0.12447172296E+02  0.93937918302E+02  0.88653705933E+02 0.  0.
         13    1    3    3    0    0 -0.98203991136E+01 -0.49733057078E+02  0.20054473151E+02  0.54516146805E+02  0.10566000000E+00 0.  1.
         22    1    1    0    0    0  0.68509134363E+01  0.27622197709E+02  0.12447172296E+02  0.31062081698E+02  0.00000000000E+00 0.  1.
</event>
<event>
 5    1  0.1691066E-003  0.9118800E+02  0.7818608E-02  0.1130116E+00
         25   -1    0    0    0    0  0.00000000000E+00  0.00000000000E+00  0.99999998245E-14  0.12500000000E+03  0.12500000000E+03 0.  0.
        -13    1    3    3    0    0  0.30836090420E+02 -0.21375654827E+02 -0.16164833645E+00  0.37520932636E+02  0.10566000000E+00 0.  1.
         23    2    1    0    0    0 -0.17329215232E+02 -0.14519222361E+01  0.24315796055E+02  0.95105724351E+02  0.90285276141E+02 0.  0.
         13    1    3    3    0    0 -0.48165305652E+02  0.19923732591E+02  0.24477444392E+02  0.57584791715E+02  0.10566000000E+00 0. -1.
         22    1    1    0    0    0  0.17329215232E+02  0.14519222361E+01 -0.24315796055E+02  0.29894275649E+02  0.00000000000E+00 0. -1.
</event>
<event>
 5    1  0.1691066E-003  0.9118800E+02  0.7818608E-02  0.1130116E+00
         25   -1    0    0    0    0  0.00000000000E+00  0.00000000000E+00  0.99999998245E-14  0.12500000000E+03  0.12500000000E+03 0.  0.
        -13    1    3    3    0    0  0.63210475209E+01 -0.16785541508E+02 -0.31737449168E+02  0.36455272447E+02  0.10566000000E+00 0. -1.
         23    2    1    0    0    0  0.85743127650E+01  0.26109925699E+02  0.94234052055E+01  0.95947502258E+02  0.91443291523E+02 0.  0.
         13    1    3    3    0    0  0.22532652440E+01  0.42895467206E+02  0.41160854373E+02  0.59492229811E+02  0.10566000000E+00 0.  1.
         22    1    1    0    0    0 -0.85743127650E+01 -0.26109925699E+02 -0.94234052055E+01  0.29052497742E+02  0.00000000000E+00 0.  1.
</event>
<event>
 5    1  0.1691066E-003  0.9118800E+02  0.7818608E-02  0.1130116E+00
         25   -1    0    0    0    0  0.00000000000E+00  0.00000000000E+00  0.99999998245E-14  0.12500000000E+03  0.12500000000E+03 0.  0.
        -13    1    3    3    0    0  0.96735370841E+01  0.33403177612E+02  0.28992041655E+02  0.45275812943E+02  0.10566000000E+00 0.  1.
         23    2    1    0    0    0  0.23311413142E+02  0.16513220952E+02 -0.13810831257E+02  0.93269139488E+02  0.87705671834E+02 0.  0.
         13    1    3    3    0    0  0.13637876058E+02 -0.16889956660E+02 -0.42802872911E+02  0.47993326545E+02  0.10566000000E+00 0. -1.
         22    1    1    0    0    0 -0.23311413142E+02 -0.16513220952E+02  0.13810831257E+02  0.31730860512E+02  0.00000000000E+00 0. -1.
</event>
<event>
 5    1  0.1691066E-003  0.9118800E+02  0.7818608E-02  0.1130116E+00
         25   -1    0    0    0    0  0.00000000000E+00  0.00000000000E+00  0.99999998245E-14  0.12500000000E+03  0.12500000000E+03 0.  0.
        -13    1    3    3    0    0  0.24241646120E+02  0.52468525326E+02 -0.13868200477E+01  0.57814686633E+02  0.10566000000E+00 0. -1.
         23    2    1    0    0    0  0.23171769383E+02  0.14217824814E+02 -0.80300773879E+01  0.96652873486E+02  0.92402480331E+02 0.  0.
         13    1    3    3    0    0 -0.10698767373E+01 -0.38250700512E+02 -0.66432573402E+01  0.38838186853E+02  0.10566000000E+00 0.  1.
         22    1    1    0    0    0 -0.23171769383E+02 -0.14217824814E+02  0.80300773879E+01  0.28347126514E+02  0.00000000000E+00 0. -1.
</event>
<event>
 5    1  0.1691066E-003  0.9118800E+02  0.7818608E-02  0.1130116E+00
         25   -1    0    0    0    0  0.00000000000E+00  0.00000000000E+00  0.99999998245E-14  0.12500000000E+03  0.12500000000E+03 0.  0.
        -13    1    3    3    0    0  0.30902413400E+02  0.13853081441E+02  0.71464971528E+01  0.34611423042E+02  0.10566000000E+00 0. -1.
         23    2    1    0    0    0 -0.16460533576E+02 -0.24161120430E+02  0.46730841841E+01  0.95393469946E+02  0.90682784952E+02 0.  0.
         13    1    3    3    0    0 -0.47362946976E+02 -0.38014201871E+02 -0.24734129687E+01  0.60782046905E+02  0.10566000000E+00 0.  1.
         22    1    1    0    0    0  0.16460533576E+02  0.24161120430E+02 -0.46730841841E+01  0.29606530054E+02  0.00000000000E+00 0.  1.
</event>
<event>
 5    1  0.1691066E-003  0.9118800E+02  0.7818608E-02  0.1130116E+00
         25   -1    0    0    0    0  0.00000000000E+00  0.00000000000E+00  0.99999998245E-14  0.12500000000E+03  0.12500000000E+03 0.  0.
        -13    1    3    3    0    0  0.39279465997E+02 -0.20294984914E+02  0.38757599847E+02  0.58795625446E+02  0.10566000000E+00 0.  1.
         23    2    1    0    0    0  0.25404582596E+02 -0.16071454098E+02  0.63860799285E+01  0.94267826785E+02  0.89117656478E+02 0.  0.
         13    1    3    3    0    0 -0.13874883401E+02  0.42235308157E+01 -0.32371519918E+02  0.35472201339E+02  0.10566000000E+00 0. -1.
         22    1    1    0    0    0 -0.25404582596E+02  0.16071454098E+02 -0.63860799285E+01  0.30732173215E+02  0.00000000000E+00 0.  1.
</event>
<event>
 5    1  0.1691066E-003  0.9118800E+02  0.7818608E-02  0.1130116E+00
         25   -1    0    0    0    0  0.00000000000E+00  0.00000000000E+00  0.99999998245E-14  0.12500000000E+03  0.12500000000E+03 0.  0.
        -13    1    3    3    0    0 -0.16190657756E+02  0.29633174319E+02  0.18568097577E+02  0.38536318331E+02  0.10566000000E+00 0. -1.
         23    2    1    0    0    0  0.13470330510E+02 -0.20483100352E+02  0.13552616095E+02  0.96987848939E+02  0.92854521886E+02 0.  0.
         13    1    3    3    0    0  0.29660988266E+02 -0.50116274672E+02 -0.50154814823E+01  0.58451530608E+02  0.10566000000E+00 0.  1.
         22    1    1    0    0    0 -0.13470330510E+02  0.20483100352E+02 -0.13552616095E+02  0.28012151061E+02  0.00000000000E+00 0.  1.
</event>
<event>
 5    1  0.1691066E-003  0.9118800E+02  0.7818608E-02  0.1130116E+00
         25   -1    0    0    0    0  0.00000000000E+00  0.00000000000E+00  0.99999998245E-14  0.12500000000E+03  0.12500000000E+03 0.  0.
        -13    1    3    3    0    0 -0.31781826255E+02 -0.17661476629E+02 -0.16121868394E+02  0.39773584719E+02  0.10566000000E+00 0.  1.
         23    2    1    0    0    0 -0.86185733547E+01  0.20916687088E+02  0.17872706356E+02  0.96169092316E+02  0.91745697877E+02 0.  0.
         13    1    3    3    0    0  0.23163252900E+02  0.38578163717E+02  0.33994574750E+02  0.56395507597E+02  0.10566000000E+00 0. -1.
         22    1    1    0    0    0  0.86185733547E+01 -0.20916687088E+02 -0.17872706356E+02  0.28830907684E+02  0.00000000000E+00 0. -1.
</event>
<event>
 5    1  0.1691066E-003  0.9118800E+02  0.7818608E-02  0.1130116E+00
         25   -1    0    0    0    0  0.00000000000E+00  0.00000000000E+00  0.99999998245E-14  0.12500000000E+03  0.12500000000E+03 0.  0.
        -13    1    3    3    0    0  0.26792254438E+02  0.40245757713E+02  0.17883407753E+02  0.51549717251E+02  0.10566000000E+00 0.  1.
         23    2    1    0    0    0  0.21121782692E+02  0.10523945551E+02 -0.15624740928E+02  0.96697779891E+02  0.92463208752E+02 0.  0.
         13    1    3    3    0    0 -0.56704717461E+01 -0.29721812162E+02 -0.33508148681E+02  0.45148062639E+02  0.10566000000E+00 0. -1.
         22    1    1    0    0    0 -0.21121782692E+02 -0.10523945551E+02  0.15624740928E+02  0.28302220109E+02  0.00000000000E+00 0.  1.
</event>
<event>
 5    1  0.1691066E-003  0.9118800E+02  0.7818608E-02  0.1130116E+00
         25   -1    0    0    0    0  0.00000000000E+00  0.00000000000E+00  0.99999998245E-14  0.12500000000E+03  0.12500000000E+03 0.  0.
        -13    1    3    3    0    0 -0.99259704253E+01  0.94058285049E+01 -0.41332102119E+02  0.43535598404E+02  0.10566000000E+00 0.  1.
         23    2    1    0    0    0  0.19661533461E+02 -0.19598362153E+02 -0.99571322905E+01  0.95507353788E+02  0.90839630377E+02 0.  0.
         13    1    3    3    0    0  0.29587503886E+02 -0.29004190658E+02  0.31374969829E+02  0.51971755384E+02  0.10566000000E+00 0. -1.
         22    1    1    0    0    0 -0.19661533461E+02  0.19598362153E+02  0.99571322905E+01  0.29492646212E+02  0.00000000000E+00 0. -1.
</event>
<event>
 5    1  0.1691066E-003  0.9118800E+02  0.7818608E-02  0.1130116E+00
         25   -1    0    0    0    0  0.00000000000E+00  0.00000000000E+00  0.99999998245E-14  0.12500000000E+03  0.12500000000E+03 0.  0.
        -13    1    3    3    0    0  0.37829401165E+01  0.33846979762E+02  0.31115639007E+02  0.46131581695E+02  0.10566000000E+00 0. -1.
         23    2    1    0    0    0  0.24704268662E+02 -0.70280009951E+01  0.17110313739E+02  0.94138105625E+02  0.88935518250E+02 0.  0.
         13    1    3    3    0    0  0.20921328546E+02 -0.40874980757E+02 -0.14005325267E+02  0.48006523930E+02  0.10566000000E+00 0.  1.
         22    1    1    0    0    0 -0.24704268662E+02  0.70280009951E+01 -0.17110313739E+02  0.30861894375E+02  0.00000000000E+00 0. -1.
</event>
<event>
 5    1  0.1691066E-003  0.9118800E+02  0.7818608E-02  0.1130116E+00
         25   -1    0    0    0    0  0.00000000000E+00  0.00000000000E+00  0.99999998245E-14  0.12500000000E+03  0.12500000000E+03 0.  0.
        -13    1    3    3    0    0 -0.95514246503E+01 -0.27280167397E+02  0.22458015811E+02  0.36603427220E+02  0.10566000000E+00 0.  1.
         23    2    1    0    0    0  0.51946645153E+01  0.71699957673E-01 -0.28359519482E+02  0.96168558386E+02  0.91744970415E+02 0.  0.
         13    1    3    3    0    0  0.14746089166E+02  0.27351867355E+02 -0.50817535293E+02  0.59565131166E+02  0.10566000000E+00 0. -1.
         22    1    1    0    0    0 -0.51946645153E+01 -0.71699957673E-01  0.28359519482E+02  0.28831441614E+02  0.00000000000E+00 0. -1.
</event>
<event>
 5    1  0.1691066E-003  0.9118800E+02  0.7818608E-02  0.1130116E+00
         25   -1    0    0    0    0  0.00000000000E+00  0.00000000000E+00  0.99999998245E-14  0.12500000000E+03  0.12500000000E+03 0.  0.
        -13    1    3    3    0    0  0.26384733910E+02 -0.97877779672E+01 -0.55730335225E+02  0.62432653390E+02  0.10566000000E+00 0. -1.
         23    2    1    0    0    0  0.14642898542E+02 -0.75664432294E+01 -0.31638878979E+02  0.89325300227E+02  0.81892155038E+02 0.  0.
         13    1    3    3    0    0 -0.11741835368E+02  0.22213347378E+01  0.24091456245E+02  0.26892646837E+02  0.10566000000E+00 0.  1.
         22    1    1    0    0    0 -0.14642898542E+02  0.75664432294E+01  0.31638878979E+02  0.35674699773E+02  0.00000000000E+00 0. -1.
</event>
<event>
 5    1  0.1691066E-003  0.9118800E+02  0.7818608E-02  0.1130116E+00
         25   -1    0    0    0    0  0.00000000000E+00  0.00000000000E+00  0.99999998245E-14  0.12500000000E+03  0.12500000000E+03 0.  0.
        -13    1    3    3    0    0  0.10114703678E+02 -0.42245760135E+02  0.12984088193E+02  0.45338826519E+02  0.10566000000E+00 0. -1.
         23    2    1    0    0    0 -0.25976449523E+02 -0.12605138256E+02 -0.55738775149E+01  0.95593647781E+02  0.90958297836E+02 0.  0.
         13    1    3    3    0    0 -0.36091153201E+02  0.29640621880E+02 -0.18557965708E+02  0.50254821262E+02  0.10566000000E+00 0.  1.
         22    1    1    0    0    0  0.25976449523E+02  0.12605138256E+02  0.55738775149E+01  0.29406352219E+02  0.00000000000E+00 0.  1.
</event>
<event>
 5    1  0.1691066E-003  0.9118800E+02  0.7818608E-02  0.1130116E+00
         25   -1    0    0    0    0  0.00000000000E+00  0.00000000000E+00  0.99999998245E-14  0.12500000000E+03  0.12500000000E+03 0.  0.
        -13    1    3    3    0    0  0.31207554584E+02 -0.28587501580E+02  0.36826362289E+02  0.56101237358E+02  0.10566000000E+00 0.  1.
         23    2    1    0    0    0  0.26787022419E+02 -0.12567659130E+02  0.12302256488E+01  0.95385745303E+02  0.90672136435E+02 0.  0.
         13    1    3    3    0    0 -0.44205321650E+01  0.16019842449E+02 -0.35596136640E+02  0.39284507945E+02  0.10566000000E+00 0. -1.
         22    1    1    0    0    0 -0.26787022419E+02  0.12567659130E+02 -0.12302256488E+01  0.29614254697E+02  0.00000000000E+00 0.  1.
</event>
<event>
 5    1  0.1691066E-003  0.9118800E+02  0.7818608E-02  0.1130116E+00
         25   -1    0    0    0    0  0.00000000000E+00  0.00000000000E+00  0.99999998245E-14  0.12500000000E+03  0.12500000000E+03 0.  0.
        -13    1    3    3    0    0  0.26398664916E+02  0.23509636056E+02 -0.18342550002E+02  0.39825278423E+02  0.10566000000E+00 0.  1.
         23    2    1    0    0    0 -0.42082038095E+01  0.11593660441E+02  0.26710294719E+02  0.95579568567E+02  0.90938947332E+02 0.  0.
         13    1    3    3    0    0 -0.30606868726E+02 -0.11915975615E+02  0.45052844721E+02  0.55754290145E+02  0.10566000000E+00 0. -1.
         22    1    1    0    0    0  0.42082038095E+01 -0.11593660441E+02 -0.26710294719E+02  0.29420431433E+02  0.00000000000E+00 0. -1.
</event>
<event>
 5    1  0.1691066E-003  0.9118800E+02  0.7818608E-02  0.1130116E+00
         25   -1    0    0    0    0  0.00000000000E+00  0.00000000000E+00  0.99999998245E-14  0.12500000000E+03  0.12500000000E+03 0.  0.
        -13    1    3    3    0    0 -0.60384474765E+01 -0.79070597789E+01 -0.10313028640E+02  0.14330183741E+02  0.10566000000E+00 0. -1.
         23    2    1    0    0    0  0.28069821811E+02  0.41422690722E+02 -0.15671597236E+01  0.74937936591E+02  0.55762748745E+02 0.  0.
         13    1    3    3    0    0  0.34108269288E+02  0.49329750501E+02  0.87458689167E+01  0.60607752850E+02  0.10566000000E+00 0.  1.
         22    1    1    0    0    0 -0.28069821811E+02 -0.41422690722E+02  0.15671597236E+01  0.50062063409E+02  0.00000000000E+00 0.  1.
</event>
<event>
 5    1  0.1691066E-003  0.9118800E+02  0.7818608E-02  0.1130116E+00
         25   -1    0    0    0    0  0.00000000000E+00  0.00000000000E+00  0.99999998245E-14  0.12500000000E+03  0.12500000000E+03 0.  0.
        -13    1    3    3    0    0 -0.33415276573E+01 -0.36307746825E+02 -0.19421350531E+02  0.41311237056E+02  0.10566000000E+00 0. -1.
         23    2    1    0    0    0 -0.18674506707E+02  0.13352831033E+02 -0.21802378657E+02  0.93339630254E+02  0.87806079308E+02 0.  0.
         13    1    3    3    0    0 -0.15332979049E+02  0.49660577859E+02 -0.23810281263E+01  0.52028393198E+02  0.10566000000E+00 0.  1.
         22    1    1    0    0    0  0.18674506707E+02 -0.13352831033E+02  0.21802378657E+02  0.31660369746E+02  0.00000000000E+00 0.  1.
</event>
<event>
 5    1  0.1691066E-003  0.9118800E+02  0.7818608E-02  0.1130116E+00
         25   -1    0    0    0    0  0.00000000000E+00  0.00000000000E+00  0.99999998245E-14  0.12500000000E+03  0.12500000000E+03 0.  0.
        -13    1    3    3    0    0  0.30420582485E+02 -0.19866763662E+02 -0.40897352423E+02  0.54705618874E+02  0.10566000000E+00 0.  1.
         23    2    1    0    0    0 -0.17387300930E+01 -0.24591133302E+02 -0.16832255396E+02  0.95149173527E+02  0.90345411515E+02 0.  0.
         13    1    3    3    0    0 -0.32159312578E+02 -0.47243696400E+01  0.24065097028E+02  0.40443554653E+02  0.10566000000E+00 0. -1.
         22    1    1    0    0    0  0.17387300930E+01  0.24591133302E+02  0.16832255396E+02  0.29850826473E+02  0.00000000000E+00 0.  1.
</event>
<event>
 5    1  0.1691066E-003  0.9118800E+02  0.7818608E-02  0.1130116E+00
         25   -1    0    0    0    0  0.00000000000E+00  0.00000000000E+00  0.99999998245E-14  0.12500000000E+03  0.12500000000E+03 0.  0.
        -13    1    3    3    0    0 -0.45396672567E+01  0.12879970765E+02 -0.49474241877E+02  0.51324594485E+02  0.10566000000E+00 0. -1.
         23    2    1    0    0    0 -0.21178436702E+02  0.17786532503E+02 -0.81105383449E+01  0.96178692745E+02  0.91758777162E+02 0.  0.
         13    1    3    3    0    0 -0.16638769445E+02  0.49065617376E+01  0.41363703533E+02  0.44854098260E+02  0.10566000000E+00 0.  1.
         22    1    1    0    0    0  0.21178436702E+02 -0.17786532503E+02  0.81105383449E+01  0.28821307255E+02  0.00000000000E+00 0. -1.
</event>
<event>
 5    1  0.1691066E-003  0.9118800E+02  0.7818608E-02  0.1130116E+00
         25   -1    0    0    0    0  0.00000000000E+00  0.00000000000E+00  0.99999998245E-14  0.12500000000E+03  0.12500000000E+03 0.  0.
        -13    1    3    3    0    0  0.28150048207E+02  0.29997255282E+02  0.22435302569E+02  0.46857384731E+02  0.10566000000E+00 0.  1.
         23    2    1    0    0    0  0.28959447767E+02  0.17674932258E+02 -0.16189297164E+02  0.87408163280E+02  0.78911601302E+02 0.  0.
         13    1    3    3    0    0  0.80939956028E+00 -0.12322323024E+02 -0.38624599733E+02  0.40550778549E+02  0.10566000000E+00 0. -1.
         22    1    1    0    0    0 -0.28959447767E+02 -0.17674932258E+02  0.16189297164E+02  0.37591836720E+02  0.00000000000E+00 0.  1.
</event>
<event>
 5    1  0.1691066E-003  0.9118800E+02  0.7818608E-02  0.1130116E+00
         25   -1    0    0    0    0  0.00000000000E+00  0.00000000000E+00  0.99999998245E-14  0.12500000000E+03  0.12500000000E+03 0.  0.
        -13    1    3    3    0    0 -0.41647206746E+02  0.72198963592E+01  0.76119898916E+00  0.42275374878E+02  0.10566000000E+00 0.  1.
         23    2    1    0    0    0  0.26262956548E+01 -0.21583938885E+01 -0.28585141301E+02  0.96213433753E+02  0.91806091510E+02 0.  0.
         13    1    3    3    0    0  0.44273502400E+02 -0.93782902477E+01 -0.29346340291E+02  0.53938058875E+02  0.10566000000E+00 0. -1.
         22    1    1    0    0    0 -0.26262956548E+01  0.21583938885E+01  0.28585141301E+02  0.28786566247E+02  0.00000000000E+00 0. -1.
</event>
<event>
 5    1  0.1691066E-003  0.9118800E+02  0.7818608E-02  0.1130116E+00
         25   -1    0    0    0    0  0.00000000000E+00  0.00000000000E+00  0.99999998245E-14  0.12500000000E+03  0.12500000000E+03 0.  0.
        -13    1    3    3    0    0 -0.37235170088E+02  0.29766330947E+02 -0.32055073889E+02  0.57445898684E+02  0.10566000000E+00 0.  1.
         23    2    1    0    0    0 -0.27578606341E+02  0.36994154631E+01 -0.40923506620E+01  0.96875054908E+02  0.92702555126E+02 0.  0.
         13    1    3    3    0    0  0.96565637466E+01 -0.26066915484E+02  0.27962723227E+02  0.39429156224E+02  0.10566000000E+00 0. -1.
         22    1    1    0    0    0  0.27578606341E+02 -0.36994154631E+01  0.40923506620E+01  0.28124945092E+02  0.00000000000E+00 0.  1.
</event>
<event>
 5    1  0.1691066E-003  0.9118800E+02  0.7818608E-02  0.1130116E+00
         25   -1    0    0    0    0  0.00000000000E+00  0.00000000000E+00  0.99999998245E-14  0.12500000000E+03  0.12500000000E+03 0.  0.
        -13    1    3    3    0    0 -0.19091817203E+02 -0.17678073874E+02 -0.24562912878E+02  0.35782113312E+02  0.10566000000E+00 0. -1.
         23    2    1    0    0    0 -0.12474590105E+01  0.21435223698E+02  0.18519101865E+02  0.96645421837E+02  0.92392399358E+02 0.  0.
         13    1    3    3    0    0  0.17844358192E+02  0.39113297572E+02  0.43082014743E+02  0.60863308524E+02  0.10566000000E+00 0.  1.
         22    1    1    0    0    0  0.12474590105E+01 -0.21435223698E+02 -0.18519101865E+02  0.28354578163E+02  0.00000000000E+00 0.  1.
</event>
<event>
 5    1  0.1691066E-003  0.9118800E+02  0.7818608E-02  0.1130116E+00
         25   -1    0    0    0    0  0.00000000000E+00  0.00000000000E+00  0.99999998245E-14  0.12500000000E+03  0.12500000000E+03 0.  0.
        -13    1    3    3    0    0  0.75803339404E+00  0.78419801404E+01  0.58970516126E+02  0.59494572890E+02  0.10566000000E+00 0. -1.
         23    2    1    0    0    0  0.88244816355E+01 -0.71339251022E+01  0.27090531572E+02  0.95628904270E+02  0.91006736386E+02 0.  0.
         13    1    3    3    0    0  0.80664482414E+01 -0.14975905243E+02 -0.31879984554E+02  0.36134331380E+02  0.10566000000E+00 0.  1.
         22    1    1    0    0    0 -0.88244816355E+01  0.71339251022E+01 -0.27090531572E+02  0.29371095730E+02  0.00000000000E+00 0. -1.
</event>
<event>
 5    1  0.1691066E-003  0.9118800E+02  0.7818608E-02  0.1130116E+00
         25   -1    0    0    0    0  0.00000000000E+00  0.00000000000E+00  0.99999998245E-14  0.12500000000E+03  0.12500000000E+03 0.  0.
        -13    1    3    3    0    0 -0.42187420144E+02  0.21607015511E+02 -0.34268442290E+02  0.58489134364E+02  0.10566000000E+00 0.  1.
         23    2    1    0    0    0 -0.19462319291E+02  0.16890342973E+02 -0.79961312250E+00  0.99218127704E+02  0.95809873844E+02 0.  0.
         13    1    3    3    0    0  0.22725100853E+02 -0.47166725378E+01  0.33468829168E+02  0.40728993340E+02  0.10566000000E+00 0. -1.
         22    1    1    0    0    0  0.19462319291E+02 -0.16890342973E+02  0.79961312250E+00  0.25781872296E+02  0.00000000000E+00 0.  1.
</event>
<event>
 5    1  0.1691066E-003  0.9118800E+02  0.7818608E-02  0.1130116E+00
         25   -1    0    0    0    0  0.00000000000E+00  0.00000000000E+00  0.99999998245E-14  0.12500000000E+03  0.12500000000E+03 0.  0.
        -13    1    3    3    0    0  0.59824513298E+01 -0.29899854469E+02 -0.17146720553E+02  0.34983027470E+02  0.10566000000E+00 0.  1.
         23    2    1    0    0    0  0.44018894422E+01  0.28491631749E+02  0.10095264164E+01  0.96152662966E+02  0.91723310786E+02 0.  0.
         13    1    3    3    0    0 -0.15805618876E+01  0.58391486218E+02  0.18156246969E+02  0.61169635496E+02  0.10566000000E+00 0. -1.
         22    1    1    0    0    0 -0.44018894422E+01 -0.28491631749E+02 -0.10095264164E+01  0.28847337034E+02  0.00000000000E+00 0. -1.
</event>
<event>
 5    1  0.1691066E-003  0.9118800E+02  0.7818608E-02  0.1130116E+00
         25   -1    0    0    0    0  0.00000000000E+00  0.00000000000E+00  0.99999998245E-14  0.12500000000E+03  0.12500000000E+03 0.  0.
        -13    1    3    3    0    0 -0.98301142107E+00  0.48231941105E+02 -0.10577812769E+02  0.49388133607E+02  0.10566000000E+00 0. -1.
         23    2    1    0    0    0 -0.27408406852E+02  0.12791031651E+02 -0.40798829360E+00  0.94751070906E+02  0.89792915793E+02 0.  0.
         13    1    3    3    0    0 -0.26425395431E+02 -0.35440909453E+02  0.10169824475E+02  0.45362937300E+02  0.10566000000E+00 0.  1.
         22    1    1    0    0    0  0.27408406852E+02 -0.12791031651E+02  0.40798829360E+00  0.30248929094E+02  0.00000000000E+00 0. -1.
</event>
<event>
 5    1  0.1691066E-003  0.9118800E+02  0.7818608E-02  0.1130116E+00
         25   -1    0    0    0    0  0.00000000000E+00  0.00000000000E+00  0.99999998245E-14  0.12500000000E+03  0.12500000000E+03 0.  0.
        -13    1    3    3    0    0 -0.36376319816E+02 -0.18183476926E+02 -0.20220899614E+02  0.45417743468E+02  0.10566000000E+00 0.  1.
         23    2    1    0    0    0 -0.21659649018E+01 -0.32965064957E+01  0.22511522091E+02  0.10214552591E+03  0.99555921359E+02 0.  0.
         13    1    3    3    0    0  0.34210354914E+02  0.14886970430E+02  0.42732421706E+02  0.56727782442E+02  0.10566000000E+00 0. -1.
         22    1    1    0    0    0  0.21659649018E+01  0.32965064957E+01 -0.22511522091E+02  0.22854474089E+02  0.00000000000E+00 0. -1.
</event>
<event>
 5    1  0.1691066E-003  0.9118800E+02  0.7818608E-02  0.1130116E+00
         25   -1    0    0    0    0  0.00000000000E+00  0.00000000000E+00  0.99999998245E-14  0.12500000000E+03  0.12500000000E+03 0.  0.
        -13    1    3    3    0    0  0.32493066956E+02 -0.26900415324E+02 -0.27692838383E+02  0.50461234691E+02  0.10566000000E+00 0. -1.
         23    2    1    0    0    0  0.44438584484E+01 -0.27205313106E+02  0.84090725389E+01  0.96180051352E+02  0.91760627929E+02 0.  0.
         13    1    3    3    0    0 -0.28049208508E+02 -0.30489778228E+00  0.36101910922E+02  0.45718816660E+02  0.10566000000E+00 0.  1.
         22    1    1    0    0    0 -0.44438584484E+01  0.27205313106E+02 -0.84090725389E+01  0.28819948648E+02  0.00000000000E+00 0.  1.
</event>
<event>
 5    1  0.1691066E-003  0.9118800E+02  0.7818608E-02  0.1130116E+00
         25   -1    0    0    0    0  0.00000000000E+00  0.00000000000E+00  0.99999998245E-14  0.12500000000E+03  0.12500000000E+03 0.  0.
        -13    1    3    3    0    0  0.27102297991E+02 -0.58015951273E+01  0.34027543129E+02  0.43887104232E+02  0.10566000000E+00 0. -1.
         23    2    1    0    0    0  0.75297891718E+01 -0.27244062770E+02 -0.85937950294E+01  0.95456980618E+02  0.90770287840E+02 0.  0.
         13    1    3    3    0    0 -0.19572508819E+02 -0.21442467643E+02 -0.42621338158E+02  0.51569876387E+02  0.10566000000E+00 0.  1.
         22    1    1    0    0    0 -0.75297891718E+01  0.27244062770E+02  0.85937950294E+01  0.29543019382E+02  0.00000000000E+00 0.  1.
</event>
<event>
 5    1  0.1691066E-003  0.9118800E+02  0.7818608E-02  0.1130116E+00
         25   -1    0    0    0    0  0.00000000000E+00  0.00000000000E+00  0.99999998245E-14  0.12500000000E+03  0.12500000000E+03 0.  0.
        -13    1    3    3    0    0  0.39637233048E+02  0.41981059794E+01  0.11983632452E+02  0.41621544280E+02  0.10566000000E+00 0. -1.
         23    2    1    0    0    0 -0.14224938105E+02 -0.97791198334E+00  0.24031408782E+02  0.97056954640E+02  0.92947504862E+02 0.  0.
         13    1    3    3    0    0 -0.53862171153E+02 -0.51760179628E+01  0.12047776329E+02  0.55435410360E+02  0.10566000000E+00 0.  1.
         22    1    1    0    0    0  0.14224938105E+02  0.97791198334E+00 -0.24031408782E+02  0.27943045360E+02  0.00000000000E+00 0.  1.
</event>
<event>
 5    1  0.1691066E-003  0.9118800E+02  0.7818608E-02  0.1130116E+00
         25   -1    0    0    0    0  0.00000000000E+00  0.00000000000E+00  0.99999998245E-14  0.12500000000E+03  0.12500000000E+03 0.  0.
        -13    1    3    3    0    0 -0.10340091771E+02  0.19188816425E+02 -0.56104503349E+02  0.60190153960E+02  0.10566000000E+00 0. -1.
         23    2    1    0    0    0 -0.72049501311E+00  0.19318192345E+02 -0.21592355272E+02  0.96018256182E+02  0.91539958736E+02 0.  0.
         13    1    3    3    0    0  0.96195967582E+01  0.12937592040E+00  0.34512148077E+02  0.35828102222E+02  0.10566000000E+00 0.  1.
         22    1    1    0    0    0  0.72049501311E+00 -0.19318192345E+02  0.21592355272E+02  0.28981743818E+02  0.00000000000E+00 0. -1.
</event>
<event>
 5    1  0.1691066E-003  0.9118800E+02  0.7818608E-02  0.1130116E+00
         25   -1    0    0    0    0  0.00000000000E+00  0.00000000000E+00  0.99999998245E-14  0.12500000000E+03  0.12500000000E+03 0.  0.
        -13    1    3    3    0    0  0.97535432039E+00  0.30310871868E+02 -0.40591289383E+02  0.50669164265E+02  0.10566000000E+00 0. -1.
         23    2    1    0    0    0  0.13024287785E+02 -0.90414377014E+01 -0.26403745082E+02  0.94201665266E+02  0.89024807310E+02 0.  0.
         13    1    3    3    0    0  0.12048933465E+02 -0.39352309570E+02  0.14187544301E+02  0.43532501002E+02  0.10566000000E+00 0.  1.
         22    1    1    0    0    0 -0.13024287785E+02  0.90414377014E+01  0.26403745082E+02  0.30798334734E+02  0.00000000000E+00 0.  1.
</event>
<event>
 5    1  0.1691066E-003  0.9118800E+02  0.7818608E-02  0.1130116E+00
         25   -1    0    0    0    0  0.00000000000E+00  0.00000000000E+00  0.99999998245E-14  0.12500000000E+03  0.12500000000E+03 0.  0.
        -13    1    3    3    0    0  0.43344361235E+02  0.35740221305E+02 -0.13341208938E+02  0.57741632205E+02  0.10566000000E+00 0. -1.
         23    2    1    0    0    0  0.24424914350E+02  0.10387365758E+01 -0.13095619281E+02  0.97266434433E+02  0.93228797098E+02 0.  0.
         13    1    3    3    0    0 -0.18919446885E+02 -0.34701484729E+02  0.24558965615E+00  0.39524802228E+02  0.10566000000E+00 0.  1.
         22    1    1    0    0    0 -0.24424914350E+02 -0.10387365758E+01  0.13095619281E+02  0.27733565567E+02  0.00000000000E+00 0. -1.
</event>
<event>
 5    1  0.1691066E-003  0.9118800E+02  0.7818608E-02  0.1130116E+00
         25   -1    0    0    0    0  0.00000000000E+00  0.00000000000E+00  0.99999998245E-14  0.12500000000E+03  0.12500000000E+03 0.  0.
        -13    1    3    3    0    0  0.60230294808E+01  0.71772589269E+01  0.47715219744E+02  0.48626569785E+02  0.10566000000E+00 0. -1.
         23    2    1    0    0    0  0.23231107174E+02 -0.16193321218E+02  0.13100021658E+02  0.93798741050E+02  0.88457251045E+02 0.  0.
         13    1    3    3    0    0  0.17208077694E+02 -0.23370580145E+02 -0.34615198086E+02  0.45172171265E+02  0.10566000000E+00 0.  1.
         22    1    1    0    0    0 -0.23231107174E+02  0.16193321218E+02 -0.13100021658E+02  0.31201258950E+02  0.00000000000E+00 0.  1.
</event>
<event>
 5    1  0.1691066E-003  0.9118800E+02  0.7818608E-02  0.1130116E+00
         25   -1    0    0    0    0  0.00000000000E+00  0.00000000000E+00  0.99999998245E-14  0.12500000000E+03  0.12500000000E+03 0.  0.
        -13    1    3    3    0    0  0.45833453990E+02 -0.24463994626E+02  0.98175609189E+01  0.52873322235E+02  0.10566000000E+00 0. -1.
         23    2    1    0    0    0  0.83207992170E+01 -0.30537017906E+02 -0.35365958638E+01  0.93152666164E+02  0.87539514169E+02 0.  0.
         13    1    3    3    0    0 -0.37512654773E+02 -0.60730232795E+01 -0.13354156783E+02  0.40279343928E+02  0.10566000000E+00 0.  1.
         22    1    1    0    0    0 -0.83207992170E+01  0.30537017906E+02  0.35365958638E+01  0.31847333836E+02  0.00000000000E+00 0. -1.
</event>
<event>
 5    1  0.1691066E-003  0.9118800E+02  0.7818608E-02  0.1130116E+00
         25   -1    0    0    0    0  0.00000000000E+00  0.00000000000E+00  0.99999998245E-14  0.12500000000E+03  0.12500000000E+03 0.  0.
        -13    1    3    3    0    0 -0.43771345826E+02  0.19983490294E+02 -0.20761938146E+01  0.48162146387E+02  0.10566000000E+00 0.  1.
         23    2    1    0    0    0 -0.39848225201E+01  0.92010220405E+01 -0.26907322217E+02  0.96285167491E+02  0.91903709788E+02 0.  0.
         13    1    3    3    0    0  0.39786523306E+02 -0.10782468254E+02 -0.24831128402E+02  0.48123021104E+02  0.10566000000E+00 0. -1.
         22    1    1    0    0    0  0.39848225201E+01 -0.92010220405E+01  0.26907322217E+02  0.28714832509E+02  0.00000000000E+00 0.  1.
</event>
<event>
 5    1  0.1691066E-003  0.9118800E+02  0.7818608E-02  0.1130116E+00
         25   -1    0    0    0    0  0.00000000000E+00  0.00000000000E+00  0.99999998245E-14  0.12500000000E+03  0.12500000000E+03 0.  0.
        -13    1    3    3    0    0 -0.17581584996E+02  0.32992880057E+02 -0.43426555077E+02  0.57301999226E+02  0.10566000000E+00 0.  1.
         23    2    1    0    0    0  0.88197851235E+01  0.18436358727E+02 -0.25285796771E+02  0.92487549291E+02  0.86584567463E+02 0.  0.
         13    1    3    3    0    0  0.26401370119E+02 -0.14556521330E+02  0.18140758306E+02  0.35185550065E+02  0.10566000000E+00 0. -1.
         22    1    1    0    0    0 -0.88197851235E+01 -0.18436358727E+02  0.25285796771E+02  0.32512450709E+02  0.00000000000E+00 0.  1.
</event>
<event>
 5    1  0.1691066E-003  0.9118800E+02  0.7818608E-02  0.1130116E+00
         25   -1    0    0    0    0  0.00000000000E+00  0.00000000000E+00  0.99999998245E-14  0.12500000000E+03  0.12500000000E+03 0.  0.
        -13    1    3    3    0    0 -0.42981633155E+02  0.21189140915E+02 -0.22287519715E+02  0.52850214573E+02  0.10566000000E+00 0. -1.
         23    2    1    0    0    0  0.29603488564E+00  0.13240269064E+02 -0.24759246837E+02  0.96921312968E+02  0.92764908462E+02 0.  0.
         13    1    3    3    0    0  0.43277668040E+02 -0.79488718507E+01 -0.24717271217E+01  0.44071098394E+02  0.10566000000E+00 0.  1.
         22    1    1    0    0    0 -0.29603488564E+00 -0.13240269064E+02  0.24759246837E+02  0.28078687032E+02  0.00000000000E+00 0.  1.
</event>
<event>
 5    1  0.1691066E-003  0.9118800E+02  0.7818608E-02  0.1130116E+00
         25   -1    0    0    0    0  0.00000000000E+00  0.00000000000E+00  0.99999998245E-14  0.12500000000E+03  0.12500000000E+03 0.  0.
        -13    1    3    3    0    0 -0.41676339349E+01 -0.39102302131E+02 -0.20103420853E+02  0.44164667989E+02  0.10566000000E+00 0. -1.
         23    2    1    0    0    0  0.26102336274E+02  0.21443637028E+01 -0.12812308337E+02  0.95843774257E+02  0.91301388622E+02 0.  0.
         13    1    3    3    0    0  0.30269970209E+02  0.41246665834E+02  0.72911125162E+01  0.51679106268E+02  0.10566000000E+00 0.  1.
         22    1    1    0    0    0 -0.26102336274E+02 -0.21443637028E+01  0.12812308337E+02  0.29156225743E+02  0.00000000000E+00 0.  1.
</event>
<event>
 5    1  0.1691066E-003  0.9118800E+02  0.7818608E-02  0.1130116E+00
         25   -1    0    0    0    0  0.00000000000E+00  0.00000000000E+00  0.99999998245E-14  0.12500000000E+03  0.12500000000E+03 0.  0.
        -13    1    3    3    0    0  0.30746821752E+02  0.11630541901E+02 -0.31713956233E+02  0.45677376640E+02  0.10566000000E+00 0.  1.
         23    2    1    0    0    0  0.24859455284E+02 -0.35451449323E+01  0.15412788415E+02  0.95536215174E+02  0.90879336449E+02 0.  0.
         13    1    3    3    0    0 -0.58873664685E+01 -0.15175686834E+02  0.47126744647E+02  0.49858838533E+02  0.10566000000E+00 0. -1.
         22    1    1    0    0    0 -0.24859455284E+02  0.35451449323E+01 -0.15412788415E+02  0.29463784826E+02  0.00000000000E+00 0. -1.
</event>
<event>
 5    1  0.1691066E-003  0.9118800E+02  0.7818608E-02  0.1130116E+00
         25   -1    0    0    0    0  0.00000000000E+00  0.00000000000E+00  0.99999998245E-14  0.12500000000E+03  0.12500000000E+03 0.  0.
        -13    1    3    3    0    0  0.55216507887E+01 -0.34267212281E+02 -0.10343962004E+02  0.36217940014E+02  0.10566000000E+00 0.  1.
         23    2    1    0    0    0 -0.83705216895E+01  0.23055492140E+02 -0.16375950830E+02  0.95507744800E+02  0.90840168428E+02 0.  0.
         13    1    3    3    0    0 -0.13892172478E+02  0.57322704421E+02 -0.60319888266E+01  0.59289804786E+02  0.10566000000E+00 0. -1.
         22    1    1    0    0    0  0.83705216895E+01 -0.23055492140E+02  0.16375950830E+02  0.29492255200E+02  0.00000000000E+00 0. -1.
</event>
<event>
 5    1  0.1691066E-003  0.9118800E+02  0.7818608E-02  0.1130116E+00
         25   -1    0    0    0    0  0.00000000000E+00  0.00000000000E+00  0.99999998245E-14  0.12500000000E+03  0.12500000000E+03 0.  0.
        -13    1    3    3    0    0 -0.41559588607E+02 -0.11126783869E+02  0.41420683355E+02  0.59721762349E+02  0.10566000000E+00 0.  1.
         23    2    1    0    0    0 -0.16409696418E+02  0.67175369646E+01  0.24066022986E+02  0.95107243322E+02  0.90287379132E+02 0.  0.
         13    1    3    3    0    0  0.25149892189E+02  0.17844320833E+02 -0.17354660369E+02  0.35385480973E+02  0.10566000000E+00 0. -1.
         22    1    1    0    0    0  0.16409696418E+02 -0.67175369646E+01 -0.24066022986E+02  0.29892756678E+02  0.00000000000E+00 0.  1.
</event>
<event>
 5    1  0.1691066E-003  0.9118800E+02  0.7818608E-02  0.1130116E+00
         25   -1    0    0    0    0  0.00000000000E+00  0.00000000000E+00  0.99999998245E-14  0.12500000000E+03  0.12500000000E+03 0.  0.
        -13    1    3    3    0    0  0.41643073285E+02 -0.56076618641E+01 -0.25277950363E+02  0.49036490115E+02  0.10566000000E+00 0. -1.
         23    2    1    0    0    0  0.70392699956E+01  0.24491691156E+02 -0.12320870193E+02  0.96694557059E+02  0.92458851739E+02 0.  0.
         13    1    3    3    0    0 -0.34603803290E+02  0.30099353020E+02  0.12957080169E+02  0.47658066945E+02  0.10566000000E+00 0.  1.
         22    1    1    0    0    0 -0.70392699956E+01 -0.24491691156E+02  0.12320870193E+02  0.28305442941E+02  0.00000000000E+00 0. -1.
</event>
<event>
 5    1  0.1691066E-003  0.9118800E+02  0.7818608E-02  0.1130116E+00
         25   -1    0    0    0    0  0.00000000000E+00  0.00000000000E+00  0.99999998245E-14  0.12500000000E+03  0.12500000000E+03 0.  0.
        -13    1    3    3    0    0  0.29019398769E+02  0.44174420143E+02 -0.91011057525E+01  0.53631578290E+02  0.10566000000E+00 0. -1.
         23    2    1    0    0    0 -0.97257129611E+01  0.22354746657E+02  0.46617924982E+01  0.10017951451E+03  0.97056059200E+02 0.  0.
         13    1    3    3    0    0 -0.38745111730E+02 -0.21819673487E+02  0.13762898251E+02  0.46547936220E+02  0.10566000000E+00 0.  1.
         22    1    1    0    0    0  0.97257129611E+01 -0.22354746657E+02 -0.46617924982E+01  0.24820485490E+02  0.00000000000E+00 0. -1.
</event>
<event>
 5    1  0.1691066E-003  0.9118800E+02  0.7818608E-02  0.1130116E+00
         25   -1    0    0    0    0  0.00000000000E+00  0.00000000000E+00  0.99999998245E-14  0.12500000000E+03  0.12500000000E+03 0.  0.
        -13    1    3    3    0    0 -0.23554422869E+02  0.75801724672E+01  0.51264966148E+01  0.25269783990E+02  0.10566000000E+00 0.  1.
         23    2    1    0    0    0  0.21115389803E+02 -0.29806049914E+02  0.16987295468E+02  0.84715654340E+02  0.74524583762E+02 0.  0.
         13    1    3    3    0    0  0.44669812672E+02 -0.37386222381E+02  0.11860798853E+02  0.59445870349E+02  0.10566000000E+00 0. -1.
         22    1    1    0    0    0 -0.21115389803E+02  0.29806049914E+02 -0.16987295468E+02  0.40284345660E+02  0.00000000000E+00 0. -1.
</event>
<event>
 5    1  0.1691066E-003  0.9118800E+02  0.7818608E-02  0.1130116E+00
         25   -1    0    0    0    0  0.00000000000E+00  0.00000000000E+00  0.99999998245E-14  0.12500000000E+03  0.12500000000E+03 0.  0.
        -13    1    3    3    0    0  0.59404080667E+01  0.13365072191E+02  0.28273208726E+02  0.31832359296E+02  0.10566000000E+00 0. -1.
         23    2    1    0    0    0  0.19787227335E+02 -0.18861084018E+02 -0.19731862112E+02  0.91286186238E+02  0.84832461709E+02 0.  0.
         13    1    3    3    0    0  0.13846819269E+02 -0.32226156209E+02 -0.48005070838E+02  0.59453826942E+02  0.10566000000E+00 0.  1.
         22    1    1    0    0    0 -0.19787227335E+02  0.18861084018E+02  0.19731862112E+02  0.33713813762E+02  0.00000000000E+00 0.  1.
</event>
<event>
 5    1  0.1691066E-003  0.9118800E+02  0.7818608E-02  0.1130116E+00
         25   -1    0    0    0    0  0.00000000000E+00  0.00000000000E+00  0.99999998245E-14  0.12500000000E+03  0.12500000000E+03 0.  0.
        -13    1    3    3    0    0 -0.14387229913E+02  0.10588219947E+02  0.24446472101E+02  0.30277779780E+02  0.10566000000E+00 0. -1.
         23    2    1    0    0    0  0.16769579580E+02 -0.26074037598E+02 -0.13137019085E+02  0.91330198896E+02  0.84897289262E+02 0.  0.
         13    1    3    3    0    0  0.31156809494E+02 -0.36662257544E+02 -0.37583491186E+02  0.61052419115E+02  0.10566000000E+00 0.  1.
         22    1    1    0    0    0 -0.16769579580E+02  0.26074037598E+02  0.13137019085E+02  0.33669801104E+02  0.00000000000E+00 0.  1.
</event>
<event>
 5    1  0.1691066E-003  0.9118800E+02  0.7818608E-02  0.1130116E+00
         25   -1    0    0    0    0  0.00000000000E+00  0.00000000000E+00  0.99999998245E-14  0.12500000000E+03  0.12500000000E+03 0.  0.
        -13    1    3    3    0    0  0.44021439234E+02 -0.32888058243E+02 -0.22539013872E+01  0.54996388270E+02  0.10566000000E+00 0. -1.
         23    2    1    0    0    0  0.11464672290E+02 -0.18131627639E+02 -0.20672981035E+02  0.95207941051E+02  0.90426684462E+02 0.  0.
         13    1    3    3    0    0 -0.32556766944E+02  0.14756430604E+02 -0.18419079647E+02  0.40211552781E+02  0.10566000000E+00 0.  1.
         22    1    1    0    0    0 -0.11464672290E+02  0.18131627639E+02  0.20672981035E+02  0.29792058949E+02  0.00000000000E+00 0. -1.
</event>
<event>
 5    1  0.1691066E-003  0.9118800E+02  0.7818608E-02  0.1130116E+00
         25   -1    0    0    0    0  0.00000000000E+00  0.00000000000E+00  0.99999998245E-14  0.12500000000E+03  0.12500000000E+03 0.  0.
        -13    1    3    3    0    0  0.11696136597E+02 -0.16192411315E+01 -0.33921722460E+02  0.35918184417E+02  0.10566000000E+00 0.  1.
         23    2    1    0    0    0 -0.17490984200E+02  0.10777990057E+02  0.18610140373E+02  0.97279305155E+02  0.93246052403E+02 0.  0.
         13    1    3    3    0    0 -0.29187120797E+02  0.12397231189E+02  0.52531862833E+02  0.61361120739E+02  0.10566000000E+00 0. -1.
         22    1    1    0    0    0  0.17490984200E+02 -0.10777990057E+02 -0.18610140373E+02  0.27720694845E+02  0.00000000000E+00 0. -1.
</event>
<event>
 5    1  0.1691066E-003  0.9118800E+02  0.7818608E-02  0.1130116E+00
         25   -1    0    0    0    0  0.00000000000E+00  0.00000000000E+00  0.99999998245E-14  0.12500000000E+03  0.12500000000E+03 0.  0.
        -13    1    3    3    0    0 -0.18618712838E+02 -0.34277115870E+02  0.10103319973E+02  0.40294731400E+02  0.10566000000E+00 0. -1.
         23    2    1    0    0    0 -0.11744239015E+02  0.59955681212E+01 -0.26661052338E+02  0.95256333466E+02  0.90493554282E+02 0.  0.
         13    1    3    3    0    0  0.68744738234E+01  0.40272683991E+02 -0.36764372311E+02  0.54961602066E+02  0.10566000000E+00 0.  1.
         22    1    1    0    0    0  0.11744239015E+02 -0.59955681212E+01  0.26661052338E+02  0.29743666534E+02  0.00000000000E+00 0.  1.
</event>
<event>
 5    1  0.1691066E-003  0.9118800E+02  0.7818608E-02  0.1130116E+00
         25   -1    0    0    0    0  0.00000000000E+00  0.00000000000E+00  0.99999998245E-14  0.12500000000E+03  0.12500000000E+03 0.  0.
        -13    1    3    3    0    0  0.29009591244E+02 -0.26987605752E+02 -0.27917683146E+02  0.48469531096E+02  0.10566000000E+00 0.  1.
         23    2    1    0    0    0 -0.87695287130E+01  0.20390861060E+01 -0.27446476441E+02  0.96114509265E+02  0.91671300396E+02 0.  0.
         13    1    3    3    0    0 -0.37779119957E+02  0.29026691858E+02  0.47120670568E+00  0.47644978169E+02  0.10566000000E+00 0. -1.
         22    1    1    0    0    0  0.87695287130E+01 -0.20390861060E+01  0.27446476441E+02  0.28885490735E+02  0.00000000000E+00 0.  1.
</event>
<event>
 5    1  0.1691066E-003  0.9118800E+02  0.7818608E-02  0.1130116E+00
         25   -1    0    0    0    0  0.00000000000E+00  0.00000000000E+00  0.99999998245E-14  0.12500000000E+03  0.12500000000E+03 0.  0.
        -13    1    3    3    0    0  0.14997444583E+02 -0.17003945347E+02 -0.24036078443E+02  0.33042423222E+02  0.10566000000E+00 0.  1.
         23    2    1    0    0    0 -0.10216178065E+02  0.25684379648E+02  0.12534146393E+02  0.94649341392E+02  0.89651187098E+02 0.  0.
         13    1    3    3    0    0 -0.25213622648E+02  0.42688324995E+02  0.36570224836E+02  0.61606918171E+02  0.10566000000E+00 0. -1.
         22    1    1    0    0    0  0.10216178065E+02 -0.25684379648E+02 -0.12534146393E+02  0.30350658608E+02  0.00000000000E+00 0. -1.
</event>
<event>
 5    1  0.1691066E-003  0.9118800E+02  0.7818608E-02  0.1130116E+00
         25   -1    0    0    0    0  0.00000000000E+00  0.00000000000E+00  0.99999998245E-14  0.12500000000E+03  0.12500000000E+03 0.  0.
        -13    1    3    3    0    0  0.37636407652E+02  0.51381429014E+01 -0.19668072650E+02  0.42775506300E+02  0.10566000000E+00 0.  1.
         23    2    1    0    0    0  0.74020289336E+01  0.15626801891E+02  0.23071221193E+02  0.96168277592E+02  0.91744587840E+02 0.  0.
         13    1    3    3    0    0 -0.30234378719E+02  0.10488658990E+02  0.42739293843E+02  0.53392771291E+02  0.10566000000E+00 0. -1.
         22    1    1    0    0    0 -0.74020289336E+01 -0.15626801891E+02 -0.23071221193E+02  0.28831722408E+02  0.00000000000E+00 0. -1.
</event>
<event>
 5    1  0.1691066E-003  0.9118800E+02  0.7818608E-02  0.1130116E+00
         25   -1    0    0    0    0  0.00000000000E+00  0.00000000000E+00  0.99999998245E-14  0.12500000000E+03  0.12500000000E+03 0.  0.
        -13    1    3    3    0    0 -0.11075516751E+02  0.44783362840E+02 -0.26113971767E+02  0.53011011536E+02  0.10566000000E+00 0.  1.
         23    2    1    0    0    0  0.63318171901E+01  0.64866880145E+01 -0.28447654294E+02  0.95143039921E+02  0.90336924788E+02 0.  0.
         13    1    3    3    0    0  0.17407333942E+02 -0.38296674826E+02 -0.23336825275E+01  0.42132028385E+02  0.10566000000E+00 0. -1.
         22    1    1    0    0    0 -0.63318171901E+01 -0.64866880145E+01  0.28447654294E+02  0.29856960079E+02  0.00000000000E+00 0.  1.
</event>
<event>
 5    1  0.1691066E-003  0.9118800E+02  0.7818608E-02  0.1130116E+00
         25   -1    0    0    0    0  0.00000000000E+00  0.00000000000E+00  0.99999998245E-14  0.12500000000E+03  0.12500000000E+03 0.  0.
        -13    1    3    3    0    0  0.21298083890E+02 -0.13411520527E+02 -0.44819753966E+02  0.51403295321E+02  0.10566000000E+00 0.  1.
         23    2    1    0    0    0  0.52275308920E+01  0.20251695563E+02 -0.18725102431E+02  0.96927100017E+02  0.92772706138E+02 0.  0.
         13    1    3    3    0    0 -0.16070552998E+02  0.33663216090E+02  0.26094651535E+02  0.45523804696E+02  0.10566000000E+00 0. -1.
         22    1    1    0    0    0 -0.52275308920E+01 -0.20251695563E+02  0.18725102431E+02  0.28072899983E+02  0.00000000000E+00 0. -1.
</event>
<event>
 5    1  0.1691066E-003  0.9118800E+02  0.7818608E-02  0.1130116E+00
         25   -1    0    0    0    0  0.00000000000E+00  0.00000000000E+00  0.99999998245E-14  0.12500000000E+03  0.12500000000E+03 0.  0.
        -13    1    3    3    0    0  0.50657395793E+01 -0.25461313625E+02 -0.36399488474E+02  0.44708770216E+02  0.10566000000E+00 0.  1.
         23    2    1    0    0    0  0.18631235611E+02 -0.17097440143E+02  0.12965514633E+02  0.96582576304E+02  0.92307334898E+02 0.  0.
         13    1    3    3    0    0  0.13565496032E+02  0.83638734823E+01  0.49365003107E+02  0.51873806088E+02  0.10566000000E+00 0. -1.
         22    1    1    0    0    0 -0.18631235611E+02  0.17097440143E+02 -0.12965514633E+02  0.28417423696E+02  0.00000000000E+00 0.  1.
</event>
<event>
 5    1  0.1691066E-003  0.9118800E+02  0.7818608E-02  0.1130116E+00
         25   -1    0    0    0    0  0.00000000000E+00  0.00000000000E+00  0.99999998245E-14  0.12500000000E+03  0.12500000000E+03 0.  0.
        -13    1    3    3    0    0 -0.20684566246E+02 -0.32564565689E+02  0.31812858851E+02  0.50003713578E+02  0.10566000000E+00 0. -1.
         23    2    1    0    0    0  0.12718457988E+02 -0.20001162852E+01  0.26432435038E+02  0.95598754095E+02  0.90965314948E+02 0.  0.
         13    1    3    3    0    0  0.33403024233E+02  0.30564449403E+02 -0.53804238133E+01  0.45595040517E+02  0.10566000000E+00 0.  1.
         22    1    1    0    0    0 -0.12718457988E+02  0.20001162852E+01 -0.26432435038E+02  0.29401245905E+02  0.00000000000E+00 0. -1.
</event>
<event>
 5    1  0.1691066E-003  0.9118800E+02  0.7818608E-02  0.1130116E+00
         25   -1    0    0    0    0  0.00000000000E+00  0.00000000000E+00  0.99999998245E-14  0.12500000000E+03  0.12500000000E+03 0.  0.
        -13    1    3    3    0    0  0.26489750536E+02 -0.15013784352E+02  0.30810720631E+02  0.43317805506E+02  0.10566000000E+00 0. -1.
         23    2    1    0    0    0 -0.17650749531E+02 -0.23178531104E+02  0.40309083685E+01  0.95588412395E+02  0.90951102790E+02 0.  0.
         13    1    3    3    0    0 -0.44140500067E+02 -0.81647467519E+01 -0.26779812263E+02  0.52270606889E+02  0.10566000000E+00 0.  1.
         22    1    1    0    0    0  0.17650749531E+02  0.23178531104E+02 -0.40309083685E+01  0.29411587605E+02  0.00000000000E+00 0.  1.
</event>
<event>
 5    1  0.1691066E-003  0.9118800E+02  0.7818608E-02  0.1130116E+00
         25   -1    0    0    0    0  0.00000000000E+00  0.00000000000E+00  0.99999998245E-14  0.12500000000E+03  0.12500000000E+03 0.  0.
        -13    1    3    3    0    0  0.26422598377E+02 -0.31274239606E+02  0.31076884820E+02  0.51400541846E+02  0.10566000000E+00 0.  1.
         23    2    1    0    0    0  0.30057755175E+02 -0.70013311758E+00  0.30466444628E+02  0.82196225858E+02  0.70171621503E+02 0.  0.
         13    1    3    3    0    0  0.36351567984E+01  0.30574106488E+02 -0.61044019222E+00  0.30795684012E+02  0.10566000000E+00 0. -1.
         22    1    1    0    0    0 -0.30057755175E+02  0.70013311758E+00 -0.30466444628E+02  0.42803774142E+02  0.00000000000E+00 0.  1.
</event>
<event>
 5    1  0.1691066E-003  0.9118800E+02  0.7818608E-02  0.1130116E+00
         25   -1    0    0    0    0  0.00000000000E+00  0.00000000000E+00  0.99999998245E-14  0.12500000000E+03  0.12500000000E+03 0.  0.
        -13    1    3    3    0    0 -0.49052513825E+02 -0.13253898822E+00  0.95011582711E+01  0.49964485905E+02  0.10566000000E+00 0.  1.
         23    2    1    0    0    0 -0.15525903066E+02 -0.19952744578E+02 -0.14638635856E+02  0.95786042002E+02  0.91222313610E+02 0.  0.
         13    1    3    3    0    0  0.33526610759E+02 -0.19820205590E+02 -0.24139794127E+02  0.45821556097E+02  0.10566000000E+00 0. -1.
         22    1    1    0    0    0  0.15525903066E+02  0.19952744578E+02  0.14638635856E+02  0.29213957998E+02  0.00000000000E+00 0. -1.
</event>
<event>
 5    1  0.1691066E-003  0.9118800E+02  0.7818608E-02  0.1130116E+00
         25   -1    0    0    0    0  0.00000000000E+00  0.00000000000E+00  0.99999998245E-14  0.12500000000E+03  0.12500000000E+03 0.  0.
        -13    1    3    3    0    0  0.37424451920E+02  0.10343515198E+02 -0.75552442233E+01  0.39555919753E+02  0.10566000000E+00 0. -1.
         23    2    1    0    0    0 -0.50424169557E+01 -0.26260031262E+02 -0.11781498638E+02  0.95779819974E+02  0.91213787299E+02 0.  0.
         13    1    3    3    0    0 -0.42466868876E+02 -0.36603546460E+02 -0.42262544142E+01  0.56223900221E+02  0.10566000000E+00 0.  1.
         22    1    1    0    0    0  0.50424169557E+01  0.26260031262E+02  0.11781498638E+02  0.29220180026E+02  0.00000000000E+00 0.  1.
</event>
<event>
 5    1  0.1691066E-003  0.9118800E+02  0.7818608E-02  0.1130116E+00
         25   -1    0    0    0    0  0.00000000000E+00  0.00000000000E+00  0.99999998245E-14  0.12500000000E+03  0.12500000000E+03 0.  0.
        -13    1    3    3    0    0  0.17039249808E+02  0.33745935438E+02  0.49866887434E+01  0.38131383678E+02  0.10566000000E+00 0. -1.
         23    2    1    0    0    0 -0.15944062992E+02 -0.12768341482E+02  0.19273767113E+02  0.96915808937E+02  0.92757491527E+02 0.  0.
         13    1    3    3    0    0 -0.32983312800E+02 -0.46514276920E+02  0.14287078370E+02  0.58784425259E+02  0.10566000000E+00 0.  1.
         22    1    1    0    0    0  0.15944062992E+02  0.12768341482E+02 -0.19273767113E+02  0.28084191063E+02  0.00000000000E+00 0.  1.
</event>
<event>
 5    1  0.1691066E-003  0.9118800E+02  0.7818608E-02  0.1130116E+00
         25   -1    0    0    0    0  0.00000000000E+00  0.00000000000E+00  0.99999998245E-14  0.12500000000E+03  0.12500000000E+03 0.  0.
        -13    1    3    3    0    0 -0.24036203619E+02 -0.33956512693E+02 -0.30418238289E+02  0.51537017991E+02  0.10566000000E+00 0.  1.
         23    2    1    0    0    0 -0.36163677001E+01 -0.27340055896E+02  0.86358055118E+01  0.96101316490E+02  0.91653309392E+02 0.  0.
         13    1    3    3    0    0  0.20419835919E+02  0.66164567970E+01  0.39054043801E+02  0.44564298500E+02  0.10566000000E+00 0. -1.
         22    1    1    0    0    0  0.36163677001E+01  0.27340055896E+02 -0.86358055118E+01  0.28898683510E+02  0.00000000000E+00 0. -1.
</event>
<event>
 5    1  0.1691066E-003  0.9118800E+02  0.7818608E-02  0.1130116E+00
         25   -1    0    0    0    0  0.00000000000E+00  0.00000000000E+00  0.99999998245E-14  0.12500000000E+03  0.12500000000E+03 0.  0.
        -13    1    3    3    0    0  0.32384194107E+02  0.19250115772E+02  0.43389739200E+02  0.57462889042E+02  0.10566000000E+00 0.  1.
         23    2    1    0    0    0  0.33754184024E+02  0.47129574575E+01  0.18758445956E+02  0.86097092630E+02  0.76806725991E+02 0.  0.
         13    1    3    3    0    0  0.13699899172E+01 -0.14537158314E+02 -0.24631293244E+02  0.28634203588E+02  0.10566000000E+00 0. -1.
         22    1    1    0    0    0 -0.33754184024E+02 -0.47129574575E+01 -0.18758445956E+02  0.38902907370E+02  0.00000000000E+00 0.  1.
</event>
<event>
 5    1  0.1691066E-003  0.9118800E+02  0.7818608E-02  0.1130116E+00
         25   -1    0    0    0    0  0.00000000000E+00  0.00000000000E+00  0.99999998245E-14  0.12500000000E+03  0.12500000000E+03 0.  0.
        -13    1    3    3    0    0  0.16765733498E+02  0.22487047963E+02 -0.77433031432E+01  0.29098574766E+02  0.10566000000E+00 0.  1.
         23    2    1    0    0    0 -0.29360325162E+02 -0.13712823000E+02  0.11194777684E+02  0.90715991254E+02  0.83988081378E+02 0.  0.
         13    1    3    3    0    0 -0.46126058660E+02 -0.36199870963E+02  0.18938080828E+02  0.61617416489E+02  0.10566000000E+00 0. -1.
         22    1    1    0    0    0  0.29360325162E+02  0.13712823000E+02 -0.11194777684E+02  0.34284008746E+02  0.00000000000E+00 0. -1.
</event>
<event>
 5    1  0.1691066E-003  0.9118800E+02  0.7818608E-02  0.1130116E+00
         25   -1    0    0    0    0  0.00000000000E+00  0.00000000000E+00  0.99999998245E-14  0.12500000000E+03  0.12500000000E+03 0.  0.
        -13    1    3    3    0    0  0.23281266917E+02 -0.13703301423E+02  0.37285594613E+02  0.46043724750E+02  0.10566000000E+00 0. -1.
         23    2    1    0    0    0 -0.19885617717E+02  0.63351849870E+01  0.18162196053E+02  0.97333454746E+02  0.93318613827E+02 0.  0.
         13    1    3    3    0    0 -0.43166884634E+02  0.20038486410E+02 -0.19123398560E+02  0.51289729997E+02  0.10566000000E+00 0.  1.
         22    1    1    0    0    0  0.19885617717E+02 -0.63351849870E+01 -0.18162196053E+02  0.27666545254E+02  0.00000000000E+00 0.  1.
</event>
<event>
 5    1  0.1691066E-003  0.9118800E+02  0.7818608E-02  0.1130116E+00
         25   -1    0    0    0    0  0.00000000000E+00  0.00000000000E+00  0.99999998245E-14  0.12500000000E+03  0.12500000000E+03 0.  0.
        -13    1    3    3    0    0  0.27869557413E+02  0.24126171681E+02 -0.43555223093E+02  0.57060082484E+02  0.10566000000E+00 0. -1.
         23    2    1    0    0    0 -0.99484938101E+00  0.31180310933E+01 -0.29326607081E+02  0.95491327951E+02  0.90817575324E+02 0.  0.
         13    1    3    3    0    0 -0.28864406794E+02 -0.21008140587E+02  0.14228616011E+02  0.38431245467E+02  0.10566000000E+00 0.  1.
         22    1    1    0    0    0  0.99484938101E+00 -0.31180310933E+01  0.29326607081E+02  0.29508672049E+02  0.00000000000E+00 0. -1.
</event>
<event>
 5    1  0.1691066E-003  0.9118800E+02  0.7818608E-02  0.1130116E+00
         25   -1    0    0    0    0  0.00000000000E+00  0.00000000000E+00  0.99999998245E-14  0.12500000000E+03  0.12500000000E+03 0.  0.
        -13    1    3    3    0    0 -0.15785493850E+02 -0.25142905619E+02  0.21554335877E+02  0.36687165033E+02  0.10566000000E+00 0.  1.
         23    2    1    0    0    0  0.14805589500E+02 -0.12519661192E+01 -0.24147290423E+02  0.96647495095E+02  0.92395204279E+02 0.  0.
         13    1    3    3    0    0  0.30591083350E+02  0.23890939499E+02 -0.45701626300E+02  0.59960330062E+02  0.10566000000E+00 0. -1.
         22    1    1    0    0    0 -0.14805589500E+02  0.12519661192E+01  0.24147290423E+02  0.28352504905E+02  0.00000000000E+00 0. -1.
</event>
<event>
 5    1  0.1691066E-003  0.9118800E+02  0.7818608E-02  0.1130116E+00
         25   -1    0    0    0    0  0.00000000000E+00  0.00000000000E+00  0.99999998245E-14  0.12500000000E+03  0.12500000000E+03 0.  0.
        -13    1    3    3    0    0  0.26412389747E+02  0.66208212589E+01  0.23972650394E+02  0.36278764274E+02  0.10566000000E+00 0.  1.
         23    2    1    0    0    0 -0.86402569071E+01 -0.17757196793E+02 -0.19524803963E+02  0.97229691266E+02  0.93179519298E+02 0.  0.
         13    1    3    3    0    0 -0.35052646654E+02 -0.24378018051E+02 -0.43497454357E+02  0.60950926992E+02  0.10566000000E+00 0. -1.
         22    1    1    0    0    0  0.86402569071E+01  0.17757196793E+02  0.19524803963E+02  0.27770308734E+02  0.00000000000E+00 0. -1.
</event>
<event>
 5    1  0.1691066E-003  0.9118800E+02  0.7818608E-02  0.1130116E+00
         25   -1    0    0    0    0  0.00000000000E+00  0.00000000000E+00  0.99999998245E-14  0.12500000000E+03  0.12500000000E+03 0.  0.
        -13    1    3    3    0    0  0.10221888793E+01 -0.51246362180E+02  0.23117629698E+02  0.56228733523E+02  0.10566000000E+00 0.  1.
         23    2    1    0    0    0  0.66180935701E+01 -0.70469658172E+01  0.22195377198E+02  0.10079062870E+03  0.97839956946E+02 0.  0.
         13    1    3    3    0    0  0.55959046907E+01  0.44199396362E+02 -0.92225250009E+00  0.44561895178E+02  0.10566000000E+00 0. -1.
         22    1    1    0    0    0 -0.66180935701E+01  0.70469658172E+01 -0.22195377198E+02  0.24209371299E+02  0.00000000000E+00 0.  1.
</event>
<event>
 5    1  0.1691066E-003  0.9118800E+02  0.7818608E-02  0.1130116E+00
         25   -1    0    0    0    0  0.00000000000E+00  0.00000000000E+00  0.99999998245E-14  0.12500000000E+03  0.12500000000E+03 0.  0.
        -13    1    3    3    0    0  0.21765166738E+01  0.19785130387E+02  0.29279514200E+02  0.35404656827E+02  0.10566000000E+00 0.  1.
         23    2    1    0    0    0  0.37714913578E+02 -0.70157435790E+01  0.44291091972E+01  0.86383263053E+02  0.77271053850E+02 0.  0.
         13    1    3    3    0    0  0.35538396904E+02 -0.26800873966E+02 -0.24850405002E+02  0.50978606225E+02  0.10566000000E+00 0. -1.
         22    1    1    0    0    0 -0.37714913578E+02  0.70157435790E+01 -0.44291091972E+01  0.38616736947E+02  0.00000000000E+00 0.  1.
</event>
<event>
 5    1  0.1691066E-003  0.9118800E+02  0.7818608E-02  0.1130116E+00
         25   -1    0    0    0    0  0.00000000000E+00  0.00000000000E+00  0.99999998245E-14  0.12500000000E+03  0.12500000000E+03 0.  0.
        -13    1    3    3    0    0 -0.43466426156E+02  0.26960945221E+02 -0.98269351630E+01  0.52084571503E+02  0.10566000000E+00 0.  1.
         23    2    1    0    0    0 -0.39255382223E+02  0.43434690898E+00  0.87968847405E+01  0.84768682947E+02  0.74613475570E+02 0.  0.
         13    1    3    3    0    0  0.42110439330E+01 -0.26526598312E+02  0.18623819903E+02  0.32684111443E+02  0.10566000000E+00 0. -1.
         22    1    1    0    0    0  0.39255382223E+02 -0.43434690898E+00 -0.87968847405E+01  0.40231317053E+02  0.00000000000E+00 0.  1.
</event>
<event>
 5    1  0.1691066E-003  0.9118800E+02  0.7818608E-02  0.1130116E+00
         25   -1    0    0    0    0  0.00000000000E+00  0.00000000000E+00  0.99999998245E-14  0.12500000000E+03  0.12500000000E+03 0.  0.
        -13    1    3    3    0    0  0.33337165453E+02 -0.35575776028E+02 -0.22151676838E+02  0.53551007378E+02  0.10566000000E+00 0.  1.
         23    2    1    0    0    0  0.18470819404E+02 -0.21549995523E+02  0.12662079530E+02  0.93921040325E+02  0.88629905118E+02 0.  0.
         13    1    3    3    0    0 -0.14866346050E+02  0.14025780505E+02  0.34813756367E+02  0.40370032946E+02  0.10566000000E+00 0. -1.
         22    1    1    0    0    0 -0.18470819404E+02  0.21549995523E+02 -0.12662079530E+02  0.31078959675E+02  0.00000000000E+00 0.  1.
</event>
<event>
 5    1  0.1691066E-003  0.9118800E+02  0.7818608E-02  0.1130116E+00
         25   -1    0    0    0    0  0.00000000000E+00  0.00000000000E+00  0.99999998245E-14  0.12500000000E+03  0.12500000000E+03 0.  0.
        -13    1    3    3    0    0  0.51097738956E+02  0.31627424046E+02 -0.45275663222E+01  0.60264275480E+02  0.10566000000E+00 0. -1.
         23    2    1    0    0    0  0.21844088860E+02  0.16051948645E+02  0.95322511799E+01  0.96265124222E+02  0.91876444509E+02 0.  0.
         13    1    3    3    0    0 -0.29253650097E+02 -0.15575475401E+02  0.14059817502E+02  0.36000848743E+02  0.10566000000E+00 0.  1.
         22    1    1    0    0    0 -0.21844088860E+02 -0.16051948645E+02 -0.95322511799E+01  0.28734875778E+02  0.00000000000E+00 0. -1.
</event>
<event>
 5    1  0.1691066E-003  0.9118800E+02  0.7818608E-02  0.1130116E+00
         25   -1    0    0    0    0  0.00000000000E+00  0.00000000000E+00  0.99999998245E-14  0.12500000000E+03  0.12500000000E+03 0.  0.
        -13    1    3    3    0    0 -0.46549883884E+02 -0.18854089930E+02  0.17369972924E+01  0.50253325465E+02  0.10566000000E+00 0.  1.
         23    2    1    0    0    0 -0.44787643118E+01 -0.22036183567E+02  0.18726367894E+02  0.95736890622E+02  0.91154937637E+02 0.  0.
         13    1    3    3    0    0  0.42071119572E+02 -0.31820936370E+01  0.16989370602E+02  0.45483565157E+02  0.10566000000E+00 0. -1.
         22    1    1    0    0    0  0.44787643118E+01  0.22036183567E+02 -0.18726367894E+02  0.29263109378E+02  0.00000000000E+00 0.  1.
</event>
<event>
 5    1  0.1691066E-003  0.9118800E+02  0.7818608E-02  0.1130116E+00
         25   -1    0    0    0    0  0.00000000000E+00  0.00000000000E+00  0.99999998245E-14  0.12500000000E+03  0.12500000000E+03 0.  0.
        -13    1    3    3    0    0 -0.33134987331E+02 -0.47406348656E+02  0.23232806407E+02  0.62330279447E+02  0.10566000000E+00 0.  1.
         23    2    1    0    0    0 -0.18559007819E+02 -0.21136161699E+02  0.10176544990E+02  0.95087859145E+02  0.90260538367E+02 0.  0.
         13    1    3    3    0    0  0.14575979512E+02  0.26270186957E+02 -0.13056261417E+02  0.32757579699E+02  0.10566000000E+00 0. -1.
         22    1    1    0    0    0  0.18559007819E+02  0.21136161699E+02 -0.10176544990E+02  0.29912140855E+02  0.00000000000E+00 0.  1.
</event>
<event>
 5    1  0.1691066E-003  0.9118800E+02  0.7818608E-02  0.1130116E+00
         25   -1    0    0    0    0  0.00000000000E+00  0.00000000000E+00  0.99999998245E-14  0.12500000000E+03  0.12500000000E+03 0.  0.
        -13    1    3    3    0    0  0.36554411316E+02 -0.38363734946E+02 -0.20373495879E+02  0.56772278834E+02  0.10566000000E+00 0.  1.
         23    2    1    0    0    0  0.28862253818E+02 -0.62869881574E+01 -0.15761031980E+00  0.95460522067E+02  0.90775164648E+02 0.  0.
         13    1    3    3    0    0 -0.76921574987E+01  0.32076746788E+02  0.20215885559E+02  0.38688243233E+02  0.10566000000E+00 0. -1.
         22    1    1    0    0    0 -0.28862253818E+02  0.62869881574E+01  0.15761031980E+00  0.29539477933E+02  0.00000000000E+00 0. -1.
</event>
<event>
 5    1  0.1691066E-003  0.9118800E+02  0.7818608E-02  0.1130116E+00
         25   -1    0    0    0    0  0.00000000000E+00  0.00000000000E+00  0.99999998245E-14  0.12500000000E+03  0.12500000000E+03 0.  0.
        -13    1    3    3    0    0 -0.39118100568E+02  0.34859094418E+02  0.26055333933E+02  0.58517295273E+02  0.10566000000E+00 0.  1.
         23    2    1    0    0    0 -0.45762149966E+01  0.20994060026E+02  0.18823070380E+02  0.96434281409E+02  0.92106299200E+02 0.  0.
         13    1    3    3    0    0  0.34541885572E+02 -0.13865034391E+02 -0.72322635530E+01  0.37916986136E+02  0.10566000000E+00 0. -1.
         22    1    1    0    0    0  0.45762149966E+01 -0.20994060026E+02 -0.18823070380E+02  0.28565718591E+02  0.00000000000E+00 0.  1.
</event>
<event>
 5    1  0.1691066E-003  0.9118800E+02  0.7818608E-02  0.1130116E+00
         25   -1    0    0    0    0  0.00000000000E+00  0.00000000000E+00  0.99999998245E-14  0.12500000000E+03  0.12500000000E+03 0.  0.
        -13    1    3    3    0    0  0.33807431118E+02  0.14389558859E+02 -0.40351067208E+00  0.36744738234E+02  0.10566000000E+00 0.  1.
         23    2    1    0    0    0 -0.24984240994E+02 -0.25339843995E+01 -0.85679711400E+01  0.98466181873E+02  0.94823760040E+02 0.  0.
         13    1    3    3    0    0 -0.58791672112E+02 -0.16923543259E+02 -0.81644604679E+01  0.61721443639E+02  0.10566000000E+00 0. -1.
         22    1    1    0    0    0  0.24984240994E+02  0.25339843995E+01  0.85679711400E+01  0.26533818127E+02  0.00000000000E+00 0. -1.
</event>
<event>
 5    1  0.1691066E-003  0.9118800E+02  0.7818608E-02  0.1130116E+00
         25   -1    0    0    0    0  0.00000000000E+00  0.00000000000E+00  0.99999998245E-14  0.12500000000E+03  0.12500000000E+03 0.  0.
        -13    1    3    3    0    0 -0.13309770719E+02  0.58311020711E+02  0.14780790964E+02  0.61610129674E+02  0.10566000000E+00 0.  1.
         23    2    1    0    0    0 -0.84680823293E+01  0.31360708839E+02  0.45562749391E+00  0.92512924514E+02  0.86621193299E+02 0.  0.
         13    1    3    3    0    0  0.48416883894E+01 -0.26950311872E+02 -0.14325163470E+02  0.30902794840E+02  0.10566000000E+00 0. -1.
         22    1    1    0    0    0  0.84680823293E+01 -0.31360708839E+02 -0.45562749391E+00  0.32487075486E+02  0.00000000000E+00 0.  1.
</event>
<event>
 5    1  0.1691066E-003  0.9118800E+02  0.7818608E-02  0.1130116E+00
         25   -1    0    0    0    0  0.00000000000E+00  0.00000000000E+00  0.99999998245E-14  0.12500000000E+03  0.12500000000E+03 0.  0.
        -13    1    3    3    0    0  0.27175745192E+02 -0.78055990864E+01 -0.25059828341E+02  0.37781671011E+02  0.10566000000E+00 0. -1.
         23    2    1    0    0    0 -0.23153741328E+02  0.14318348789E+02 -0.10971796618E+01  0.97754548036E+02  0.93880972561E+02 0.  0.
         13    1    3    3    0    0 -0.50329486520E+02  0.22123947875E+02  0.23962648680E+02  0.59972877025E+02  0.10566000000E+00 0.  1.
         22    1    1    0    0    0  0.23153741328E+02 -0.14318348789E+02  0.10971796618E+01  0.27245451964E+02  0.00000000000E+00 0.  1.
</event>
<event>
 5    1  0.1691066E-003  0.9118800E+02  0.7818608E-02  0.1130116E+00
         25   -1    0    0    0    0  0.00000000000E+00  0.00000000000E+00  0.99999998245E-14  0.12500000000E+03  0.12500000000E+03 0.  0.
        -13    1    3    3    0    0  0.44048721548E+02 -0.16578416423E+01  0.36954792976E+02  0.57521354268E+02  0.10566000000E+00 0. -1.
         23    2    1    0    0    0  0.15624378588E+02 -0.17812300522E+02  0.17212421974E+02  0.95714052408E+02  0.91123614404E+02 0.  0.
         13    1    3    3    0    0 -0.28424342960E+02 -0.16154458880E+02 -0.19742371002E+02  0.38192698140E+02  0.10566000000E+00 0.  1.
         22    1    1    0    0    0 -0.15624378588E+02  0.17812300522E+02 -0.17212421974E+02  0.29285947592E+02  0.00000000000E+00 0. -1.
</event>
<event>
 5    1  0.1691066E-003  0.9118800E+02  0.7818608E-02  0.1130116E+00
         25   -1    0    0    0    0  0.00000000000E+00  0.00000000000E+00  0.99999998245E-14  0.12500000000E+03  0.12500000000E+03 0.  0.
        -13    1    3    3    0    0 -0.19997628955E+02  0.46975594629E+02  0.29894807339E+02  0.59163521907E+02  0.10566000000E+00 0.  1.
         23    2    1    0    0    0 -0.11217111410E+02  0.27299202672E+02  0.66262155843E+00  0.95478666659E+02  0.90800146832E+02 0.  0.
         13    1    3    3    0    0  0.87805175452E+01 -0.19676391957E+02 -0.29232185780E+02  0.36315144752E+02  0.10566000000E+00 0. -1.
         22    1    1    0    0    0  0.11217111410E+02 -0.27299202672E+02 -0.66262155843E+00  0.29521333341E+02  0.00000000000E+00 0.  1.
</event>
<event>
 5    1  0.1691066E-003  0.9118800E+02  0.7818608E-02  0.1130116E+00
         25   -1    0    0    0    0  0.00000000000E+00  0.00000000000E+00  0.99999998245E-14  0.12500000000E+03  0.12500000000E+03 0.  0.
        -13    1    3    3    0    0 -0.18422634234E+02 -0.46978066256E+02 -0.95344340881E+01  0.51354150355E+02  0.10566000000E+00 0.  1.
         23    2    1    0    0    0 -0.14803928414E+01 -0.10529412770E+02 -0.27600948254E+02  0.95421757307E+02  0.90721768759E+02 0.  0.
         13    1    3    3    0    0  0.16942241392E+02  0.36448653486E+02 -0.18066514166E+02  0.44067606952E+02  0.10566000000E+00 0. -1.
         22    1    1    0    0    0  0.14803928414E+01  0.10529412770E+02  0.27600948254E+02  0.29578242693E+02  0.00000000000E+00 0. -1.
</event>
<event>
 5    1  0.1691066E-003  0.9118800E+02  0.7818608E-02  0.1130116E+00
         25   -1    0    0    0    0  0.00000000000E+00  0.00000000000E+00  0.99999998245E-14  0.12500000000E+03  0.12500000000E+03 0.  0.
        -13    1    3    3    0    0 -0.39489467123E+02 -0.93166840987E+01  0.41887389694E+02  0.58316234410E+02  0.10566000000E+00 0.  1.
         23    2    1    0    0    0 -0.81019067696E+01  0.27306948044E+01  0.29726553602E+02  0.94068372554E+02  0.88837453467E+02 0.  0.
         13    1    3    3    0    0  0.31387560354E+02  0.12047378903E+02 -0.12160836092E+02  0.35752138144E+02  0.10566000000E+00 0. -1.
         22    1    1    0    0    0  0.81019067696E+01 -0.27306948044E+01 -0.29726553602E+02  0.30931627446E+02  0.00000000000E+00 0.  1.
</event>
<event>
 5    1  0.1691066E-003  0.9118800E+02  0.7818608E-02  0.1130116E+00
         25   -1    0    0    0    0  0.00000000000E+00  0.00000000000E+00  0.99999998245E-14  0.12500000000E+03  0.12500000000E+03 0.  0.
        -13    1    3    3    0    0 -0.18011045992E+02  0.45134402096E+02 -0.16707766706E+02  0.51387475737E+02  0.10566000000E+00 0. -1.
         23    2    1    0    0    0  0.17498801740E+02  0.18942788412E+02  0.16065549552E+01  0.99161689026E+02  0.95736211834E+02 0.  0.
         13    1    3    3    0    0  0.35509847733E+02 -0.26191613684E+02  0.18314321661E+02  0.47774213288E+02  0.10566000000E+00 0.  1.
         22    1    1    0    0    0 -0.17498801740E+02 -0.18942788412E+02 -0.16065549552E+01  0.25838310974E+02  0.00000000000E+00 0.  1.
</event>
<event>
 5    1  0.1691066E-003  0.9118800E+02  0.7818608E-02  0.1130116E+00
         25   -1    0    0    0    0  0.00000000000E+00  0.00000000000E+00  0.99999998245E-14  0.12500000000E+03  0.12500000000E+03 0.  0.
        -13    1    3    3    0    0  0.43917513341E+02 -0.20864338697E+02  0.36109684727E+02  0.60563925752E+02  0.10566000000E+00 0.  1.
         23    2    1    0    0    0  0.15588282372E+02 -0.19406845285E+02  0.14832573106E+02  0.96023709414E+02  0.91547404952E+02 0.  0.
         13    1    3    3    0    0 -0.28329230970E+02  0.14574934118E+01 -0.21277111622E+02  0.35459783662E+02  0.10566000000E+00 0. -1.
         22    1    1    0    0    0 -0.15588282372E+02  0.19406845285E+02 -0.14832573106E+02  0.28976290586E+02  0.00000000000E+00 0.  1.
</event>
<event>
 5    1  0.1691066E-003  0.9118800E+02  0.7818608E-02  0.1130116E+00
         25   -1    0    0    0    0  0.00000000000E+00  0.00000000000E+00  0.99999998245E-14  0.12500000000E+03  0.12500000000E+03 0.  0.
        -13    1    3    3    0    0 -0.22653230931E+02 -0.22938831252E+02  0.10636371442E+02  0.33948525922E+02  0.10566000000E+00 0.  1.
         23    2    1    0    0    0  0.21458050062E+02  0.17116690784E+02 -0.80520985554E+01  0.96394662963E+02  0.92052516210E+02 0.  0.
         13    1    3    3    0    0  0.44111280993E+02  0.40055522036E+02 -0.18688469998E+02  0.62446137041E+02  0.10566000000E+00 0. -1.
         22    1    1    0    0    0 -0.21458050062E+02 -0.17116690784E+02  0.80520985554E+01  0.28605337037E+02  0.00000000000E+00 0. -1.
</event>
<event>
 5    1  0.1691066E-003  0.9118800E+02  0.7818608E-02  0.1130116E+00
         25   -1    0    0    0    0  0.00000000000E+00  0.00000000000E+00  0.99999998245E-14  0.12500000000E+03  0.12500000000E+03 0.  0.
        -13    1    3    3    0    0  0.32659486570E+02 -0.32728192083E+02 -0.35289928584E+02  0.58164996720E+02  0.10566000000E+00 0. -1.
         23    2    1    0    0    0  0.27574863371E+02 -0.59179105956E+01 -0.10901075632E+02  0.94763793133E+02  0.89810624557E+02 0.  0.
         13    1    3    3    0    0 -0.50846231980E+01  0.26810281487E+02  0.24388852952E+02  0.36598796412E+02  0.10566000000E+00 0.  1.
         22    1    1    0    0    0 -0.27574863371E+02  0.59179105956E+01  0.10901075632E+02  0.30236206867E+02  0.00000000000E+00 0. -1.
</event>
<event>
 5    1  0.1691066E-003  0.9118800E+02  0.7818608E-02  0.1130116E+00
         25   -1    0    0    0    0  0.00000000000E+00  0.00000000000E+00  0.99999998245E-14  0.12500000000E+03  0.12500000000E+03 0.  0.
        -13    1    3    3    0    0  0.24817415022E+02 -0.26218227659E+02 -0.25415857153E+02  0.44150611648E+02  0.10566000000E+00 0. -1.
         23    2    1    0    0    0  0.27804183606E+02  0.57623634468E+01  0.12613607879E+02  0.93929426104E+02  0.88641731290E+02 0.  0.
         13    1    3    3    0    0  0.29867685837E+01  0.31980591106E+02  0.38029465032E+02  0.49778814457E+02  0.10566000000E+00 0.  1.
         22    1    1    0    0    0 -0.27804183606E+02 -0.57623634468E+01 -0.12613607879E+02  0.31070573896E+02  0.00000000000E+00 0. -1.
</event>
<event>
 5    1  0.1691066E-003  0.9118800E+02  0.7818608E-02  0.1130116E+00
         25   -1    0    0    0    0  0.00000000000E+00  0.00000000000E+00  0.99999998245E-14  0.12500000000E+03  0.12500000000E+03 0.  0.
        -13    1    3    3    0    0  0.10850927292E+02 -0.26925879041E+02  0.32651110133E+02  0.43690407896E+02  0.10566000000E+00 0. -1.
         23    2    1    0    0    0 -0.18939530066E+02 -0.20370629036E+02 -0.93998066369E+01  0.95639742998E+02  0.91021622428E+02 0.  0.
         13    1    3    3    0    0 -0.29790457358E+02  0.65552500048E+01 -0.42050916770E+02  0.51949335101E+02  0.10566000000E+00 0.  1.
         22    1    1    0    0    0  0.18939530066E+02  0.20370629036E+02  0.93998066369E+01  0.29360257002E+02  0.00000000000E+00 0.  1.
</event>
<event>
 5    1  0.1691066E-003  0.9118800E+02  0.7818608E-02  0.1130116E+00
         25   -1    0    0    0    0  0.00000000000E+00  0.00000000000E+00  0.99999998245E-14  0.12500000000E+03  0.12500000000E+03 0.  0.
        -13    1    3    3    0    0 -0.38294428831E+02 -0.13379144308E+02 -0.46603442983E+01  0.40831296268E+02  0.10566000000E+00 0. -1.
         23    2    1    0    0    0  0.15916941162E+02 -0.22540197454E+02 -0.89828370474E+01  0.95981025541E+02  0.91489105282E+02 0.  0.
         13    1    3    3    0    0  0.54211369993E+02 -0.91610531459E+01 -0.43224927491E+01  0.55149729273E+02  0.10566000000E+00 0.  1.
         22    1    1    0    0    0 -0.15916941162E+02  0.22540197454E+02  0.89828370474E+01  0.29018974459E+02  0.00000000000E+00 0.  1.
</event>
<event>
 5    1  0.1691066E-003  0.9118800E+02  0.7818608E-02  0.1130116E+00
         25   -1    0    0    0    0  0.00000000000E+00  0.00000000000E+00  0.99999998245E-14  0.12500000000E+03  0.12500000000E+03 0.  0.
        -13    1    3    3    0    0 -0.13504973628E+02 -0.13981465762E+02 -0.59152083213E+02  0.62264322127E+02  0.10566000000E+00 0.  1.
         23    2    1    0    0    0 -0.30748440543E+01 -0.49675871713E+01 -0.28984694926E+02  0.95432380410E+02  0.90736404506E+02 0.  0.
         13    1    3    3    0    0  0.10430129573E+02  0.90138785902E+01  0.30167388287E+02  0.33168058283E+02  0.10566000000E+00 0. -1.
         22    1    1    0    0    0  0.30748440543E+01  0.49675871713E+01  0.28984694926E+02  0.29567619590E+02  0.00000000000E+00 0.  1.
</event>
<event>
 5    1  0.1691066E-003  0.9118800E+02  0.7818608E-02  0.1130116E+00
         25   -1    0    0    0    0  0.00000000000E+00  0.00000000000E+00  0.99999998245E-14  0.12500000000E+03  0.12500000000E+03 0.  0.
        -13    1    3    3    0    0  0.13201057965E+02  0.21761130314E+02 -0.20859785525E+02  0.32908305033E+02  0.10566000000E+00 0. -1.
         23    2    1    0    0    0 -0.13046884528E+02 -0.12859617645E+02  0.23635295103E+02  0.95096519660E+02  0.90272531342E+02 0.  0.
         13    1    3    3    0    0 -0.26247942494E+02 -0.34620747959E+02  0.44495080628E+02  0.62188214627E+02  0.10566000000E+00 0.  1.
         22    1    1    0    0    0  0.13046884528E+02  0.12859617645E+02 -0.23635295103E+02  0.29903480340E+02  0.00000000000E+00 0.  1.
</event>
<event>
 5    1  0.1691066E-003  0.9118800E+02  0.7818608E-02  0.1130116E+00
         25   -1    0    0    0    0  0.00000000000E+00  0.00000000000E+00  0.99999998245E-14  0.12500000000E+03  0.12500000000E+03 0.  0.
        -13    1    3    3    0    0 -0.64924132285E+01  0.17077168523E+02 -0.31854922110E+02  0.36722313938E+02  0.10566000000E+00 0. -1.
         23    2    1    0    0    0 -0.14424633510E+02 -0.33662697044E+01  0.24039001535E+02  0.96763934083E+02  0.92552598672E+02 0.  0.
         13    1    3    3    0    0 -0.79322202819E+01 -0.20443438227E+02  0.55893923645E+02  0.60041620145E+02  0.10566000000E+00 0.  1.
         22    1    1    0    0    0  0.14424633510E+02  0.33662697044E+01 -0.24039001535E+02  0.28236065917E+02  0.00000000000E+00 0.  1.
</event>
<event>
 5    1  0.1691066E-003  0.9118800E+02  0.7818608E-02  0.1130116E+00
         25   -1    0    0    0    0  0.00000000000E+00  0.00000000000E+00  0.99999998245E-14  0.12500000000E+03  0.12500000000E+03 0.  0.
        -13    1    3    3    0    0  0.54341134614E+02  0.26233158799E+00  0.20525428736E+02  0.58089001694E+02  0.10566000000E+00 0. -1.
         23    2    1    0    0    0  0.29707400822E+02  0.92391033847E+00 -0.64084417616E+01  0.94595207619E+02  0.89575676970E+02 0.  0.
         13    1    3    3    0    0 -0.24633733792E+02  0.66157875049E+00 -0.26933870498E+02  0.36506205924E+02  0.10566000000E+00 0.  1.
         22    1    1    0    0    0 -0.29707400822E+02 -0.92391033847E+00  0.64084417616E+01  0.30404792381E+02  0.00000000000E+00 0. -1.
</event>
<event>
 5    1  0.1691066E-003  0.9118800E+02  0.7818608E-02  0.1130116E+00
         25   -1    0    0    0    0  0.00000000000E+00  0.00000000000E+00  0.99999998245E-14  0.12500000000E+03  0.12500000000E+03 0.  0.
        -13    1    3    3    0    0  0.20238244786E+02  0.43604438503E+02 -0.74570884674E+01  0.48647229537E+02  0.10566000000E+00 0.  1.
         23    2    1    0    0    0 -0.57421602611E+01  0.16829195806E+02  0.22377580597E+02  0.96417656687E+02  0.92083734566E+02 0.  0.
         13    1    3    3    0    0 -0.25980405047E+02 -0.26775242697E+02  0.29834669064E+02  0.47770427150E+02  0.10566000000E+00 0. -1.
         22    1    1    0    0    0  0.57421602611E+01 -0.16829195806E+02 -0.22377580597E+02  0.28582343313E+02  0.00000000000E+00 0. -1.
</event>
<event>
 5    1  0.1691066E-003  0.9118800E+02  0.7818608E-02  0.1130116E+00
         25   -1    0    0    0    0  0.00000000000E+00  0.00000000000E+00  0.99999998245E-14  0.12500000000E+03  0.12500000000E+03 0.  0.
        -13    1    3    3    0    0 -0.31523919864E+02 -0.19324554310E+02  0.45175721808E+01  0.37250712011E+02  0.10566000000E+00 0.  1.
         23    2    1    0    0    0  0.13318461587E+02  0.48776428297E+01 -0.25085519259E+02  0.96182364859E+02  0.91763779427E+02 0.  0.
         13    1    3    3    0    0  0.44842381451E+02  0.24202197140E+02 -0.29603091440E+02  0.58931652848E+02  0.10566000000E+00 0. -1.
         22    1    1    0    0    0 -0.13318461587E+02 -0.48776428297E+01  0.25085519259E+02  0.28817635141E+02  0.00000000000E+00 0. -1.
</event>
<event>
 5    1  0.1691066E-003  0.9118800E+02  0.7818608E-02  0.1130116E+00
         25   -1    0    0    0    0  0.00000000000E+00  0.00000000000E+00  0.99999998245E-14  0.12500000000E+03  0.12500000000E+03 0.  0.
        -13    1    3    3    0    0 -0.11998850562E+02  0.46431402157E+02  0.83119985466E+01  0.48671839959E+02  0.10566000000E+00 0. -1.
         23    2    1    0    0    0 -0.75019627927E+01  0.34563083795E+01  0.27745826309E+02  0.96050796368E+02  0.91584382358E+02 0.  0.
         13    1    3    3    0    0  0.44968877698E+01 -0.42975093778E+02  0.19433827763E+02  0.47378956409E+02  0.10566000000E+00 0.  1.
         22    1    1    0    0    0  0.75019627927E+01 -0.34563083795E+01 -0.27745826309E+02  0.28949203632E+02  0.00000000000E+00 0. -1.
</event>
<event>
 5    1  0.1691066E-003  0.9118800E+02  0.7818608E-02  0.1130116E+00
         25   -1    0    0    0    0  0.00000000000E+00  0.00000000000E+00  0.99999998245E-14  0.12500000000E+03  0.12500000000E+03 0.  0.
        -13    1    3    3    0    0  0.32210839355E+02 -0.17876045311E+02  0.67699270166E+00  0.36845089918E+02  0.10566000000E+00 0. -1.
         23    2    1    0    0    0 -0.18332238312E+02 -0.22332420489E+02 -0.18052630195E+02  0.90930872870E+02  0.84307284487E+02 0.  0.
         13    1    3    3    0    0 -0.50543077667E+02 -0.44563751780E+01 -0.18729622897E+02  0.54085782953E+02  0.10566000000E+00 0.  1.
         22    1    1    0    0    0  0.18332238312E+02  0.22332420489E+02  0.18052630195E+02  0.34069127130E+02  0.00000000000E+00 0.  1.
</event>
<event>
 5    1  0.1691066E-003  0.9118800E+02  0.7818608E-02  0.1130116E+00
         25   -1    0    0    0    0  0.00000000000E+00  0.00000000000E+00  0.99999998245E-14  0.12500000000E+03  0.12500000000E+03 0.  0.
        -13    1    3    3    0    0 -0.25421262990E+01 -0.38621644653E+02 -0.68599650510E+01  0.39308575736E+02  0.10566000000E+00 0.  1.
         23    2    1    0    0    0  0.13593442849E+02  0.18589234695E+02 -0.12106535935E+02  0.98982514584E+02  0.95501982419E+02 0.  0.
         13    1    3    3    0    0  0.16135569148E+02  0.57210879348E+02 -0.52465708844E+01  0.59673938848E+02  0.10566000000E+00 0. -1.
         22    1    1    0    0    0 -0.13593442849E+02 -0.18589234695E+02  0.12106535935E+02  0.26017485416E+02  0.00000000000E+00 0. -1.
</event>
<event>
 5    1  0.1691066E-003  0.9118800E+02  0.7818608E-02  0.1130116E+00
         25   -1    0    0    0    0  0.00000000000E+00  0.00000000000E+00  0.99999998245E-14  0.12500000000E+03  0.12500000000E+03 0.  0.
        -13    1    3    3    0    0 -0.49398463244E+02 -0.57482707292E+01  0.17739381113E+02  0.52801018869E+02  0.10566000000E+00 0.  1.
         23    2    1    0    0    0 -0.10811506935E+02  0.10839288064E+02  0.25252682323E+02  0.95469053309E+02  0.90786911652E+02 0.  0.
         13    1    3    3    0    0  0.38586956309E+02  0.16587558794E+02  0.75133012092E+01  0.42668034441E+02  0.10566000000E+00 0. -1.
         22    1    1    0    0    0  0.10811506935E+02 -0.10839288064E+02 -0.25252682323E+02  0.29530946691E+02  0.00000000000E+00 0.  1.
</event>
<event>
 5    1  0.1691066E-003  0.9118800E+02  0.7818608E-02  0.1130116E+00
         25   -1    0    0    0    0  0.00000000000E+00  0.00000000000E+00  0.99999998245E-14  0.12500000000E+03  0.12500000000E+03 0.  0.
        -13    1    3    3    0    0  0.43668357726E+02 -0.25913814537E+02  0.12758832128E+02  0.52356949984E+02  0.10566000000E+00 0.  1.
         23    2    1    0    0    0  0.15111850603E+02  0.26533093428E+01  0.25953870233E+02  0.94850183098E+02  0.89930783242E+02 0.  0.
         13    1    3    3    0    0 -0.28556507123E+02  0.28567123880E+02  0.13195038105E+02  0.42493233114E+02  0.10566000000E+00 0. -1.
         22    1    1    0    0    0 -0.15111850603E+02 -0.26533093428E+01 -0.25953870233E+02  0.30149816902E+02  0.00000000000E+00 0.  1.
</event>
<event>
 5    1  0.1691066E-003  0.9118800E+02  0.7818608E-02  0.1130116E+00
         25   -1    0    0    0    0  0.00000000000E+00  0.00000000000E+00  0.99999998245E-14  0.12500000000E+03  0.12500000000E+03 0.  0.
        -13    1    3    3    0    0  0.38167514322E+02  0.39421218932E+02  0.29123435139E+02  0.62120667172E+02  0.10566000000E+00 0. -1.
         23    2    1    0    0    0  0.17955786921E+02  0.21384148647E+02  0.97557032113E+01  0.95421868848E+02  0.90721922444E+02 0.  0.
         13    1    3    3    0    0 -0.20211727401E+02 -0.18037070284E+02 -0.19367731928E+02  0.33301201675E+02  0.10566000000E+00 0.  1.
         22    1    1    0    0    0 -0.17955786921E+02 -0.21384148647E+02 -0.97557032113E+01  0.29578131152E+02  0.00000000000E+00 0. -1.
</event>
<event>
 5    1  0.1691066E-003  0.9118800E+02  0.7818608E-02  0.1130116E+00
         25   -1    0    0    0    0  0.00000000000E+00  0.00000000000E+00  0.99999998245E-14  0.12500000000E+03  0.12500000000E+03 0.  0.
        -13    1    3    3    0    0  0.56643021415E+01  0.30858495702E+02  0.37444844941E+02  0.48851393557E+02  0.10566000000E+00 0.  1.
         23    2    1    0    0    0 -0.19823340428E+02 -0.50466081292E+01  0.20525093288E+02  0.96022206195E+02  0.91545352415E+02 0.  0.
         13    1    3    3    0    0 -0.25487642569E+02 -0.35905103831E+02 -0.16919751654E+02  0.47170812638E+02  0.10566000000E+00 0. -1.
         22    1    1    0    0    0  0.19823340428E+02  0.50466081292E+01 -0.20525093288E+02  0.28977793805E+02  0.00000000000E+00 0.  1.
</event>
<event>
 5    1  0.1691066E-003  0.9118800E+02  0.7818608E-02  0.1130116E+00
         25   -1    0    0    0    0  0.00000000000E+00  0.00000000000E+00  0.99999998245E-14  0.12500000000E+03  0.12500000000E+03 0.  0.
        -13    1    3    3    0    0 -0.85084852915E+01 -0.49346825506E+01  0.40983050968E+02  0.42146969577E+02  0.10566000000E+00 0. -1.
         23    2    1    0    0    0  0.27902219512E+02 -0.54962944277E+01  0.55667122183E+00  0.96556143212E+02  0.92271533004E+02 0.  0.
         13    1    3    3    0    0  0.36410704804E+02 -0.56161187717E+00 -0.40426379746E+02  0.54409173635E+02  0.10566000000E+00 0.  1.
         22    1    1    0    0    0 -0.27902219512E+02  0.54962944277E+01 -0.55667122183E+00  0.28443856788E+02  0.00000000000E+00 0.  1.
</event>
<event>
 5    1  0.1691066E-003  0.9118800E+02  0.7818608E-02  0.1130116E+00
         25   -1    0    0    0    0  0.00000000000E+00  0.00000000000E+00  0.99999998245E-14  0.12500000000E+03  0.12500000000E+03 0.  0.
        -13    1    3    3    0    0  0.50804479292E+02  0.23195424627E+02  0.68392133069E+01  0.56266409540E+02  0.10566000000E+00 0. -1.
         23    2    1    0    0    0  0.20400335647E+02  0.49030196615E+01  0.21772220027E+02  0.94763550784E+02  0.89810287250E+02 0.  0.
         13    1    3    3    0    0 -0.30404143645E+02 -0.18292404966E+02  0.14933006720E+02  0.38497141244E+02  0.10566000000E+00 0.  1.
         22    1    1    0    0    0 -0.20400335647E+02 -0.49030196615E+01 -0.21772220027E+02  0.30236449216E+02  0.00000000000E+00 0. -1.
</event>
<event>
 5    1  0.1691066E-003  0.9118800E+02  0.7818608E-02  0.1130116E+00
         25   -1    0    0    0    0  0.00000000000E+00  0.00000000000E+00  0.99999998245E-14  0.12500000000E+03  0.12500000000E+03 0.  0.
        -13    1    3    3    0    0  0.93773924786E+01 -0.72182824217E+01  0.25421700041E+02  0.28041274719E+02  0.10566000000E+00 0.  1.
         23    2    1    0    0    0  0.29724525767E+02  0.16368114792E+00 -0.27054637625E+02  0.84806373134E+02  0.74676591269E+02 0.  0.
         13    1    3    3    0    0  0.20347133288E+02  0.73819635696E+01 -0.52476337667E+02  0.56765098416E+02  0.10566000000E+00 0. -1.
         22    1    1    0    0    0 -0.29724525767E+02 -0.16368114792E+00  0.27054637625E+02  0.40193626866E+02  0.00000000000E+00 0. -1.
</event>
<event>
 5    1  0.1691066E-003  0.9118800E+02  0.7818608E-02  0.1130116E+00
         25   -1    0    0    0    0  0.00000000000E+00  0.00000000000E+00  0.99999998245E-14  0.12500000000E+03  0.12500000000E+03 0.  0.
        -13    1    3    3    0    0  0.15196080183E+02 -0.34886053430E+02 -0.36541133355E+02  0.52756261882E+02  0.10566000000E+00 0. -1.
         23    2    1    0    0    0 -0.17977127181E+02 -0.15419451398E+02 -0.16567425850E+02  0.96096433051E+02  0.91646648944E+02 0.  0.
         13    1    3    3    0    0 -0.33173207364E+02  0.19466602032E+02  0.19973707504E+02  0.43340171169E+02  0.10566000000E+00 0.  1.
         22    1    1    0    0    0  0.17977127181E+02  0.15419451398E+02  0.16567425850E+02  0.28903566949E+02  0.00000000000E+00 0. -1.
</event>
<event>
 5    1  0.1691066E-003  0.9118800E+02  0.7818608E-02  0.1130116E+00
         25   -1    0    0    0    0  0.00000000000E+00  0.00000000000E+00  0.99999998245E-14  0.12500000000E+03  0.12500000000E+03 0.  0.
        -13    1    3    3    0    0  0.29431612627E+02  0.48170446692E+02 -0.98375975689E+01  0.57300970728E+02  0.10566000000E+00 0.  1.
         23    2    1    0    0    0  0.15699445155E+02  0.22433651960E+02  0.13323765075E+02  0.94548989603E+02  0.89511157967E+02 0.  0.
         13    1    3    3    0    0 -0.13732167472E+02 -0.25736794732E+02  0.23161362644E+02  0.37248018875E+02  0.10566000000E+00 0. -1.
         22    1    1    0    0    0 -0.15699445155E+02 -0.22433651960E+02 -0.13323765075E+02  0.30451010397E+02  0.00000000000E+00 0. -1.
</event>
<event>
 5    1  0.1691066E-003  0.9118800E+02  0.7818608E-02  0.1130116E+00
         25   -1    0    0    0    0  0.00000000000E+00  0.00000000000E+00  0.99999998245E-14  0.12500000000E+03  0.12500000000E+03 0.  0.
        -13    1    3    3    0    0  0.40054922683E+02  0.35924385311E+02  0.24760216647E+02  0.59228690544E+02  0.10566000000E+00 0.  1.
         23    2    1    0    0    0  0.10233877941E+02  0.23899657760E+02  0.20955852973E+02  0.91607281144E+02  0.85304280584E+02 0.  0.
         13    1    3    3    0    0 -0.29821044742E+02 -0.12024727551E+02 -0.38043636739E+01  0.32378590600E+02  0.10566000000E+00 0. -1.
         22    1    1    0    0    0 -0.10233877941E+02 -0.23899657760E+02 -0.20955852973E+02  0.33392718856E+02  0.00000000000E+00 0.  1.
</event>
<event>
 5    1  0.1691066E-003  0.9118800E+02  0.7818608E-02  0.1130116E+00
         25   -1    0    0    0    0  0.00000000000E+00  0.00000000000E+00  0.99999998245E-14  0.12500000000E+03  0.12500000000E+03 0.  0.
        -13    1    3    3    0    0  0.37020523777E+02  0.83588909581E+00  0.14033434399E+02  0.39600080005E+02  0.10566000000E+00 0. -1.
         23    2    1    0    0    0 -0.43178924927E+01  0.19445646616E+02 -0.20369171317E+02  0.96509992839E+02  0.92208992022E+02 0.  0.
         13    1    3    3    0    0 -0.41338416270E+02  0.18609757520E+02 -0.34402605716E+02  0.56909912834E+02  0.10566000000E+00 0.  1.
         22    1    1    0    0    0  0.43178924927E+01 -0.19445646616E+02  0.20369171317E+02  0.28490007161E+02  0.00000000000E+00 0.  1.
</event>
<event>
 5    1  0.1691066E-003  0.9118800E+02  0.7818608E-02  0.1130116E+00
         25   -1    0    0    0    0  0.00000000000E+00  0.00000000000E+00  0.99999998245E-14  0.12500000000E+03  0.12500000000E+03 0.  0.
        -13    1    3    3    0    0 -0.31087278705E+01  0.21249681141E+02 -0.35741609974E+02  0.41697565698E+02  0.10566000000E+00 0. -1.
         23    2    1    0    0    0  0.10446490476E+02  0.23225243287E+02  0.15801181839E+02  0.95029707433E+02  0.90179969275E+02 0.  0.
         13    1    3    3    0    0  0.13555218346E+02  0.19755621465E+01  0.51542791813E+02  0.53332141736E+02  0.10566000000E+00 0.  1.
         22    1    1    0    0    0 -0.10446490476E+02 -0.23225243287E+02 -0.15801181839E+02  0.29970292567E+02  0.00000000000E+00 0.  1.
</event>
<event>
 5    1  0.1691066E-003  0.9118800E+02  0.7818608E-02  0.1130116E+00
         25   -1    0    0    0    0  0.00000000000E+00  0.00000000000E+00  0.99999998245E-14  0.12500000000E+03  0.12500000000E+03 0.  0.
        -13    1    3    3    0    0  0.12234209611E+02  0.31609463700E+02  0.78928975152E+01  0.34801480937E+02  0.10566000000E+00 0. -1.
         23    2    1    0    0    0 -0.17729973018E+02 -0.18921318343E+02  0.16630906195E+02  0.94194882375E+02  0.89015282922E+02 0.  0.
         13    1    3    3    0    0 -0.29964182629E+02 -0.50530782044E+02  0.87380086794E+01  0.59393401437E+02  0.10566000000E+00 0.  1.
         22    1    1    0    0    0  0.17729973018E+02  0.18921318343E+02 -0.16630906195E+02  0.30805117625E+02  0.00000000000E+00 0.  1.
</event>
<event>
 5    1  0.1691066E-003  0.9118800E+02  0.7818608E-02  0.1130116E+00
         25   -1    0    0    0    0  0.00000000000E+00  0.00000000000E+00  0.99999998245E-14  0.12500000000E+03  0.12500000000E+03 0.  0.
        -13    1    3    3    0    0 -0.30969947847E+02 -0.14762899915E+02 -0.14627054602E+02  0.37296685830E+02  0.10566000000E+00 0. -1.
         23    2    1    0    0    0  0.18017560113E+02 -0.62618369550E+01  0.19593668608E+02  0.97654892138E+02  0.93748189500E+02 0.  0.
         13    1    3    3    0    0  0.48987507960E+02  0.85010629596E+01  0.34220723210E+02  0.60358206308E+02  0.10566000000E+00 0.  1.
         22    1    1    0    0    0 -0.18017560113E+02  0.62618369550E+01 -0.19593668608E+02  0.27345107862E+02  0.00000000000E+00 0.  1.
</event>
<event>
 5    1  0.1691066E-003  0.9118800E+02  0.7818608E-02  0.1130116E+00
         25   -1    0    0    0    0  0.00000000000E+00  0.00000000000E+00  0.99999998245E-14  0.12500000000E+03  0.12500000000E+03 0.  0.
        -13    1    3    3    0    0  0.37202535918E+00 -0.49539286749E+02  0.15028301085E+02  0.51770071779E+02  0.10566000000E+00 0. -1.
         23    2    1    0    0    0  0.22880127061E+02 -0.10635985988E+02  0.12641580748E+02  0.96778838151E+02  0.92572725669E+02 0.  0.
         13    1    3    3    0    0  0.22508101702E+02  0.38903300761E+02 -0.23867203368E+01  0.45008766372E+02  0.10566000000E+00 0.  1.
         22    1    1    0    0    0 -0.22880127061E+02  0.10635985988E+02 -0.12641580748E+02  0.28221161849E+02  0.00000000000E+00 0. -1.
</event>
<event>
 5    1  0.1691066E-003  0.9118800E+02  0.7818608E-02  0.1130116E+00
         25   -1    0    0    0    0  0.00000000000E+00  0.00000000000E+00  0.99999998245E-14  0.12500000000E+03  0.12500000000E+03 0.  0.
        -13    1    3    3    0    0 -0.15945049776E+02  0.15466656438E+02  0.27741308978E+02  0.35539463439E+02  0.10566000000E+00 0. -1.
         23    2    1    0    0    0  0.27052445062E+02 -0.10124219152E+02 -0.54790299775E+01  0.95600095804E+02  0.90967158640E+02 0.  0.
         13    1    3    3    0    0  0.42997494837E+02 -0.25590875590E+02 -0.33220338955E+02  0.60060632365E+02  0.10566000000E+00 0.  1.
         22    1    1    0    0    0 -0.27052445062E+02  0.10124219152E+02  0.54790299775E+01  0.29399904196E+02  0.00000000000E+00 0.  1.
</event>
<event>
 5    1  0.1691066E-003  0.9118800E+02  0.7818608E-02  0.1130116E+00
         25   -1    0    0    0    0  0.00000000000E+00  0.00000000000E+00  0.99999998245E-14  0.12500000000E+03  0.12500000000E+03 0.  0.
        -13    1    3    3    0    0  0.10910869927E+02  0.11001502623E+02 -0.58622482944E+02  0.60635689268E+02  0.10566000000E+00 0. -1.
         23    2    1    0    0    0  0.70755476078E+01  0.14475739167E+02 -0.21420019116E+02  0.98196499905E+02  0.94467586908E+02 0.  0.
         13    1    3    3    0    0 -0.38353223192E+01  0.34742365444E+01  0.37202463827E+02  0.37560810637E+02  0.10566000000E+00 0.  1.
         22    1    1    0    0    0 -0.70755476078E+01 -0.14475739167E+02  0.21420019116E+02  0.26803500095E+02  0.00000000000E+00 0. -1.
</event>
<event>
 5    1  0.1691066E-003  0.9118800E+02  0.7818608E-02  0.1130116E+00
         25   -1    0    0    0    0  0.00000000000E+00  0.00000000000E+00  0.99999998245E-14  0.12500000000E+03  0.12500000000E+03 0.  0.
        -13    1    3    3    0    0  0.29647012138E+02  0.15024717935E+02 -0.47020195193E+02  0.57581224351E+02  0.10566000000E+00 0.  1.
         23    2    1    0    0    0  0.73185499886E+01 -0.80663100777E+01 -0.28106085351E+02  0.94857362989E+02  0.89940762434E+02 0.  0.
         13    1    3    3    0    0 -0.22328462150E+02 -0.23091028012E+02  0.18914109841E+02  0.37276138638E+02  0.10566000000E+00 0. -1.
         22    1    1    0    0    0 -0.73185499886E+01  0.80663100777E+01  0.28106085351E+02  0.30142637011E+02  0.00000000000E+00 0.  1.
</event>
<event>
 5    1  0.1691066E-003  0.9118800E+02  0.7818608E-02  0.1130116E+00
         25   -1    0    0    0    0  0.00000000000E+00  0.00000000000E+00  0.99999998245E-14  0.12500000000E+03  0.12500000000E+03 0.  0.
        -13    1    3    3    0    0 -0.28055242240E+02 -0.32738161845E+02 -0.18168363715E+02  0.46786584212E+02  0.10566000000E+00 0.  1.
         23    2    1    0    0    0  0.17615881212E+02 -0.14768540922E+02 -0.17897730111E+02  0.95866551612E+02  0.91332567593E+02 0.  0.
         13    1    3    3    0    0  0.45671123451E+02  0.17969620923E+02  0.27063360341E+00  0.49079967400E+02  0.10566000000E+00 0. -1.
         22    1    1    0    0    0 -0.17615881212E+02  0.14768540922E+02  0.17897730111E+02  0.29133448388E+02  0.00000000000E+00 0. -1.
</event>
<event>
 5    1  0.1691066E-003  0.9118800E+02  0.7818608E-02  0.1130116E+00
         25   -1    0    0    0    0  0.00000000000E+00  0.00000000000E+00  0.99999998245E-14  0.12500000000E+03  0.12500000000E+03 0.  0.
        -13    1    3    3    0    0  0.33651534157E+02 -0.44458794365E+01  0.21888568165E+02  0.40389505759E+02  0.10566000000E+00 0.  1.
         23    2    1    0    0    0 -0.87241470829E+01 -0.27663134934E+02 -0.48153096154E+01  0.95596820183E+02  0.90962657424E+02 0.  0.
         13    1    3    3    0    0 -0.42375681240E+02 -0.23217255497E+02 -0.26703877781E+02  0.55207314424E+02  0.10566000000E+00 0. -1.
         22    1    1    0    0    0  0.87241470829E+01  0.27663134934E+02  0.48153096154E+01  0.29403179817E+02  0.00000000000E+00 0. -1.
</event>
<event>
 5    1  0.1691066E-003  0.9118800E+02  0.7818608E-02  0.1130116E+00
         25   -1    0    0    0    0  0.00000000000E+00  0.00000000000E+00  0.99999998245E-14  0.12500000000E+03  0.12500000000E+03 0.  0.
        -13    1    3    3    0    0  0.21851900687E+02 -0.17522309261E+02  0.52711439761E+02  0.59691238311E+02  0.10566000000E+00 0. -1.
         23    2    1    0    0    0  0.13036353191E+02 -0.18987863904E+02  0.17351238172E+02  0.96163374916E+02  0.91737907807E+02 0.  0.
         13    1    3    3    0    0 -0.88155474963E+01 -0.14655546435E+01 -0.35360201588E+02  0.36472136604E+02  0.10566000000E+00 0.  1.
         22    1    1    0    0    0 -0.13036353191E+02  0.18987863904E+02 -0.17351238172E+02  0.28836625084E+02  0.00000000000E+00 0. -1.
</event>
<event>
 5    1  0.1691066E-003  0.9118800E+02  0.7818608E-02  0.1130116E+00
         25   -1    0    0    0    0  0.00000000000E+00  0.00000000000E+00  0.99999998245E-14  0.12500000000E+03  0.12500000000E+03 0.  0.
        -13    1    3    3    0    0 -0.37856623679E+02 -0.10042019978E+02  0.41907200185E+02  0.57360184039E+02  0.10566000000E+00 0. -1.
         23    2    1    0    0    0 -0.28229279102E+02  0.52057765225E+01  0.89440458794E+01  0.94933602402E+02  0.90046657909E+02 0.  0.
         13    1    3    3    0    0  0.96273445769E+01  0.15247796501E+02 -0.32963154305E+02  0.37573418363E+02  0.10566000000E+00 0.  1.
         22    1    1    0    0    0  0.28229279102E+02 -0.52057765225E+01 -0.89440458794E+01  0.30066397598E+02  0.00000000000E+00 0. -1.
</event>
<event>
 5    1  0.1691066E-003  0.9118800E+02  0.7818608E-02  0.1130116E+00
         25   -1    0    0    0    0  0.00000000000E+00  0.00000000000E+00  0.99999998245E-14  0.12500000000E+03  0.12500000000E+03 0.  0.
        -13    1    3    3    0    0  0.26635126447E+02  0.29897736447E+02  0.34006491319E+02  0.52533391489E+02  0.10566000000E+00 0. -1.
         23    2    1    0    0    0  0.28845105478E+02 -0.26544607398E-01  0.24928775527E+01  0.96047361896E+02  0.91579694660E+02 0.  0.
         13    1    3    3    0    0  0.22099790311E+01 -0.29924281055E+02 -0.31513613766E+02  0.43513970407E+02  0.10566000000E+00 0.  1.
         22    1    1    0    0    0 -0.28845105478E+02  0.26544607398E-01 -0.24928775527E+01  0.28952638104E+02  0.00000000000E+00 0. -1.
</event>
<event>
 5    1  0.1691066E-003  0.9118800E+02  0.7818608E-02  0.1130116E+00
         25   -1    0    0    0    0  0.00000000000E+00  0.00000000000E+00  0.99999998245E-14  0.12500000000E+03  0.12500000000E+03 0.  0.
        -13    1    3    3    0    0 -0.37112518453E+02  0.22298753764E+02 -0.42467854660E+01  0.43504250323E+02  0.10566000000E+00 0. -1.
         23    2    1    0    0    0  0.13328351044E+02  0.26490416879E+02  0.49132041172E+01  0.94941279091E+02  0.90057313821E+02 0.  0.
         13    1    3    3    0    0  0.50440869497E+02  0.41916631150E+01  0.91599895831E+01  0.51437028768E+02  0.10566000000E+00 0.  1.
         22    1    1    0    0    0 -0.13328351044E+02 -0.26490416879E+02 -0.49132041172E+01  0.30058720909E+02  0.00000000000E+00 0.  1.
</event>
<event>
 5    1  0.1691066E-003  0.9118800E+02  0.7818608E-02  0.1130116E+00
         25   -1    0    0    0    0  0.00000000000E+00  0.00000000000E+00  0.99999998245E-14  0.12500000000E+03  0.12500000000E+03 0.  0.
        -13    1    3    3    0    0 -0.26623429502E+01 -0.36695753155E+02  0.74830293614E+01  0.37545615750E+02  0.10566000000E+00 0. -1.
         23    2    1    0    0    0 -0.12744192822E+02  0.11664832081E+02 -0.23480960215E+02  0.95848014634E+02  0.91307193904E+02 0.  0.
         13    1    3    3    0    0 -0.10081849872E+02  0.48360585236E+02 -0.30963989576E+02  0.58302398884E+02  0.10566000000E+00 0.  1.
         22    1    1    0    0    0  0.12744192822E+02 -0.11664832081E+02  0.23480960215E+02  0.29151985366E+02  0.00000000000E+00 0.  1.
</event>
<event>
 5    1  0.1691066E-003  0.9118800E+02  0.7818608E-02  0.1130116E+00
         25   -1    0    0    0    0  0.00000000000E+00  0.00000000000E+00  0.99999998245E-14  0.12500000000E+03  0.12500000000E+03 0.  0.
        -13    1    3    3    0    0 -0.38656256378E+02  0.34007485969E+02  0.31694805065E+02  0.60459797314E+02  0.10566000000E+00 0. -1.
         23    2    1    0    0    0 -0.13543115762E+02  0.26144988564E+02  0.20843455513E+02  0.88924716921E+02  0.81278405682E+02 0.  0.
         13    1    3    3    0    0  0.25113140616E+02 -0.78624974053E+01 -0.10851349552E+02  0.28464919606E+02  0.10566000000E+00 0.  1.
         22    1    1    0    0    0  0.13543115762E+02 -0.26144988564E+02 -0.20843455513E+02  0.36075283079E+02  0.00000000000E+00 0. -1.
</event>
<event>
 5    1  0.1691066E-003  0.9118800E+02  0.7818608E-02  0.1130116E+00
         25   -1    0    0    0    0  0.00000000000E+00  0.00000000000E+00  0.99999998245E-14  0.12500000000E+03  0.12500000000E+03 0.  0.
        -13    1    3    3    0    0 -0.21944230327E+02 -0.12303563902E+02  0.40456224214E+02  0.47640782645E+02  0.10566000000E+00 0. -1.
         23    2    1    0    0    0  0.21215849103E+02 -0.65830734365E+01  0.16452384415E+02  0.97357097439E+02  0.93350277770E+02 0.  0.
         13    1    3    3    0    0  0.43160079430E+02  0.57204904652E+01 -0.24003839799E+02  0.49716314794E+02  0.10566000000E+00 0.  1.
         22    1    1    0    0    0 -0.21215849103E+02  0.65830734365E+01 -0.16452384415E+02  0.27642902561E+02  0.00000000000E+00 0. -1.
</event>
<event>
 5    1  0.1691066E-003  0.9118800E+02  0.7818608E-02  0.1130116E+00
         25   -1    0    0    0    0  0.00000000000E+00  0.00000000000E+00  0.99999998245E-14  0.12500000000E+03  0.12500000000E+03 0.  0.
        -13    1    3    3    0    0  0.92801831688E+01  0.50727022235E+02  0.32916502148E+02  0.61178916811E+02  0.10566000000E+00 0.  1.
         23    2    1    0    0    0  0.98748891536E+01  0.17903588715E+02  0.19820510196E+02  0.96523614185E+02  0.92227455490E+02 0.  0.
         13    1    3    3    0    0  0.59470598483E+00 -0.32823433520E+02 -0.13095991952E+02  0.35344697374E+02  0.10566000000E+00 0. -1.
         22    1    1    0    0    0 -0.98748891536E+01 -0.17903588715E+02 -0.19820510196E+02  0.28476385815E+02  0.00000000000E+00 0.  1.
</event>
<event>
 5    1  0.1691066E-003  0.9118800E+02  0.7818608E-02  0.1130116E+00
         25   -1    0    0    0    0  0.00000000000E+00  0.00000000000E+00  0.99999998245E-14  0.12500000000E+03  0.12500000000E+03 0.  0.
        -13    1    3    3    0    0 -0.22559393157E+02  0.44065184085E+01 -0.26378595137E+02  0.34988356199E+02  0.10566000000E+00 0.  1.
         23    2    1    0    0    0  0.12857847578E+01 -0.14773349917E+02  0.25663037659E+02  0.95360556481E+02  0.90637404643E+02 0.  0.
         13    1    3    3    0    0  0.23845177914E+02 -0.19179868325E+02  0.52041632796E+02  0.60372200282E+02  0.10566000000E+00 0. -1.
         22    1    1    0    0    0 -0.12857847578E+01  0.14773349917E+02 -0.25663037659E+02  0.29639443519E+02  0.00000000000E+00 0. -1.
</event>
<event>
 5    1  0.1691066E-003  0.9118800E+02  0.7818608E-02  0.1130116E+00
         25   -1    0    0    0    0  0.00000000000E+00  0.00000000000E+00  0.99999998245E-14  0.12500000000E+03  0.12500000000E+03 0.  0.
        -13    1    3    3    0    0  0.28015890587E+02 -0.51627922445E+02  0.10147861549E+02  0.59609753895E+02  0.10566000000E+00 0.  1.
         23    2    1    0    0    0  0.40789096594E+00 -0.28585023485E+02  0.32281452304E+01  0.96230382966E+02  0.91829166072E+02 0.  0.
         13    1    3    3    0    0 -0.27607999621E+02  0.23042898961E+02 -0.69197163186E+01  0.36620629071E+02  0.10566000000E+00 0. -1.
         22    1    1    0    0    0 -0.40789096594E+00  0.28585023485E+02 -0.32281452304E+01  0.28769617034E+02  0.00000000000E+00 0.  1.
</event>
<event>
 5    1  0.1691066E-003  0.9118800E+02  0.7818608E-02  0.1130116E+00
         25   -1    0    0    0    0  0.00000000000E+00  0.00000000000E+00  0.99999998245E-14  0.12500000000E+03  0.12500000000E+03 0.  0.
        -13    1    3    3    0    0 -0.19336284009E+02  0.55133462957E+01  0.39876084788E+02  0.44658730039E+02  0.10566000000E+00 0. -1.
         23    2    1    0    0    0 -0.15654711923E+02  0.22236930106E+02 -0.89258905713E+01  0.96377935287E+02  0.92029798553E+02 0.  0.
         13    1    3    3    0    0  0.36815720857E+01  0.16723583810E+02 -0.48801975359E+02  0.51719205248E+02  0.10566000000E+00 0.  1.
         22    1    1    0    0    0  0.15654711923E+02 -0.22236930106E+02  0.89258905713E+01  0.28622064713E+02  0.00000000000E+00 0.  1.
</event>
<event>
 5    1  0.1691066E-003  0.9118800E+02  0.7818608E-02  0.1130116E+00
         25   -1    0    0    0    0  0.00000000000E+00  0.00000000000E+00  0.99999998245E-14  0.12500000000E+03  0.12500000000E+03 0.  0.
        -13    1    3    3    0    0 -0.36654507032E+02 -0.29164173025E+02 -0.15808650068E+02  0.49437095940E+02  0.10566000000E+00 0. -1.
         23    2    1    0    0    0  0.75425047986E+01 -0.27869436598E+02 -0.84838345812E+00  0.96115494994E+02  0.91672644494E+02 0.  0.
         13    1    3    3    0    0  0.44197011831E+02  0.12947364266E+01  0.14960266610E+02  0.46678399054E+02  0.10566000000E+00 0.  1.
         22    1    1    0    0    0 -0.75425047986E+01  0.27869436598E+02  0.84838345812E+00  0.28884505006E+02  0.00000000000E+00 0. -1.
</event>
<event>
 5    1  0.1691066E-003  0.9118800E+02  0.7818608E-02  0.1130116E+00
         25   -1    0    0    0    0  0.00000000000E+00  0.00000000000E+00  0.99999998245E-14  0.12500000000E+03  0.12500000000E+03 0.  0.
        -13    1    3    3    0    0 -0.24844297616E+02  0.25131547954E+02 -0.32849372838E+02  0.48248588440E+02  0.10566000000E+00 0. -1.
         23    2    1    0    0    0 -0.23660986805E+02 -0.15544436443E+02 -0.96511470098E+01  0.95089860590E+02  0.90263310086E+02 0.  0.
         13    1    3    3    0    0  0.11833108107E+01 -0.40675984397E+02  0.23198225828E+02  0.46841272151E+02  0.10566000000E+00 0.  1.
         22    1    1    0    0    0  0.23660986805E+02  0.15544436443E+02  0.96511470098E+01  0.29910139410E+02  0.00000000000E+00 0.  1.
</event>
<event>
 5    1  0.1691066E-003  0.9118800E+02  0.7818608E-02  0.1130116E+00
         25   -1    0    0    0    0  0.00000000000E+00  0.00000000000E+00  0.99999998245E-14  0.12500000000E+03  0.12500000000E+03 0.  0.
        -13    1    3    3    0    0  0.22516031321E+02 -0.33762582205E+02  0.20253904253E+02  0.45355434351E+02  0.10566000000E+00 0.  1.
         23    2    1    0    0    0 -0.18350626908E+02 -0.34444803554E+01  0.21842127500E+02  0.96265204255E+02  0.91876553395E+02 0.  0.
         13    1    3    3    0    0 -0.40866658229E+02  0.30318101850E+02  0.15882232470E+01  0.50909769904E+02  0.10566000000E+00 0. -1.
         22    1    1    0    0    0  0.18350626908E+02  0.34444803554E+01 -0.21842127500E+02  0.28734795745E+02  0.00000000000E+00 0.  1.
</event>
<event>
 5    1  0.1691066E-003  0.9118800E+02  0.7818608E-02  0.1130116E+00
         25   -1    0    0    0    0  0.00000000000E+00  0.00000000000E+00  0.99999998245E-14  0.12500000000E+03  0.12500000000E+03 0.  0.
        -13    1    3    3    0    0  0.18812338336E+02  0.31054032795E+02 -0.38100175654E+02  0.52629759408E+02  0.10566000000E+00 0.  1.
         23    2    1    0    0    0  0.25979504887E+02 -0.33930705865E+01 -0.13827416396E+02  0.95374925378E+02  0.90657218932E+02 0.  0.
         13    1    3    3    0    0  0.71671665507E+01 -0.34447103382E+02  0.24272759257E+02  0.42745165969E+02  0.10566000000E+00 0. -1.
         22    1    1    0    0    0 -0.25979504887E+02  0.33930705865E+01  0.13827416396E+02  0.29625074622E+02  0.00000000000E+00 0.  1.
</event>
<event>
 5    1  0.1691066E-003  0.9118800E+02  0.7818608E-02  0.1130116E+00
         25   -1    0    0    0    0  0.00000000000E+00  0.00000000000E+00  0.99999998245E-14  0.12500000000E+03  0.12500000000E+03 0.  0.
        -13    1    3    3    0    0 -0.27374888275E+02  0.30907110616E+02 -0.31544864169E+00  0.41288553700E+02  0.10566000000E+00 0.  1.
         23    2    1    0    0    0 -0.84229879580E+00 -0.76020106593E+01 -0.28230784785E+02  0.95751457423E+02  0.91174910780E+02 0.  0.
         13    1    3    3    0    0  0.26532589480E+02 -0.38509121276E+02 -0.27915336143E+02  0.54462903723E+02  0.10566000000E+00 0. -1.
         22    1    1    0    0    0  0.84229879580E+00  0.76020106593E+01  0.28230784785E+02  0.29248542577E+02  0.00000000000E+00 0. -1.
</event>
<event>
 5    1  0.1691066E-003  0.9118800E+02  0.7818608E-02  0.1130116E+00
         25   -1    0    0    0    0  0.00000000000E+00  0.00000000000E+00  0.99999998245E-14  0.12500000000E+03  0.12500000000E+03 0.  0.
        -13    1    3    3    0    0  0.32988038014E+02  0.22082939753E+01 -0.12803622877E+02  0.35454634917E+02  0.10566000000E+00 0.  1.
         23    2    1    0    0    0 -0.20403218473E+02  0.16916876370E+02  0.11717922824E+02  0.96021012000E+02  0.91543721795E+02 0.  0.
         13    1    3    3    0    0 -0.53391256487E+02  0.14708582395E+02  0.24521545701E+02  0.60566377083E+02  0.10566000000E+00 0. -1.
         22    1    1    0    0    0  0.20403218473E+02 -0.16916876370E+02 -0.11717922824E+02  0.28978988000E+02  0.00000000000E+00 0. -1.
</event>
<event>
 5    1  0.1691066E-003  0.9118800E+02  0.7818608E-02  0.1130116E+00
         25   -1    0    0    0    0  0.00000000000E+00  0.00000000000E+00  0.99999998245E-14  0.12500000000E+03  0.12500000000E+03 0.  0.
        -13    1    3    3    0    0 -0.59966403286E+02 -0.13596626148E+02 -0.70725626185E+01  0.61894022908E+02  0.10566000000E+00 0.  1.
         23    2    1    0    0    0 -0.35453980093E+02 -0.66546925059E+01 -0.10073343370E+02  0.87546804096E+02  0.79130910673E+02 0.  0.
         13    1    3    3    0    0  0.24512423193E+02  0.69419336422E+01 -0.30007807515E+01  0.25652781187E+02  0.10566000000E+00 0. -1.
         22    1    1    0    0    0  0.35453980093E+02  0.66546925059E+01  0.10073343370E+02  0.37453195904E+02  0.00000000000E+00 0.  1.
</event>
<event>
 5    1  0.1691066E-003  0.9118800E+02  0.7818608E-02  0.1130116E+00
         25   -1    0    0    0    0  0.00000000000E+00  0.00000000000E+00  0.99999998245E-14  0.12500000000E+03  0.12500000000E+03 0.  0.
        -13    1    3    3    0    0 -0.31588438339E+02 -0.21630669993E+02  0.37542126679E+02  0.53620311083E+02  0.10566000000E+00 0.  1.
         23    2    1    0    0    0 -0.18133644265E+02  0.13639954014E+02  0.17384660729E+02  0.96414971953E+02  0.92080090075E+02 0.  0.
         13    1    3    3    0    0  0.13454794074E+02  0.35270624007E+02 -0.20157465950E+02  0.42794660870E+02  0.10566000000E+00 0. -1.
         22    1    1    0    0    0  0.18133644265E+02 -0.13639954014E+02 -0.17384660729E+02  0.28585028047E+02  0.00000000000E+00 0.  1.
</event>
<event>
 5    1  0.1691066E-003  0.9118800E+02  0.7818608E-02  0.1130116E+00
         25   -1    0    0    0    0  0.00000000000E+00  0.00000000000E+00  0.99999998245E-14  0.12500000000E+03  0.12500000000E+03 0.  0.
        -13    1    3    3    0    0 -0.29843818259E+02  0.11433209621E+02  0.13707200991E+02  0.34774563887E+02  0.10566000000E+00 0. -1.
         23    2    1    0    0    0  0.15316507571E+02 -0.20883317207E+02  0.22121005388E+02  0.90940534045E+02  0.84321607618E+02 0.  0.
         13    1    3    3    0    0  0.45160325830E+02 -0.32316526828E+02  0.84138043976E+01  0.56165970158E+02  0.10566000000E+00 0.  1.
         22    1    1    0    0    0 -0.15316507571E+02  0.20883317207E+02 -0.22121005388E+02  0.34059465955E+02  0.00000000000E+00 0.  1.
</event>
<event>
 5    1  0.1691066E-003  0.9118800E+02  0.7818608E-02  0.1130116E+00
         25   -1    0    0    0    0  0.00000000000E+00  0.00000000000E+00  0.99999998245E-14  0.12500000000E+03  0.12500000000E+03 0.  0.
        -13    1    3    3    0    0 -0.77145404710E+01 -0.59987243031E+01  0.56660317935E+02  0.57496970533E+02  0.10566000000E+00 0. -1.
         23    2    1    0    0    0  0.10519630844E+02 -0.13347923085E+02  0.24768487262E+02  0.94961563872E+02  0.90085464799E+02 0.  0.
         13    1    3    3    0    0  0.18234171315E+02 -0.73491987819E+01 -0.31891830674E+02  0.37464593339E+02  0.10566000000E+00 0.  1.
         22    1    1    0    0    0 -0.10519630844E+02  0.13347923085E+02 -0.24768487262E+02  0.30038436128E+02  0.00000000000E+00 0. -1.
</event>
<event>
 5    1  0.1691066E-003  0.9118800E+02  0.7818608E-02  0.1130116E+00
         25   -1    0    0    0    0  0.00000000000E+00  0.00000000000E+00  0.99999998245E-14  0.12500000000E+03  0.12500000000E+03 0.  0.
        -13    1    3    3    0    0 -0.12646004825E+02 -0.31604659753E+01 -0.47608012179E+02  0.49360348164E+02  0.10566000000E+00 0.  1.
         23    2    1    0    0    0 -0.31850578157E+02 -0.57321036332E+01 -0.10930089057E+02  0.90841791795E+02  0.84175102902E+02 0.  0.
         13    1    3    3    0    0 -0.19204573332E+02 -0.25716376578E+01  0.36677923122E+02  0.41481443630E+02  0.10566000000E+00 0. -1.
         22    1    1    0    0    0  0.31850578157E+02  0.57321036332E+01  0.10930089057E+02  0.34158208205E+02  0.00000000000E+00 0. -1.
</event>
<event>
 5    1  0.1691066E-003  0.9118800E+02  0.7818608E-02  0.1130116E+00
         25   -1    0    0    0    0  0.00000000000E+00  0.00000000000E+00  0.99999998245E-14  0.12500000000E+03  0.12500000000E+03 0.  0.
        -13    1    3    3    0    0 -0.92572795772E+01 -0.14419386881E+02 -0.34959291230E+02  0.38933008496E+02  0.10566000000E+00 0. -1.
         23    2    1    0    0    0 -0.15208951112E+02 -0.50821312390E+01  0.22455964029E+02  0.97406330938E+02  0.93416180261E+02 0.  0.
         13    1    3    3    0    0 -0.59516715345E+01  0.93372556417E+01  0.57415255259E+02  0.58473322442E+02  0.10566000000E+00 0.  1.
         22    1    1    0    0    0  0.15208951112E+02  0.50821312390E+01 -0.22455964029E+02  0.27593669062E+02  0.00000000000E+00 0.  1.
</event>
<event>
 5    1  0.1691066E-003  0.9118800E+02  0.7818608E-02  0.1130116E+00
         25   -1    0    0    0    0  0.00000000000E+00  0.00000000000E+00  0.99999998245E-14  0.12500000000E+03  0.12500000000E+03 0.  0.
        -13    1    3    3    0    0  0.27324916217E+02 -0.35386293474E+02  0.17568895287E+02  0.48036632457E+02  0.10566000000E+00 0.  1.
         23    2    1    0    0    0 -0.28404546288E+00 -0.18362629993E+02 -0.20118476060E+02  0.97759957029E+02  0.93888174213E+02 0.  0.
         13    1    3    3    0    0 -0.27608961680E+02  0.17023663481E+02 -0.37687371347E+02  0.49723324572E+02  0.10566000000E+00 0. -1.
         22    1    1    0    0    0  0.28404546288E+00  0.18362629993E+02  0.20118476060E+02  0.27240042971E+02  0.00000000000E+00 0.  1.
</event>
<event>
 5    1  0.1691066E-003  0.9118800E+02  0.7818608E-02  0.1130116E+00
         25   -1    0    0    0    0  0.00000000000E+00  0.00000000000E+00  0.99999998245E-14  0.12500000000E+03  0.12500000000E+03 0.  0.
        -13    1    3    3    0    0  0.22691965731E+01  0.66394327211E+01  0.32265369766E+02  0.33019639157E+02  0.10566000000E+00 0. -1.
         23    2    1    0    0    0 -0.15010635171E+02 -0.50269403985E+01 -0.25808865895E+02  0.94723163032E+02  0.89754057055E+02 0.  0.
         13    1    3    3    0    0 -0.17279831744E+02 -0.11666373120E+02 -0.58074235661E+02  0.61703523874E+02  0.10566000000E+00 0.  1.
         22    1    1    0    0    0  0.15010635171E+02  0.50269403985E+01  0.25808865895E+02  0.30276836968E+02  0.00000000000E+00 0.  1.
</event>
<event>
 5    1  0.1691066E-003  0.9118800E+02  0.7818608E-02  0.1130116E+00
         25   -1    0    0    0    0  0.00000000000E+00  0.00000000000E+00  0.99999998245E-14  0.12500000000E+03  0.12500000000E+03 0.  0.
        -13    1    3    3    0    0 -0.23009370326E+00  0.32034129441E+02 -0.38495400888E+02  0.50081388217E+02  0.10566000000E+00 0. -1.
         23    2    1    0    0    0  0.25848758262E+02  0.84838291465E+01 -0.79068126791E+01  0.96668897879E+02  0.92424155228E+02 0.  0.
         13    1    3    3    0    0  0.26078851965E+02 -0.23550300295E+02  0.30588588209E+02  0.46587509661E+02  0.10566000000E+00 0.  1.
         22    1    1    0    0    0 -0.25848758262E+02 -0.84838291465E+01  0.79068126791E+01  0.28331102121E+02  0.00000000000E+00 0. -1.
</event>
<event>
 5    1  0.1691066E-003  0.9118800E+02  0.7818608E-02  0.1130116E+00
         25   -1    0    0    0    0  0.00000000000E+00  0.00000000000E+00  0.99999998245E-14  0.12500000000E+03  0.12500000000E+03 0.  0.
        -13    1    3    3    0    0 -0.34777342333E+02  0.20276655346E+02  0.82480031089E+01  0.41093150416E+02  0.10566000000E+00 0.  1.
         23    2    1    0    0    0  0.17060066009E+02 -0.51980684471E+01 -0.13312467715E+02  0.10274494295E+03  0.10030571139E+03 0.  0.
         13    1    3    3    0    0  0.51837408343E+02 -0.25474723793E+02 -0.21560470824E+02  0.61651792530E+02  0.10566000000E+00 0. -1.
         22    1    1    0    0    0 -0.17060066009E+02  0.51980684471E+01  0.13312467715E+02  0.22255057054E+02  0.00000000000E+00 0. -1.
</event>
<event>
 5    1  0.1691066E-003  0.9118800E+02  0.7818608E-02  0.1130116E+00
         25   -1    0    0    0    0  0.00000000000E+00  0.00000000000E+00  0.99999998245E-14  0.12500000000E+03  0.12500000000E+03 0.  0.
        -13    1    3    3    0    0  0.49000062451E+01  0.30897878329E+02 -0.29812439924E+01  0.31425911701E+02  0.10566000000E+00 0.  1.
         23    2    1    0    0    0 -0.15500800530E+02 -0.26127119823E+02 -0.11357950529E+02  0.92566926640E+02  0.86699086847E+02 0.  0.
         13    1    3    3    0    0 -0.20400806775E+02 -0.57024998153E+02 -0.83767065370E+01  0.61141014939E+02  0.10566000000E+00 0. -1.
         22    1    1    0    0    0  0.15500800530E+02  0.26127119823E+02  0.11357950529E+02  0.32433073360E+02  0.00000000000E+00 0. -1.
</event>
<event>
 5    1  0.1691066E-003  0.9118800E+02  0.7818608E-02  0.1130116E+00
         25   -1    0    0    0    0  0.00000000000E+00  0.00000000000E+00  0.99999998245E-14  0.12500000000E+03  0.12500000000E+03 0.  0.
        -13    1    3    3    0    0  0.20233365865E+01 -0.32611070183E+02  0.14700230017E+02  0.35828532150E+02  0.10566000000E+00 0.  1.
         23    2    1    0    0    0 -0.65422762299E+01  0.86170430150E+01 -0.27502638158E+02  0.95445813931E+02  0.90754908862E+02 0.  0.
         13    1    3    3    0    0 -0.85656128164E+01  0.41228113198E+02 -0.42202868175E+02  0.59617281781E+02  0.10566000000E+00 0. -1.
         22    1    1    0    0    0  0.65422762299E+01 -0.86170430150E+01  0.27502638158E+02  0.29554186069E+02  0.00000000000E+00 0. -1.
</event>
<event>
 5    1  0.1691066E-003  0.9118800E+02  0.7818608E-02  0.1130116E+00
         25   -1    0    0    0    0  0.00000000000E+00  0.00000000000E+00  0.99999998245E-14  0.12500000000E+03  0.12500000000E+03 0.  0.
        -13    1    3    3    0    0 -0.47080363037E+01 -0.34086114344E+02 -0.39895292376E+01  0.34640385455E+02  0.10566000000E+00 0. -1.
         23    2    1    0    0    0  0.55981844807E+01  0.22703121670E+02  0.17037468532E+02  0.96068239994E+02  0.91608187399E+02 0.  0.
         13    1    3    3    0    0  0.10306220784E+02  0.56789236015E+02  0.21026997770E+02  0.61427854539E+02  0.10566000000E+00 0.  1.
         22    1    1    0    0    0 -0.55981844807E+01 -0.22703121670E+02 -0.17037468532E+02  0.28931760006E+02  0.00000000000E+00 0.  1.
</event>
<event>
 5    1  0.1691066E-003  0.9118800E+02  0.7818608E-02  0.1130116E+00
         25   -1    0    0    0    0  0.00000000000E+00  0.00000000000E+00  0.99999998245E-14  0.12500000000E+03  0.12500000000E+03 0.  0.
        -13    1    3    3    0    0  0.47478608433E+02 -0.56319579187E+01 -0.13792567534E+02  0.49761262965E+02  0.10566000000E+00 0. -1.
         23    2    1    0    0    0  0.16630991395E+02 -0.14297377795E+02  0.19271830843E+02  0.95803966868E+02  0.91246872368E+02 0.  0.
         13    1    3    3    0    0 -0.30847617038E+02 -0.86654198762E+01  0.33064398378E+02  0.46042703903E+02  0.10566000000E+00 0.  1.
         22    1    1    0    0    0 -0.16630991395E+02  0.14297377795E+02 -0.19271830843E+02  0.29196033132E+02  0.00000000000E+00 0. -1.
</event>
<event>
 5    1  0.1691066E-003  0.9118800E+02  0.7818608E-02  0.1130116E+00
         25   -1    0    0    0    0  0.00000000000E+00  0.00000000000E+00  0.99999998245E-14  0.12500000000E+03  0.12500000000E+03 0.  0.
        -13    1    3    3    0    0 -0.19683825602E+02  0.22522609711E+02  0.10035932405E+02  0.31550785121E+02  0.10566000000E+00 0.  1.
         23    2    1    0    0    0  0.19893105147E+02 -0.21099974220E+02 -0.10839616554E+02  0.94041288277E+02  0.88799335974E+02 0.  0.
         13    1    3    3    0    0  0.39576930749E+02 -0.43622583931E+02 -0.20875548959E+02  0.62490503156E+02  0.10566000000E+00 0. -1.
         22    1    1    0    0    0 -0.19893105147E+02  0.21099974220E+02  0.10839616554E+02  0.30958711723E+02  0.00000000000E+00 0. -1.
</event>
<event>
 5    1  0.1691066E-003  0.9118800E+02  0.7818608E-02  0.1130116E+00
         25   -1    0    0    0    0  0.00000000000E+00  0.00000000000E+00  0.99999998245E-14  0.12500000000E+03  0.12500000000E+03 0.  0.
        -13    1    3    3    0    0  0.16236116976E+02 -0.62628814082E+01 -0.34667302769E+02  0.38790053150E+02  0.10566000000E+00 0. -1.
         23    2    1    0    0    0 -0.20332236005E+02 -0.13220312044E+02  0.11553149761E+02  0.98136423527E+02  0.94388060059E+02 0.  0.
         13    1    3    3    0    0 -0.36568352981E+02 -0.69574306357E+01  0.46220452531E+02  0.59346370378E+02  0.10566000000E+00 0.  1.
         22    1    1    0    0    0  0.20332236005E+02  0.13220312044E+02 -0.11553149761E+02  0.26863576473E+02  0.00000000000E+00 0.  1.
</event>
<event>
 5    1  0.1691066E-003  0.9118800E+02  0.7818608E-02  0.1130116E+00
         25   -1    0    0    0    0  0.00000000000E+00  0.00000000000E+00  0.99999998245E-14  0.12500000000E+03  0.12500000000E+03 0.  0.
        -13    1    3    3    0    0  0.24127207976E+02  0.25857078250E+02 -0.94003710026E+01  0.36593562267E+02  0.10566000000E+00 0.  1.
         23    2    1    0    0    0 -0.26001956392E+02  0.45566195719E+00 -0.17898313909E+02  0.93430093367E+02  0.87934767537E+02 0.  0.
         13    1    3    3    0    0 -0.50129164367E+02 -0.25401416293E+02 -0.84979429065E+01  0.56836531101E+02  0.10566000000E+00 0. -1.
         22    1    1    0    0    0  0.26001956392E+02 -0.45566195719E+00  0.17898313909E+02  0.31569906633E+02  0.00000000000E+00 0. -1.
</event>
<event>
 5    1  0.1691066E-003  0.9118800E+02  0.7818608E-02  0.1130116E+00
         25   -1    0    0    0    0  0.00000000000E+00  0.00000000000E+00  0.99999998245E-14  0.12500000000E+03  0.12500000000E+03 0.  0.
        -13    1    3    3    0    0 -0.97215198730E+01 -0.39174588470E+02  0.23343557865E+02  0.46627129317E+02  0.10566000000E+00 0.  1.
         23    2    1    0    0    0 -0.13303256304E+02  0.88050312376E+01  0.25647726704E+02  0.94795512113E+02  0.89854760744E+02 0.  0.
         13    1    3    3    0    0 -0.35817364312E+01  0.47979619708E+02  0.23041688393E+01  0.48168382797E+02  0.10566000000E+00 0. -1.
         22    1    1    0    0    0  0.13303256304E+02 -0.88050312376E+01 -0.25647726704E+02  0.30204487887E+02  0.00000000000E+00 0. -1.
</event>
<event>
 5    1  0.1691066E-003  0.9118800E+02  0.7818608E-02  0.1130116E+00
         25   -1    0    0    0    0  0.00000000000E+00  0.00000000000E+00  0.99999998245E-14  0.12500000000E+03  0.12500000000E+03 0.  0.
        -13    1    3    3    0    0  0.92671311921E+01  0.52627525669E+02 -0.25461031954E+02  0.59193002042E+02  0.10566000000E+00 0. -1.
         23    2    1    0    0    0  0.19382224520E+01  0.17539199435E+02 -0.24185529724E+02  0.95061394970E+02  0.90223881221E+02 0.  0.
         13    1    3    3    0    0 -0.73289087401E+01 -0.35088326234E+02  0.12755022301E+01  0.35868392928E+02  0.10566000000E+00 0.  1.
         22    1    1    0    0    0 -0.19382224520E+01 -0.17539199435E+02  0.24185529724E+02  0.29938605030E+02  0.00000000000E+00 0.  1.
</event>
<event>
 5    1  0.1691066E-003  0.9118800E+02  0.7818608E-02  0.1130116E+00
         25   -1    0    0    0    0  0.00000000000E+00  0.00000000000E+00  0.99999998245E-14  0.12500000000E+03  0.12500000000E+03 0.  0.
        -13    1    3    3    0    0  0.22357027254E+02 -0.22703137763E+02  0.59717290933E+01  0.32418233207E+02  0.10566000000E+00 0.  1.
         23    2    1    0    0    0 -0.25832336444E+02  0.13770874424E+02 -0.84096752019E+01  0.94542337162E+02  0.89501867525E+02 0.  0.
         13    1    3    3    0    0 -0.48189363698E+02  0.36474012187E+02 -0.14381404295E+02  0.62124103954E+02  0.10566000000E+00 0. -1.
         22    1    1    0    0    0  0.25832336444E+02 -0.13770874424E+02  0.84096752019E+01  0.30457662838E+02  0.00000000000E+00 0. -1.
</event>
<event>
 5    1  0.1691066E-003  0.9118800E+02  0.7818608E-02  0.1130116E+00
         25   -1    0    0    0    0  0.00000000000E+00  0.00000000000E+00  0.99999998245E-14  0.12500000000E+03  0.12500000000E+03 0.  0.
        -13    1    3    3    0    0  0.20680243598E+02 -0.49628692295E+02  0.25590530902E+01  0.53826011286E+02  0.10566000000E+00 0.  1.
         23    2    1    0    0    0 -0.25033092775E+01 -0.25518042853E+02 -0.18527071364E+02  0.93366324246E+02  0.87844072432E+02 0.  0.
         13    1    3    3    0    0 -0.23183552876E+02  0.24110649442E+02 -0.21086124455E+02  0.39540312961E+02  0.10566000000E+00 0. -1.
         22    1    1    0    0    0  0.25033092775E+01  0.25518042853E+02  0.18527071364E+02  0.31633675754E+02  0.00000000000E+00 0.  1.
</event>
<event>
 5    1  0.1691066E-003  0.9118800E+02  0.7818608E-02  0.1130116E+00
         25   -1    0    0    0    0  0.00000000000E+00  0.00000000000E+00  0.99999998245E-14  0.12500000000E+03  0.12500000000E+03 0.  0.
        -13    1    3    3    0    0 -0.44586656878E+01 -0.33116742962E+01 -0.54063074417E+02  0.54347714449E+02  0.10566000000E+00 0. -1.
         23    2    1    0    0    0  0.12860460918E+02  0.15274745169E+02 -0.21340801359E+02  0.95774341792E+02  0.91206279653E+02 0.  0.
         13    1    3    3    0    0  0.17319126606E+02  0.18586419465E+02  0.32722273058E+02  0.41426627343E+02  0.10566000000E+00 0.  1.
         22    1    1    0    0    0 -0.12860460918E+02 -0.15274745169E+02  0.21340801359E+02  0.29225658208E+02  0.00000000000E+00 0. -1.
</event>
<event>
 5    1  0.1691066E-003  0.9118800E+02  0.7818608E-02  0.1130116E+00
         25   -1    0    0    0    0  0.00000000000E+00  0.00000000000E+00  0.99999998245E-14  0.12500000000E+03  0.12500000000E+03 0.  0.
        -13    1    3    3    0    0  0.86593645763E+01  0.27348320886E+02 -0.35229708897E+02  0.45431913928E+02  0.10566000000E+00 0. -1.
         23    2    1    0    0    0 -0.17958051379E+02 -0.11921410632E+02 -0.20867654984E+02  0.94998822267E+02  0.90137148651E+02 0.  0.
         13    1    3    3    0    0 -0.26617415956E+02 -0.39269731518E+02  0.14362053913E+02  0.49566908339E+02  0.10566000000E+00 0.  1.
         22    1    1    0    0    0  0.17958051379E+02  0.11921410632E+02  0.20867654984E+02  0.30001177733E+02  0.00000000000E+00 0.  1.
</event>
<event>
 5    1  0.1691066E-003  0.9118800E+02  0.7818608E-02  0.1130116E+00
         25   -1    0    0    0    0  0.00000000000E+00  0.00000000000E+00  0.99999998245E-14  0.12500000000E+03  0.12500000000E+03 0.  0.
        -13    1    3    3    0    0  0.58497039651E+01 -0.48172526669E+00 -0.33014209390E+02  0.33532078394E+02  0.10566000000E+00 0.  1.
         23    2    1    0    0    0  0.45631855893E+01  0.63382037057E+01  0.28506447463E+02  0.95443054354E+02  0.90751107919E+02 0.  0.
         13    1    3    3    0    0 -0.12865183757E+01  0.68199289724E+01  0.61520656853E+02  0.61910975961E+02  0.10566000000E+00 0. -1.
         22    1    1    0    0    0 -0.45631855893E+01 -0.63382037057E+01 -0.28506447463E+02  0.29556945646E+02  0.00000000000E+00 0. -1.
</event>
<event>
 5    1  0.1691066E-003  0.9118800E+02  0.7818608E-02  0.1130116E+00
         25   -1    0    0    0    0  0.00000000000E+00  0.00000000000E+00  0.99999998245E-14  0.12500000000E+03  0.12500000000E+03 0.  0.
        -13    1    3    3    0    0  0.16969697215E+01 -0.22133620226E+02  0.37622022750E+02  0.43683001389E+02  0.10566000000E+00 0. -1.
         23    2    1    0    0    0 -0.11133604915E+02 -0.24100988508E+02 -0.12641393173E+02  0.95595584909E+02  0.90960959907E+02 0.  0.
         13    1    3    3    0    0 -0.12830574636E+02 -0.19673682825E+01 -0.50263415923E+02  0.51912583520E+02  0.10566000000E+00 0.  1.
         22    1    1    0    0    0  0.11133604915E+02  0.24100988508E+02  0.12641393173E+02  0.29404415091E+02  0.00000000000E+00 0.  1.
</event>
<event>
 5    1  0.1691066E-003  0.9118800E+02  0.7818608E-02  0.1130116E+00
         25   -1    0    0    0    0  0.00000000000E+00  0.00000000000E+00  0.99999998245E-14  0.12500000000E+03  0.12500000000E+03 0.  0.
        -13    1    3    3    0    0  0.11029119693E+02  0.17171112117E+02 -0.39237537966E+02  0.44227639799E+02  0.10566000000E+00 0. -1.
         23    2    1    0    0    0  0.29074459717E+02 -0.12802758863E+02 -0.56386134640E+01  0.92735022018E+02  0.86941103654E+02 0.  0.
         13    1    3    3    0    0  0.18045340024E+02 -0.29973870980E+02  0.33598924502E+02  0.48507382220E+02  0.10566000000E+00 0.  1.
         22    1    1    0    0    0 -0.29074459717E+02  0.12802758863E+02  0.56386134640E+01  0.32264977982E+02  0.00000000000E+00 0.  1.
</event>
<event>
 5    1  0.1691066E-003  0.9118800E+02  0.7818608E-02  0.1130116E+00
         25   -1    0    0    0    0  0.00000000000E+00  0.00000000000E+00  0.99999998245E-14  0.12500000000E+03  0.12500000000E+03 0.  0.
        -13    1    3    3    0    0 -0.11758406313E+02 -0.39253825126E+01  0.33506877299E+02  0.35726611052E+02  0.10566000000E+00 0.  1.
         23    2    1    0    0    0  0.17709205638E+02 -0.16065693288E+02 -0.17149665713E+02  0.95574951160E+02  0.90932600260E+02 0.  0.
         13    1    3    3    0    0  0.29467611951E+02 -0.12140310776E+02 -0.50656543011E+02  0.59848340108E+02  0.10566000000E+00 0. -1.
         22    1    1    0    0    0 -0.17709205638E+02  0.16065693288E+02  0.17149665713E+02  0.29425048840E+02  0.00000000000E+00 0. -1.
</event>
<event>
 5    1  0.1691066E-003  0.9118800E+02  0.7818608E-02  0.1130116E+00
         25   -1    0    0    0    0  0.00000000000E+00  0.00000000000E+00  0.99999998245E-14  0.12500000000E+03  0.12500000000E+03 0.  0.
        -13    1    3    3    0    0 -0.18147958790E+02  0.17326428568E+02  0.49883143371E+02  0.55838093554E+02  0.10566000000E+00 0. -1.
         23    2    1    0    0    0  0.11692716372E+02  0.11939065076E+02  0.24281686533E+02  0.95523548519E+02  0.90861912426E+02 0.  0.
         13    1    3    3    0    0  0.29840675161E+02 -0.53873634918E+01 -0.25601456838E+02  0.39685454965E+02  0.10566000000E+00 0.  1.
         22    1    1    0    0    0 -0.11692716372E+02 -0.11939065076E+02 -0.24281686533E+02  0.29476451481E+02  0.00000000000E+00 0. -1.
</event>
<event>
 5    1  0.1691066E-003  0.9118800E+02  0.7818608E-02  0.1130116E+00
         25   -1    0    0    0    0  0.00000000000E+00  0.00000000000E+00  0.99999998245E-14  0.12500000000E+03  0.12500000000E+03 0.  0.
        -13    1    3    3    0    0  0.21935027953E+00  0.47434627164E+02  0.24317513154E+02  0.53305202174E+02  0.10566000000E+00 0. -1.
         23    2    1    0    0    0 -0.52060742761E+01 -0.65408738991E+01 -0.52905042791E+01  0.11510678635E+03  0.11468084665E+03 0.  0.
         13    1    3    3    0    0 -0.54254245556E+01 -0.53975501064E+02 -0.29608017434E+02  0.61801584179E+02  0.10566000000E+00 0.  1.
         22    1    1    0    0    0  0.52060742761E+01  0.65408738991E+01  0.52905042791E+01  0.98932136467E+01  0.00000000000E+00 0.  1.
</event>
<event>
 5    1  0.1691066E-003  0.9118800E+02  0.7818608E-02  0.1130116E+00
         25   -1    0    0    0    0  0.00000000000E+00  0.00000000000E+00  0.99999998245E-14  0.12500000000E+03  0.12500000000E+03 0.  0.
        -13    1    3    3    0    0  0.10899906146E+01 -0.35686877349E+02  0.50657471859E+02  0.61975252429E+02  0.10566000000E+00 0. -1.
         23    2    1    0    0    0  0.25606572721E+01 -0.11904780563E+02  0.26134148283E+02  0.96168169111E+02  0.91744440038E+02 0.  0.
         13    1    3    3    0    0  0.14706666575E+01  0.23782096786E+02 -0.24523323576E+02  0.34192916682E+02  0.10566000000E+00 0.  1.
         22    1    1    0    0    0 -0.25606572721E+01  0.11904780563E+02 -0.26134148283E+02  0.28831830889E+02  0.00000000000E+00 0. -1.
</event>
<event>
 5    1  0.1691066E-003  0.9118800E+02  0.7818608E-02  0.1130116E+00
         25   -1    0    0    0    0  0.00000000000E+00  0.00000000000E+00  0.99999998245E-14  0.12500000000E+03  0.12500000000E+03 0.  0.
        -13    1    3    3    0    0 -0.46462585898E+02  0.21459784783E+02 -0.41224306617E+00  0.51180810462E+02  0.10566000000E+00 0.  1.
         23    2    1    0    0    0 -0.34809595773E+01  0.27738931584E+02  0.90071337839E+01  0.95628349314E+02  0.91005974136E+02 0.  0.
         13    1    3    3    0    0  0.42981626320E+02  0.62791468016E+01  0.94193768501E+01  0.44447538852E+02  0.10566000000E+00 0. -1.
         22    1    1    0    0    0  0.34809595773E+01 -0.27738931584E+02 -0.90071337839E+01  0.29371650686E+02  0.00000000000E+00 0. -1.
</event>
<event>
 5    1  0.1691066E-003  0.9118800E+02  0.7818608E-02  0.1130116E+00
         25   -1    0    0    0    0  0.00000000000E+00  0.00000000000E+00  0.99999998245E-14  0.12500000000E+03  0.12500000000E+03 0.  0.
        -13    1    3    3    0    0  0.35903315140E+02  0.21674121995E+02 -0.16844235371E+02  0.45194634986E+02  0.10566000000E+00 0.  1.
         23    2    1    0    0    0 -0.12877741926E+01 -0.71495828266E+01 -0.30064966780E+02  0.94069802386E+02  0.88839465310E+02 0.  0.
         13    1    3    3    0    0 -0.37191089332E+02 -0.28823704822E+02 -0.13220731409E+02  0.48875167400E+02  0.10566000000E+00 0. -1.
         22    1    1    0    0    0  0.12877741926E+01  0.71495828266E+01  0.30064966780E+02  0.30930197614E+02  0.00000000000E+00 0. -1.
</event>
<event>
 5    1  0.1691066E-003  0.9118800E+02  0.7818608E-02  0.1130116E+00
         25   -1    0    0    0    0  0.00000000000E+00  0.00000000000E+00  0.99999998245E-14  0.12500000000E+03  0.12500000000E+03 0.  0.
        -13    1    3    3    0    0  0.42207281436E+01 -0.13076050150E+02  0.11636155791E+02  0.18005802376E+02  0.10566000000E+00 0. -1.
         23    2    1    0    0    0 -0.16612532983E+02  0.41897329836E+02  0.16520388922E+02  0.76997023533E+02  0.60201793024E+02 0.  0.
         13    1    3    3    0    0 -0.20833261127E+02  0.54973379986E+02  0.48842331308E+01  0.58991221157E+02  0.10566000000E+00 0.  1.
         22    1    1    0    0    0  0.16612532983E+02 -0.41897329836E+02 -0.16520388922E+02  0.48002976467E+02  0.00000000000E+00 0.  1.
</event>
<event>
 5    1  0.1691066E-003  0.9118800E+02  0.7818608E-02  0.1130116E+00
         25   -1    0    0    0    0  0.00000000000E+00  0.00000000000E+00  0.99999998245E-14  0.12500000000E+03  0.12500000000E+03 0.  0.
        -13    1    3    3    0    0 -0.60478246852E+01  0.34226962180E+02  0.67271342180E+01  0.35402353344E+02  0.10566000000E+00 0. -1.
         23    2    1    0    0    0  0.10265903213E+02 -0.20317557935E+02  0.20927143201E+02  0.94078530892E+02  0.88851745751E+02 0.  0.
         13    1    3    3    0    0  0.16313727899E+02 -0.54544520115E+02  0.14200008983E+02  0.58676177548E+02  0.10566000000E+00 0.  1.
         22    1    1    0    0    0 -0.10265903213E+02  0.20317557935E+02 -0.20927143201E+02  0.30921469108E+02  0.00000000000E+00 0.  1.
</event>
<event>
 5    1  0.1691066E-003  0.9118800E+02  0.7818608E-02  0.1130116E+00
         25   -1    0    0    0    0  0.00000000000E+00  0.00000000000E+00  0.99999998245E-14  0.12500000000E+03  0.12500000000E+03 0.  0.
        -13    1    3    3    0    0 -0.40353191637E+02 -0.20994164560E+01  0.33945060241E+01  0.40550233784E+02  0.10566000000E+00 0.  1.
         23    2    1    0    0    0  0.79246563282E+01 -0.26537028823E+02 -0.86508539977E+01  0.95985325237E+02  0.91494979695E+02 0.  0.
         13    1    3    3    0    0  0.48277847965E+02 -0.24437612367E+02 -0.12045360022E+02  0.55435091453E+02  0.10566000000E+00 0. -1.
         22    1    1    0    0    0 -0.79246563282E+01  0.26537028823E+02  0.86508539977E+01  0.29014674763E+02  0.00000000000E+00 0. -1.
</event>
<event>
 5    1  0.1691066E-003  0.9118800E+02  0.7818608E-02  0.1130116E+00
         25   -1    0    0    0    0  0.00000000000E+00  0.00000000000E+00  0.99999998245E-14  0.12500000000E+03  0.12500000000E+03 0.  0.
        -13    1    3    3    0    0  0.22291060676E+02  0.61453019676E+01  0.50587510085E+02  0.55621609676E+02  0.10566000000E+00 0. -1.
         23    2    1    0    0    0  0.18877470062E+02 -0.14751294609E+02  0.15948485987E+02  0.96219559179E+02  0.91814431299E+02 0.  0.
         13    1    3    3    0    0 -0.34135906141E+01 -0.20896596576E+02 -0.34639024098E+02  0.40597949503E+02  0.10566000000E+00 0.  1.
         22    1    1    0    0    0 -0.18877470062E+02  0.14751294609E+02 -0.15948485987E+02  0.28780440821E+02  0.00000000000E+00 0. -1.
</event>
<event>
 5    1  0.1691066E-003  0.9118800E+02  0.7818608E-02  0.1130116E+00
         25   -1    0    0    0    0  0.00000000000E+00  0.00000000000E+00  0.99999998245E-14  0.12500000000E+03  0.12500000000E+03 0.  0.
        -13    1    3    3    0    0 -0.45813690208E+01  0.32438055335E+02 -0.22949375132E+02  0.39998766969E+02  0.10566000000E+00 0. -1.
         23    2    1    0    0    0  0.18815044392E+02  0.57348466816E+01  0.20820797517E+02  0.96357374925E+02  0.92001868086E+02 0.  0.
         13    1    3    3    0    0  0.23396413413E+02 -0.26703208653E+02  0.43770172649E+02  0.56358607956E+02  0.10566000000E+00 0.  1.
         22    1    1    0    0    0 -0.18815044392E+02 -0.57348466816E+01 -0.20820797517E+02  0.28642625075E+02  0.00000000000E+00 0.  1.
</event>
<event>
 5    1  0.1691066E-003  0.9118800E+02  0.7818608E-02  0.1130116E+00
         25   -1    0    0    0    0  0.00000000000E+00  0.00000000000E+00  0.99999998245E-14  0.12500000000E+03  0.12500000000E+03 0.  0.
        -13    1    3    3    0    0  0.37975427778E+02  0.42417472777E+02  0.12093102056E+02  0.58203345206E+02  0.10566000000E+00 0. -1.
         23    2    1    0    0    0  0.45061425080E+01  0.22865148055E+02  0.15337435182E+02  0.97100945646E+02  0.93006647136E+02 0.  0.
         13    1    3    3    0    0 -0.33469285270E+02 -0.19552324722E+02  0.32443331254E+01  0.38897600440E+02  0.10566000000E+00 0.  1.
         22    1    1    0    0    0 -0.45061425080E+01 -0.22865148055E+02 -0.15337435182E+02  0.27899054354E+02  0.00000000000E+00 0. -1.
</event>
<event>
 5    1  0.1691066E-003  0.9118800E+02  0.7818608E-02  0.1130116E+00
         25   -1    0    0    0    0  0.00000000000E+00  0.00000000000E+00  0.99999998245E-14  0.12500000000E+03  0.12500000000E+03 0.  0.
        -13    1    3    3    0    0 -0.40948541085E+02 -0.25176710765E+01 -0.23969502668E+02  0.47514944037E+02  0.10566000000E+00 0. -1.
         23    2    1    0    0    0 -0.13503786220E+02  0.25237042709E+02  0.47645254099E+01  0.95983431124E+02  0.91492391930E+02 0.  0.
         13    1    3    3    0    0  0.27444754865E+02  0.27754713785E+02  0.28734028078E+02  0.48468487087E+02  0.10566000000E+00 0.  1.
         22    1    1    0    0    0  0.13503786220E+02 -0.25237042709E+02 -0.47645254099E+01  0.29016568876E+02  0.00000000000E+00 0.  1.
</event>
<event>
 5    1  0.1691066E-003  0.9118800E+02  0.7818608E-02  0.1130116E+00
         25   -1    0    0    0    0  0.00000000000E+00  0.00000000000E+00  0.99999998245E-14  0.12500000000E+03  0.12500000000E+03 0.  0.
        -13    1    3    3    0    0 -0.27059802976E+02  0.25539913314E+02 -0.19981837364E+02  0.42235116878E+02  0.10566000000E+00 0.  1.
         23    2    1    0    0    0 -0.28922842869E+02 -0.15836043312E+01  0.19434324638E+02  0.90118319759E+02  0.83093802053E+02 0.  0.
         13    1    3    3    0    0 -0.18630398930E+01 -0.27123517645E+02  0.39416162002E+02  0.47883202881E+02  0.10566000000E+00 0. -1.
         22    1    1    0    0    0  0.28922842869E+02  0.15836043312E+01 -0.19434324638E+02  0.34881680241E+02  0.00000000000E+00 0. -1.
</event>
<event>
 5    1  0.1691066E-003  0.9118800E+02  0.7818608E-02  0.1130116E+00
         25   -1    0    0    0    0  0.00000000000E+00  0.00000000000E+00  0.99999998245E-14  0.12500000000E+03  0.12500000000E+03 0.  0.
        -13    1    3    3    0    0 -0.12537738872E+02  0.25977993364E+02  0.25434067942E+02  0.38457171131E+02  0.10566000000E+00 0.  1.
         23    2    1    0    0    0 -0.18298954735E+02 -0.15074245303E+01 -0.23681458522E+02  0.95034427240E+02  0.90186511242E+02 0.  0.
         13    1    3    3    0    0 -0.57612158633E+01 -0.27485417894E+02 -0.49115526464E+02  0.56577256110E+02  0.10566000000E+00 0. -1.
         22    1    1    0    0    0  0.18298954735E+02  0.15074245303E+01  0.23681458522E+02  0.29965572760E+02  0.00000000000E+00 0. -1.
</event>
<event>
 5    1  0.1691066E-003  0.9118800E+02  0.7818608E-02  0.1130116E+00
         25   -1    0    0    0    0  0.00000000000E+00  0.00000000000E+00  0.99999998245E-14  0.12500000000E+03  0.12500000000E+03 0.  0.
        -13    1    3    3    0    0 -0.14686595694E+02 -0.22614072105E+02 -0.50901933870E+02  0.57603041465E+02  0.10566000000E+00 0.  1.
         23    2    1    0    0    0 -0.21854295935E+02 -0.68989137637E+01 -0.14539191905E+02  0.97859746442E+02  0.94020937086E+02 0.  0.
         13    1    3    3    0    0 -0.71677002409E+01  0.15715158342E+02  0.36362741964E+02  0.40256704978E+02  0.10566000000E+00 0. -1.
         22    1    1    0    0    0  0.21854295935E+02  0.68989137637E+01  0.14539191905E+02  0.27140253558E+02  0.00000000000E+00 0.  1.
</event>
<event>
 5    1  0.1691066E-003  0.9118800E+02  0.7818608E-02  0.1130116E+00
         25   -1    0    0    0    0  0.00000000000E+00  0.00000000000E+00  0.99999998245E-14  0.12500000000E+03  0.12500000000E+03 0.  0.
        -13    1    3    3    0    0 -0.26729169032E+02 -0.14124508074E+01  0.44610082673E+02  0.52024168754E+02  0.10566000000E+00 0. -1.
         23    2    1    0    0    0 -0.22435664537E+02  0.17859294779E+02  0.55487892337E+01  0.95792081293E+02  0.91230588748E+02 0.  0.
         13    1    3    3    0    0  0.42935044955E+01  0.19271745587E+02 -0.39061293439E+02  0.43767912539E+02  0.10566000000E+00 0.  1.
         22    1    1    0    0    0  0.22435664537E+02 -0.17859294779E+02 -0.55487892337E+01  0.29207918707E+02  0.00000000000E+00 0. -1.
</event>
<event>
 5    1  0.1691066E-003  0.9118800E+02  0.7818608E-02  0.1130116E+00
         25   -1    0    0    0    0  0.00000000000E+00  0.00000000000E+00  0.99999998245E-14  0.12500000000E+03  0.12500000000E+03 0.  0.
        -13    1    3    3    0    0 -0.21121213110E+02  0.29903809402E+02  0.23545939102E+02  0.43528908465E+02  0.10566000000E+00 0. -1.
         23    2    1    0    0    0 -0.10297522704E+01  0.18899647974E+02 -0.22884047205E+02  0.95302580924E+02  0.90557414004E+02 0.  0.
         13    1    3    3    0    0  0.20091460840E+02 -0.11004161427E+02 -0.46429986307E+02  0.51773672459E+02  0.10566000000E+00 0.  1.
         22    1    1    0    0    0  0.10297522704E+01 -0.18899647974E+02  0.22884047205E+02  0.29697419076E+02  0.00000000000E+00 0.  1.
</event>
<event>
 5    1  0.1691066E-003  0.9118800E+02  0.7818608E-02  0.1130116E+00
         25   -1    0    0    0    0  0.00000000000E+00  0.00000000000E+00  0.99999998245E-14  0.12500000000E+03  0.12500000000E+03 0.  0.
        -13    1    3    3    0    0 -0.11675226160E+02 -0.60392144133E+02 -0.10904550376E+02  0.62469531468E+02  0.10566000000E+00 0.  1.
         23    2    1    0    0    0 -0.66812687837E+01 -0.28049727498E+02 -0.57231763754E+01  0.95603039050E+02  0.90971202930E+02 0.  0.
         13    1    3    3    0    0  0.49939573763E+01  0.32342416635E+02  0.51813740007E+01  0.33133507582E+02  0.10566000000E+00 0. -1.
         22    1    1    0    0    0  0.66812687837E+01  0.28049727498E+02  0.57231763754E+01  0.29396960950E+02  0.00000000000E+00 0.  1.
</event>
<event>
 5    1  0.1691066E-003  0.9118800E+02  0.7818608E-02  0.1130116E+00
         25   -1    0    0    0    0  0.00000000000E+00  0.00000000000E+00  0.99999998245E-14  0.12500000000E+03  0.12500000000E+03 0.  0.
        -13    1    3    3    0    0  0.11127541685E+02  0.35419408019E+02 -0.37911568528E+02  0.53062744375E+02  0.10566000000E+00 0. -1.
         23    2    1    0    0    0  0.12003695833E+02  0.39439179781E+02 -0.83146471015E+01  0.82944429954E+02  0.71492009963E+02 0.  0.
         13    1    3    3    0    0  0.87615414840E+00  0.40197717627E+01  0.29596921426E+02  0.29881685579E+02  0.10566000000E+00 0.  1.
         22    1    1    0    0    0 -0.12003695833E+02 -0.39439179781E+02  0.83146471015E+01  0.42055570046E+02  0.00000000000E+00 0. -1.
</event>
<event>
 5    1  0.1691066E-003  0.9118800E+02  0.7818608E-02  0.1130116E+00
         25   -1    0    0    0    0  0.00000000000E+00  0.00000000000E+00  0.99999998245E-14  0.12500000000E+03  0.12500000000E+03 0.  0.
        -13    1    3    3    0    0 -0.17532643613E+02 -0.14720807071E+02  0.16812112509E+02  0.28403416061E+02  0.10566000000E+00 0.  1.
         23    2    1    0    0    0  0.35110977018E+02  0.89893464403E+01  0.13798334875E+02  0.86218779004E+02  0.77004511238E+02 0.  0.
         13    1    3    3    0    0  0.52643620631E+02  0.23710153511E+02 -0.30137776339E+01  0.57815362944E+02  0.10566000000E+00 0. -1.
         22    1    1    0    0    0 -0.35110977018E+02 -0.89893464403E+01 -0.13798334875E+02  0.38781220996E+02  0.00000000000E+00 0. -1.
</event>
<event>
 5    1  0.1691066E-003  0.9118800E+02  0.7818608E-02  0.1130116E+00
         25   -1    0    0    0    0  0.00000000000E+00  0.00000000000E+00  0.99999998245E-14  0.12500000000E+03  0.12500000000E+03 0.  0.
        -13    1    3    3    0    0 -0.33698251305E+02  0.18761564407E+02 -0.24275856307E+02  0.45572983263E+02  0.10566000000E+00 0.  1.
         23    2    1    0    0    0 -0.22745322937E+02 -0.74971421992E+01  0.16947149206E+02  0.95661241968E+02  0.91051142178E+02 0.  0.
         13    1    3    3    0    0  0.10952928368E+02 -0.26258706606E+02  0.41223005514E+02  0.50088258705E+02  0.10566000000E+00 0. -1.
         22    1    1    0    0    0  0.22745322937E+02  0.74971421992E+01 -0.16947149206E+02  0.29338758032E+02  0.00000000000E+00 0. -1.
</event>
<event>
 5    1  0.1691066E-003  0.9118800E+02  0.7818608E-02  0.1130116E+00
         25   -1    0    0    0    0  0.00000000000E+00  0.00000000000E+00  0.99999998245E-14  0.12500000000E+03  0.12500000000E+03 0.  0.
        -13    1    3    3    0    0  0.19814838914E+02 -0.29400821113E+02 -0.69339579880E+01  0.36126542331E+02  0.10566000000E+00 0. -1.
         23    2    1    0    0    0  0.58016050510E+01  0.27945982243E+02 -0.86202033891E+01  0.95184828507E+02  0.90394729530E+02 0.  0.
         13    1    3    3    0    0 -0.14013233863E+02  0.57346803356E+02 -0.16862454011E+01  0.59058286176E+02  0.10566000000E+00 0.  1.
         22    1    1    0    0    0 -0.58016050510E+01 -0.27945982243E+02  0.86202033891E+01  0.29815171493E+02  0.00000000000E+00 0.  1.
</event>
<event>
 5    1  0.1691066E-003  0.9118800E+02  0.7818608E-02  0.1130116E+00
         25   -1    0    0    0    0  0.00000000000E+00  0.00000000000E+00  0.99999998245E-14  0.12500000000E+03  0.12500000000E+03 0.  0.
        -13    1    3    3    0    0 -0.33203092106E+01  0.23028855078E+02  0.28945736091E+02  0.37137843520E+02  0.10566000000E+00 0.  1.
         23    2    1    0    0    0  0.23418219752E+02 -0.14452340171E+02 -0.81892463142E+01  0.96288557891E+02  0.91908321020E+02 0.  0.
         13    1    3    3    0    0  0.26738528963E+02 -0.37481195249E+02 -0.37134982405E+02  0.59150714371E+02  0.10566000000E+00 0. -1.
         22    1    1    0    0    0 -0.23418219752E+02  0.14452340171E+02  0.81892463142E+01  0.28711442109E+02  0.00000000000E+00 0. -1.
</event>
<event>
 5    1  0.1691066E-003  0.9118800E+02  0.7818608E-02  0.1130116E+00
         25   -1    0    0    0    0  0.00000000000E+00  0.00000000000E+00  0.99999998245E-14  0.12500000000E+03  0.12500000000E+03 0.  0.
        -13    1    3    3    0    0  0.14544769358E+02 -0.41160947985E+02  0.10970129550E+02  0.45012541153E+02  0.10566000000E+00 0. -1.
         23    2    1    0    0    0  0.19580309875E+02  0.88554975560E+01  0.19477664704E+02  0.95996762352E+02  0.91510603692E+02 0.  0.
         13    1    3    3    0    0  0.50355405166E+01  0.50016445541E+02  0.85075351532E+01  0.50984221199E+02  0.10566000000E+00 0.  1.
         22    1    1    0    0    0 -0.19580309875E+02 -0.88554975560E+01 -0.19477664704E+02  0.29003237648E+02  0.00000000000E+00 0. -1.
</event>
<event>
 5    1  0.1691066E-003  0.9118800E+02  0.7818608E-02  0.1130116E+00
         25   -1    0    0    0    0  0.00000000000E+00  0.00000000000E+00  0.99999998245E-14  0.12500000000E+03  0.12500000000E+03 0.  0.
        -13    1    3    3    0    0  0.47905874352E+02  0.33727522947E+02 -0.20135436394E+02  0.61951316083E+02  0.10566000000E+00 0.  1.
         23    2    1    0    0    0  0.23159789114E+02  0.10968505608E+02 -0.12766697243E+02  0.96370076745E+02  0.92019124025E+02 0.  0.
         13    1    3    3    0    0 -0.24746085238E+02 -0.22759017339E+02  0.73687391511E+01  0.34418760663E+02  0.10566000000E+00 0. -1.
         22    1    1    0    0    0 -0.23159789114E+02 -0.10968505608E+02  0.12766697243E+02  0.28629923255E+02  0.00000000000E+00 0.  1.
</event>
<event>
 5    1  0.1691066E-003  0.9118800E+02  0.7818608E-02  0.1130116E+00
         25   -1    0    0    0    0  0.00000000000E+00  0.00000000000E+00  0.99999998245E-14  0.12500000000E+03  0.12500000000E+03 0.  0.
        -13    1    3    3    0    0 -0.19437487928E+02 -0.22960540229E+02  0.28944751348E+02  0.41747001560E+02  0.10566000000E+00 0.  1.
         23    2    1    0    0    0 -0.23875650592E+02 -0.26589813366E+01 -0.19239862861E+02  0.94221936451E+02  0.89053265593E+02 0.  0.
         13    1    3    3    0    0 -0.44381626632E+01  0.20301558893E+02 -0.48184614209E+02  0.52474934891E+02  0.10566000000E+00 0. -1.
         22    1    1    0    0    0  0.23875650592E+02  0.26589813366E+01  0.19239862861E+02  0.30778063549E+02  0.00000000000E+00 0. -1.
</event>
<event>
 5    1  0.1691066E-003  0.9118800E+02  0.7818608E-02  0.1130116E+00
         25   -1    0    0    0    0  0.00000000000E+00  0.00000000000E+00  0.99999998245E-14  0.12500000000E+03  0.12500000000E+03 0.  0.
        -13    1    3    3    0    0 -0.33400809086E+02 -0.10059931931E+02  0.43438455535E+01  0.35152474113E+02  0.10566000000E+00 0. -1.
         23    2    1    0    0    0  0.27207247220E+02 -0.70877546424E+01 -0.46706451281E+01  0.96499377322E+02  0.92194600332E+02 0.  0.
         13    1    3    3    0    0  0.60608056306E+02  0.29721772889E+01 -0.90144906815E+01  0.61346903208E+02  0.10566000000E+00 0.  1.
         22    1    1    0    0    0 -0.27207247220E+02  0.70877546424E+01  0.46706451281E+01  0.28500622678E+02  0.00000000000E+00 0.  1.
</event>
<event>
 5    1  0.1691066E-003  0.9118800E+02  0.7818608E-02  0.1130116E+00
         25   -1    0    0    0    0  0.00000000000E+00  0.00000000000E+00  0.99999998245E-14  0.12500000000E+03  0.12500000000E+03 0.  0.
        -13    1    3    3    0    0 -0.56634806810E+01  0.51545945322E+02  0.14782286139E+02  0.53922042247E+02  0.10566000000E+00 0. -1.
         23    2    1    0    0    0  0.16001643358E+02  0.33696322303E+02  0.20301316381E+02  0.82530738484E+02  0.70764995732E+02 0.  0.
         13    1    3    3    0    0  0.21665124039E+02 -0.17849623018E+02  0.55190302419E+01  0.28608696237E+02  0.10566000000E+00 0.  1.
         22    1    1    0    0    0 -0.16001643358E+02 -0.33696322303E+02 -0.20301316381E+02  0.42469261516E+02  0.00000000000E+00 0. -1.
</event>
<event>
 5    1  0.1691066E-003  0.9118800E+02  0.7818608E-02  0.1130116E+00
         25   -1    0    0    0    0  0.00000000000E+00  0.00000000000E+00  0.99999998245E-14  0.12500000000E+03  0.12500000000E+03 0.  0.
        -13    1    3    3    0    0 -0.28212566200E+02 -0.86375581335E+01  0.44649899561E+02  0.53518043658E+02  0.10566000000E+00 0.  1.
         23    2    1    0    0    0 -0.19360808669E+02 -0.19768362097E+02  0.34350875917E+01  0.97117588356E+02  0.93029012082E+02 0.  0.
         13    1    3    3    0    0  0.88517575311E+01 -0.11130803963E+02 -0.41214811969E+02  0.43599544699E+02  0.10566000000E+00 0. -1.
         22    1    1    0    0    0  0.19360808669E+02  0.19768362097E+02 -0.34350875917E+01  0.27882411644E+02  0.00000000000E+00 0.  1.
</event>
<event>
 5    1  0.1691066E-003  0.9118800E+02  0.7818608E-02  0.1130116E+00
         25   -1    0    0    0    0  0.00000000000E+00  0.00000000000E+00  0.99999998245E-14  0.12500000000E+03  0.12500000000E+03 0.  0.
        -13    1    3    3    0    0 -0.29753312952E+02  0.61466936375E+01 -0.24735001713E+02  0.39177454589E+02  0.10566000000E+00 0. -1.
         23    2    1    0    0    0 -0.17455236620E+00 -0.27328202833E+02  0.10141006725E+02  0.95850366109E+02  0.91310413027E+02 0.  0.
         13    1    3    3    0    0  0.29578760585E+02 -0.33474896470E+02  0.34876008439E+02  0.56672911520E+02  0.10566000000E+00 0.  1.
         22    1    1    0    0    0  0.17455236620E+00  0.27328202833E+02 -0.10141006725E+02  0.29149633891E+02  0.00000000000E+00 0.  1.
</event>
<event>
 5    1  0.1691066E-003  0.9118800E+02  0.7818608E-02  0.1130116E+00
         25   -1    0    0    0    0  0.00000000000E+00  0.00000000000E+00  0.99999998245E-14  0.12500000000E+03  0.12500000000E+03 0.  0.
        -13    1    3    3    0    0  0.25187547001E+02 -0.68508351127E+01  0.26813144283E+02  0.37420613785E+02  0.10566000000E+00 0. -1.
         23    2    1    0    0    0  0.94613227052E+01  0.16469684570E+02 -0.23331031449E+02  0.94915050845E+02  0.90020901525E+02 0.  0.
         13    1    3    3    0    0 -0.15726224296E+02  0.23320519682E+02 -0.50144175733E+02  0.57494437060E+02  0.10566000000E+00 0.  1.
         22    1    1    0    0    0 -0.94613227052E+01 -0.16469684570E+02  0.23331031449E+02  0.30084949155E+02  0.00000000000E+00 0.  1.
</event>
<event>
 5    1  0.1691066E-003  0.9118800E+02  0.7818608E-02  0.1130116E+00
         25   -1    0    0    0    0  0.00000000000E+00  0.00000000000E+00  0.99999998245E-14  0.12500000000E+03  0.12500000000E+03 0.  0.
        -13    1    3    3    0    0  0.51635619353E+02  0.32599078680E+02 -0.56457346016E+01  0.61325546063E+02  0.10566000000E+00 0.  1.
         23    2    1    0    0    0  0.27514735210E+02  0.81145365917E+01 -0.59774804141E+01  0.95697497891E+02  0.91100902700E+02 0.  0.
         13    1    3    3    0    0 -0.24120884143E+02 -0.24484542088E+02 -0.33174581242E+00  0.34371951828E+02  0.10566000000E+00 0. -1.
         22    1    1    0    0    0 -0.27514735210E+02 -0.81145365917E+01  0.59774804141E+01  0.29302502109E+02  0.00000000000E+00 0.  1.
</event>
<event>
 5    1  0.1691066E-003  0.9118800E+02  0.7818608E-02  0.1130116E+00
         25   -1    0    0    0    0  0.00000000000E+00  0.00000000000E+00  0.99999998245E-14  0.12500000000E+03  0.12500000000E+03 0.  0.
        -13    1    3    3    0    0 -0.45881839342E+02  0.24705008389E+02  0.80873702268E+01  0.52734214151E+02  0.10566000000E+00 0.  1.
         23    2    1    0    0    0 -0.36692308785E+02  0.40402064580E+01  0.24515055783E+02  0.80687058863E+02  0.67429702029E+02 0.  0.
         13    1    3    3    0    0  0.91895305568E+01 -0.20664801931E+02  0.16427685557E+02  0.27952844712E+02  0.10566000000E+00 0. -1.
         22    1    1    0    0    0  0.36692308785E+02 -0.40402064580E+01 -0.24515055783E+02  0.44312941137E+02  0.00000000000E+00 0.  1.
</event>
<event>
 5    1  0.1691066E-003  0.9118800E+02  0.7818608E-02  0.1130116E+00
         25   -1    0    0    0    0  0.00000000000E+00  0.00000000000E+00  0.99999998245E-14  0.12500000000E+03  0.12500000000E+03 0.  0.
        -13    1    3    3    0    0 -0.36934688013E+02  0.20479391764E+02  0.21877709725E+02  0.47562821746E+02  0.10566000000E+00 0.  1.
         23    2    1    0    0    0  0.10994566056E+02  0.18058522912E+02  0.20466984955E+02  0.95574021585E+02  0.90931322416E+02 0.  0.
         13    1    3    3    0    0  0.47929254069E+02 -0.24208688517E+01 -0.14107247705E+01  0.48011199839E+02  0.10566000000E+00 0. -1.
         22    1    1    0    0    0 -0.10994566056E+02 -0.18058522912E+02 -0.20466984955E+02  0.29425978415E+02  0.00000000000E+00 0.  1.
</event>
<event>
 5    1  0.1691066E-003  0.9118800E+02  0.7818608E-02  0.1130116E+00
         25   -1    0    0    0    0  0.00000000000E+00  0.00000000000E+00  0.99999998245E-14  0.12500000000E+03  0.12500000000E+03 0.  0.
        -13    1    3    3    0    0 -0.40701257046E+02  0.12544671087E+02  0.22378772733E+02  0.48112178613E+02  0.10566000000E+00 0.  1.
         23    2    1    0    0    0  0.58131629712E+01  0.24086462365E+02  0.13259720438E+02  0.96897140376E+02  0.92732330359E+02 0.  0.
         13    1    3    3    0    0  0.46514420017E+02  0.11541791278E+02 -0.91190522945E+01  0.48784961763E+02  0.10566000000E+00 0. -1.
         22    1    1    0    0    0 -0.58131629712E+01 -0.24086462365E+02 -0.13259720438E+02  0.28102859624E+02  0.00000000000E+00 0.  1.
</event>
<event>
 5    1  0.1691066E-003  0.9118800E+02  0.7818608E-02  0.1130116E+00
         25   -1    0    0    0    0  0.00000000000E+00  0.00000000000E+00  0.99999998245E-14  0.12500000000E+03  0.12500000000E+03 0.  0.
        -13    1    3    3    0    0  0.63098776702E+01  0.53430210134E+02 -0.22302199275E+02  0.58240889140E+02  0.10566000000E+00 0. -1.
         23    2    1    0    0    0  0.11204996114E+02  0.16080593021E+02 -0.21484179202E+02  0.95918951776E+02  0.91404255612E+02 0.  0.
         13    1    3    3    0    0  0.48951184442E+01 -0.37349617114E+02  0.81802007297E+00  0.37678062636E+02  0.10566000000E+00 0.  1.
         22    1    1    0    0    0 -0.11204996114E+02 -0.16080593021E+02  0.21484179202E+02  0.29081048224E+02  0.00000000000E+00 0.  1.
</event>
<event>
 5    1  0.1691066E-003  0.9118800E+02  0.7818608E-02  0.1130116E+00
         25   -1    0    0    0    0  0.00000000000E+00  0.00000000000E+00  0.99999998245E-14  0.12500000000E+03  0.12500000000E+03 0.  0.
        -13    1    3    3    0    0 -0.54560776460E+02 -0.14915757191E+02 -0.22106344449E+02  0.60729397901E+02  0.10566000000E+00 0.  1.
         23    2    1    0    0    0 -0.22894072541E+02 -0.76348062692E+01  0.13878907436E+01  0.10082656282E+03  0.97885855492E+02 0.  0.
         13    1    3    3    0    0  0.31666703919E+02  0.72809509220E+01  0.23494235192E+02  0.40097164921E+02  0.10566000000E+00 0. -1.
         22    1    1    0    0    0  0.22894072541E+02  0.76348062692E+01 -0.13878907436E+01  0.24173437178E+02  0.00000000000E+00 0.  1.
</event>
<event>
 5    1  0.1691066E-003  0.9118800E+02  0.7818608E-02  0.1130116E+00
         25   -1    0    0    0    0  0.00000000000E+00  0.00000000000E+00  0.99999998245E-14  0.12500000000E+03  0.12500000000E+03 0.  0.
        -13    1    3    3    0    0 -0.17861398820E+02  0.55078168464E+02 -0.23428946346E+02  0.62462475936E+02  0.10566000000E+00 0. -1.
         23    2    1    0    0    0 -0.70483906084E+01  0.24518861631E+02 -0.89685478759E+01  0.97957639954E+02  0.94150995685E+02 0.  0.
         13    1    3    3    0    0  0.10813008212E+02 -0.30559306833E+02  0.14460398470E+02  0.35495164018E+02  0.10566000000E+00 0.  1.
         22    1    1    0    0    0  0.70483906084E+01 -0.24518861631E+02  0.89685478759E+01  0.27042360046E+02  0.00000000000E+00 0. -1.
</event>
<event>
 5    1  0.1691066E-003  0.9118800E+02  0.7818608E-02  0.1130116E+00
         25   -1    0    0    0    0  0.00000000000E+00  0.00000000000E+00  0.99999998245E-14  0.12500000000E+03  0.12500000000E+03 0.  0.
        -13    1    3    3    0    0 -0.27066411303E+02  0.10923515013E+02 -0.30351288007E+02  0.42108498534E+02  0.10566000000E+00 0.  1.
         23    2    1    0    0    0  0.24293027197E+02  0.76254256630E+01 -0.12936438599E+02  0.96440417885E+02  0.92114626804E+02 0.  0.
         13    1    3    3    0    0  0.51359438500E+02 -0.32980893500E+01  0.17414849408E+02  0.54331919351E+02  0.10566000000E+00 0. -1.
         22    1    1    0    0    0 -0.24293027197E+02 -0.76254256630E+01  0.12936438599E+02  0.28559582115E+02  0.00000000000E+00 0. -1.
</event>
<event>
 5    1  0.1691066E-003  0.9118800E+02  0.7818608E-02  0.1130116E+00
         25   -1    0    0    0    0  0.00000000000E+00  0.00000000000E+00  0.99999998245E-14  0.12500000000E+03  0.12500000000E+03 0.  0.
        -13    1    3    3    0    0  0.25635692681E+02 -0.87386169440E+01  0.27920633854E+02  0.38898909036E+02  0.10566000000E+00 0. -1.
         23    2    1    0    0    0 -0.10220057497E+02  0.25849732233E+02 -0.22002498999E+01  0.97116325002E+02  0.93027314540E+02 0.  0.
         13    1    3    3    0    0 -0.35855750177E+02  0.34588349178E+02 -0.30120883754E+02  0.58217415966E+02  0.10566000000E+00 0.  1.
         22    1    1    0    0    0  0.10220057497E+02 -0.25849732233E+02  0.22002498999E+01  0.27883674998E+02  0.00000000000E+00 0.  1.
</event>
<event>
 5    1  0.1691066E-003  0.9118800E+02  0.7818608E-02  0.1130116E+00
         25   -1    0    0    0    0  0.00000000000E+00  0.00000000000E+00  0.99999998245E-14  0.12500000000E+03  0.12500000000E+03 0.  0.
        -13    1    3    3    0    0 -0.32564082938E+01 -0.26792674482E+01  0.37179486873E+02  0.37418018083E+02  0.10566000000E+00 0. -1.
         23    2    1    0    0    0 -0.10188948568E+02  0.22600030284E+02 -0.15150655242E+02  0.95946284299E+02  0.91441626598E+02 0.  0.
         13    1    3    3    0    0 -0.69325402741E+01  0.25279297732E+02 -0.52330142115E+02  0.58528266217E+02  0.10566000000E+00 0.  1.
         22    1    1    0    0    0  0.10188948568E+02 -0.22600030284E+02  0.15150655242E+02  0.29053715701E+02  0.00000000000E+00 0.  1.
</event>
<event>
 5    1  0.1691066E-003  0.9118800E+02  0.7818608E-02  0.1130116E+00
         25   -1    0    0    0    0  0.00000000000E+00  0.00000000000E+00  0.99999998245E-14  0.12500000000E+03  0.12500000000E+03 0.  0.
        -13    1    3    3    0    0  0.20488158969E+02  0.10171414920E+02  0.52775141010E+02  0.57519118665E+02  0.10566000000E+00 0.  1.
         23    2    1    0    0    0 -0.77590396949E+01  0.10097482674E+02  0.23934523696E+02  0.97888687271E+02  0.94059405791E+02 0.  0.
         13    1    3    3    0    0 -0.28247198664E+02 -0.73932245765E-01 -0.28840617314E+02  0.40369568605E+02  0.10566000000E+00 0. -1.
         22    1    1    0    0    0  0.77590396949E+01 -0.10097482674E+02 -0.23934523696E+02  0.27111312729E+02  0.00000000000E+00 0.  1.
</event>
<event>
 5    1  0.1691066E-003  0.9118800E+02  0.7818608E-02  0.1130116E+00
         25   -1    0    0    0    0  0.00000000000E+00  0.00000000000E+00  0.99999998245E-14  0.12500000000E+03  0.12500000000E+03 0.  0.
        -13    1    3    3    0    0 -0.35716149915E+02  0.17771661404E+02  0.33075482043E+02  0.51821559126E+02  0.10566000000E+00 0. -1.
         23    2    1    0    0    0  0.60201180522E+01  0.59162044702E+01  0.28296436572E+02  0.95471511732E+02  0.90790296470E+02 0.  0.
         13    1    3    3    0    0  0.41736267967E+02 -0.11855456934E+02 -0.47790454707E+01  0.43649952607E+02  0.10566000000E+00 0.  1.
         22    1    1    0    0    0 -0.60201180522E+01 -0.59162044702E+01 -0.28296436572E+02  0.29528488268E+02  0.00000000000E+00 0.  1.
</event>
<event>
 5    1  0.1691066E-003  0.9118800E+02  0.7818608E-02  0.1130116E+00
         25   -1    0    0    0    0  0.00000000000E+00  0.00000000000E+00  0.99999998245E-14  0.12500000000E+03  0.12500000000E+03 0.  0.
        -13    1    3    3    0    0 -0.11473292793E+02 -0.33108470801E+02 -0.15782414253E+02  0.38430496354E+02  0.10566000000E+00 0.  1.
         23    2    1    0    0    0 -0.27343926519E+02  0.82968511657E+01  0.15304374806E+02  0.92584695822E+02  0.86724702107E+02 0.  0.
         13    1    3    3    0    0 -0.15870633727E+02  0.41405321967E+02  0.31086789059E+02  0.54154199469E+02  0.10566000000E+00 0. -1.
         22    1    1    0    0    0  0.27343926519E+02 -0.82968511657E+01 -0.15304374806E+02  0.32415304178E+02  0.00000000000E+00 0. -1.
</event>
<event>
 5    1  0.1691066E-003  0.9118800E+02  0.7818608E-02  0.1130116E+00
         25   -1    0    0    0    0  0.00000000000E+00  0.00000000000E+00  0.99999998245E-14  0.12500000000E+03  0.12500000000E+03 0.  0.
        -13    1    3    3    0    0  0.73351784066E+01  0.21395474775E+02 -0.26471133028E+02  0.34818145139E+02  0.10566000000E+00 0.  1.
         23    2    1    0    0    0 -0.10166752467E+02 -0.28021713475E+02  0.31369781695E+01  0.95026346338E+02  0.90175310282E+02 0.  0.
         13    1    3    3    0    0 -0.17501930873E+02 -0.49417188251E+02  0.29608111197E+02  0.60208201199E+02  0.10566000000E+00 0. -1.
         22    1    1    0    0    0  0.10166752467E+02  0.28021713475E+02 -0.31369781695E+01  0.29973653662E+02  0.00000000000E+00 0. -1.
</event>
<event>
 5    1  0.1691066E-003  0.9118800E+02  0.7818608E-02  0.1130116E+00
         25   -1    0    0    0    0  0.00000000000E+00  0.00000000000E+00  0.99999998245E-14  0.12500000000E+03  0.12500000000E+03 0.  0.
        -13    1    3    3    0    0  0.30377478364E+02  0.17289657940E+01 -0.22390809007E+02  0.37777506621E+02  0.10566000000E+00 0.  1.
         23    2    1    0    0    0 -0.51770520859E+01  0.12964824984E+02  0.23962771830E+02  0.97267293877E+02  0.93229949422E+02 0.  0.
         13    1    3    3    0    0 -0.35554530450E+02  0.11235859190E+02  0.46353580837E+02  0.59489787255E+02  0.10566000000E+00 0. -1.
         22    1    1    0    0    0  0.51770520859E+01 -0.12964824984E+02 -0.23962771830E+02  0.27732706123E+02  0.00000000000E+00 0. -1.
</event>
<event>
 5    1  0.1691066E-003  0.9118800E+02  0.7818608E-02  0.1130116E+00
         25   -1    0    0    0    0  0.00000000000E+00  0.00000000000E+00  0.99999998245E-14  0.12500000000E+03  0.12500000000E+03 0.  0.
        -13    1    3    3    0    0 -0.59503953478E+01 -0.24344149415E+02  0.11862260670E+02  0.27726687645E+02  0.10566000000E+00 0.  1.
         23    2    1    0    0    0 -0.19487629920E+02  0.32619103475E+02  0.48192260156E+01  0.86698582653E+02  0.77779468134E+02 0.  0.
         13    1    3    3    0    0 -0.13537234573E+02  0.56963252890E+02 -0.70430346540E+01  0.58971895008E+02  0.10566000000E+00 0. -1.
         22    1    1    0    0    0  0.19487629920E+02 -0.32619103475E+02 -0.48192260156E+01  0.38301417347E+02  0.00000000000E+00 0. -1.
</event>
<event>
 5    1  0.1691066E-003  0.9118800E+02  0.7818608E-02  0.1130116E+00
         25   -1    0    0    0    0  0.00000000000E+00  0.00000000000E+00  0.99999998245E-14  0.12500000000E+03  0.12500000000E+03 0.  0.
        -13    1    3    3    0    0 -0.34282060056E+02 -0.25880268677E+02  0.35068599299E+02  0.55451472201E+02  0.10566000000E+00 0.  1.
         23    2    1    0    0    0 -0.19184449776E+02 -0.24275098389E+02 -0.42530650376E+00  0.94056432000E+02  0.88820650751E+02 0.  0.
         13    1    3    3    0    0  0.15097610280E+02  0.16051702879E+01 -0.35493905803E+02  0.38604959798E+02  0.10566000000E+00 0. -1.
         22    1    1    0    0    0  0.19184449776E+02  0.24275098389E+02  0.42530650376E+00  0.30943568000E+02  0.00000000000E+00 0.  1.
</event>
<event>
 5    1  0.1691066E-003  0.9118800E+02  0.7818608E-02  0.1130116E+00
         25   -1    0    0    0    0  0.00000000000E+00  0.00000000000E+00  0.99999998245E-14  0.12500000000E+03  0.12500000000E+03 0.  0.
        -13    1    3    3    0    0 -0.67430239659E+01 -0.34156957780E+02  0.18484152402E+02  0.39418792359E+02  0.10566000000E+00 0. -1.
         23    2    1    0    0    0  0.26421536592E+02  0.99930019105E+01  0.81856160718E+01  0.95589763796E+02  0.90952960090E+02 0.  0.
         13    1    3    3    0    0  0.33164560558E+02  0.44149959690E+02 -0.10298536330E+02  0.56170971438E+02  0.10566000000E+00 0.  1.
         22    1    1    0    0    0 -0.26421536592E+02 -0.99930019105E+01 -0.81856160718E+01  0.29410236204E+02  0.00000000000E+00 0.  1.
</event>
<event>
 5    1  0.1691066E-003  0.9118800E+02  0.7818608E-02  0.1130116E+00
         25   -1    0    0    0    0  0.00000000000E+00  0.00000000000E+00  0.99999998245E-14  0.12500000000E+03  0.12500000000E+03 0.  0.
        -13    1    3    3    0    0  0.18836340756E+02 -0.33110705837E+02  0.15999990992E+01  0.38127388256E+02  0.10566000000E+00 0. -1.
         23    2    1    0    0    0 -0.30651826365E+02 -0.13880081915E+02 -0.15702674886E+01  0.91315331774E+02  0.84875396574E+02 0.  0.
         13    1    3    3    0    0 -0.49488167121E+02  0.19230623922E+02 -0.31702665878E+01  0.53187943518E+02  0.10566000000E+00 0.  1.
         22    1    1    0    0    0  0.30651826365E+02  0.13880081915E+02  0.15702674886E+01  0.33684668226E+02  0.00000000000E+00 0.  1.
</event>
<event>
 5    1  0.1691066E-003  0.9118800E+02  0.7818608E-02  0.1130116E+00
         25   -1    0    0    0    0  0.00000000000E+00  0.00000000000E+00  0.99999998245E-14  0.12500000000E+03  0.12500000000E+03 0.  0.
        -13    1    3    3    0    0  0.55446046626E+01  0.17293416809E+02  0.34506575888E+02  0.38993843737E+02  0.10566000000E+00 0.  1.
         23    2    1    0    0    0  0.16320418038E+02 -0.22199581167E+02 -0.62358549460E+01  0.96749985206E+02  0.92533757632E+02 0.  0.
         13    1    3    3    0    0  0.10775813376E+02 -0.39492997976E+02 -0.40742430834E+02  0.57756141469E+02  0.10566000000E+00 0. -1.
         22    1    1    0    0    0 -0.16320418038E+02  0.22199581167E+02  0.62358549460E+01  0.28250014794E+02  0.00000000000E+00 0.  1.
</event>
<event>
 5    1  0.1691066E-003  0.9118800E+02  0.7818608E-02  0.1130116E+00
         25   -1    0    0    0    0  0.00000000000E+00  0.00000000000E+00  0.99999998245E-14  0.12500000000E+03  0.12500000000E+03 0.  0.
        -13    1    3    3    0    0  0.20378028495E+02 -0.22907646184E+02  0.16818207801E+02  0.34969809504E+02  0.10566000000E+00 0. -1.
         23    2    1    0    0    0 -0.26620564977E+02  0.58032518282E+01 -0.96779443054E+01  0.96086425031E+02  0.91632997647E+02 0.  0.
         13    1    3    3    0    0 -0.46998593472E+02  0.28710898012E+02 -0.26496152107E+02  0.61116615528E+02  0.10566000000E+00 0.  1.
         22    1    1    0    0    0  0.26620564977E+02 -0.58032518282E+01  0.96779443054E+01  0.28913574969E+02  0.00000000000E+00 0.  1.
</event>
<event>
 5    1  0.1691066E-003  0.9118800E+02  0.7818608E-02  0.1130116E+00
         25   -1    0    0    0    0  0.00000000000E+00  0.00000000000E+00  0.99999998245E-14  0.12500000000E+03  0.12500000000E+03 0.  0.
        -13    1    3    3    0    0  0.32643036637E+02 -0.84073697779E+01 -0.22077898563E+01  0.33780722425E+02  0.10566000000E+00 0. -1.
         23    2    1    0    0    0 -0.18442923839E+02  0.63125019000E+01 -0.26393769892E+02  0.92188108725E+02  0.86151187927E+02 0.  0.
         13    1    3    3    0    0 -0.51085960477E+02  0.14719871678E+02 -0.24185980035E+02  0.58407386299E+02  0.10566000000E+00 0.  1.
         22    1    1    0    0    0  0.18442923839E+02 -0.63125019000E+01  0.26393769892E+02  0.32811891275E+02  0.00000000000E+00 0.  1.
</event>
<event>
 5    1  0.1691066E-003  0.9118800E+02  0.7818608E-02  0.1130116E+00
         25   -1    0    0    0    0  0.00000000000E+00  0.00000000000E+00  0.99999998245E-14  0.12500000000E+03  0.12500000000E+03 0.  0.
        -13    1    3    3    0    0  0.33954589931E+02  0.34691365258E+02 -0.11705375781E+02  0.49934276675E+02  0.10566000000E+00 0.  1.
         23    2    1    0    0    0  0.20942089895E+01  0.36368839739E+02 -0.20723351363E+02  0.83088957219E+02  0.71744263218E+02 0.  0.
         13    1    3    3    0    0 -0.31860380941E+02  0.16774744813E+01 -0.90179755827E+01  0.33154680544E+02  0.10566000000E+00 0. -1.
         22    1    1    0    0    0 -0.20942089895E+01 -0.36368839739E+02  0.20723351363E+02  0.41911042781E+02  0.00000000000E+00 0.  1.
</event>
<event>
 5    1  0.1691066E-003  0.9118800E+02  0.7818608E-02  0.1130116E+00
         25   -1    0    0    0    0  0.00000000000E+00  0.00000000000E+00  0.99999998245E-14  0.12500000000E+03  0.12500000000E+03 0.  0.
        -13    1    3    3    0    0 -0.11878252603E+02 -0.50959337837E+02  0.21957546674E+02  0.56745854630E+02  0.10566000000E+00 0.  1.
         23    2    1    0    0    0 -0.22435379923E+02 -0.14611087436E+02  0.93360312153E+01  0.96645253886E+02  0.92392172133E+02 0.  0.
         13    1    3    3    0    0 -0.10557127320E+02  0.36348250401E+02 -0.12621515458E+02  0.39899399256E+02  0.10566000000E+00 0. -1.
         22    1    1    0    0    0  0.22435379923E+02  0.14611087436E+02 -0.93360312153E+01  0.28354746114E+02  0.00000000000E+00 0.  1.
</event>
<event>
 5    1  0.1691066E-003  0.9118800E+02  0.7818608E-02  0.1130116E+00
         25   -1    0    0    0    0  0.00000000000E+00  0.00000000000E+00  0.99999998245E-14  0.12500000000E+03  0.12500000000E+03 0.  0.
        -13    1    3    3    0    0  0.19606756436E+02  0.35713615670E+02  0.59480817725E+01  0.41173754783E+02  0.10566000000E+00 0. -1.
         23    2    1    0    0    0 -0.26845464988E+02  0.79134692581E+01 -0.54259490968E+01  0.96491353773E+02  0.92183721140E+02 0.  0.
         13    1    3    3    0    0 -0.46452221423E+02 -0.27800146412E+02 -0.11374030869E+02  0.55317598989E+02  0.10566000000E+00 0.  1.
         22    1    1    0    0    0  0.26845464988E+02 -0.79134692581E+01  0.54259490968E+01  0.28508646227E+02  0.00000000000E+00 0.  1.
</event>
<event>
 5    1  0.1691066E-003  0.9118800E+02  0.7818608E-02  0.1130116E+00
         25   -1    0    0    0    0  0.00000000000E+00  0.00000000000E+00  0.99999998245E-14  0.12500000000E+03  0.12500000000E+03 0.  0.
        -13    1    3    3    0    0 -0.22061512213E+02  0.41360894722E+02  0.33266003964E+02  0.57481058769E+02  0.10566000000E+00 0.  1.
         23    2    1    0    0    0 -0.19103013130E+01  0.27762855647E+02  0.19809045159E+01  0.97101086267E+02  0.93006836129E+02 0.  0.
         13    1    3    3    0    0  0.20151210900E+02 -0.13598039075E+02 -0.31285099449E+02  0.39620027498E+02  0.10566000000E+00 0. -1.
         22    1    1    0    0    0  0.19103013130E+01 -0.27762855647E+02 -0.19809045159E+01  0.27898913733E+02  0.00000000000E+00 0.  1.
</event>
<event>
 5    1  0.1691066E-003  0.9118800E+02  0.7818608E-02  0.1130116E+00
         25   -1    0    0    0    0  0.00000000000E+00  0.00000000000E+00  0.99999998245E-14  0.12500000000E+03  0.12500000000E+03 0.  0.
        -13    1    3    3    0    0 -0.99140617108E+01 -0.46032769040E+02 -0.20760390205E+02  0.51461727629E+02  0.10566000000E+00 0. -1.
         23    2    1    0    0    0 -0.25998228887E+02 -0.86089224124E+01  0.90412984168E+00  0.97598560237E+02  0.93673048734E+02 0.  0.
         13    1    3    3    0    0 -0.16084167176E+02  0.37423846628E+02  0.21664520047E+02  0.46136832607E+02  0.10566000000E+00 0.  1.
         22    1    1    0    0    0  0.25998228887E+02  0.86089224124E+01 -0.90412984168E+00  0.27401439763E+02  0.00000000000E+00 0.  1.
</event>
<event>
 5    1  0.1691066E-003  0.9118800E+02  0.7818608E-02  0.1130116E+00
         25   -1    0    0    0    0  0.00000000000E+00  0.00000000000E+00  0.99999998245E-14  0.12500000000E+03  0.12500000000E+03 0.  0.
        -13    1    3    3    0    0 -0.25982140925E+02  0.28684910137E+02  0.76954743107E+01  0.39460451157E+02  0.10566000000E+00 0.  1.
         23    2    1    0    0    0  0.23198222112E+02  0.82205635811E+01 -0.13661852209E+02  0.96850730373E+02  0.92669750152E+02 0.  0.
         13    1    3    3    0    0  0.49180363037E+02 -0.20464346556E+02 -0.21357326520E+02  0.57390279216E+02  0.10566000000E+00 0. -1.
         22    1    1    0    0    0 -0.23198222112E+02 -0.82205635811E+01  0.13661852209E+02  0.28149269627E+02  0.00000000000E+00 0. -1.
</event>
<event>
 5    1  0.1691066E-003  0.9118800E+02  0.7818608E-02  0.1130116E+00
         25   -1    0    0    0    0  0.00000000000E+00  0.00000000000E+00  0.99999998245E-14  0.12500000000E+03  0.12500000000E+03 0.  0.
        -13    1    3    3    0    0  0.48931406354E+02  0.77891527726E+01 -0.33021990722E+02  0.59543399835E+02  0.10566000000E+00 0.  1.
         23    2    1    0    0    0  0.14760073299E+02 -0.53684979818E-01 -0.25704841436E+02  0.95358786815E+02  0.90634964024E+02 0.  0.
         13    1    3    3    0    0 -0.34171333055E+02 -0.78428377524E+01  0.73171492864E+01  0.35815386979E+02  0.10566000000E+00 0. -1.
         22    1    1    0    0    0 -0.14760073299E+02  0.53684979818E-01  0.25704841436E+02  0.29641213185E+02  0.00000000000E+00 0.  1.
</event>
<event>
 5    1  0.1691066E-003  0.9118800E+02  0.7818608E-02  0.1130116E+00
         25   -1    0    0    0    0  0.00000000000E+00  0.00000000000E+00  0.99999998245E-14  0.12500000000E+03  0.12500000000E+03 0.  0.
        -13    1    3    3    0    0  0.16454191492E+02  0.45203534461E+02 -0.26055411509E+02  0.54708277055E+02  0.10566000000E+00 0.  1.
         23    2    1    0    0    0 -0.90011767861E+01  0.30162311501E+02 -0.92950264278E+00  0.93509522173E+02  0.88047603848E+02 0.  0.
         13    1    3    3    0    0 -0.25455368278E+02 -0.15041222960E+02  0.25125908866E+02  0.38801245118E+02  0.10566000000E+00 0. -1.
         22    1    1    0    0    0  0.90011767861E+01 -0.30162311501E+02  0.92950264278E+00  0.31490477827E+02  0.00000000000E+00 0.  1.
</event>
<event>
 5    1  0.1691066E-003  0.9118800E+02  0.7818608E-02  0.1130116E+00
         25   -1    0    0    0    0  0.00000000000E+00  0.00000000000E+00  0.99999998245E-14  0.12500000000E+03  0.12500000000E+03 0.  0.
        -13    1    3    3    0    0 -0.47906209529E+01 -0.49263301190E+01  0.27925267564E+02  0.28758485880E+02  0.10566000000E+00 0. -1.
         23    2    1    0    0    0  0.10126186553E+02 -0.21079397753E+01 -0.32412718835E+02  0.90976957712E+02  0.84375585498E+02 0.  0.
         13    1    3    3    0    0  0.14916807506E+02  0.28183903437E+01 -0.60337986400E+02  0.62218471832E+02  0.10566000000E+00 0.  1.
         22    1    1    0    0    0 -0.10126186553E+02  0.21079397753E+01  0.32412718835E+02  0.34023042288E+02  0.00000000000E+00 0.  1.
</event>
<event>
 5    1  0.1691066E-003  0.9118800E+02  0.7818608E-02  0.1130116E+00
         25   -1    0    0    0    0  0.00000000000E+00  0.00000000000E+00  0.99999998245E-14  0.12500000000E+03  0.12500000000E+03 0.  0.
        -13    1    3    3    0    0  0.45743237713E+02 -0.16776350804E+02  0.25927108627E+02  0.55191628609E+02  0.10566000000E+00 0.  1.
         23    2    1    0    0    0  0.79640063189E+01 -0.69266080292E+01  0.28787525913E+02  0.94338543028E+02  0.89216790780E+02 0.  0.
         13    1    3    3    0    0 -0.37779231394E+02  0.98497427753E+01  0.28604172866E+01  0.39146914419E+02  0.10566000000E+00 0. -1.
         22    1    1    0    0    0 -0.79640063189E+01  0.69266080292E+01 -0.28787525913E+02  0.30661456972E+02  0.00000000000E+00 0.  1.
</event>
<event>
 5    1  0.1691066E-003  0.9118800E+02  0.7818608E-02  0.1130116E+00
         25   -1    0    0    0    0  0.00000000000E+00  0.00000000000E+00  0.99999998245E-14  0.12500000000E+03  0.12500000000E+03 0.  0.
        -13    1    3    3    0    0 -0.31624659835E+02 -0.42030121969E+02  0.17858591332E+02  0.55548093674E+02  0.10566000000E+00 0.  1.
         23    2    1    0    0    0 -0.28123396495E+02 -0.36080484232E+01  0.10093105067E+02  0.94903252440E+02  0.90004517164E+02 0.  0.
         13    1    3    3    0    0  0.35012633406E+01  0.38422073545E+02 -0.77654862649E+01  0.39355158766E+02  0.10566000000E+00 0. -1.
         22    1    1    0    0    0  0.28123396495E+02  0.36080484232E+01 -0.10093105067E+02  0.30096747560E+02  0.00000000000E+00 0.  1.
</event>
<event>
 5    1  0.1691066E-003  0.9118800E+02  0.7818608E-02  0.1130116E+00
         25   -1    0    0    0    0  0.00000000000E+00  0.00000000000E+00  0.99999998245E-14  0.12500000000E+03  0.12500000000E+03 0.  0.
        -13    1    3    3    0    0  0.27025142340E+02 -0.44960310979E+02  0.83739591628E+01  0.53121768023E+02  0.10566000000E+00 0.  1.
         23    2    1    0    0    0  0.89406818534E+01 -0.19638683482E+02 -0.20254910840E+02  0.95404812992E+02  0.90698419215E+02 0.  0.
         13    1    3    3    0    0 -0.18084460487E+02  0.25321627497E+02 -0.28628870002E+02  0.42283044969E+02  0.10566000000E+00 0. -1.
         22    1    1    0    0    0 -0.89406818534E+01  0.19638683482E+02  0.20254910840E+02  0.29595187008E+02  0.00000000000E+00 0.  1.
</event>
<event>
 5    1  0.1691066E-003  0.9118800E+02  0.7818608E-02  0.1130116E+00
         25   -1    0    0    0    0  0.00000000000E+00  0.00000000000E+00  0.99999998245E-14  0.12500000000E+03  0.12500000000E+03 0.  0.
        -13    1    3    3    0    0  0.24070633825E+02 -0.40626052078E+02  0.29752485593E+02  0.55813018940E+02  0.10566000000E+00 0.  1.
         23    2    1    0    0    0  0.22585866288E+02 -0.17197637248E+02 -0.33716367244E+01  0.96412449963E+02  0.92076666375E+02 0.  0.
         13    1    3    3    0    0 -0.14847675362E+01  0.23428414830E+02 -0.33124122317E+02  0.40599431023E+02  0.10566000000E+00 0. -1.
         22    1    1    0    0    0 -0.22585866288E+02  0.17197637248E+02  0.33716367244E+01  0.28587550037E+02  0.00000000000E+00 0. -1.
</event>
<event>
 5    1  0.1691066E-003  0.9118800E+02  0.7818608E-02  0.1130116E+00
         25   -1    0    0    0    0  0.00000000000E+00  0.00000000000E+00  0.99999998245E-14  0.12500000000E+03  0.12500000000E+03 0.  0.
        -13    1    3    3    0    0 -0.22936379926E+02  0.26828208677E+02  0.21305260207E+02  0.41228092140E+02  0.10566000000E+00 0. -1.
         23    2    1    0    0    0 -0.23789200566E+01 -0.24862553119E+02  0.10550643961E+02  0.97886868565E+02  0.94056988795E+02 0.  0.
         13    1    3    3    0    0  0.20557459869E+02 -0.51690761796E+02 -0.10754616246E+02  0.56658776425E+02  0.10566000000E+00 0.  1.
         22    1    1    0    0    0  0.23789200566E+01  0.24862553119E+02 -0.10550643961E+02  0.27113131435E+02  0.00000000000E+00 0. -1.
</event>
<event>
 5    1  0.1691066E-003  0.9118800E+02  0.7818608E-02  0.1130116E+00
         25   -1    0    0    0    0  0.00000000000E+00  0.00000000000E+00  0.99999998245E-14  0.12500000000E+03  0.12500000000E+03 0.  0.
        -13    1    3    3    0    0 -0.12961135042E+02 -0.39163865946E+01  0.35596714413E+02  0.38084988468E+02  0.10566000000E+00 0. -1.
         23    2    1    0    0    0  0.34310838240E+01  0.28303605389E+02 -0.86350512079E+01  0.95210227870E+02  0.90429845557E+02 0.  0.
         13    1    3    3    0    0  0.16392218866E+02  0.32219991983E+02 -0.44231765621E+02  0.57125239402E+02  0.10566000000E+00 0.  1.
         22    1    1    0    0    0 -0.34310838240E+01 -0.28303605389E+02  0.86350512079E+01  0.29789772130E+02  0.00000000000E+00 0.  1.
</event>
<event>
 5    1  0.1691066E-003  0.9118800E+02  0.7818608E-02  0.1130116E+00
         25   -1    0    0    0    0  0.00000000000E+00  0.00000000000E+00  0.99999998245E-14  0.12500000000E+03  0.12500000000E+03 0.  0.
        -13    1    3    3    0    0 -0.32131268036E+02  0.55631532283E-01 -0.32908161047E+01  0.32299568343E+02  0.10566000000E+00 0.  1.
         23    2    1    0    0    0  0.30184432373E+02 -0.22376233294E+01 -0.24822479670E+00  0.94731724010E+02  0.89765979093E+02 0.  0.
         13    1    3    3    0    0  0.62315700409E+02 -0.22932548617E+01  0.30425913080E+01  0.62432155667E+02  0.10566000000E+00 0. -1.
         22    1    1    0    0    0 -0.30184432373E+02  0.22376233294E+01  0.24822479670E+00  0.30268275990E+02  0.00000000000E+00 0. -1.
</event>
<event>
 5    1  0.1691066E-003  0.9118800E+02  0.7818608E-02  0.1130116E+00
         25   -1    0    0    0    0  0.00000000000E+00  0.00000000000E+00  0.99999998245E-14  0.12500000000E+03  0.12500000000E+03 0.  0.
        -13    1    3    3    0    0 -0.15250107555E+02  0.14915028453E+02  0.34861921484E+02  0.40870387664E+02  0.10566000000E+00 0. -1.
         23    2    1    0    0    0 -0.18316264835E+01 -0.28993792456E+02  0.53243071353E+01  0.95464544983E+02  0.90780704149E+02 0.  0.
         13    1    3    3    0    0  0.13418481072E+02 -0.43908820910E+02 -0.29537614349E+02  0.54594157319E+02  0.10566000000E+00 0.  1.
         22    1    1    0    0    0  0.18316264835E+01  0.28993792456E+02 -0.53243071353E+01  0.29535455017E+02  0.00000000000E+00 0.  1.
</event>
<event>
 5    1  0.1691066E-003  0.9118800E+02  0.7818608E-02  0.1130116E+00
         25   -1    0    0    0    0  0.00000000000E+00  0.00000000000E+00  0.99999998245E-14  0.12500000000E+03  0.12500000000E+03 0.  0.
        -13    1    3    3    0    0  0.15541193572E+02  0.14246024158E+02  0.49162062520E+02  0.53492031717E+02  0.10566000000E+00 0.  1.
         23    2    1    0    0    0  0.64420856529E+01  0.26747617020E+02  0.97799228920E+01  0.95800986736E+02  0.91242789764E+02 0.  0.
         13    1    3    3    0    0 -0.90991079191E+01  0.12501592862E+02 -0.39382139628E+02  0.42308955018E+02  0.10566000000E+00 0. -1.
         22    1    1    0    0    0 -0.64420856529E+01 -0.26747617020E+02 -0.97799228920E+01  0.29199013264E+02  0.00000000000E+00 0.  1.
</event>
<event>
 5    1  0.1691066E-003  0.9118800E+02  0.7818608E-02  0.1130116E+00
         25   -1    0    0    0    0  0.00000000000E+00  0.00000000000E+00  0.99999998245E-14  0.12500000000E+03  0.12500000000E+03 0.  0.
        -13    1    3    3    0    0 -0.55725608879E+01  0.15201196149E+02 -0.36979036416E+02  0.40368181747E+02  0.10566000000E+00 0.  1.
         23    2    1    0    0    0 -0.25785376159E+02 -0.29352767564E+01  0.12027687199E+02  0.96396386021E+02  0.92054855957E+02 0.  0.
         13    1    3    3    0    0 -0.20212815272E+02 -0.18136472905E+02  0.49006723615E+02  0.56028204274E+02  0.10566000000E+00 0. -1.
         22    1    1    0    0    0  0.25785376159E+02  0.29352767564E+01 -0.12027687199E+02  0.28603613979E+02  0.00000000000E+00 0. -1.
</event>
<event>
 5    1  0.1691066E-003  0.9118800E+02  0.7818608E-02  0.1130116E+00
         25   -1    0    0    0    0  0.00000000000E+00  0.00000000000E+00  0.99999998245E-14  0.12500000000E+03  0.12500000000E+03 0.  0.
        -13    1    3    3    0    0  0.12796909273E+02  0.38376169691E+02  0.67568703521E+00  0.40459350021E+02  0.10566000000E+00 0. -1.
         23    2    1    0    0    0  0.13698705887E+02 -0.12032365762E+02 -0.22577179541E+02  0.95979982687E+02  0.91487680437E+02 0.  0.
         13    1    3    3    0    0  0.90179661474E+00 -0.50408535453E+02 -0.23252866576E+02  0.55520632667E+02  0.10566000000E+00 0.  1.
         22    1    1    0    0    0 -0.13698705887E+02  0.12032365762E+02  0.22577179541E+02  0.29020017313E+02  0.00000000000E+00 0.  1.
</event>
<event>
 5    1  0.1691066E-003  0.9118800E+02  0.7818608E-02  0.1130116E+00
         25   -1    0    0    0    0  0.00000000000E+00  0.00000000000E+00  0.99999998245E-14  0.12500000000E+03  0.12500000000E+03 0.  0.
        -13    1    3    3    0    0 -0.32499448754E+02 -0.17766360585E+02 -0.75025098042E+01  0.37790958643E+02  0.10566000000E+00 0.  1.
         23    2    1    0    0    0  0.69384387567E+01  0.21655469544E+02  0.14821954157E+02  0.97856094264E+02  0.94016081422E+02 0.  0.
         13    1    3    3    0    0  0.39437887511E+02  0.39421830129E+02  0.22324463961E+02  0.60065135621E+02  0.10566000000E+00 0. -1.
         22    1    1    0    0    0 -0.69384387567E+01 -0.21655469544E+02 -0.14821954157E+02  0.27143905736E+02  0.00000000000E+00 0. -1.
</event>
<event>
 5    1  0.1691066E-003  0.9118800E+02  0.7818608E-02  0.1130116E+00
         25   -1    0    0    0    0  0.00000000000E+00  0.00000000000E+00  0.99999998245E-14  0.12500000000E+03  0.12500000000E+03 0.  0.
        -13    1    3    3    0    0 -0.18342473211E+02 -0.32679757825E+02 -0.17915894616E+02  0.41537974661E+02  0.10566000000E+00 0. -1.
         23    2    1    0    0    0  0.99601572139E+01 -0.13027140620E+02  0.24083821726E+02  0.95863397704E+02  0.91328250974E+02 0.  0.
         13    1    3    3    0    0  0.28302630425E+02  0.19652617205E+02  0.41999716342E+02  0.54325423043E+02  0.10566000000E+00 0.  1.
         22    1    1    0    0    0 -0.99601572139E+01  0.13027140620E+02 -0.24083821726E+02  0.29136602296E+02  0.00000000000E+00 0.  1.
</event>
<event>
 5    1  0.1691066E-003  0.9118800E+02  0.7818608E-02  0.1130116E+00
         25   -1    0    0    0    0  0.00000000000E+00  0.00000000000E+00  0.99999998245E-14  0.12500000000E+03  0.12500000000E+03 0.  0.
        -13    1    3    3    0    0  0.18503083240E+02  0.37889416594E+02  0.15404955923E+02  0.44892046180E+02  0.10566000000E+00 0.  1.
         23    2    1    0    0    0  0.27168379655E+02 -0.58275293779E+01 -0.91116069242E+01  0.95757867170E+02  0.91183698063E+02 0.  0.
         13    1    3    3    0    0  0.86652964147E+01 -0.43716945972E+02 -0.24516562847E+02  0.50865820990E+02  0.10566000000E+00 0. -1.
         22    1    1    0    0    0 -0.27168379655E+02  0.58275293779E+01  0.91116069242E+01  0.29242132830E+02  0.00000000000E+00 0. -1.
</event>
<event>
 5    1  0.1691066E-003  0.9118800E+02  0.7818608E-02  0.1130116E+00
         25   -1    0    0    0    0  0.00000000000E+00  0.00000000000E+00  0.99999998245E-14  0.12500000000E+03  0.12500000000E+03 0.  0.
        -13    1    3    3    0    0  0.53526972519E+02 -0.31547360629E+02  0.40922792740E+01  0.62266609538E+02  0.10566000000E+00 0.  1.
         23    2    1    0    0    0  0.23146016573E+02 -0.16735082774E+02  0.45978996828E+01  0.96070054266E+02  0.91610662953E+02 0.  0.
         13    1    3    3    0    0 -0.30380955946E+02  0.14812277855E+02  0.50562040876E+00  0.33803444728E+02  0.10566000000E+00 0. -1.
         22    1    1    0    0    0 -0.23146016573E+02  0.16735082774E+02 -0.45978996828E+01  0.28929945734E+02  0.00000000000E+00 0.  1.
</event>
<event>
 5    1  0.1691066E-003  0.9118800E+02  0.7818608E-02  0.1130116E+00
         25   -1    0    0    0    0  0.00000000000E+00  0.00000000000E+00  0.99999998245E-14  0.12500000000E+03  0.12500000000E+03 0.  0.
        -13    1    3    3    0    0 -0.62622522075E+01  0.10110332925E+02  0.42980570058E+02  0.44595685902E+02  0.10566000000E+00 0. -1.
         23    2    1    0    0    0 -0.29038139277E+02 -0.22337658182E+01 -0.12441446398E+01  0.95849508781E+02  0.91309239375E+02 0.  0.
         13    1    3    3    0    0 -0.22775887070E+02 -0.12344098744E+02 -0.44224714697E+02  0.51253822879E+02  0.10566000000E+00 0.  1.
         22    1    1    0    0    0  0.29038139277E+02  0.22337658182E+01  0.12441446398E+01  0.29150491219E+02  0.00000000000E+00 0.  1.
</event>
<event>
 5    1  0.1691066E-003  0.9118800E+02  0.7818608E-02  0.1130116E+00
         25   -1    0    0    0    0  0.00000000000E+00  0.00000000000E+00  0.99999998245E-14  0.12500000000E+03  0.12500000000E+03 0.  0.
        -13    1    3    3    0    0  0.11679700007E+01  0.41354939443E+02 -0.11624054998E+02  0.42973538241E+02  0.10566000000E+00 0.  1.
         23    2    1    0    0    0  0.17211432166E+02  0.31251203522E+01  0.22380160379E+02  0.96594518961E+02  0.92323505893E+02 0.  0.
         13    1    3    3    0    0  0.16043462166E+02 -0.38229819091E+02  0.34004215377E+02  0.53620980721E+02  0.10566000000E+00 0. -1.
         22    1    1    0    0    0 -0.17211432166E+02 -0.31251203522E+01 -0.22380160379E+02  0.28405481039E+02  0.00000000000E+00 0. -1.
</event>
<event>
 5    1  0.1691066E-003  0.9118800E+02  0.7818608E-02  0.1130116E+00
         25   -1    0    0    0    0  0.00000000000E+00  0.00000000000E+00  0.99999998245E-14  0.12500000000E+03  0.12500000000E+03 0.  0.
        -13    1    3    3    0    0 -0.69387161832E+01  0.44296629732E+02 -0.69188665527E+01  0.45367599301E+02  0.10566000000E+00 0.  1.
         23    2    1    0    0    0  0.24270110551E+02  0.11209857087E+02 -0.18727952177E+02  0.92358992741E+02  0.86398774212E+02 0.  0.
         13    1    3    3    0    0  0.31208826735E+02 -0.33086772645E+02 -0.11809085625E+02  0.46991393441E+02  0.10566000000E+00 0. -1.
         22    1    1    0    0    0 -0.24270110551E+02 -0.11209857087E+02  0.18727952177E+02  0.32641007259E+02  0.00000000000E+00 0.  1.
</event>
<event>
 5    1  0.1691066E-003  0.9118800E+02  0.7818608E-02  0.1130116E+00
         25   -1    0    0    0    0  0.00000000000E+00  0.00000000000E+00  0.99999998245E-14  0.12500000000E+03  0.12500000000E+03 0.  0.
        -13    1    3    3    0    0  0.26863993701E+01 -0.42911582163E+02  0.10109872940E+02  0.44168329380E+02  0.10566000000E+00 0.  1.
         23    2    1    0    0    0  0.25037365002E+02 -0.68032732996E+00 -0.12475217718E+02  0.97018514181E+02  0.92895794013E+02 0.  0.
         13    1    3    3    0    0  0.22350965632E+02  0.42231254833E+02 -0.22585090658E+02  0.52850184801E+02  0.10566000000E+00 0. -1.
         22    1    1    0    0    0 -0.25037365002E+02  0.68032732996E+00  0.12475217718E+02  0.27981485819E+02  0.00000000000E+00 0. -1.
</event>
<event>
 5    1  0.1691066E-003  0.9118800E+02  0.7818608E-02  0.1130116E+00
         25   -1    0    0    0    0  0.00000000000E+00  0.00000000000E+00  0.99999998245E-14  0.12500000000E+03  0.12500000000E+03 0.  0.
        -13    1    3    3    0    0  0.35278623862E+02  0.57271272174E+01 -0.46284609044E+02  0.58477837564E+02  0.10566000000E+00 0.  1.
         23    2    1    0    0    0  0.34860400141E+01 -0.31796901572E+01 -0.28756604939E+02  0.95858873871E+02  0.91322059042E+02 0.  0.
         13    1    3    3    0    0 -0.31792583847E+02 -0.89068173745E+01  0.17528004105E+02  0.37381036307E+02  0.10566000000E+00 0. -1.
         22    1    1    0    0    0 -0.34860400141E+01  0.31796901572E+01  0.28756604939E+02  0.29141126129E+02  0.00000000000E+00 0.  1.
</event>
<event>
 5    1  0.1691066E-003  0.9118800E+02  0.7818608E-02  0.1130116E+00
         25   -1    0    0    0    0  0.00000000000E+00  0.00000000000E+00  0.99999998245E-14  0.12500000000E+03  0.12500000000E+03 0.  0.
        -13    1    3    3    0    0  0.10826441329E+02 -0.34839163176E+02 -0.23292529888E+01  0.36557019931E+02  0.10566000000E+00 0.  1.
         23    2    1    0    0    0 -0.14925777289E+02  0.17943286734E+02 -0.15804420860E+02  0.96812767337E+02  0.92618528568E+02 0.  0.
         13    1    3    3    0    0 -0.25752218618E+02  0.52782449910E+02 -0.13475167872E+02  0.60255747406E+02  0.10566000000E+00 0. -1.
         22    1    1    0    0    0  0.14925777289E+02 -0.17943286734E+02  0.15804420860E+02  0.28187232663E+02  0.00000000000E+00 0. -1.
</event>
<event>
 5    1  0.1691066E-003  0.9118800E+02  0.7818608E-02  0.1130116E+00
         25   -1    0    0    0    0  0.00000000000E+00  0.00000000000E+00  0.99999998245E-14  0.12500000000E+03  0.12500000000E+03 0.  0.
        -13    1    3    3    0    0  0.19069544424E+02  0.29815270971E+02  0.11449004036E+01  0.35410730981E+02  0.10566000000E+00 0. -1.
         23    2    1    0    0    0 -0.21606231902E+00 -0.27029257958E+02 -0.94499272097E+01  0.96365604722E+02  0.92013048968E+02 0.  0.
         13    1    3    3    0    0 -0.19285606743E+02 -0.56844528929E+02 -0.10594827613E+02  0.60954873741E+02  0.10566000000E+00 0.  1.
         22    1    1    0    0    0  0.21606231902E+00  0.27029257958E+02  0.94499272097E+01  0.28634395278E+02  0.00000000000E+00 0.  1.
</event>
<event>
 5    1  0.1691066E-003  0.9118800E+02  0.7818608E-02  0.1130116E+00
         25   -1    0    0    0    0  0.00000000000E+00  0.00000000000E+00  0.99999998245E-14  0.12500000000E+03  0.12500000000E+03 0.  0.
        -13    1    3    3    0    0 -0.14345561840E+02 -0.31080930839E+02 -0.44936773704E+02  0.56490213323E+02  0.10566000000E+00 0.  1.
         23    2    1    0    0    0 -0.24103438044E+02 -0.78760638616E+01 -0.15263059681E+02  0.95403224866E+02  0.90696230443E+02 0.  0.
         13    1    3    3    0    0 -0.97578762041E+01  0.23204866977E+02  0.29673714023E+02  0.38913011544E+02  0.10566000000E+00 0. -1.
         22    1    1    0    0    0  0.24103438044E+02  0.78760638616E+01  0.15263059681E+02  0.29596775134E+02  0.00000000000E+00 0.  1.
</event>
<event>
 5    1  0.1691066E-003  0.9118800E+02  0.7818608E-02  0.1130116E+00
         25   -1    0    0    0    0  0.00000000000E+00  0.00000000000E+00  0.99999998245E-14  0.12500000000E+03  0.12500000000E+03 0.  0.
        -13    1    3    3    0    0 -0.43185372706E+02 -0.12848484295E+02 -0.86620616682E+01  0.45881395367E+02  0.10566000000E+00 0.  1.
         23    2    1    0    0    0 -0.15901878948E+02  0.23930402807E+02  0.88902347964E+01  0.94923926331E+02  0.90033224883E+02 0.  0.
         13    1    3    3    0    0  0.27283493759E+02  0.36778887102E+02  0.17552296465E+02  0.49042530964E+02  0.10566000000E+00 0. -1.
         22    1    1    0    0    0  0.15901878948E+02 -0.23930402807E+02 -0.88902347964E+01  0.30076073669E+02  0.00000000000E+00 0. -1.
</event>
<event>
 5    1  0.1691066E-003  0.9118800E+02  0.7818608E-02  0.1130116E+00
         25   -1    0    0    0    0  0.00000000000E+00  0.00000000000E+00  0.99999998245E-14  0.12500000000E+03  0.12500000000E+03 0.  0.
        -13    1    3    3    0    0  0.32913677435E+00  0.91615925145E+01 -0.32178444958E+02  0.33459028563E+02  0.10566000000E+00 0.  1.
         23    2    1    0    0    0 -0.23524486320E+02 -0.16375683789E+02  0.15376667127E+02  0.92472990175E+02  0.86563546276E+02 0.  0.
         13    1    3    3    0    0 -0.23853623095E+02 -0.25537276304E+02  0.47555112085E+02  0.59013961613E+02  0.10566000000E+00 0. -1.
         22    1    1    0    0    0  0.23524486320E+02  0.16375683789E+02 -0.15376667127E+02  0.32527009825E+02  0.00000000000E+00 0. -1.
</event>
<event>
 5    1  0.1691066E-003  0.9118800E+02  0.7818608E-02  0.1130116E+00
         25   -1    0    0    0    0  0.00000000000E+00  0.00000000000E+00  0.99999998245E-14  0.12500000000E+03  0.12500000000E+03 0.  0.
        -13    1    3    3    0    0  0.40968951116E+02  0.28797597624E+01 -0.33694427104E+02  0.53123192240E+02  0.10566000000E+00 0.  1.
         23    2    1    0    0    0  0.62653061583E+01 -0.16988494914E+02 -0.25142185243E+02  0.94016254269E+02  0.88764089402E+02 0.  0.
         13    1    3    3    0    0 -0.34703644958E+02 -0.19868254677E+02  0.85522418606E+01  0.40893062030E+02  0.10566000000E+00 0. -1.
         22    1    1    0    0    0 -0.62653061583E+01  0.16988494914E+02  0.25142185243E+02  0.30983745731E+02  0.00000000000E+00 0.  1.
</event>
<event>
 5    1  0.1691066E-003  0.9118800E+02  0.7818608E-02  0.1130116E+00
         25   -1    0    0    0    0  0.00000000000E+00  0.00000000000E+00  0.99999998245E-14  0.12500000000E+03  0.12500000000E+03 0.  0.
        -13    1    3    3    0    0 -0.47441201272E+02  0.38786491776E+01  0.64080551786E+01  0.48029010325E+02  0.10566000000E+00 0.  1.
         23    2    1    0    0    0 -0.14320553003E+02  0.12631242185E+02 -0.24341062201E+02  0.94062743714E+02  0.88829532975E+02 0.  0.
         13    1    3    3    0    0  0.33120648269E+02  0.87525930072E+01 -0.30749117380E+02  0.46033733389E+02  0.10566000000E+00 0. -1.
         22    1    1    0    0    0  0.14320553003E+02 -0.12631242185E+02  0.24341062201E+02  0.30937256286E+02  0.00000000000E+00 0. -1.
</event>
<event>
 5    1  0.1691066E-003  0.9118800E+02  0.7818608E-02  0.1130116E+00
         25   -1    0    0    0    0  0.00000000000E+00  0.00000000000E+00  0.99999998245E-14  0.12500000000E+03  0.12500000000E+03 0.  0.
        -13    1    3    3    0    0 -0.25903913278E+02 -0.36456442178E+02 -0.11299890348E+01  0.44736706837E+02  0.10566000000E+00 0.  1.
         23    2    1    0    0    0  0.14996797973E+02 -0.26427856635E+02  0.16537337727E+02  0.90404926725E+02  0.83523839000E+02 0.  0.
         13    1    3    3    0    0  0.40900711251E+02  0.10028585543E+02  0.17667326762E+02  0.45668219888E+02  0.10566000000E+00 0. -1.
         22    1    1    0    0    0 -0.14996797973E+02  0.26427856635E+02 -0.16537337727E+02  0.34595073275E+02  0.00000000000E+00 0.  1.
</event>
<event>
 5    1  0.1691066E-003  0.9118800E+02  0.7818608E-02  0.1130116E+00
         25   -1    0    0    0    0  0.00000000000E+00  0.00000000000E+00  0.99999998245E-14  0.12500000000E+03  0.12500000000E+03 0.  0.
        -13    1    3    3    0    0 -0.13523949470E+02  0.32836691200E+02  0.23882664113E+02  0.42796475409E+02  0.10566000000E+00 0.  1.
         23    2    1    0    0    0 -0.14690497778E+02  0.59332446259E+01 -0.23123319575E+02  0.96969623176E+02  0.92829983270E+02 0.  0.
         13    1    3    3    0    0 -0.11665483077E+01 -0.26903446574E+02 -0.47005983688E+02  0.54173147767E+02  0.10566000000E+00 0. -1.
         22    1    1    0    0    0  0.14690497778E+02 -0.59332446259E+01  0.23123319575E+02  0.28030376824E+02  0.00000000000E+00 0. -1.
</event>
<event>
 5    1  0.1691066E-003  0.9118800E+02  0.7818608E-02  0.1130116E+00
         25   -1    0    0    0    0  0.00000000000E+00  0.00000000000E+00  0.99999998245E-14  0.12500000000E+03  0.12500000000E+03 0.  0.
        -13    1    3    3    0    0 -0.71123860520E+01 -0.72783938006E+01  0.45391325010E+02  0.46518217957E+02  0.10566000000E+00 0.  1.
         23    2    1    0    0    0  0.21932235460E+02  0.14835203615E+02  0.12241200895E+02  0.95828897554E+02  0.91281018775E+02 0.  0.
         13    1    3    3    0    0  0.29044621512E+02  0.22113597416E+02 -0.33150124116E+02  0.49310679597E+02  0.10566000000E+00 0. -1.
         22    1    1    0    0    0 -0.21932235460E+02 -0.14835203615E+02 -0.12241200895E+02  0.29171102446E+02  0.00000000000E+00 0. -1.
</event>
<event>
 5    1  0.1691066E-003  0.9118800E+02  0.7818608E-02  0.1130116E+00
         25   -1    0    0    0    0  0.00000000000E+00  0.00000000000E+00  0.99999998245E-14  0.12500000000E+03  0.12500000000E+03 0.  0.
        -13    1    3    3    0    0 -0.27282300822E+02  0.22493756857E+01  0.30630450537E+02  0.41080643779E+02  0.10566000000E+00 0.  1.
         23    2    1    0    0    0 -0.13279848950E+02 -0.13238740641E+02 -0.21043791132E+02  0.96813836957E+02  0.92619972141E+02 0.  0.
         13    1    3    3    0    0  0.14002451872E+02 -0.15488116326E+02 -0.51674241669E+02  0.55733193179E+02  0.10566000000E+00 0. -1.
         22    1    1    0    0    0  0.13279848950E+02  0.13238740641E+02  0.21043791132E+02  0.28186163043E+02  0.00000000000E+00 0. -1.
</event>
<event>
 5    1  0.1691066E-003  0.9118800E+02  0.7818608E-02  0.1130116E+00
         25   -1    0    0    0    0  0.00000000000E+00  0.00000000000E+00  0.99999998245E-14  0.12500000000E+03  0.12500000000E+03 0.  0.
        -13    1    3    3    0    0  0.26503373942E+02  0.25077446435E+02  0.17896399077E+01  0.36531098054E+02  0.10566000000E+00 0. -1.
         23    2    1    0    0    0 -0.63590944111E+01 -0.89781811747E+01  0.30972629069E+02  0.92131328436E+02  0.86068763840E+02 0.  0.
         13    1    3    3    0    0 -0.32862468353E+02 -0.34055627609E+02  0.29182989162E+02  0.55600230382E+02  0.10566000000E+00 0.  1.
         22    1    1    0    0    0  0.63590944111E+01  0.89781811747E+01 -0.30972629069E+02  0.32868671564E+02  0.00000000000E+00 0.  1.
</event>
<event>
 5    1  0.1691066E-003  0.9118800E+02  0.7818608E-02  0.1130116E+00
         25   -1    0    0    0    0  0.00000000000E+00  0.00000000000E+00  0.99999998245E-14  0.12500000000E+03  0.12500000000E+03 0.  0.
        -13    1    3    3    0    0  0.83789865184E+00  0.57231188480E+02 -0.14936318678E+02  0.59154169664E+02  0.10566000000E+00 0.  1.
         23    2    1    0    0    0 -0.13165346511E+02  0.26201598279E+02 -0.18751773493E+01  0.95616902967E+02  0.90990250807E+02 0.  0.
         13    1    3    3    0    0 -0.14003245162E+02 -0.31029590201E+02  0.13061141329E+02  0.36462733303E+02  0.10566000000E+00 0. -1.
         22    1    1    0    0    0  0.13165346511E+02 -0.26201598279E+02  0.18751773493E+01  0.29383097033E+02  0.00000000000E+00 0.  1.
</event>
<event>
 5    1  0.1691066E-003  0.9118800E+02  0.7818608E-02  0.1130116E+00
         25   -1    0    0    0    0  0.00000000000E+00  0.00000000000E+00  0.99999998245E-14  0.12500000000E+03  0.12500000000E+03 0.  0.
        -13    1    3    3    0    0  0.51807054459E+02 -0.29885324877E+02 -0.17381083205E+02  0.62283358549E+02  0.10566000000E+00 0.  1.
         23    2    1    0    0    0  0.24647228839E+02 -0.12000176711E+02 -0.11207805222E+02  0.95384040984E+02  0.90669786842E+02 0.  0.
         13    1    3    3    0    0 -0.27159825620E+02  0.17885148166E+02  0.61732779828E+01  0.33100682436E+02  0.10566000000E+00 0. -1.
         22    1    1    0    0    0 -0.24647228839E+02  0.12000176711E+02  0.11207805222E+02  0.29615959016E+02  0.00000000000E+00 0.  1.
</event>
<event>
 5    1  0.1691066E-003  0.9118800E+02  0.7818608E-02  0.1130116E+00
         25   -1    0    0    0    0  0.00000000000E+00  0.00000000000E+00  0.99999998245E-14  0.12500000000E+03  0.12500000000E+03 0.  0.
        -13    1    3    3    0    0 -0.17857064909E+02 -0.25826827277E+02 -0.29964324447E+02  0.43402438617E+02  0.10566000000E+00 0.  1.
         23    2    1    0    0    0  0.26730988147E+02 -0.89015590017E+01 -0.10021753437E+02  0.95096504854E+02  0.90272510841E+02 0.  0.
         13    1    3    3    0    0  0.44588053056E+02  0.16925268275E+02  0.19942571010E+02  0.51694066237E+02  0.10566000000E+00 0. -1.
         22    1    1    0    0    0 -0.26730988147E+02  0.89015590017E+01  0.10021753437E+02  0.29903495146E+02  0.00000000000E+00 0. -1.
</event>
<event>
 5    1  0.1691066E-003  0.9118800E+02  0.7818608E-02  0.1130116E+00
         25   -1    0    0    0    0  0.00000000000E+00  0.00000000000E+00  0.99999998245E-14  0.12500000000E+03  0.12500000000E+03 0.  0.
        -13    1    3    3    0    0  0.23996125166E+02  0.19904701587E+02 -0.34103035818E+02  0.46206486387E+02  0.10566000000E+00 0.  1.
         23    2    1    0    0    0  0.13781234287E+02  0.21155546597E+02  0.14497960040E+02  0.95885219980E+02  0.91358114007E+02 0.  0.
         13    1    3    3    0    0 -0.10214890879E+02  0.12508450101E+01  0.48600995858E+02  0.49678733592E+02  0.10566000000E+00 0. -1.
         22    1    1    0    0    0 -0.13781234287E+02 -0.21155546597E+02 -0.14497960040E+02  0.29114780020E+02  0.00000000000E+00 0. -1.
</event>
<event>
 5    1  0.1691066E-003  0.9118800E+02  0.7818608E-02  0.1130116E+00
         25   -1    0    0    0    0  0.00000000000E+00  0.00000000000E+00  0.99999998245E-14  0.12500000000E+03  0.12500000000E+03 0.  0.
        -13    1    3    3    0    0  0.18550590062E+02 -0.38420293103E+02 -0.44831561970E+02  0.61887990972E+02  0.10566000000E+00 0. -1.
         23    2    1    0    0    0  0.45380736133E+01 -0.14646592563E+02 -0.24229281538E+02  0.96326408148E+02  0.91959784890E+02 0.  0.
         13    1    3    3    0    0 -0.14012516449E+02  0.23773700540E+02  0.20602280432E+02  0.34438417176E+02  0.10566000000E+00 0.  1.
         22    1    1    0    0    0 -0.45380736133E+01  0.14646592563E+02  0.24229281538E+02  0.28673591852E+02  0.00000000000E+00 0. -1.
</event>
<event>
 5    1  0.1691066E-003  0.9118800E+02  0.7818608E-02  0.1130116E+00
         25   -1    0    0    0    0  0.00000000000E+00  0.00000000000E+00  0.99999998245E-14  0.12500000000E+03  0.12500000000E+03 0.  0.
        -13    1    3    3    0    0 -0.44690890944E+02 -0.17864622337E+01  0.26830647053E+01  0.44807110830E+02  0.10566000000E+00 0.  1.
         23    2    1    0    0    0 -0.11012942734E+02  0.30299845086E+02 -0.62166085172E+01  0.92166910877E+02  0.86120425680E+02 0.  0.
         13    1    3    3    0    0  0.33677948210E+02  0.32086307319E+02 -0.88996732225E+01  0.47359800047E+02  0.10566000000E+00 0. -1.
         22    1    1    0    0    0  0.11012942734E+02 -0.30299845086E+02  0.62166085172E+01  0.32833089123E+02  0.00000000000E+00 0. -1.
</event>
<event>
 5    1  0.1691066E-003  0.9118800E+02  0.7818608E-02  0.1130116E+00
         25   -1    0    0    0    0  0.00000000000E+00  0.00000000000E+00  0.99999998245E-14  0.12500000000E+03  0.12500000000E+03 0.  0.
        -13    1    3    3    0    0  0.12952014281E+01  0.31955438330E+01  0.37008531991E+02  0.37168960859E+02  0.10566000000E+00 0.  1.
         23    2    1    0    0    0 -0.50753627646E+01 -0.24414823115E+02 -0.14642498113E+02  0.96082087801E+02  0.91627080878E+02 0.  0.
         13    1    3    3    0    0 -0.63705641928E+01 -0.27610366948E+02 -0.51651030105E+02  0.58913126942E+02  0.10566000000E+00 0. -1.
         22    1    1    0    0    0  0.50753627646E+01  0.24414823115E+02  0.14642498113E+02  0.28917912199E+02  0.00000000000E+00 0. -1.
</event>
<event>
 5    1  0.1691066E-003  0.9118800E+02  0.7818608E-02  0.1130116E+00
         25   -1    0    0    0    0  0.00000000000E+00  0.00000000000E+00  0.99999998245E-14  0.12500000000E+03  0.12500000000E+03 0.  0.
        -13    1    3    3    0    0 -0.79553008853E+01  0.24062832205E+02  0.25612791455E+02  0.36032387599E+02  0.10566000000E+00 0. -1.
         23    2    1    0    0    0 -0.10134782905E+02 -0.19835675760E+02 -0.16790987044E+02  0.97105464633E+02  0.93012720411E+02 0.  0.
         13    1    3    3    0    0 -0.21794820198E+01 -0.43898507966E+02 -0.42403778499E+02  0.61073077035E+02  0.10566000000E+00 0.  1.
         22    1    1    0    0    0  0.10134782905E+02  0.19835675760E+02  0.16790987044E+02  0.27894535367E+02  0.00000000000E+00 0.  1.
</event>
<event>
 5    1  0.1691066E-003  0.9118800E+02  0.7818608E-02  0.1130116E+00
         25   -1    0    0    0    0  0.00000000000E+00  0.00000000000E+00  0.99999998245E-14  0.12500000000E+03  0.12500000000E+03 0.  0.
        -13    1    3    3    0    0  0.46184970330E+02 -0.28689896213E+02 -0.24083814626E+02  0.59465981200E+02  0.10566000000E+00 0.  1.
         23    2    1    0    0    0  0.17012155340E+02 -0.23023638756E+02 -0.23632357955E+01  0.96275685312E+02  0.91890811989E+02 0.  0.
         13    1    3    3    0    0 -0.29172814990E+02  0.56662574572E+01  0.21720578831E+02  0.36809704112E+02  0.10566000000E+00 0. -1.
         22    1    1    0    0    0 -0.17012155340E+02  0.23023638756E+02  0.23632357955E+01  0.28724314688E+02  0.00000000000E+00 0.  1.
</event>
<event>
 5    1  0.1691066E-003  0.9118800E+02  0.7818608E-02  0.1130116E+00
         25   -1    0    0    0    0  0.00000000000E+00  0.00000000000E+00  0.99999998245E-14  0.12500000000E+03  0.12500000000E+03 0.  0.
        -13    1    3    3    0    0  0.41131490820E+02 -0.41277343093E+02  0.92081596548E+01  0.58995084187E+02  0.10566000000E+00 0.  1.
         23    2    1    0    0    0  0.53285554155E+01 -0.24806439624E+02 -0.64994335033E+00  0.99619389763E+02  0.96331964792E+02 0.  0.
         13    1    3    3    0    0 -0.35802935404E+02  0.16470903469E+02 -0.98581030051E+01  0.40624305576E+02  0.10566000000E+00 0. -1.
         22    1    1    0    0    0 -0.53285554155E+01  0.24806439624E+02  0.64994335033E+00  0.25380610237E+02  0.00000000000E+00 0.  1.
</event>
<event>
 5    1  0.1691066E-003  0.9118800E+02  0.7818608E-02  0.1130116E+00
         25   -1    0    0    0    0  0.00000000000E+00  0.00000000000E+00  0.99999998245E-14  0.12500000000E+03  0.12500000000E+03 0.  0.
        -13    1    3    3    0    0 -0.12038147761E+02  0.21959939531E+01  0.33337717776E+02  0.35512729852E+02  0.10566000000E+00 0.  1.
         23    2    1    0    0    0 -0.30458069390E+01  0.37388332767E+02 -0.35970637960E+01  0.87315742877E+02  0.78765066617E+02 0.  0.
         13    1    3    3    0    0  0.89923408222E+01  0.35192338814E+02 -0.36934781572E+02  0.51803013025E+02  0.10566000000E+00 0. -1.
         22    1    1    0    0    0  0.30458069390E+01 -0.37388332767E+02  0.35970637960E+01  0.37684257123E+02  0.00000000000E+00 0. -1.
</event>
<event>
 5    1  0.1691066E-003  0.9118800E+02  0.7818608E-02  0.1130116E+00
         25   -1    0    0    0    0  0.00000000000E+00  0.00000000000E+00  0.99999998245E-14  0.12500000000E+03  0.12500000000E+03 0.  0.
        -13    1    3    3    0    0  0.26128071648E+02 -0.14960370465E+02 -0.31690814839E+02  0.43712786707E+02  0.10566000000E+00 0.  1.
         23    2    1    0    0    0  0.17880046693E+02 -0.18931671967E+02  0.17420337038E+02  0.93669943892E+02  0.88275058612E+02 0.  0.
         13    1    3    3    0    0 -0.82480249550E+01 -0.39713015016E+01  0.49111151877E+02  0.49957157185E+02  0.10566000000E+00 0. -1.
         22    1    1    0    0    0 -0.17880046693E+02  0.18931671967E+02 -0.17420337038E+02  0.31330056108E+02  0.00000000000E+00 0. -1.
</event>
<event>
 5    1  0.1691066E-003  0.9118800E+02  0.7818608E-02  0.1130116E+00
         25   -1    0    0    0    0  0.00000000000E+00  0.00000000000E+00  0.99999998245E-14  0.12500000000E+03  0.12500000000E+03 0.  0.
        -13    1    3    3    0    0  0.18291301491E+02  0.40531984328E+01 -0.33188439904E+02  0.38111465926E+02  0.10566000000E+00 0. -1.
         23    2    1    0    0    0  0.36004548536E+01  0.12157340813E+02  0.24079305971E+02  0.97786452145E+02  0.93923442421E+02 0.  0.
         13    1    3    3    0    0 -0.14690846637E+02  0.81041423807E+01  0.57267745875E+02  0.59674986219E+02  0.10566000000E+00 0.  1.
         22    1    1    0    0    0 -0.36004548536E+01 -0.12157340813E+02 -0.24079305971E+02  0.27213547855E+02  0.00000000000E+00 0.  1.
</event>
<event>
 5    1  0.1691066E-003  0.9118800E+02  0.7818608E-02  0.1130116E+00
         25   -1    0    0    0    0  0.00000000000E+00  0.00000000000E+00  0.99999998245E-14  0.12500000000E+03  0.12500000000E+03 0.  0.
        -13    1    3    3    0    0 -0.35233352374E+02 -0.56478888792E+01  0.31928586421E+02  0.47882497462E+02  0.10566000000E+00 0. -1.
         23    2    1    0    0    0 -0.61941845933E+01  0.25147697090E+02  0.21152138390E+02  0.91560688551E+02  0.85235979127E+02 0.  0.
         13    1    3    3    0    0  0.29039167781E+02  0.30795585969E+02 -0.10776448031E+02  0.43678191089E+02  0.10566000000E+00 0.  1.
         22    1    1    0    0    0  0.61941845933E+01 -0.25147697090E+02 -0.21152138390E+02  0.33439311449E+02  0.00000000000E+00 0. -1.
</event>
<event>
 5    1  0.1691066E-003  0.9118800E+02  0.7818608E-02  0.1130116E+00
         25   -1    0    0    0    0  0.00000000000E+00  0.00000000000E+00  0.99999998245E-14  0.12500000000E+03  0.12500000000E+03 0.  0.
        -13    1    3    3    0    0 -0.81374526990E+01  0.51276116282E+02  0.44471675554E-01  0.51917929265E+02  0.10566000000E+00 0. -1.
         23    2    1    0    0    0 -0.24052215066E+02  0.11064701945E+02  0.10678232520E+02  0.96452472463E+02  0.92130983474E+02 0.  0.
         13    1    3    3    0    0 -0.15914762367E+02 -0.40211414337E+02  0.10633760845E+02  0.44534543198E+02  0.10566000000E+00 0.  1.
         22    1    1    0    0    0  0.24052215066E+02 -0.11064701945E+02 -0.10678232520E+02  0.28547527537E+02  0.00000000000E+00 0. -1.
</event>
<event>
 5    1  0.1691066E-003  0.9118800E+02  0.7818608E-02  0.1130116E+00
         25   -1    0    0    0    0  0.00000000000E+00  0.00000000000E+00  0.99999998245E-14  0.12500000000E+03  0.12500000000E+03 0.  0.
        -13    1    3    3    0    0 -0.29413652930E+01 -0.35301981849E+02  0.16651707393E+01  0.35463580049E+02  0.10566000000E+00 0.  1.
         23    2    1    0    0    0  0.28354344491E+02  0.13570063351E+02 -0.88450289559E+00  0.93553254282E+02  0.88109667861E+02 0.  0.
         13    1    3    3    0    0  0.31295709784E+02  0.48872045199E+02 -0.25496736349E+01  0.58089674233E+02  0.10566000000E+00 0. -1.
         22    1    1    0    0    0 -0.28354344491E+02 -0.13570063351E+02  0.88450289559E+00  0.31446745718E+02  0.00000000000E+00 0. -1.
</event>
<event>
 5    1  0.1691066E-003  0.9118800E+02  0.7818608E-02  0.1130116E+00
         25   -1    0    0    0    0  0.00000000000E+00  0.00000000000E+00  0.99999998245E-14  0.12500000000E+03  0.12500000000E+03 0.  0.
        -13    1    3    3    0    0 -0.18859345874E+02  0.19692785547E+02 -0.51011867661E+02  0.57842048163E+02  0.10566000000E+00 0.  1.
         23    2    1    0    0    0 -0.23917864577E+02  0.94031173087E+01 -0.15898799559E+02  0.94779895956E+02  0.89833033951E+02 0.  0.
         13    1    3    3    0    0 -0.50585187031E+01 -0.10289668238E+02  0.35113068103E+02  0.36937847792E+02  0.10566000000E+00 0. -1.
         22    1    1    0    0    0  0.23917864577E+02 -0.94031173087E+01  0.15898799559E+02  0.30220104044E+02  0.00000000000E+00 0.  1.
</event>
<event>
 5    1  0.1691066E-003  0.9118800E+02  0.7818608E-02  0.1130116E+00
         25   -1    0    0    0    0  0.00000000000E+00  0.00000000000E+00  0.99999998245E-14  0.12500000000E+03  0.12500000000E+03 0.  0.
        -13    1    3    3    0    0 -0.35630939971E+02  0.43197252192E+01  0.43854477111E+00  0.35894670841E+02  0.10566000000E+00 0.  1.
         23    2    1    0    0    0  0.24273420796E+02 -0.11096365095E+02  0.47093967000E+01  0.97898216060E+02  0.94072068197E+02 0.  0.
         13    1    3    3    0    0  0.59904360767E+02 -0.15416090315E+02  0.42708519289E+01  0.62003545219E+02  0.10566000000E+00 0. -1.
         22    1    1    0    0    0 -0.24273420796E+02  0.11096365095E+02 -0.47093967000E+01  0.27101783940E+02  0.00000000000E+00 0. -1.
</event>
<event>
 5    1  0.1691066E-003  0.9118800E+02  0.7818608E-02  0.1130116E+00
         25   -1    0    0    0    0  0.00000000000E+00  0.00000000000E+00  0.99999998245E-14  0.12500000000E+03  0.12500000000E+03 0.  0.
        -13    1    3    3    0    0  0.25747619054E+02  0.26739213347E+02 -0.23383403008E+02  0.43871632265E+02  0.10566000000E+00 0.  1.
         23    2    1    0    0    0 -0.22329130263E+02  0.70665076582E+01 -0.16676189275E+02  0.96248984757E+02  0.91854483773E+02 0.  0.
         13    1    3    3    0    0 -0.48076749316E+02 -0.19672705689E+02  0.67072137325E+01  0.52377352492E+02  0.10566000000E+00 0. -1.
         22    1    1    0    0    0  0.22329130263E+02 -0.70665076582E+01  0.16676189275E+02  0.28751015243E+02  0.00000000000E+00 0. -1.
</event>
<event>
 4    1  0.1691066E-003  0.9118800E+02  0.7818608E-02  0.1130116E+00
         25   -1    0    0    0    0  0.00000000000E+00  0.00000000000E+00  0.99999998245E-14  0.12500000000E+03  0.12500000000E+03 0.  0.
        -13    1    1    0    0    0  0.47941049186E+01 -0.32224686400E+02  0.45337406134E+02  0.55829252320E+02  0.10566000000E+00 0.  1.
         13    1    1    0    0    0 -0.13078092448E+02  0.12604992015E+02  0.98130239415E+00  0.18190559205E+02  0.10566000000E+00 0. -1.
         22    1    1    0    0    0  0.82839875299E+01  0.19619694385E+02 -0.46318708529E+02  0.50980188475E+02  0.00000000000E+00 0.  1.
</event>
<event>
 5    1  0.1691066E-003  0.9118800E+02  0.7818608E-02  0.1130116E+00
         25   -1    0    0    0    0  0.00000000000E+00  0.00000000000E+00  0.99999998245E-14  0.12500000000E+03  0.12500000000E+03 0.  0.
        -13    1    3    3    0    0  0.16249545086E+02  0.40741671340E+02 -0.23352001866E+02  0.49691635658E+02  0.10566000000E+00 0. -1.
         23    2    1    0    0    0  0.65641251326E+01  0.24149280380E+02  0.17246886350E+02  0.94607063807E+02  0.89592220376E+02 0.  0.
         13    1    3    3    0    0 -0.96854199536E+01 -0.16592390960E+02  0.40598888216E+02  0.44915428150E+02  0.10566000000E+00 0.  1.
         22    1    1    0    0    0 -0.65641251326E+01 -0.24149280380E+02 -0.17246886350E+02  0.30392936193E+02  0.00000000000E+00 0. -1.
</event>
<event>
 5    1  0.1691066E-003  0.9118800E+02  0.7818608E-02  0.1130116E+00
         25   -1    0    0    0    0  0.00000000000E+00  0.00000000000E+00  0.99999998245E-14  0.12500000000E+03  0.12500000000E+03 0.  0.
        -13    1    3    3    0    0  0.26962694619E+02 -0.70162135127E+01  0.37437268818E+01  0.28111222104E+02  0.10566000000E+00 0.  1.
         23    2    1    0    0    0 -0.26682921886E+02  0.22678997655E+02  0.60100273060E+01  0.89469229065E+02  0.82111553793E+02 0.  0.
         13    1    3    3    0    0 -0.53645616506E+02  0.29695211168E+02  0.22663004242E+01  0.61358006961E+02  0.10566000000E+00 0. -1.
         22    1    1    0    0    0  0.26682921886E+02 -0.22678997655E+02 -0.60100273060E+01  0.35530770935E+02  0.00000000000E+00 0. -1.
</event>
<event>
 5    1  0.1691066E-003  0.9118800E+02  0.7818608E-02  0.1130116E+00
         25   -1    0    0    0    0  0.00000000000E+00  0.00000000000E+00  0.99999998245E-14  0.12500000000E+03  0.12500000000E+03 0.  0.
        -13    1    3    3    0    0 -0.47848833926E+01 -0.28634507675E+02 -0.16341555435E+02  0.33314977667E+02  0.10566000000E+00 0. -1.
         23    2    1    0    0    0 -0.10078614988E+02  0.26721603444E+02  0.98591357957E+01  0.94787003967E+02  0.89842923994E+02 0.  0.
         13    1    3    3    0    0 -0.52937315950E+01  0.55356111119E+02  0.26200691231E+02  0.61472026300E+02  0.10566000000E+00 0.  1.
         22    1    1    0    0    0  0.10078614988E+02 -0.26721603444E+02 -0.98591357957E+01  0.30212996033E+02  0.00000000000E+00 0.  1.
</event>
<event>
 5    1  0.1691066E-003  0.9118800E+02  0.7818608E-02  0.1130116E+00
         25   -1    0    0    0    0  0.00000000000E+00  0.00000000000E+00  0.99999998245E-14  0.12500000000E+03  0.12500000000E+03 0.  0.
        -13    1    3    3    0    0 -0.13054152296E+02 -0.34881085734E+02 -0.55153025307E+01  0.37650109697E+02  0.10566000000E+00 0. -1.
         23    2    1    0    0    0  0.91429096095E+01  0.19718925061E+02 -0.16634797069E+02  0.97629481641E+02  0.93714302059E+02 0.  0.
         13    1    3    3    0    0  0.22197061905E+02  0.54600010795E+02 -0.11119494538E+02  0.59979371945E+02  0.10566000000E+00 0.  1.
         22    1    1    0    0    0 -0.91429096095E+01 -0.19718925061E+02  0.16634797069E+02  0.27370518359E+02  0.00000000000E+00 0.  1.
</event>
<event>
 5    1  0.1691066E-003  0.9118800E+02  0.7818608E-02  0.1130116E+00
         25   -1    0    0    0    0  0.00000000000E+00  0.00000000000E+00  0.99999998245E-14  0.12500000000E+03  0.12500000000E+03 0.  0.
        -13    1    3    3    0    0 -0.22823909076E+02 -0.13895397232E+02 -0.18405784113E+02  0.32446832551E+02  0.10566000000E+00 0.  1.
         23    2    1    0    0    0  0.89324724335E+01  0.13611106203E+02  0.26472727900E+02  0.93921766487E+02  0.88630929261E+02 0.  0.
         13    1    3    3    0    0  0.31756381510E+02  0.27506503435E+02  0.44878512013E+02  0.61474933935E+02  0.10566000000E+00 0. -1.
         22    1    1    0    0    0 -0.89324724335E+01 -0.13611106203E+02 -0.26472727900E+02  0.31078233513E+02  0.00000000000E+00 0. -1.
</event>
<event>
 5    1  0.1691066E-003  0.9118800E+02  0.7818608E-02  0.1130116E+00
         25   -1    0    0    0    0  0.00000000000E+00  0.00000000000E+00  0.99999998245E-14  0.12500000000E+03  0.12500000000E+03 0.  0.
        -13    1    3    3    0    0  0.44284542294E+02  0.40244590961E+02  0.93952453759E+01  0.60572515116E+02  0.10566000000E+00 0.  1.
         23    2    1    0    0    0  0.15981132238E+02  0.19939349528E+02  0.14248170744E+02  0.95742785218E+02  0.91163020489E+02 0.  0.
         13    1    3    3    0    0 -0.28303410056E+02 -0.20305241433E+02  0.48529253684E+01  0.35170270103E+02  0.10566000000E+00 0. -1.
         22    1    1    0    0    0 -0.15981132238E+02 -0.19939349528E+02 -0.14248170744E+02  0.29257214782E+02  0.00000000000E+00 0.  1.
</event>
<event>
 5    1  0.1691066E-003  0.9118800E+02  0.7818608E-02  0.1130116E+00
         25   -1    0    0    0    0  0.00000000000E+00  0.00000000000E+00  0.99999998245E-14  0.12500000000E+03  0.12500000000E+03 0.  0.
        -13    1    3    3    0    0 -0.28724346507E-01  0.26286556571E+02  0.32622158394E+02  0.41895110261E+02  0.10566000000E+00 0.  1.
         23    2    1    0    0    0  0.63499066558E+01 -0.24439504775E+02  0.92733116181E+01  0.98100092629E+02  0.94339934054E+02 0.  0.
         13    1    3    3    0    0  0.63786310023E+01 -0.50726061347E+02 -0.23348846776E+02  0.56204982368E+02  0.10566000000E+00 0. -1.
         22    1    1    0    0    0 -0.63499066558E+01  0.24439504775E+02 -0.92733116181E+01  0.26899907371E+02  0.00000000000E+00 0. -1.
</event>
<event>
 5    1  0.1691066E-003  0.9118800E+02  0.7818608E-02  0.1130116E+00
         25   -1    0    0    0    0  0.00000000000E+00  0.00000000000E+00  0.99999998245E-14  0.12500000000E+03  0.12500000000E+03 0.  0.
        -13    1    3    3    0    0 -0.33187570233E+02  0.38406584513E+02 -0.31206965505E+02  0.59584951221E+02  0.10566000000E+00 0.  1.
         23    2    1    0    0    0 -0.22292452441E+02  0.63544217937E+01 -0.16776120980E+02  0.96385836596E+02  0.92040529926E+02 0.  0.
         13    1    3    3    0    0  0.10895117792E+02 -0.32052162719E+02  0.14430844525E+02  0.36800885375E+02  0.10566000000E+00 0. -1.
         22    1    1    0    0    0  0.22292452441E+02 -0.63544217937E+01  0.16776120980E+02  0.28614163404E+02  0.00000000000E+00 0.  1.
</event>
<event>
 5    1  0.1691066E-003  0.9118800E+02  0.7818608E-02  0.1130116E+00
         25   -1    0    0    0    0  0.00000000000E+00  0.00000000000E+00  0.99999998245E-14  0.12500000000E+03  0.12500000000E+03 0.  0.
        -13    1    3    3    0    0  0.30502854193E+02 -0.37002260491E+02 -0.10671844928E+02  0.49127292146E+02  0.10566000000E+00 0.  1.
         23    2    1    0    0    0 -0.10803338263E+02 -0.22825187105E+02 -0.18759987730E+02  0.93541480905E+02  0.88092963545E+02 0.  0.
         13    1    3    3    0    0 -0.41306192457E+02  0.14177073386E+02 -0.80881428025E+01  0.44414188759E+02  0.10566000000E+00 0. -1.
         22    1    1    0    0    0  0.10803338263E+02  0.22825187105E+02  0.18759987730E+02  0.31458519095E+02  0.00000000000E+00 0. -1.
</event>
<event>
 5    1  0.1691066E-003  0.9118800E+02  0.7818608E-02  0.1130116E+00
         25   -1    0    0    0    0  0.00000000000E+00  0.00000000000E+00  0.99999998245E-14  0.12500000000E+03  0.12500000000E+03 0.  0.
        -13    1    3    3    0    0 -0.85130049237E+00 -0.26665512744E+02  0.14879888331E+01  0.26720770147E+02  0.10566000000E+00 0. -1.
         23    2    1    0    0    0  0.13529859968E+02  0.33218672145E+02  0.66379895352E+01  0.88522607071E+02  0.80657620643E+02 0.  0.
         13    1    3    3    0    0  0.14381160460E+02  0.59884184889E+02  0.51500007020E+01  0.61801836925E+02  0.10566000000E+00 0.  1.
         22    1    1    0    0    0 -0.13529859968E+02 -0.33218672145E+02 -0.66379895352E+01  0.36477392929E+02  0.00000000000E+00 0.  1.
</event>
<event>
 5    1  0.1691066E-003  0.9118800E+02  0.7818608E-02  0.1130116E+00
         25   -1    0    0    0    0  0.00000000000E+00  0.00000000000E+00  0.99999998245E-14  0.12500000000E+03  0.12500000000E+03 0.  0.
        -13    1    3    3    0    0  0.39380068745E+02 -0.19666672081E+02 -0.26303553203E+02  0.51278220330E+02  0.10566000000E+00 0.  1.
         23    2    1    0    0    0  0.28791686270E+02  0.95024589608E+01  0.37159886309E+01  0.94453862829E+02  0.89378217185E+02 0.  0.
         13    1    3    3    0    0 -0.10588382475E+02  0.29169131042E+02  0.30019541834E+02  0.43175642499E+02  0.10566000000E+00 0. -1.
         22    1    1    0    0    0 -0.28791686270E+02 -0.95024589608E+01 -0.37159886309E+01  0.30546137171E+02  0.00000000000E+00 0.  1.
</event>
<event>
 5    1  0.1691066E-003  0.9118800E+02  0.7818608E-02  0.1130116E+00
         25   -1    0    0    0    0  0.00000000000E+00  0.00000000000E+00  0.99999998245E-14  0.12500000000E+03  0.12500000000E+03 0.  0.
        -13    1    3    3    0    0 -0.60916564634E+01  0.23206321288E+01 -0.61995626434E+02  0.62337488504E+02  0.10566000000E+00 0. -1.
         23    2    1    0    0    0 -0.48280944301E+01  0.36068179447E+01 -0.29108104062E+02  0.95274567226E+02  0.90518737322E+02 0.  0.
         13    1    3    3    0    0  0.12635620333E+01  0.12861858159E+01  0.32887522372E+02  0.32937078722E+02  0.10566000000E+00 0.  1.
         22    1    1    0    0    0  0.48280944301E+01 -0.36068179447E+01  0.29108104062E+02  0.29725432774E+02  0.00000000000E+00 0. -1.
</event>
<event>
 5    1  0.1691066E-003  0.9118800E+02  0.7818608E-02  0.1130116E+00
         25   -1    0    0    0    0  0.00000000000E+00  0.00000000000E+00  0.99999998245E-14  0.12500000000E+03  0.12500000000E+03 0.  0.
        -13    1    3    3    0    0  0.15411780840E+02  0.24060536440E+01  0.48875833396E+02  0.51304681433E+02  0.10566000000E+00 0. -1.
         23    2    1    0    0    0 -0.11451998888E+02  0.19018784285E+02  0.12341691066E+02  0.99599610779E+02  0.96306296236E+02 0.  0.
         13    1    3    3    0    0 -0.26863779728E+02  0.16612730641E+02 -0.36534142330E+02  0.48294929345E+02  0.10566000000E+00 0.  1.
         22    1    1    0    0    0  0.11451998888E+02 -0.19018784285E+02 -0.12341691066E+02  0.25400389221E+02  0.00000000000E+00 0.  1.
</event>
<event>
 5    1  0.1691066E-003  0.9118800E+02  0.7818608E-02  0.1130116E+00
         25   -1    0    0    0    0  0.00000000000E+00  0.00000000000E+00  0.99999998245E-14  0.12500000000E+03  0.12500000000E+03 0.  0.
        -13    1    3    3    0    0 -0.11870637350E+02 -0.16464746368E+02 -0.29696668624E+02  0.35970865925E+02  0.10566000000E+00 0.  1.
         23    2    1    0    0    0 -0.16879280862E+02  0.30331520451E+02 -0.28063287909E+01  0.90174912253E+02  0.83178891934E+02 0.  0.
         13    1    3    3    0    0 -0.50086435126E+01  0.46796266818E+02  0.26890339833E+02  0.54204046328E+02  0.10566000000E+00 0. -1.
         22    1    1    0    0    0  0.16879280862E+02 -0.30331520451E+02  0.28063287909E+01  0.34825087747E+02  0.00000000000E+00 0. -1.
</event>
<event>
 5    1  0.1691066E-003  0.9118800E+02  0.7818608E-02  0.1130116E+00
         25   -1    0    0    0    0  0.00000000000E+00  0.00000000000E+00  0.99999998245E-14  0.12500000000E+03  0.12500000000E+03 0.  0.
        -13    1    3    3    0    0 -0.12464984105E+02  0.32955629341E+02  0.44852215146E+02  0.57036669797E+02  0.10566000000E+00 0. -1.
         23    2    1    0    0    0  0.11888321683E+02  0.19964010967E+02  0.17349434454E+02  0.96001779326E+02  0.91517456431E+02 0.  0.
         13    1    3    3    0    0  0.24353305789E+02 -0.12991618374E+02 -0.27502780692E+02  0.38965109529E+02  0.10566000000E+00 0.  1.
         22    1    1    0    0    0 -0.11888321683E+02 -0.19964010967E+02 -0.17349434454E+02  0.28998220674E+02  0.00000000000E+00 0.  1.
</event>
<event>
 5    1  0.1691066E-003  0.9118800E+02  0.7818608E-02  0.1130116E+00
         25   -1    0    0    0    0  0.00000000000E+00  0.00000000000E+00  0.99999998245E-14  0.12500000000E+03  0.12500000000E+03 0.  0.
        -13    1    3    3    0    0 -0.34156623971E+02 -0.27913070343E+02 -0.97541701361E+01  0.45177089948E+02  0.10566000000E+00 0. -1.
         23    2    1    0    0    0 -0.10991626808E+02  0.13967402150E+02 -0.24020866095E+02  0.95118464051E+02  0.90302912538E+02 0.  0.
         13    1    3    3    0    0  0.23164997163E+02  0.41880472492E+02 -0.14266695959E+02  0.49941374104E+02  0.10566000000E+00 0.  1.
         22    1    1    0    0    0  0.10991626808E+02 -0.13967402150E+02  0.24020866095E+02  0.29881535949E+02  0.00000000000E+00 0. -1.
</event>
<event>
 5    1  0.1691066E-003  0.9118800E+02  0.7818608E-02  0.1130116E+00
         25   -1    0    0    0    0  0.00000000000E+00  0.00000000000E+00  0.99999998245E-14  0.12500000000E+03  0.12500000000E+03 0.  0.
        -13    1    3    3    0    0  0.21090011320E+02 -0.70553709538E+01  0.47287348142E+02  0.52255825466E+02  0.10566000000E+00 0.  1.
         23    2    1    0    0    0 -0.15649757250E+02 -0.19249141039E+01  0.24726293285E+02  0.95674076725E+02  0.91068760732E+02 0.  0.
         13    1    3    3    0    0 -0.36739768570E+02  0.51304568499E+01 -0.22561054857E+02  0.43418251259E+02  0.10566000000E+00 0. -1.
         22    1    1    0    0    0  0.15649757250E+02  0.19249141039E+01 -0.24726293285E+02  0.29325923275E+02  0.00000000000E+00 0.  1.
</event>
<event>
 5    1  0.1691066E-003  0.9118800E+02  0.7818608E-02  0.1130116E+00
         25   -1    0    0    0    0  0.00000000000E+00  0.00000000000E+00  0.99999998245E-14  0.12500000000E+03  0.12500000000E+03 0.  0.
        -13    1    3    3    0    0  0.23419768684E+02  0.49268185679E+02  0.28288642706E+02  0.61449964650E+02  0.10566000000E+00 0.  1.
         23    2    1    0    0    0  0.75093742912E+01  0.19431863658E+02  0.19679216832E+02  0.96342372698E+02  0.91981482780E+02 0.  0.
         13    1    3    3    0    0 -0.15910394393E+02 -0.29836322021E+02 -0.86094258743E+01  0.34892408048E+02  0.10566000000E+00 0. -1.
         22    1    1    0    0    0 -0.75093742912E+01 -0.19431863658E+02 -0.19679216832E+02  0.28657627302E+02  0.00000000000E+00 0.  1.
</event>
<event>
 4    1  0.1691066E-003  0.9118800E+02  0.7818608E-02  0.1130116E+00
         25   -1    0    0    0    0  0.00000000000E+00  0.00000000000E+00  0.99999998245E-14  0.12500000000E+03  0.12500000000E+03 0.  0.
        -13    1    1    0    0    0  0.36308498271E+02 -0.36620407915E+02  0.76781164690E+01  0.52137567637E+02  0.10566000000E+00 0. -1.
         13    1    1    0    0    0 -0.39468674434E+01 -0.51136231968E+00  0.17218580609E+02  0.17672858746E+02  0.10566000000E+00 0.  1.
         22    1    1    0    0    0 -0.32361630828E+02  0.37131770234E+02 -0.24896697078E+02  0.55189573617E+02  0.00000000000E+00 0. -1.
</event>
<event>
 5    1  0.1691066E-003  0.9118800E+02  0.7818608E-02  0.1130116E+00
         25   -1    0    0    0    0  0.00000000000E+00  0.00000000000E+00  0.99999998245E-14  0.12500000000E+03  0.12500000000E+03 0.  0.
        -13    1    3    3    0    0  0.27254259793E+02 -0.14715129898E+01  0.14497757444E+02  0.30905600824E+02  0.10566000000E+00 0. -1.
         23    2    1    0    0    0 -0.30689244993E+02 -0.26220369681E+01 -0.81666183173E+01  0.93134682007E+02  0.87513830345E+02 0.  0.
         13    1    3    3    0    0 -0.57943504785E+02 -0.11505239782E+01 -0.22664375761E+02  0.62229081183E+02  0.10566000000E+00 0.  1.
         22    1    1    0    0    0  0.30689244993E+02  0.26220369681E+01  0.81666183173E+01  0.31865317993E+02  0.00000000000E+00 0.  1.
</event>
<event>
 5    1  0.1691066E-003  0.9118800E+02  0.7818608E-02  0.1130116E+00
         25   -1    0    0    0    0  0.00000000000E+00  0.00000000000E+00  0.99999998245E-14  0.12500000000E+03  0.12500000000E+03 0.  0.
        -13    1    3    3    0    0 -0.37329615294E+02  0.43956593698E+01  0.21798870413E+01  0.37650830945E+02  0.10566000000E+00 0.  1.
         23    2    1    0    0    0  0.74917063127E+01  0.18778658878E+01 -0.30730330376E+02  0.93313958140E+02  0.87769525093E+02 0.  0.
         13    1    3    3    0    0  0.44821321607E+02 -0.25177934820E+01 -0.32910217417E+02  0.55663127195E+02  0.10566000000E+00 0. -1.
         22    1    1    0    0    0 -0.74917063127E+01 -0.18778658878E+01  0.30730330376E+02  0.31686041860E+02  0.00000000000E+00 0.  1.
</event>
<event>
 5    1  0.1691066E-003  0.9118800E+02  0.7818608E-02  0.1130116E+00
         25   -1    0    0    0    0  0.00000000000E+00  0.00000000000E+00  0.99999998245E-14  0.12500000000E+03  0.12500000000E+03 0.  0.
        -13    1    3    3    0    0 -0.26539365721E+02  0.11782207073E+01  0.39004060892E+02  0.47191673704E+02  0.10566000000E+00 0.  1.
         23    2    1    0    0    0 -0.23684474703E+02 -0.17951833101E+02 -0.46317099006E+01  0.94922177767E+02  0.90030797186E+02 0.  0.
         13    1    3    3    0    0  0.28548910180E+01 -0.19130053809E+02 -0.43635770793E+02  0.47730504063E+02  0.10566000000E+00 0. -1.
         22    1    1    0    0    0  0.23684474703E+02  0.17951833101E+02  0.46317099006E+01  0.30077822233E+02  0.00000000000E+00 0. -1.
</event>
<event>
 5    1  0.1691066E-003  0.9118800E+02  0.7818608E-02  0.1130116E+00
         25   -1    0    0    0    0  0.00000000000E+00  0.00000000000E+00  0.99999998245E-14  0.12500000000E+03  0.12500000000E+03 0.  0.
        -13    1    3    3    0    0  0.44769392825E+02  0.15537429899E+02 -0.20226132949E+02  0.51524924841E+02  0.10566000000E+00 0. -1.
         23    2    1    0    0    0  0.12468551342E+02  0.28128159508E+02  0.42182501379E+01  0.93944376289E+02  0.88662811100E+02 0.  0.
         13    1    3    3    0    0 -0.32300841483E+02  0.12590729609E+02  0.24444383087E+02  0.42419451448E+02  0.10566000000E+00 0.  1.
         22    1    1    0    0    0 -0.12468551342E+02 -0.28128159508E+02 -0.42182501379E+01  0.31055623711E+02  0.00000000000E+00 0. -1.
</event>
<event>
 5    1  0.1691066E-003  0.9118800E+02  0.7818608E-02  0.1130116E+00
         25   -1    0    0    0    0  0.00000000000E+00  0.00000000000E+00  0.99999998245E-14  0.12500000000E+03  0.12500000000E+03 0.  0.
        -13    1    3    3    0    0 -0.28430215457E+00 -0.23903133531E+02 -0.34201949478E+02  0.41727989796E+02  0.10566000000E+00 0.  1.
         23    2    1    0    0    0  0.12911436621E+02  0.23446236206E+02 -0.11654615981E+02  0.95806485968E+02  0.91250323244E+02 0.  0.
         13    1    3    3    0    0  0.13195738775E+02  0.47349369737E+02  0.22547333498E+02  0.54078496172E+02  0.10566000000E+00 0. -1.
         22    1    1    0    0    0 -0.12911436621E+02 -0.23446236206E+02  0.11654615981E+02  0.29193514032E+02  0.00000000000E+00 0. -1.
</event>
<event>
 5    1  0.1691066E-003  0.9118800E+02  0.7818608E-02  0.1130116E+00
         25   -1    0    0    0    0  0.00000000000E+00  0.00000000000E+00  0.99999998245E-14  0.12500000000E+03  0.12500000000E+03 0.  0.
        -13    1    3    3    0    0  0.18730598613E+00 -0.30852773926E+02 -0.46164472852E+02  0.55525655873E+02  0.10566000000E+00 0.  1.
         23    2    1    0    0    0  0.19330195102E+02 -0.21120983496E+02 -0.17141837956E+02  0.91629429207E+02  0.85336728915E+02 0.  0.
         13    1    3    3    0    0  0.19142889116E+02  0.97317904302E+01  0.29022634895E+02  0.36103773334E+02  0.10566000000E+00 0. -1.
         22    1    1    0    0    0 -0.19330195102E+02  0.21120983496E+02  0.17141837956E+02  0.33370570793E+02  0.00000000000E+00 0.  1.
</event>
<event>
 5    1  0.1691066E-003  0.9118800E+02  0.7818608E-02  0.1130116E+00
         25   -1    0    0    0    0  0.00000000000E+00  0.00000000000E+00  0.99999998245E-14  0.12500000000E+03  0.12500000000E+03 0.  0.
        -13    1    3    3    0    0  0.38824548614E+01  0.33084738498E+02  0.48196745413E+02  0.58588487006E+02  0.10566000000E+00 0.  1.
         23    2    1    0    0    0 -0.10095228281E+02  0.28787967069E+02  0.37230833117E+02  0.76866896874E+02  0.59930995473E+02 0.  0.
         13    1    3    3    0    0 -0.13977683143E+02 -0.42967714299E+01 -0.10965912296E+02  0.18278409867E+02  0.10566000000E+00 0. -1.
         22    1    1    0    0    0  0.10095228281E+02 -0.28787967069E+02 -0.37230833117E+02  0.48133103126E+02  0.00000000000E+00 0.  1.
</event>
<event>
 5    1  0.1691066E-003  0.9118800E+02  0.7818608E-02  0.1130116E+00
         25   -1    0    0    0    0  0.00000000000E+00  0.00000000000E+00  0.99999998245E-14  0.12500000000E+03  0.12500000000E+03 0.  0.
        -13    1    3    3    0    0 -0.78493712808E+01  0.54004760037E+02  0.19879995444E+02  0.58080565760E+02  0.10566000000E+00 0. -1.
         23    2    1    0    0    0 -0.19925984783E+02  0.32510768781E+02  0.18076518185E+02  0.82801001599E+02  0.71240791684E+02 0.  0.
         13    1    3    3    0    0 -0.12076613503E+02 -0.21493991256E+02 -0.18034772589E+01  0.24720435839E+02  0.10566000000E+00 0.  1.
         22    1    1    0    0    0  0.19925984783E+02 -0.32510768781E+02 -0.18076518185E+02  0.42198998401E+02  0.00000000000E+00 0. -1.
</event>
<event>
 5    1  0.1691066E-003  0.9118800E+02  0.7818608E-02  0.1130116E+00
         25   -1    0    0    0    0  0.00000000000E+00  0.00000000000E+00  0.99999998245E-14  0.12500000000E+03  0.12500000000E+03 0.  0.
        -13    1    3    3    0    0  0.56887662013E+01 -0.14945942203E+02  0.49007893490E+02  0.51551217615E+02  0.10566000000E+00 0.  1.
         23    2    1    0    0    0 -0.15255328910E+02 -0.22643175722E+02  0.11124362901E+02  0.95517972985E+02  0.90854241762E+02 0.  0.
         13    1    3    3    0    0 -0.20944095112E+02 -0.76972335191E+01 -0.37883530589E+02  0.43966755370E+02  0.10566000000E+00 0. -1.
         22    1    1    0    0    0  0.15255328910E+02  0.22643175722E+02 -0.11124362901E+02  0.29482027015E+02  0.00000000000E+00 0. -1.
</event>
<event>
 5    1  0.1691066E-003  0.9118800E+02  0.7818608E-02  0.1130116E+00
         25   -1    0    0    0    0  0.00000000000E+00  0.00000000000E+00  0.99999998245E-14  0.12500000000E+03  0.12500000000E+03 0.  0.
        -13    1    3    3    0    0 -0.41600535900E+02 -0.27565666518E+02 -0.33465315528E+02  0.60086679599E+02  0.10566000000E+00 0. -1.
         23    2    1    0    0    0 -0.26438748975E+02 -0.39074899094E+01 -0.10854672607E+02  0.96153859146E+02  0.91724940919E+02 0.  0.
         13    1    3    3    0    0  0.15161786926E+02  0.23658176608E+02  0.22610642920E+02  0.36067179548E+02  0.10566000000E+00 0.  1.
         22    1    1    0    0    0  0.26438748975E+02  0.39074899094E+01  0.10854672607E+02  0.28846140854E+02  0.00000000000E+00 0. -1.
</event>
<event>
 5    1  0.1691066E-003  0.9118800E+02  0.7818608E-02  0.1130116E+00
         25   -1    0    0    0    0  0.00000000000E+00  0.00000000000E+00  0.99999998245E-14  0.12500000000E+03  0.12500000000E+03 0.  0.
        -13    1    3    3    0    0  0.48397949860E+01 -0.16899897402E+02 -0.43407822853E+02  0.46832471604E+02  0.10566000000E+00 0.  1.
         23    2    1    0    0    0  0.29140896546E+02  0.59458710999E+00 -0.51721086955E+01  0.95397701209E+02  0.90688617270E+02 0.  0.
         13    1    3    3    0    0  0.24301101560E+02  0.17494484512E+02  0.38235714157E+02  0.48565229605E+02  0.10566000000E+00 0. -1.
         22    1    1    0    0    0 -0.29140896546E+02 -0.59458710999E+00  0.51721086955E+01  0.29602298791E+02  0.00000000000E+00 0. -1.
</event>
<event>
 5    1  0.1691066E-003  0.9118800E+02  0.7818608E-02  0.1130116E+00
         25   -1    0    0    0    0  0.00000000000E+00  0.00000000000E+00  0.99999998245E-14  0.12500000000E+03  0.12500000000E+03 0.  0.
        -13    1    3    3    0    0 -0.24834736471E+02  0.15065411186E+02 -0.18884846109E+02  0.34646490823E+02  0.10566000000E+00 0.  1.
         23    2    1    0    0    0  0.26548139496E+02 -0.29773930873E+01  0.10223038761E+02  0.96396169805E+02  0.92054562360E+02 0.  0.
         13    1    3    3    0    0  0.51382875967E+02 -0.18042804273E+02  0.29107884871E+02  0.61749678982E+02  0.10566000000E+00 0. -1.
         22    1    1    0    0    0 -0.26548139496E+02  0.29773930873E+01 -0.10223038761E+02  0.28603830195E+02  0.00000000000E+00 0. -1.
</event>
<event>
 5    1  0.1691066E-003  0.9118800E+02  0.7818608E-02  0.1130116E+00
         25   -1    0    0    0    0  0.00000000000E+00  0.00000000000E+00  0.99999998245E-14  0.12500000000E+03  0.12500000000E+03 0.  0.
        -13    1    3    3    0    0 -0.35885486939E+02 -0.62243983126E+01  0.52023835931E+01  0.36791130266E+02  0.10566000000E+00 0.  1.
         23    2    1    0    0    0 -0.85584180215E+01  0.16049797066E+02 -0.32092127618E+02  0.88111693453E+02  0.80018268934E+02 0.  0.
         13    1    3    3    0    0  0.27327068917E+02  0.22274195378E+02 -0.37294511211E+02  0.51320563187E+02  0.10566000000E+00 0. -1.
         22    1    1    0    0    0  0.85584180215E+01 -0.16049797066E+02  0.32092127618E+02  0.36888306547E+02  0.00000000000E+00 0. -1.
</event>
<event>
 4    1  0.1691066E-003  0.9118800E+02  0.7818608E-02  0.1130116E+00
         25   -1    0    0    0    0  0.00000000000E+00  0.00000000000E+00  0.99999998245E-14  0.12500000000E+03  0.12500000000E+03 0.  0.
        -13    1    1    0    0    0  0.43953056625E+01  0.85349758714E+01  0.16184136669E+02  0.18817597316E+02  0.10566000000E+00 0. -1.
         13    1    1    0    0    0 -0.24297323822E+02 -0.48677753938E+01  0.39670825805E+02  0.46774360137E+02  0.10566000000E+00 0.  1.
         22    1    1    0    0    0  0.19902018159E+02 -0.36672004777E+01 -0.55854962474E+02  0.59408042546E+02  0.00000000000E+00 0.  1.
</event>
<event>
 5    1  0.1691066E-003  0.9118800E+02  0.7818608E-02  0.1130116E+00
         25   -1    0    0    0    0  0.00000000000E+00  0.00000000000E+00  0.99999998245E-14  0.12500000000E+03  0.12500000000E+03 0.  0.
        -13    1    3    3    0    0 -0.17560648894E+02 -0.49655429808E+02  0.12775029954E+02  0.54196408122E+02  0.10566000000E+00 0.  1.
         23    2    1    0    0    0  0.13551225772E+02 -0.26013834646E+02 -0.10609006605E+01  0.95649006437E+02  0.91034343021E+02 0.  0.
         13    1    3    3    0    0  0.31111874666E+02  0.23641595163E+02 -0.13835930615E+02  0.41452598315E+02  0.10566000000E+00 0. -1.
         22    1    1    0    0    0 -0.13551225772E+02  0.26013834646E+02  0.10609006605E+01  0.29350993563E+02  0.00000000000E+00 0.  1.
</event>
<event>
 5    1  0.1691066E-003  0.9118800E+02  0.7818608E-02  0.1130116E+00
         25   -1    0    0    0    0  0.00000000000E+00  0.00000000000E+00  0.99999998245E-14  0.12500000000E+03  0.12500000000E+03 0.  0.
        -13    1    3    3    0    0  0.31118342130E+02  0.23841203329E+02  0.45331690611E+02  0.59931023108E+02  0.10566000000E+00 0.  1.
         23    2    1    0    0    0  0.89413478940E+01  0.21080089288E+01  0.28086215417E+02  0.95449587139E+02  0.90760105689E+02 0.  0.
         13    1    3    3    0    0 -0.22176994236E+02 -0.21733194400E+02 -0.17245475194E+02  0.35518564031E+02  0.10566000000E+00 0. -1.
         22    1    1    0    0    0 -0.89413478940E+01 -0.21080089288E+01 -0.28086215417E+02  0.29550412861E+02  0.00000000000E+00 0.  1.
</event>
<event>
 5    1  0.1691066E-003  0.9118800E+02  0.7818608E-02  0.1130116E+00
         25   -1    0    0    0    0  0.00000000000E+00  0.00000000000E+00  0.99999998245E-14  0.12500000000E+03  0.12500000000E+03 0.  0.
        -13    1    3    3    0    0  0.26316543085E+02  0.22107482050E+02  0.49761649339E+02  0.60477550476E+02  0.10566000000E+00 0. -1.
         23    2    1    0    0    0  0.20660518108E+02  0.11743383527E+02  0.15725957148E+02  0.96503161695E+02  0.92199731149E+02 0.  0.
         13    1    3    3    0    0 -0.56560249776E+01 -0.10364098524E+02 -0.34035692191E+02  0.36025611219E+02  0.10566000000E+00 0.  1.
         22    1    1    0    0    0 -0.20660518108E+02 -0.11743383527E+02 -0.15725957148E+02  0.28496838305E+02  0.00000000000E+00 0. -1.
</event>
<event>
 5    1  0.1691066E-003  0.9118800E+02  0.7818608E-02  0.1130116E+00
         25   -1    0    0    0    0  0.00000000000E+00  0.00000000000E+00  0.99999998245E-14  0.12500000000E+03  0.12500000000E+03 0.  0.
        -13    1    3    3    0    0 -0.37800032258E+02  0.34242454989E+02  0.35849983509E+01  0.51129752000E+02  0.10566000000E+00 0.  1.
         23    2    1    0    0    0 -0.14643535744E+02  0.82308603694E+01 -0.24102956849E+02  0.95620879347E+02  0.90995713287E+02 0.  0.
         13    1    3    3    0    0  0.23156496514E+02 -0.26011594619E+02 -0.27687955200E+02  0.44491127347E+02  0.10566000000E+00 0. -1.
         22    1    1    0    0    0  0.14643535744E+02 -0.82308603694E+01  0.24102956849E+02  0.29379120653E+02  0.00000000000E+00 0.  1.
</event>
<event>
 5    1  0.1691066E-003  0.9118800E+02  0.7818608E-02  0.1130116E+00
         25   -1    0    0    0    0  0.00000000000E+00  0.00000000000E+00  0.99999998245E-14  0.12500000000E+03  0.12500000000E+03 0.  0.
        -13    1    3    3    0    0  0.29662098552E+02  0.23041987125E+02  0.35591472904E+02  0.51744926019E+02  0.10566000000E+00 0. -1.
         23    2    1    0    0    0 -0.17898536945E+01 -0.97136895248E+01  0.24634353662E+02  0.98459262995E+02  0.94814638894E+02 0.  0.
         13    1    3    3    0    0 -0.31451952247E+02 -0.32755676650E+02 -0.10957119242E+02  0.46714336975E+02  0.10566000000E+00 0.  1.
         22    1    1    0    0    0  0.17898536945E+01  0.97136895248E+01 -0.24634353662E+02  0.26540737005E+02  0.00000000000E+00 0. -1.
</event>
<event>
 5    1  0.1691066E-003  0.9118800E+02  0.7818608E-02  0.1130116E+00
         25   -1    0    0    0    0  0.00000000000E+00  0.00000000000E+00  0.99999998245E-14  0.12500000000E+03  0.12500000000E+03 0.  0.
        -13    1    3    3    0    0 -0.17135228740E+02  0.52954236107E+02  0.15124568862E+02  0.57676086318E+02  0.10566000000E+00 0. -1.
         23    2    1    0    0    0  0.40645044027E+01  0.22897652348E+02  0.19413601219E+02  0.94706261515E+02  0.89730515316E+02 0.  0.
         13    1    3    3    0    0  0.21199733143E+02 -0.30056583759E+02  0.42890323568E+01  0.37030175198E+02  0.10566000000E+00 0.  1.
         22    1    1    0    0    0 -0.40645044027E+01 -0.22897652348E+02 -0.19413601219E+02  0.30293738485E+02  0.00000000000E+00 0. -1.
</event>
<event>
 5    1  0.1691066E-003  0.9118800E+02  0.7818608E-02  0.1130116E+00
         25   -1    0    0    0    0  0.00000000000E+00  0.00000000000E+00  0.99999998245E-14  0.12500000000E+03  0.12500000000E+03 0.  0.
        -13    1    3    3    0    0  0.23653722737E+02  0.50443496304E+02  0.11987587289E+01  0.55726951336E+02  0.10566000000E+00 0. -1.
         23    2    1    0    0    0  0.23897113210E+02  0.12144425187E+02 -0.11148684689E+02  0.95968082165E+02  0.91471419259E+02 0.  0.
         13    1    3    3    0    0  0.24339047292E+00 -0.38299071117E+02 -0.12347443418E+02  0.40241130828E+02  0.10566000000E+00 0.  1.
         22    1    1    0    0    0 -0.23897113210E+02 -0.12144425187E+02  0.11148684689E+02  0.29031917835E+02  0.00000000000E+00 0. -1.
</event>
<event>
 5    1  0.1691066E-003  0.9118800E+02  0.7818608E-02  0.1130116E+00
         25   -1    0    0    0    0  0.00000000000E+00  0.00000000000E+00  0.99999998245E-14  0.12500000000E+03  0.12500000000E+03 0.  0.
        -13    1    3    3    0    0 -0.37070701312E+01  0.10959940519E+02  0.42493558900E+02  0.44040621898E+02  0.10566000000E+00 0.  1.
         23    2    1    0    0    0 -0.20896184273E+02 -0.20561322110E+02  0.63131019804E+01  0.95012106765E+02  0.90155569386E+02 0.  0.
         13    1    3    3    0    0 -0.17189114141E+02 -0.31521262629E+02 -0.36180456919E+02  0.50971484867E+02  0.10566000000E+00 0. -1.
         22    1    1    0    0    0  0.20896184273E+02  0.20561322110E+02 -0.63131019804E+01  0.29987893235E+02  0.00000000000E+00 0.  1.
</event>
<event>
 5    1  0.1691066E-003  0.9118800E+02  0.7818608E-02  0.1130116E+00
         25   -1    0    0    0    0  0.00000000000E+00  0.00000000000E+00  0.99999998245E-14  0.12500000000E+03  0.12500000000E+03 0.  0.
        -13    1    3    3    0    0 -0.48064555375E+02 -0.24237872472E+02 -0.37450310924E+01  0.53960285093E+02  0.10566000000E+00 0.  1.
         23    2    1    0    0    0 -0.26852221427E+02  0.10852314083E+02 -0.73427013940E+01  0.95121416026E+02  0.90306998658E+02 0.  0.
         13    1    3    3    0    0  0.21212333949E+02  0.35090186556E+02 -0.35976703016E+01  0.41161130933E+02  0.10566000000E+00 0. -1.
         22    1    1    0    0    0  0.26852221427E+02 -0.10852314083E+02  0.73427013940E+01  0.29878583974E+02  0.00000000000E+00 0.  1.
</event>
<event>
 5    1  0.1691066E-003  0.9118800E+02  0.7818608E-02  0.1130116E+00
         25   -1    0    0    0    0  0.00000000000E+00  0.00000000000E+00  0.99999998245E-14  0.12500000000E+03  0.12500000000E+03 0.  0.
        -13    1    3    3    0    0 -0.40300587040E+02 -0.74854031620E+01  0.21127150246E+02  0.46114381897E+02  0.10566000000E+00 0. -1.
         23    2    1    0    0    0 -0.18873510620E+02  0.13964703338E+02 -0.17858432264E+02  0.95501763691E+02  0.90831937790E+02 0.  0.
         13    1    3    3    0    0  0.21427076420E+02  0.21450106500E+02 -0.38985582509E+02  0.49387381793E+02  0.10566000000E+00 0.  1.
         22    1    1    0    0    0  0.18873510620E+02 -0.13964703338E+02  0.17858432264E+02  0.29498236309E+02  0.00000000000E+00 0.  1.
</event>
<event>
 5    1  0.1691066E-003  0.9118800E+02  0.7818608E-02  0.1130116E+00
         25   -1    0    0    0    0  0.00000000000E+00  0.00000000000E+00  0.99999998245E-14  0.12500000000E+03  0.12500000000E+03 0.  0.
        -13    1    3    3    0    0  0.55766808241E+02 -0.42302993184E+01 -0.10818294794E+02  0.56963839408E+02  0.10566000000E+00 0. -1.
         23    2    1    0    0    0  0.16789283782E+02 -0.18697962230E+02 -0.79677769619E+01  0.98637539735E+02  0.95049381554E+02 0.  0.
         13    1    3    3    0    0 -0.38977524459E+02 -0.14467662912E+02  0.28505178322E+01  0.41673700328E+02  0.10566000000E+00 0.  1.
         22    1    1    0    0    0 -0.16789283782E+02  0.18697962230E+02  0.79677769619E+01  0.26362460265E+02  0.00000000000E+00 0. -1.
</event>
<event>
 5    1  0.1691066E-003  0.9118800E+02  0.7818608E-02  0.1130116E+00
         25   -1    0    0    0    0  0.00000000000E+00  0.00000000000E+00  0.99999998245E-14  0.12500000000E+03  0.12500000000E+03 0.  0.
        -13    1    3    3    0    0 -0.51605249201E+01 -0.35301216409E+02  0.10157436087E+02  0.37094360344E+02  0.10566000000E+00 0.  1.
         23    2    1    0    0    0 -0.14785027206E+02  0.21410367921E+02 -0.85973696894E+01  0.97597159826E+02  0.93671179968E+02 0.  0.
         13    1    3    3    0    0 -0.96245022863E+01  0.56711584330E+02 -0.18754805777E+02  0.60502799483E+02  0.10566000000E+00 0. -1.
         22    1    1    0    0    0  0.14785027206E+02 -0.21410367921E+02  0.85973696894E+01  0.27402840174E+02  0.00000000000E+00 0. -1.
</event>
<event>
 5    1  0.1691066E-003  0.9118800E+02  0.7818608E-02  0.1130116E+00
         25   -1    0    0    0    0  0.00000000000E+00  0.00000000000E+00  0.99999998245E-14  0.12500000000E+03  0.12500000000E+03 0.  0.
        -13    1    3    3    0    0 -0.47430492762E+02 -0.31262830236E+02 -0.23941305141E+02  0.61645871346E+02  0.10566000000E+00 0. -1.
         23    2    1    0    0    0 -0.19247004278E+02 -0.20288867539E+02 -0.76144565043E+01  0.96016120557E+02  0.91537042444E+02 0.  0.
         13    1    3    3    0    0  0.28183488485E+02  0.10973962697E+02  0.16326848637E+02  0.34370249212E+02  0.10566000000E+00 0.  1.
         22    1    1    0    0    0  0.19247004278E+02  0.20288867539E+02  0.76144565043E+01  0.28983879443E+02  0.00000000000E+00 0. -1.
</event>
<event>
 5    1  0.1691066E-003  0.9118800E+02  0.7818608E-02  0.1130116E+00
         25   -1    0    0    0    0  0.00000000000E+00  0.00000000000E+00  0.99999998245E-14  0.12500000000E+03  0.12500000000E+03 0.  0.
        -13    1    3    3    0    0  0.19241662715E+02 -0.12947394566E+02  0.54625819518E+02  0.59345327803E+02  0.10566000000E+00 0.  1.
         23    2    1    0    0    0 -0.99813387613E-01  0.34458240998E+01  0.30374585026E+02  0.94430422280E+02  0.89345428367E+02 0.  0.
         13    1    3    3    0    0 -0.19341476103E+02  0.16393218666E+02 -0.24251234491E+02  0.35085094477E+02  0.10566000000E+00 0. -1.
         22    1    1    0    0    0  0.99813387613E-01 -0.34458240998E+01 -0.30374585026E+02  0.30569577720E+02  0.00000000000E+00 0.  1.
</event>
<event>
 5    1  0.1691066E-003  0.9118800E+02  0.7818608E-02  0.1130116E+00
         25   -1    0    0    0    0  0.00000000000E+00  0.00000000000E+00  0.99999998245E-14  0.12500000000E+03  0.12500000000E+03 0.  0.
        -13    1    3    3    0    0  0.16300955998E+01  0.29936337772E+02 -0.16234003027E+02  0.34093922467E+02  0.10566000000E+00 0. -1.
         23    2    1    0    0    0  0.96858931711E+01 -0.20328005001E+02  0.18613833827E+02  0.95784950392E+02  0.91220817789E+02 0.  0.
         13    1    3    3    0    0  0.80557975713E+01 -0.50264342773E+02  0.34847836855E+02  0.61691027925E+02  0.10566000000E+00 0.  1.
         22    1    1    0    0    0 -0.96858931711E+01  0.20328005001E+02 -0.18613833827E+02  0.29215049608E+02  0.00000000000E+00 0.  1.
</event>
<event>
 5    1  0.1691066E-003  0.9118800E+02  0.7818608E-02  0.1130116E+00
         25   -1    0    0    0    0  0.00000000000E+00  0.00000000000E+00  0.99999998245E-14  0.12500000000E+03  0.12500000000E+03 0.  0.
        -13    1    3    3    0    0  0.16400059103E+02 -0.17787388617E+01  0.29979465086E+02  0.34218494143E+02  0.10566000000E+00 0. -1.
         23    2    1    0    0    0 -0.17368400466E+02  0.12554400319E+02 -0.19643226269E+02  0.95928869297E+02  0.91417817324E+02 0.  0.
         13    1    3    3    0    0 -0.33768459569E+02  0.14333139180E+02 -0.49622691354E+02  0.61710375155E+02  0.10566000000E+00 0.  1.
         22    1    1    0    0    0  0.17368400466E+02 -0.12554400319E+02  0.19643226269E+02  0.29071130703E+02  0.00000000000E+00 0.  1.
</event>
<event>
 5    1  0.1691066E-003  0.9118800E+02  0.7818608E-02  0.1130116E+00
         25   -1    0    0    0    0  0.00000000000E+00  0.00000000000E+00  0.99999998245E-14  0.12500000000E+03  0.12500000000E+03 0.  0.
        -13    1    3    3    0    0  0.13449601478E+02 -0.23814015575E+02  0.60913587574E+01  0.28019902450E+02  0.10566000000E+00 0. -1.
         23    2    1    0    0    0 -0.25440613959E+01 -0.13108073706E+01 -0.41694345841E+02  0.83207549253E+02  0.71950589387E+02 0.  0.
         13    1    3    3    0    0 -0.15993662874E+02  0.22503208205E+02 -0.47785704599E+02  0.55187646803E+02  0.10566000000E+00 0.  1.
         22    1    1    0    0    0  0.25440613959E+01  0.13108073706E+01  0.41694345841E+02  0.41792450747E+02  0.00000000000E+00 0.  1.
</event>
<event>
 5    1  0.1691066E-003  0.9118800E+02  0.7818608E-02  0.1130116E+00
         25   -1    0    0    0    0  0.00000000000E+00  0.00000000000E+00  0.99999998245E-14  0.12500000000E+03  0.12500000000E+03 0.  0.
        -13    1    3    3    0    0  0.17224506489E+01 -0.19995558353E+02 -0.48936021085E+02  0.52891724435E+02  0.10566000000E+00 0.  1.
         23    2    1    0    0    0  0.24411102192E+02 -0.11188566196E+02 -0.16358969338E+02  0.93556371050E+02  0.88114089466E+02 0.  0.
         13    1    3    3    0    0  0.22688651543E+02  0.88069921571E+01  0.32577051747E+02  0.40664646615E+02  0.10566000000E+00 0. -1.
         22    1    1    0    0    0 -0.24411102192E+02  0.11188566196E+02  0.16358969338E+02  0.31443628950E+02  0.00000000000E+00 0.  1.
</event>
<event>
 5    1  0.1691066E-003  0.9118800E+02  0.7818608E-02  0.1130116E+00
         25   -1    0    0    0    0  0.00000000000E+00  0.00000000000E+00  0.99999998245E-14  0.12500000000E+03  0.12500000000E+03 0.  0.
        -13    1    3    3    0    0 -0.18978816026E+02  0.19971858490E+02  0.54034170890E+02  0.60652892570E+02  0.10566000000E+00 0. -1.
         23    2    1    0    0    0  0.14979739706E+01  0.12800352968E+02  0.24711673099E+02  0.97129590073E+02  0.93045136994E+02 0.  0.
         13    1    3    3    0    0  0.20476789997E+02 -0.71715055222E+01 -0.29322497790E+02  0.36476697503E+02  0.10566000000E+00 0.  1.
         22    1    1    0    0    0 -0.14979739706E+01 -0.12800352968E+02 -0.24711673099E+02  0.27870409927E+02  0.00000000000E+00 0. -1.
</event>
<event>
 5    1  0.1691066E-003  0.9118800E+02  0.7818608E-02  0.1130116E+00
         25   -1    0    0    0    0  0.00000000000E+00  0.00000000000E+00  0.99999998245E-14  0.12500000000E+03  0.12500000000E+03 0.  0.
        -13    1    3    3    0    0 -0.37135392916E+01 -0.61864556574E+02  0.22585750464E+01  0.62017143271E+02  0.10566000000E+00 0.  1.
         23    2    1    0    0    0 -0.19650088123E-01 -0.21450670759E+02 -0.42898651651E+01  0.10312456617E+03  0.10077768375E+03 0.  0.
         13    1    3    3    0    0  0.36938892035E+01  0.40413885815E+02 -0.65484402115E+01  0.41107422899E+02  0.10566000000E+00 0. -1.
         22    1    1    0    0    0  0.19650088123E-01  0.21450670759E+02  0.42898651651E+01  0.21875433830E+02  0.00000000000E+00 0.  1.
</event>
<event>
 5    1  0.1691066E-003  0.9118800E+02  0.7818608E-02  0.1130116E+00
         25   -1    0    0    0    0  0.00000000000E+00  0.00000000000E+00  0.99999998245E-14  0.12500000000E+03  0.12500000000E+03 0.  0.
        -13    1    3    3    0    0  0.31165038616E+02 -0.47083017554E+02  0.11040923456E+01  0.56473890940E+02  0.10566000000E+00 0.  1.
         23    2    1    0    0    0  0.20612648291E+02 -0.14174901301E+02  0.17244586102E+02  0.94616042945E+02  0.89604747287E+02 0.  0.
         13    1    3    3    0    0 -0.10552390325E+02  0.32908116253E+02  0.16140493756E+02  0.38142152006E+02  0.10566000000E+00 0. -1.
         22    1    1    0    0    0 -0.20612648291E+02  0.14174901301E+02 -0.17244586102E+02  0.30383957055E+02  0.00000000000E+00 0.  1.
</event>
<event>
 5    1  0.1691066E-003  0.9118800E+02  0.7818608E-02  0.1130116E+00
         25   -1    0    0    0    0  0.00000000000E+00  0.00000000000E+00  0.99999998245E-14  0.12500000000E+03  0.12500000000E+03 0.  0.
        -13    1    3    3    0    0 -0.42578099446E+02  0.22614206239E+02 -0.16856511025E+02  0.51072987031E+02  0.10566000000E+00 0. -1.
         23    2    1    0    0    0 -0.89040113205E+01  0.24609190402E+02  0.12688839049E+02  0.95915634677E+02  0.91399719197E+02 0.  0.
         13    1    3    3    0    0  0.33674088126E+02  0.19949841627E+01  0.29545350074E+02  0.44842647646E+02  0.10566000000E+00 0.  1.
         22    1    1    0    0    0  0.89040113205E+01 -0.24609190402E+02 -0.12688839049E+02  0.29084365323E+02  0.00000000000E+00 0.  1.
</event>
<event>
 5    1  0.1691066E-003  0.9118800E+02  0.7818608E-02  0.1130116E+00
         25   -1    0    0    0    0  0.00000000000E+00  0.00000000000E+00  0.99999998245E-14  0.12500000000E+03  0.12500000000E+03 0.  0.
        -13    1    3    3    0    0 -0.10786775176E+02 -0.20865446066E+02 -0.32664088858E+02  0.40232763057E+02  0.10566000000E+00 0. -1.
         23    2    1    0    0    0 -0.78262015511E+01  0.27677280636E+02 -0.62868939850E+01  0.95558425143E+02  0.90909880022E+02 0.  0.
         13    1    3    3    0    0  0.29605736249E+01  0.48542726702E+02  0.26377194873E+02  0.55325662086E+02  0.10566000000E+00 0.  1.
         22    1    1    0    0    0  0.78262015511E+01 -0.27677280636E+02  0.62868939850E+01  0.29441574857E+02  0.00000000000E+00 0.  1.
</event>
<event>
 5    1  0.1691066E-003  0.9118800E+02  0.7818608E-02  0.1130116E+00
         25   -1    0    0    0    0  0.00000000000E+00  0.00000000000E+00  0.99999998245E-14  0.12500000000E+03  0.12500000000E+03 0.  0.
        -13    1    3    3    0    0 -0.74790188378E+01  0.34917838721E+02  0.14386687174E+02  0.38499079412E+02  0.10566000000E+00 0.  1.
         23    2    1    0    0    0  0.51417433651E+01 -0.22963494710E+02  0.13752704366E+02  0.97743872404E+02  0.93866757166E+02 0.  0.
         13    1    3    3    0    0  0.12620762203E+02 -0.57881333431E+02 -0.63398280735E+00  0.59244792992E+02  0.10566000000E+00 0. -1.
         22    1    1    0    0    0 -0.51417433651E+01  0.22963494710E+02 -0.13752704366E+02  0.27256127596E+02  0.00000000000E+00 0. -1.
</event>
<event>
 5    1  0.1691066E-003  0.9118800E+02  0.7818608E-02  0.1130116E+00
         25   -1    0    0    0    0  0.00000000000E+00  0.00000000000E+00  0.99999998245E-14  0.12500000000E+03  0.12500000000E+03 0.  0.
        -13    1    3    3    0    0 -0.99750588942E+01  0.53950146256E+02 -0.12727021587E+02  0.56321473023E+02  0.10566000000E+00 0. -1.
         23    2    1    0    0    0  0.13816810598E+02  0.26086670166E+02  0.10401148260E+01  0.95461881334E+02  0.90777036378E+02 0.  0.
         13    1    3    3    0    0  0.23791869492E+02 -0.27863476089E+02  0.13767136413E+02  0.39140408311E+02  0.10566000000E+00 0.  1.
         22    1    1    0    0    0 -0.13816810598E+02 -0.26086670166E+02 -0.10401148260E+01  0.29538118666E+02  0.00000000000E+00 0. -1.
</event>
<event>
 5    1  0.1691066E-003  0.9118800E+02  0.7818608E-02  0.1130116E+00
         25   -1    0    0    0    0  0.00000000000E+00  0.00000000000E+00  0.99999998245E-14  0.12500000000E+03  0.12500000000E+03 0.  0.
        -13    1    3    3    0    0  0.85670160516E+01  0.30477311728E+02 -0.12972276653E+02  0.34213322255E+02  0.10566000000E+00 0. -1.
         23    2    1    0    0    0 -0.24009806555E+02 -0.17381205333E+02 -0.14228978359E+02  0.92120813046E+02  0.86053490699E+02 0.  0.
         13    1    3    3    0    0 -0.32576822607E+02 -0.47858517061E+02 -0.12567017059E+01  0.57907490790E+02  0.10566000000E+00 0.  1.
         22    1    1    0    0    0  0.24009806555E+02  0.17381205333E+02  0.14228978359E+02  0.32879186954E+02  0.00000000000E+00 0.  1.
</event>
<event>
 5    1  0.1691066E-003  0.9118800E+02  0.7818608E-02  0.1130116E+00
         25   -1    0    0    0    0  0.00000000000E+00  0.00000000000E+00  0.99999998245E-14  0.12500000000E+03  0.12500000000E+03 0.  0.
        -13    1    3    3    0    0 -0.13336822088E+02 -0.77365025367E+01 -0.43612013188E+02  0.46257357829E+02  0.10566000000E+00 0. -1.
         23    2    1    0    0    0 -0.33929309737E+02  0.48186372556E+01 -0.71214705960E+01  0.89998104799E+02  0.82912762586E+02 0.  0.
         13    1    3    3    0    0 -0.20592487649E+02  0.12555139792E+02  0.36490542592E+02  0.43740746970E+02  0.10566000000E+00 0.  1.
         22    1    1    0    0    0  0.33929309737E+02 -0.48186372556E+01  0.71214705960E+01  0.35001895201E+02  0.00000000000E+00 0.  1.
</event>
<event>
 5    1  0.1691066E-003  0.9118800E+02  0.7818608E-02  0.1130116E+00
         25   -1    0    0    0    0  0.00000000000E+00  0.00000000000E+00  0.99999998245E-14  0.12500000000E+03  0.12500000000E+03 0.  0.
        -13    1    3    3    0    0  0.36356178831E+02 -0.38023699077E+02 -0.49986056718E+01  0.52844778866E+02  0.10566000000E+00 0.  1.
         23    2    1    0    0    0  0.20847416345E+02 -0.87936289441E+00  0.16426748815E+02  0.98443906086E+02  0.94794390770E+02 0.  0.
         13    1    3    3    0    0 -0.15508762486E+02  0.37144336182E+02  0.21425354487E+02  0.45599127220E+02  0.10566000000E+00 0. -1.
         22    1    1    0    0    0 -0.20847416345E+02  0.87936289441E+00 -0.16426748815E+02  0.26556093914E+02  0.00000000000E+00 0. -1.
</event>
<event>
 5    1  0.1691066E-003  0.9118800E+02  0.7818608E-02  0.1130116E+00
         25   -1    0    0    0    0  0.00000000000E+00  0.00000000000E+00  0.99999998245E-14  0.12500000000E+03  0.12500000000E+03 0.  0.
        -13    1    3    3    0    0 -0.35579570586E+02 -0.34961680102E+02 -0.21740595754E+02  0.54414056882E+02  0.10566000000E+00 0.  1.
         23    2    1    0    0    0 -0.26994208976E+02  0.39632654232E+01 -0.94395405175E+01  0.96129604848E+02  0.91691881931E+02 0.  0.
         13    1    3    3    0    0  0.85853616101E+01  0.38924945525E+02  0.12301055237E+02  0.41715547966E+02  0.10566000000E+00 0. -1.
         22    1    1    0    0    0  0.26994208976E+02 -0.39632654232E+01  0.94395405175E+01  0.28870395152E+02  0.00000000000E+00 0.  1.
</event>
<event>
 5    1  0.1691066E-003  0.9118800E+02  0.7818608E-02  0.1130116E+00
         25   -1    0    0    0    0  0.00000000000E+00  0.00000000000E+00  0.99999998245E-14  0.12500000000E+03  0.12500000000E+03 0.  0.
        -13    1    3    3    0    0 -0.25749521389E+02  0.38486434719E+01  0.24096215533E+02  0.35475183937E+02  0.10566000000E+00 0.  1.
         23    2    1    0    0    0  0.17429441127E+02 -0.20211142710E+02 -0.11037570976E+02  0.96119146815E+02  0.91677623790E+02 0.  0.
         13    1    3    3    0    0  0.43178962516E+02 -0.24059786182E+02 -0.35133786509E+02  0.60643962878E+02  0.10566000000E+00 0. -1.
         22    1    1    0    0    0 -0.17429441127E+02  0.20211142710E+02  0.11037570976E+02  0.28880853185E+02  0.00000000000E+00 0. -1.
</event>
<event>
 5    1  0.1691066E-003  0.9118800E+02  0.7818608E-02  0.1130116E+00
         25   -1    0    0    0    0  0.00000000000E+00  0.00000000000E+00  0.99999998245E-14  0.12500000000E+03  0.12500000000E+03 0.  0.
        -13    1    3    3    0    0  0.10886344355E+01 -0.27535100098E+02  0.24439167933E+02  0.36832742982E+02  0.10566000000E+00 0. -1.
         23    2    1    0    0    0  0.62428404226E+01  0.28045412693E+02  0.57418688436E+01  0.95700046289E+02  0.91104399303E+02 0.  0.
         13    1    3    3    0    0  0.51542059871E+01  0.55580512790E+02 -0.18697299089E+02  0.58867303307E+02  0.10566000000E+00 0.  1.
         22    1    1    0    0    0 -0.62428404226E+01 -0.28045412693E+02 -0.57418688436E+01  0.29299953711E+02  0.00000000000E+00 0.  1.
</event>
<event>
 5    1  0.1691066E-003  0.9118800E+02  0.7818608E-02  0.1130116E+00
         25   -1    0    0    0    0  0.00000000000E+00  0.00000000000E+00  0.99999998245E-14  0.12500000000E+03  0.12500000000E+03 0.  0.
        -13    1    3    3    0    0 -0.95841700979E+01  0.79476900622E+01  0.33273490056E+02  0.35526868681E+02  0.10566000000E+00 0.  1.
         23    2    1    0    0    0  0.87279141210E+01 -0.23951678358E+02 -0.14385385335E+02  0.95728876136E+02  0.91143946776E+02 0.  0.
         13    1    3    3    0    0  0.18312084219E+02 -0.31899368420E+02 -0.47658875390E+02  0.60202007454E+02  0.10566000000E+00 0. -1.
         22    1    1    0    0    0 -0.87279141210E+01  0.23951678358E+02  0.14385385335E+02  0.29271123864E+02  0.00000000000E+00 0. -1.
</event>
<event>
 5    1  0.1691066E-003  0.9118800E+02  0.7818608E-02  0.1130116E+00
         25   -1    0    0    0    0  0.00000000000E+00  0.00000000000E+00  0.99999998245E-14  0.12500000000E+03  0.12500000000E+03 0.  0.
        -13    1    3    3    0    0  0.10450913901E+02  0.23294361088E+02 -0.55085835477E+02  0.60714984098E+02  0.10566000000E+00 0. -1.
         23    2    1    0    0    0  0.42405433652E+00  0.20233162239E+01 -0.29352234573E+02  0.95575056414E+02  0.90932744947E+02 0.  0.
         13    1    3    3    0    0 -0.10026859565E+02 -0.21271044864E+02  0.25733600904E+02  0.34860072316E+02  0.10566000000E+00 0.  1.
         22    1    1    0    0    0 -0.42405433652E+00 -0.20233162239E+01  0.29352234573E+02  0.29424943586E+02  0.00000000000E+00 0. -1.
</event>
<event>
 5    1  0.1691066E-003  0.9118800E+02  0.7818608E-02  0.1130116E+00
         25   -1    0    0    0    0  0.00000000000E+00  0.00000000000E+00  0.99999998245E-14  0.12500000000E+03  0.12500000000E+03 0.  0.
        -13    1    3    3    0    0  0.17537911568E+02  0.57503842270E+02 -0.11434474360E+02  0.61196638681E+02  0.10566000000E+00 0. -1.
         23    2    1    0    0    0  0.10117662819E+02  0.24347481233E+02 -0.13772341905E+02  0.95253666699E+02  0.90489870565E+02 0.  0.
         13    1    3    3    0    0 -0.74202487494E+01 -0.33156361037E+02 -0.23378675455E+01  0.34057028018E+02  0.10566000000E+00 0.  1.
         22    1    1    0    0    0 -0.10117662819E+02 -0.24347481233E+02  0.13772341905E+02  0.29746333301E+02  0.00000000000E+00 0. -1.
</event>
<event>
 5    1  0.1691066E-003  0.9118800E+02  0.7818608E-02  0.1130116E+00
         25   -1    0    0    0    0  0.00000000000E+00  0.00000000000E+00  0.99999998245E-14  0.12500000000E+03  0.12500000000E+03 0.  0.
        -13    1    3    3    0    0  0.41031991114E+02 -0.11780158201E+01 -0.39928978279E+01  0.41242774072E+02  0.10566000000E+00 0.  1.
         23    2    1    0    0    0 -0.44049235804E+01 -0.92798986401E+01  0.26512692194E+02  0.96566872879E+02  0.92286067311E+02 0.  0.
         13    1    3    3    0    0 -0.45436914695E+02 -0.81018828200E+01  0.30505590021E+02  0.55324098807E+02  0.10566000000E+00 0. -1.
         22    1    1    0    0    0  0.44049235804E+01  0.92798986401E+01 -0.26512692194E+02  0.28433127121E+02  0.00000000000E+00 0.  1.
</event>
<event>
 5    1  0.1691066E-003  0.9118800E+02  0.7818608E-02  0.1130116E+00
         25   -1    0    0    0    0  0.00000000000E+00  0.00000000000E+00  0.99999998245E-14  0.12500000000E+03  0.12500000000E+03 0.  0.
        -13    1    3    3    0    0 -0.16024736662E+02 -0.38192432186E+01 -0.44886153796E+02  0.47813771766E+02  0.10566000000E+00 0.  1.
         23    2    1    0    0    0  0.12472466789E+02 -0.23812817558E+02 -0.12524287300E+02  0.95344132448E+02  0.90614751073E+02 0.  0.
         13    1    3    3    0    0  0.28497203451E+02 -0.19993574340E+02  0.32361866496E+02  0.47530360682E+02  0.10566000000E+00 0. -1.
         22    1    1    0    0    0 -0.12472466789E+02  0.23812817558E+02  0.12524287300E+02  0.29655867552E+02  0.00000000000E+00 0. -1.
</event>
<event>
 5    1  0.1691066E-003  0.9118800E+02  0.7818608E-02  0.1130116E+00
         25   -1    0    0    0    0  0.00000000000E+00  0.00000000000E+00  0.99999998245E-14  0.12500000000E+03  0.12500000000E+03 0.  0.
        -13    1    3    3    0    0  0.40625178499E+02  0.27643891293E+02 -0.33304573788E+02  0.59361567139E+02  0.10566000000E+00 0.  1.
         23    2    1    0    0    0  0.22984475627E+02  0.53219856624E+00 -0.20657887874E+02  0.94091786098E+02  0.88870391721E+02 0.  0.
         13    1    3    3    0    0 -0.17640702872E+02 -0.27111692727E+02  0.12646685915E+02  0.34730218960E+02  0.10566000000E+00 0. -1.
         22    1    1    0    0    0 -0.22984475627E+02 -0.53219856624E+00  0.20657887874E+02  0.30908213902E+02  0.00000000000E+00 0.  1.
</event>
<event>
 5    1  0.1691066E-003  0.9118800E+02  0.7818608E-02  0.1130116E+00
         25   -1    0    0    0    0  0.00000000000E+00  0.00000000000E+00  0.99999998245E-14  0.12500000000E+03  0.12500000000E+03 0.  0.
        -13    1    3    3    0    0  0.52692125650E+01 -0.47901119127E+02 -0.25590222928E+02  0.54563288832E+02  0.10566000000E+00 0. -1.
         23    2    1    0    0    0 -0.18348790310E+02 -0.16414306712E+02 -0.17626582472E+02  0.94721228884E+02  0.89751363337E+02 0.  0.
         13    1    3    3    0    0 -0.23618002875E+02  0.31486812414E+02  0.79636404560E+01  0.40157940051E+02  0.10566000000E+00 0.  1.
         22    1    1    0    0    0  0.18348790310E+02  0.16414306712E+02  0.17626582472E+02  0.30278771116E+02  0.00000000000E+00 0. -1.
</event>
<event>
 5    1  0.1691066E-003  0.9118800E+02  0.7818608E-02  0.1130116E+00
         25   -1    0    0    0    0  0.00000000000E+00  0.00000000000E+00  0.99999998245E-14  0.12500000000E+03  0.12500000000E+03 0.  0.
        -13    1    3    3    0    0  0.50951503418E+02 -0.77759003035E+01  0.13605706870E+02  0.53307098491E+02  0.10566000000E+00 0.  1.
         23    2    1    0    0    0  0.16454067741E+02  0.16178440120E+02  0.18274733236E+02  0.95564576701E+02  0.90918337948E+02 0.  0.
         13    1    3    3    0    0 -0.34497435677E+02  0.23954340424E+02  0.46690263657E+01  0.42257478210E+02  0.10566000000E+00 0. -1.
         22    1    1    0    0    0 -0.16454067741E+02 -0.16178440120E+02 -0.18274733236E+02  0.29435423299E+02  0.00000000000E+00 0. -1.
</event>
<event>
 5    1  0.1691066E-003  0.9118800E+02  0.7818608E-02  0.1130116E+00
         25   -1    0    0    0    0  0.00000000000E+00  0.00000000000E+00  0.99999998245E-14  0.12500000000E+03  0.12500000000E+03 0.  0.
        -13    1    3    3    0    0 -0.14439289500E+02  0.23540896060E+02  0.27261011475E+02  0.38805164337E+02  0.10566000000E+00 0.  1.
         23    2    1    0    0    0  0.29576470821E+02 -0.62644311445E+00  0.11685200910E+01  0.95393826718E+02  0.90683276736E+02 0.  0.
         13    1    3    3    0    0  0.44015760320E+02 -0.24167339175E+02 -0.26092491384E+02  0.56588662381E+02  0.10566000000E+00 0. -1.
         22    1    1    0    0    0 -0.29576470821E+02  0.62644311445E+00 -0.11685200910E+01  0.29606173282E+02  0.00000000000E+00 0. -1.
</event>
<event>
 5    1  0.1691066E-003  0.9118800E+02  0.7818608E-02  0.1130116E+00
         25   -1    0    0    0    0  0.00000000000E+00  0.00000000000E+00  0.99999998245E-14  0.12500000000E+03  0.12500000000E+03 0.  0.
        -13    1    3    3    0    0 -0.27086749695E+01 -0.12791953065E+02 -0.32620784309E+02  0.35143957038E+02  0.10566000000E+00 0.  1.
         23    2    1    0    0    0 -0.91138496717E+01  0.24429062310E+02  0.14208963248E+02  0.95305960569E+02  0.90562078941E+02 0.  0.
         13    1    3    3    0    0 -0.64051747022E+01  0.37221015375E+02  0.46829747557E+02  0.60162003531E+02  0.10566000000E+00 0. -1.
         22    1    1    0    0    0  0.91138496717E+01 -0.24429062310E+02 -0.14208963248E+02  0.29694039431E+02  0.00000000000E+00 0. -1.
</event>
<event>
 5    1  0.1691066E-003  0.9118800E+02  0.7818608E-02  0.1130116E+00
         25   -1    0    0    0    0  0.00000000000E+00  0.00000000000E+00  0.99999998245E-14  0.12500000000E+03  0.12500000000E+03 0.  0.
        -13    1    3    3    0    0  0.51272153344E+02 -0.17364121305E+02 -0.18691950841E+02  0.57269071998E+02  0.10566000000E+00 0. -1.
         23    2    1    0    0    0  0.28727685802E+02  0.38106688167E+01  0.41583098594E+01  0.95723854945E+02  0.91137060169E+02 0.  0.
         13    1    3    3    0    0 -0.22544467542E+02  0.21174790121E+02  0.22850260700E+02  0.38454782947E+02  0.10566000000E+00 0.  1.
         22    1    1    0    0    0 -0.28727685802E+02 -0.38106688167E+01 -0.41583098594E+01  0.29276145055E+02  0.00000000000E+00 0. -1.
</event>
<event>
 5    1  0.1691066E-003  0.9118800E+02  0.7818608E-02  0.1130116E+00
         25   -1    0    0    0    0  0.00000000000E+00  0.00000000000E+00  0.99999998245E-14  0.12500000000E+03  0.12500000000E+03 0.  0.
        -13    1    3    3    0    0 -0.30406794510E+02  0.26859839234E+02  0.36839840444E+02  0.54801543080E+02  0.10566000000E+00 0. -1.
         23    2    1    0    0    0 -0.15473378597E+02 -0.89807704967E+01  0.22640651514E+02  0.96143825879E+02  0.91711266864E+02 0.  0.
         13    1    3    3    0    0  0.14933415913E+02 -0.35840609731E+02 -0.14199188930E+02  0.41342282799E+02  0.10566000000E+00 0.  1.
         22    1    1    0    0    0  0.15473378597E+02  0.89807704967E+01 -0.22640651514E+02  0.28856174121E+02  0.00000000000E+00 0. -1.
</event>
<event>
 5    1  0.1691066E-003  0.9118800E+02  0.7818608E-02  0.1130116E+00
         25   -1    0    0    0    0  0.00000000000E+00  0.00000000000E+00  0.99999998245E-14  0.12500000000E+03  0.12500000000E+03 0.  0.
        -13    1    3    3    0    0 -0.26897601371E+02 -0.61559757125E+01 -0.20913017415E+02  0.34622860337E+02  0.10566000000E+00 0.  1.
         23    2    1    0    0    0  0.21826570679E+02  0.10405924032E+02  0.14233443334E+02  0.96941608177E+02  0.92792252070E+02 0.  0.
         13    1    3    3    0    0  0.48724172050E+02  0.16561899745E+02  0.35146460749E+02  0.62318747840E+02  0.10566000000E+00 0. -1.
         22    1    1    0    0    0 -0.21826570679E+02 -0.10405924032E+02 -0.14233443334E+02  0.28058391823E+02  0.00000000000E+00 0. -1.
</event>
<event>
 5    1  0.1691066E-003  0.9118800E+02  0.7818608E-02  0.1130116E+00
         25   -1    0    0    0    0  0.00000000000E+00  0.00000000000E+00  0.99999998245E-14  0.12500000000E+03  0.12500000000E+03 0.  0.
        -13    1    3    3    0    0 -0.51058075428E+02  0.74126510508E+01 -0.10855817875E+02  0.52723186624E+02  0.10566000000E+00 0.  1.
         23    2    1    0    0    0 -0.23367759118E+02 -0.17492474001E+01  0.19274614794E+02  0.94658233273E+02  0.89663584126E+02 0.  0.
         13    1    3    3    0    0  0.27690316310E+02 -0.91618984508E+01  0.30130432669E+02  0.41935046649E+02  0.10566000000E+00 0. -1.
         22    1    1    0    0    0  0.23367759118E+02  0.17492474001E+01 -0.19274614794E+02  0.30341766727E+02  0.00000000000E+00 0. -1.
</event>
<event>
 5    1  0.1691066E-003  0.9118800E+02  0.7818608E-02  0.1130116E+00
         25   -1    0    0    0    0  0.00000000000E+00  0.00000000000E+00  0.99999998245E-14  0.12500000000E+03  0.12500000000E+03 0.  0.
        -13    1    3    3    0    0 -0.23986610913E+02  0.14180989113E+02  0.24238603276E+02  0.36932086430E+02  0.10566000000E+00 0.  1.
         23    2    1    0    0    0 -0.23172783558E+01 -0.23446065203E+02 -0.16312349406E+02  0.96343752939E+02  0.91983358466E+02 0.  0.
         13    1    3    3    0    0  0.21669332557E+02 -0.37627054315E+02 -0.40550952682E+02  0.59411666509E+02  0.10566000000E+00 0. -1.
         22    1    1    0    0    0  0.23172783558E+01  0.23446065203E+02  0.16312349406E+02  0.28656247061E+02  0.00000000000E+00 0. -1.
</event>
<event>
 5    1  0.1691066E-003  0.9118800E+02  0.7818608E-02  0.1130116E+00
         25   -1    0    0    0    0  0.00000000000E+00  0.00000000000E+00  0.99999998245E-14  0.12500000000E+03  0.12500000000E+03 0.  0.
        -13    1    3    3    0    0  0.37477673967E+02  0.55947572380E+01 -0.29313461387E+02  0.47907906832E+02  0.10566000000E+00 0.  1.
         23    2    1    0    0    0  0.22196900338E+02  0.73670782979E+01  0.16593513482E+02  0.96323861541E+02  0.91956323247E+02 0.  0.
         13    1    3    3    0    0 -0.15280773629E+02  0.17723210598E+01  0.45906974869E+02  0.48415954708E+02  0.10566000000E+00 0. -1.
         22    1    1    0    0    0 -0.22196900338E+02 -0.73670782979E+01 -0.16593513482E+02  0.28676138459E+02  0.00000000000E+00 0.  1.
</event>
<event>
 5    1  0.1691066E-003  0.9118800E+02  0.7818608E-02  0.1130116E+00
         25   -1    0    0    0    0  0.00000000000E+00  0.00000000000E+00  0.99999998245E-14  0.12500000000E+03  0.12500000000E+03 0.  0.
        -13    1    3    3    0    0  0.76435359454E+01  0.24453549875E+02  0.23140393568E+02  0.34523741422E+02  0.10566000000E+00 0.  1.
         23    2    1    0    0    0 -0.11555465762E+02 -0.25632241826E+02 -0.69642166993E+01  0.96033796862E+02  0.91561177447E+02 0.  0.
         13    1    3    3    0    0 -0.19199001708E+02 -0.50085791701E+02 -0.30104610267E+02  0.61510055440E+02  0.10566000000E+00 0. -1.
         22    1    1    0    0    0  0.11555465762E+02  0.25632241826E+02  0.69642166993E+01  0.28966203138E+02  0.00000000000E+00 0. -1.
</event>
<event>
 5    1  0.1691066E-003  0.9118800E+02  0.7818608E-02  0.1130116E+00
         25   -1    0    0    0    0  0.00000000000E+00  0.00000000000E+00  0.99999998245E-14  0.12500000000E+03  0.12500000000E+03 0.  0.
        -13    1    3    3    0    0 -0.12822167576E+02 -0.26931379308E+02  0.45463520319E+02  0.54375086360E+02  0.10566000000E+00 0.  1.
         23    2    1    0    0    0 -0.20342407385E+02 -0.13032304564E+02  0.18421430582E+01  0.10077092673E+03  0.97814782536E+02 0.  0.
         13    1    3    3    0    0 -0.75202398089E+01  0.13899074744E+02 -0.43621377261E+02  0.46395840371E+02  0.10566000000E+00 0. -1.
         22    1    1    0    0    0  0.20342407385E+02  0.13032304564E+02 -0.18421430582E+01  0.24229073270E+02  0.00000000000E+00 0.  1.
</event>
<event>
 5    1  0.1691066E-003  0.9118800E+02  0.7818608E-02  0.1130116E+00
         25   -1    0    0    0    0  0.00000000000E+00  0.00000000000E+00  0.99999998245E-14  0.12500000000E+03  0.12500000000E+03 0.  0.
        -13    1    3    3    0    0 -0.15165216699E+02 -0.46265292310E+01 -0.24166109815E+02  0.28903297353E+02  0.10566000000E+00 0.  1.
         23    2    1    0    0    0 -0.18620976637E-01  0.25031355324E+02  0.25866091317E+02  0.89005225711E+02  0.81402127907E+02 0.  0.
         13    1    3    3    0    0  0.15146595722E+02  0.29657884555E+02  0.50032201132E+02  0.60101928358E+02  0.10566000000E+00 0. -1.
         22    1    1    0    0    0  0.18620976637E-01 -0.25031355324E+02 -0.25866091317E+02  0.35994774289E+02  0.00000000000E+00 0. -1.
</event>
<event>
 5    1  0.1691066E-003  0.9118800E+02  0.7818608E-02  0.1130116E+00
         25   -1    0    0    0    0  0.00000000000E+00  0.00000000000E+00  0.99999998245E-14  0.12500000000E+03  0.12500000000E+03 0.  0.
        -13    1    3    3    0    0 -0.37773863898E+02 -0.62987680325E+01  0.47773775958E+02  0.61228131654E+02  0.10566000000E+00 0.  1.
         23    2    1    0    0    0 -0.15610922258E+02 -0.11502534185E+02  0.19947216683E+02  0.97180930285E+02  0.93114083635E+02 0.  0.
         13    1    3    3    0    0  0.22162941640E+02 -0.52037661528E+01 -0.27826559275E+02  0.35952798631E+02  0.10566000000E+00 0. -1.
         22    1    1    0    0    0  0.15610922258E+02  0.11502534185E+02 -0.19947216683E+02  0.27819069715E+02  0.00000000000E+00 0.  1.
</event>
<event>
 5    1  0.1691066E-003  0.9118800E+02  0.7818608E-02  0.1130116E+00
         25   -1    0    0    0    0  0.00000000000E+00  0.00000000000E+00  0.99999998245E-14  0.12500000000E+03  0.12500000000E+03 0.  0.
        -13    1    3    3    0    0 -0.26034939609E+02 -0.40510339742E+01 -0.30684360022E+02  0.40444654414E+02  0.10566000000E+00 0. -1.
         23    2    1    0    0    0  0.72938899243E+01 -0.11633830658E+02  0.19492052473E+02  0.10115703551E+03  0.98306962510E+02 0.  0.
         13    1    3    3    0    0  0.33328829533E+02 -0.75827966837E+01  0.50176412495E+02  0.60712381097E+02  0.10566000000E+00 0.  1.
         22    1    1    0    0    0 -0.72938899243E+01  0.11633830658E+02 -0.19492052473E+02  0.23842964489E+02  0.00000000000E+00 0.  1.
</event>
<event>
 5    1  0.1691066E-003  0.9118800E+02  0.7818608E-02  0.1130116E+00
         25   -1    0    0    0    0  0.00000000000E+00  0.00000000000E+00  0.99999998245E-14  0.12500000000E+03  0.12500000000E+03 0.  0.
        -13    1    3    3    0    0 -0.21253551584E+02  0.65235321849E+00 -0.56971815104E+02  0.60810672583E+02  0.10566000000E+00 0.  1.
         23    2    1    0    0    0 -0.13905085796E+02 -0.86490087483E+01 -0.23197821531E+02  0.96604653777E+02  0.92337226752E+02 0.  0.
         13    1    3    3    0    0  0.73484657885E+01 -0.93013619667E+01  0.33773993573E+02  0.35793981195E+02  0.10566000000E+00 0. -1.
         22    1    1    0    0    0  0.13905085796E+02  0.86490087483E+01  0.23197821531E+02  0.28395346223E+02  0.00000000000E+00 0.  1.
</event>
<event>
 5    1  0.1691066E-003  0.9118800E+02  0.7818608E-02  0.1130116E+00
         25   -1    0    0    0    0  0.00000000000E+00  0.00000000000E+00  0.99999998245E-14  0.12500000000E+03  0.12500000000E+03 0.  0.
        -13    1    3    3    0    0 -0.19430532707E+02  0.21832639572E+02  0.31048705648E+02  0.42640861136E+02  0.10566000000E+00 0.  1.
         23    2    1    0    0    0  0.82469004086E+01 -0.20816127555E+02  0.20660730835E+02  0.94533816593E+02  0.89489966747E+02 0.  0.
         13    1    3    3    0    0  0.27677433115E+02 -0.42648767127E+02 -0.10387974813E+02  0.51892955457E+02  0.10566000000E+00 0. -1.
         22    1    1    0    0    0 -0.82469004086E+01  0.20816127555E+02 -0.20660730835E+02  0.30466183407E+02  0.00000000000E+00 0. -1.
</event>
<event>
 5    1  0.1691066E-003  0.9118800E+02  0.7818608E-02  0.1130116E+00
         25   -1    0    0    0    0  0.00000000000E+00  0.00000000000E+00  0.99999998245E-14  0.12500000000E+03  0.12500000000E+03 0.  0.
        -13    1    3    3    0    0  0.23274385910E+02  0.49854765330E+02  0.97515447724E+01  0.55877530861E+02  0.10566000000E+00 0.  1.
         23    2    1    0    0    0  0.72559127385E+00  0.27213564464E+02 -0.12729400729E+02  0.94947675357E+02  0.90066191433E+02 0.  0.
         13    1    3    3    0    0 -0.22548794636E+02 -0.22641200867E+02 -0.22480945502E+02  0.39070144496E+02  0.10566000000E+00 0. -1.
         22    1    1    0    0    0 -0.72559127385E+00 -0.27213564464E+02  0.12729400729E+02  0.30052324643E+02  0.00000000000E+00 0.  1.
</event>
<event>
 5    1  0.1691066E-003  0.9118800E+02  0.7818608E-02  0.1130116E+00
         25   -1    0    0    0    0  0.00000000000E+00  0.00000000000E+00  0.99999998245E-14  0.12500000000E+03  0.12500000000E+03 0.  0.
        -13    1    3    3    0    0  0.15109111466E+02  0.23511717000E+02  0.47246315224E+02  0.54893638537E+02  0.10566000000E+00 0. -1.
         23    2    1    0    0    0 -0.85468267182E+01  0.26403497730E+02  0.22259170005E+02  0.89423833981E+02  0.82042418877E+02 0.  0.
         13    1    3    3    0    0 -0.23655938184E+02  0.28917807291E+01 -0.24987145219E+02  0.34530195444E+02  0.10566000000E+00 0.  1.
         22    1    1    0    0    0  0.85468267182E+01 -0.26403497730E+02 -0.22259170005E+02  0.35576166019E+02  0.00000000000E+00 0. -1.
</event>
<event>
 5    1  0.1691066E-003  0.9118800E+02  0.7818608E-02  0.1130116E+00
         25   -1    0    0    0    0  0.00000000000E+00  0.00000000000E+00  0.99999998245E-14  0.12500000000E+03  0.12500000000E+03 0.  0.
        -13    1    3    3    0    0  0.23297295651E+02 -0.12481785255E+02  0.42836973530E+02  0.50334644263E+02  0.10566000000E+00 0. -1.
         23    2    1    0    0    0  0.18398736782E+02  0.20616670314E+02  0.17692920464E+02  0.92188416001E+02  0.86151633764E+02 0.  0.
         13    1    3    3    0    0 -0.48985588696E+01  0.33098455569E+02 -0.25144053066E+02  0.41853771738E+02  0.10566000000E+00 0.  1.
         22    1    1    0    0    0 -0.18398736782E+02 -0.20616670314E+02 -0.17692920464E+02  0.32811583999E+02  0.00000000000E+00 0. -1.
</event>
<event>
 5    1  0.1691066E-003  0.9118800E+02  0.7818608E-02  0.1130116E+00
         25   -1    0    0    0    0  0.00000000000E+00  0.00000000000E+00  0.99999998245E-14  0.12500000000E+03  0.12500000000E+03 0.  0.
        -13    1    3    3    0    0  0.35339716480E+02 -0.16629823254E+02  0.10090764048E+02  0.40339574434E+02  0.10566000000E+00 0.  1.
         23    2    1    0    0    0  0.44443567229E+01  0.20216970178E+02 -0.19302242799E+02  0.96697089073E+02  0.92462274838E+02 0.  0.
         13    1    3    3    0    0 -0.30895359757E+02  0.36846793433E+02 -0.29393006847E+02  0.56357514639E+02  0.10566000000E+00 0. -1.
         22    1    1    0    0    0 -0.44443567229E+01 -0.20216970178E+02  0.19302242799E+02  0.28302910927E+02  0.00000000000E+00 0. -1.
</event>
<event>
 5    1  0.1691066E-003  0.9118800E+02  0.7818608E-02  0.1130116E+00
         25   -1    0    0    0    0  0.00000000000E+00  0.00000000000E+00  0.99999998245E-14  0.12500000000E+03  0.12500000000E+03 0.  0.
        -13    1    3    3    0    0 -0.27056594266E+02  0.27744999380E+02 -0.32072920627E+02  0.50304350562E+02  0.10566000000E+00 0.  1.
         23    2    1    0    0    0 -0.97233605070E+01  0.23430314080E+02  0.11313358306E+02  0.97223833354E+02  0.93171660597E+02 0.  0.
         13    1    3    3    0    0  0.17333233759E+02 -0.43146853004E+01  0.43386278932E+02  0.46919482792E+02  0.10566000000E+00 0. -1.
         22    1    1    0    0    0  0.97233605070E+01 -0.23430314080E+02 -0.11313358306E+02  0.27776166646E+02  0.00000000000E+00 0. -1.
</event>
<event>
 5    1  0.1691066E-003  0.9118800E+02  0.7818608E-02  0.1130116E+00
         25   -1    0    0    0    0  0.00000000000E+00  0.00000000000E+00  0.99999998245E-14  0.12500000000E+03  0.12500000000E+03 0.  0.
        -13    1    3    3    0    0  0.48581780635E+00  0.26732629926E+02 -0.27749365904E+02  0.38534503939E+02  0.10566000000E+00 0. -1.
         23    2    1    0    0    0 -0.27708911473E+02 -0.81730971542E+01  0.69853103688E+01  0.95278326880E+02  0.90523928991E+02 0.  0.
         13    1    3    3    0    0 -0.28194729279E+02 -0.34905727080E+02  0.34734676273E+02  0.56743822941E+02  0.10566000000E+00 0.  1.
         22    1    1    0    0    0  0.27708911473E+02  0.81730971542E+01 -0.69853103688E+01  0.29721673120E+02  0.00000000000E+00 0.  1.
</event>
<event>
 5    1  0.1691066E-003  0.9118800E+02  0.7818608E-02  0.1130116E+00
         25   -1    0    0    0    0  0.00000000000E+00  0.00000000000E+00  0.99999998245E-14  0.12500000000E+03  0.12500000000E+03 0.  0.
        -13    1    3    3    0    0  0.22516485744E+01  0.47263018031E+02  0.12940295574E+02  0.49054308764E+02  0.10566000000E+00 0. -1.
         23    2    1    0    0    0  0.32758277376E+01  0.43987293959E+01  0.29482748234E+02  0.95011463672E+02  0.90154677738E+02 0.  0.
         13    1    3    3    0    0  0.10241791632E+01 -0.42864288635E+02  0.16542452660E+02  0.45957154908E+02  0.10566000000E+00 0.  1.
         22    1    1    0    0    0 -0.32758277376E+01 -0.43987293959E+01 -0.29482748234E+02  0.29988536328E+02  0.00000000000E+00 0. -1.
</event>
<event>
 5    1  0.1691066E-003  0.9118800E+02  0.7818608E-02  0.1130116E+00
         25   -1    0    0    0    0  0.00000000000E+00  0.00000000000E+00  0.99999998245E-14  0.12500000000E+03  0.12500000000E+03 0.  0.
        -13    1    3    3    0    0 -0.19392566930E+02  0.35817520967E+02 -0.38795913578E+01  0.40914897696E+02  0.10566000000E+00 0.  1.
         23    2    1    0    0    0  0.34856322554E+01 -0.98646955057E+01 -0.26289890376E+02  0.96704767440E+02  0.92472654660E+02 0.  0.
         13    1    3    3    0    0  0.22878199186E+02 -0.45682216473E+02 -0.22410299019E+02  0.55789869743E+02  0.10566000000E+00 0. -1.
         22    1    1    0    0    0 -0.34856322554E+01  0.98646955057E+01  0.26289890376E+02  0.28295232560E+02  0.00000000000E+00 0. -1.
</event>
<event>
 5    1  0.1691066E-003  0.9118800E+02  0.7818608E-02  0.1130116E+00
         25   -1    0    0    0    0  0.00000000000E+00  0.00000000000E+00  0.99999998245E-14  0.12500000000E+03  0.12500000000E+03 0.  0.
        -13    1    3    3    0    0 -0.27531476063E+02 -0.17973471080E+02 -0.17720105903E+01  0.32926873864E+02  0.10566000000E+00 0.  1.
         23    2    1    0    0    0  0.30535471659E+02 -0.21723677546E+01  0.65970905482E+01  0.93684575449E+02  0.88295774884E+02 0.  0.
         13    1    3    3    0    0  0.58066947722E+02  0.15801103325E+02  0.83691011385E+01  0.60757701585E+02  0.10566000000E+00 0. -1.
         22    1    1    0    0    0 -0.30535471659E+02  0.21723677546E+01 -0.65970905482E+01  0.31315424551E+02  0.00000000000E+00 0. -1.
</event>
<event>
 5    1  0.1691066E-003  0.9118800E+02  0.7818608E-02  0.1130116E+00
         25   -1    0    0    0    0  0.00000000000E+00  0.00000000000E+00  0.99999998245E-14  0.12500000000E+03  0.12500000000E+03 0.  0.
        -13    1    3    3    0    0  0.52131604988E+01  0.23438050832E+02  0.33573630179E+02  0.41276132045E+02  0.10566000000E+00 0. -1.
         23    2    1    0    0    0 -0.26120863566E+02 -0.12001777786E+02  0.74993096040E+01  0.95291721221E+02  0.90542422683E+02 0.  0.
         13    1    3    3    0    0 -0.31334024065E+02 -0.35439828618E+02 -0.26074320575E+02  0.54015589176E+02  0.10566000000E+00 0.  1.
         22    1    1    0    0    0  0.26120863566E+02  0.12001777786E+02 -0.74993096040E+01  0.29708278779E+02  0.00000000000E+00 0.  1.
</event>
<event>
 5    1  0.1691066E-003  0.9118800E+02  0.7818608E-02  0.1130116E+00
         25   -1    0    0    0    0  0.00000000000E+00  0.00000000000E+00  0.99999998245E-14  0.12500000000E+03  0.12500000000E+03 0.  0.
        -13    1    3    3    0    0  0.12987948303E+02 -0.44407579901E+02 -0.41055073276E+02  0.61856690499E+02  0.10566000000E+00 0.  1.
         23    2    1    0    0    0  0.94660469390E+01 -0.23957528945E+02 -0.14909230868E+02  0.95236693684E+02  0.90466421510E+02 0.  0.
         13    1    3    3    0    0 -0.35219013643E+01  0.20450050956E+02  0.26145842408E+02  0.33380003184E+02  0.10566000000E+00 0. -1.
         22    1    1    0    0    0 -0.94660469390E+01  0.23957528945E+02  0.14909230868E+02  0.29763306316E+02  0.00000000000E+00 0.  1.
</event>
<event>
 5    1  0.1691066E-003  0.9118800E+02  0.7818608E-02  0.1130116E+00
         25   -1    0    0    0    0  0.00000000000E+00  0.00000000000E+00  0.99999998245E-14  0.12500000000E+03  0.12500000000E+03 0.  0.
        -13    1    3    3    0    0 -0.40633812576E+02  0.46343116943E+01  0.38249512970E+02  0.55996606824E+02  0.10566000000E+00 0.  1.
         23    2    1    0    0    0 -0.19464840522E+02 -0.17500068968E+02  0.12580656078E+02  0.95958558270E+02  0.91458403482E+02 0.  0.
         13    1    3    3    0    0  0.21168972054E+02 -0.22134380662E+02 -0.25668856892E+02  0.39961951445E+02  0.10566000000E+00 0. -1.
         22    1    1    0    0    0  0.19464840522E+02  0.17500068968E+02 -0.12580656078E+02  0.29041441730E+02  0.00000000000E+00 0.  1.
</event>
<event>
 5    1  0.1691066E-003  0.9118800E+02  0.7818608E-02  0.1130116E+00
         25   -1    0    0    0    0  0.00000000000E+00  0.00000000000E+00  0.99999998245E-14  0.12500000000E+03  0.12500000000E+03 0.  0.
        -13    1    3    3    0    0  0.97390691066E+01 -0.28366660234E+02  0.27702946663E+01  0.30119803726E+02  0.10566000000E+00 0. -1.
         23    2    1    0    0    0 -0.26705224604E+02  0.20647093553E+02  0.49724362354E+00  0.91240279259E+02  0.84764791126E+02 0.  0.
         13    1    3    3    0    0 -0.36444293710E+02  0.49013753787E+02 -0.22730510427E+01  0.61120475533E+02  0.10566000000E+00 0.  1.
         22    1    1    0    0    0  0.26705224604E+02 -0.20647093553E+02 -0.49724362354E+00  0.33759720741E+02  0.00000000000E+00 0.  1.
</event>
<event>
 5    1  0.1691066E-003  0.9118800E+02  0.7818608E-02  0.1130116E+00
         25   -1    0    0    0    0  0.00000000000E+00  0.00000000000E+00  0.99999998245E-14  0.12500000000E+03  0.12500000000E+03 0.  0.
        -13    1    3    3    0    0  0.26941040795E+02 -0.30564320744E+02  0.38307784187E+02  0.55924009826E+02  0.10566000000E+00 0. -1.
         23    2    1    0    0    0  0.27856914626E+02 -0.95993982022E+01  0.52628682869E+01  0.95069181085E+02  0.90234667790E+02 0.  0.
         13    1    3    3    0    0  0.91587383101E+00  0.20964922541E+02 -0.33044915900E+02  0.39145171259E+02  0.10566000000E+00 0.  1.
         22    1    1    0    0    0 -0.27856914626E+02  0.95993982022E+01 -0.52628682869E+01  0.29930818915E+02  0.00000000000E+00 0. -1.
</event>
<event>
 5    1  0.1691066E-003  0.9118800E+02  0.7818608E-02  0.1130116E+00
         25   -1    0    0    0    0  0.00000000000E+00  0.00000000000E+00  0.99999998245E-14  0.12500000000E+03  0.12500000000E+03 0.  0.
        -13    1    3    3    0    0 -0.64767179472E+01 -0.11294617310E+02 -0.22960451333E+02  0.26395259897E+02  0.10566000000E+00 0.  1.
         23    2    1    0    0    0  0.35363568566E+02  0.16493780240E+02  0.76792655431E+01  0.85230691638E+02  0.75383505553E+02 0.  0.
         13    1    3    3    0    0  0.41840286513E+02  0.27788397550E+02  0.30639716876E+02  0.58835431741E+02  0.10566000000E+00 0. -1.
         22    1    1    0    0    0 -0.35363568566E+02 -0.16493780240E+02 -0.76792655431E+01  0.39769308362E+02  0.00000000000E+00 0. -1.
</event>
<event>
 5    1  0.1691066E-003  0.9118800E+02  0.7818608E-02  0.1130116E+00
         25   -1    0    0    0    0  0.00000000000E+00  0.00000000000E+00  0.99999998245E-14  0.12500000000E+03  0.12500000000E+03 0.  0.
        -13    1    3    3    0    0 -0.15085687874E+02  0.18750546463E+02 -0.16644414451E+02  0.29261043518E+02  0.10566000000E+00 0. -1.
         23    2    1    0    0    0  0.22229078237E+02 -0.16056282725E+02  0.19116468858E+02  0.91572832668E+02  0.85253786819E+02 0.  0.
         13    1    3    3    0    0  0.37314766111E+02 -0.34806829188E+02  0.35760883309E+02  0.62311789151E+02  0.10566000000E+00 0.  1.
         22    1    1    0    0    0 -0.22229078237E+02  0.16056282725E+02 -0.19116468858E+02  0.33427167332E+02  0.00000000000E+00 0.  1.
</event>
<event>
 5    1  0.1691066E-003  0.9118800E+02  0.7818608E-02  0.1130116E+00
         25   -1    0    0    0    0  0.00000000000E+00  0.00000000000E+00  0.99999998245E-14  0.12500000000E+03  0.12500000000E+03 0.  0.
        -13    1    3    3    0    0 -0.28012240012E+02 -0.26273692379E+02  0.70930463409E+01  0.39055280976E+02  0.10566000000E+00 0.  1.
         23    2    1    0    0    0 -0.75918574577E+01  0.26123553663E+02  0.11502677436E+02  0.95463785892E+02  0.90779658916E+02 0.  0.
         13    1    3    3    0    0  0.20420382554E+02  0.52397246042E+02  0.44096310946E+01  0.56408504916E+02  0.10566000000E+00 0. -1.
         22    1    1    0    0    0  0.75918574577E+01 -0.26123553663E+02 -0.11502677436E+02  0.29536214108E+02  0.00000000000E+00 0. -1.
</event>
<event>
 5    1  0.1691066E-003  0.9118800E+02  0.7818608E-02  0.1130116E+00
         25   -1    0    0    0    0  0.00000000000E+00  0.00000000000E+00  0.99999998245E-14  0.12500000000E+03  0.12500000000E+03 0.  0.
        -13    1    3    3    0    0  0.26304868917E+02 -0.32566092839E+02  0.30859158843E+02  0.52007647323E+02  0.10566000000E+00 0.  1.
         23    2    1    0    0    0 -0.26058830570E+01 -0.30524638108E+02 -0.28982704049E-01  0.94364318220E+02  0.89252896619E+02 0.  0.
         13    1    3    3    0    0 -0.28910751974E+02  0.20414547311E+01 -0.30888141547E+02  0.42356670896E+02  0.10566000000E+00 0. -1.
         22    1    1    0    0    0  0.26058830570E+01  0.30524638108E+02  0.28982704049E-01  0.30635681780E+02  0.00000000000E+00 0.  1.
</event>
<event>
 5    1  0.1691066E-003  0.9118800E+02  0.7818608E-02  0.1130116E+00
         25   -1    0    0    0    0  0.00000000000E+00  0.00000000000E+00  0.99999998245E-14  0.12500000000E+03  0.12500000000E+03 0.  0.
        -13    1    3    3    0    0 -0.19426340058E+02  0.10082799195E+02 -0.37351536644E+02  0.43291962087E+02  0.10566000000E+00 0. -1.
         23    2    1    0    0    0  0.18110239887E+01 -0.27912270260E+02 -0.76033075805E+01  0.96014056422E+02  0.91534223684E+02 0.  0.
         13    1    3    3    0    0  0.21237364047E+02 -0.37995069455E+02  0.29748229063E+02  0.52722094335E+02  0.10566000000E+00 0.  1.
         22    1    1    0    0    0 -0.18110239887E+01  0.27912270260E+02  0.76033075805E+01  0.28985943578E+02  0.00000000000E+00 0.  1.
</event>
<event>
 5    1  0.1691066E-003  0.9118800E+02  0.7818608E-02  0.1130116E+00
         25   -1    0    0    0    0  0.00000000000E+00  0.00000000000E+00  0.99999998245E-14  0.12500000000E+03  0.12500000000E+03 0.  0.
        -13    1    3    3    0    0 -0.16537081563E+02  0.46659517956E+01  0.42086342808E+02  0.45458965978E+02  0.10566000000E+00 0. -1.
         23    2    1    0    0    0  0.19424874391E+02 -0.16639270404E+02  0.13712082831E+02  0.95979106143E+02  0.91486482803E+02 0.  0.
         13    1    3    3    0    0  0.35961955954E+02 -0.21305222200E+02 -0.28374259977E+02  0.50520140165E+02  0.10566000000E+00 0.  1.
         22    1    1    0    0    0 -0.19424874391E+02  0.16639270404E+02 -0.13712082831E+02  0.29020893857E+02  0.00000000000E+00 0.  1.
</event>
<event>
 5    1  0.1691066E-003  0.9118800E+02  0.7818608E-02  0.1130116E+00
         25   -1    0    0    0    0  0.00000000000E+00  0.00000000000E+00  0.99999998245E-14  0.12500000000E+03  0.12500000000E+03 0.  0.
        -13    1    3    3    0    0  0.22131078343E+02 -0.29537740467E+02 -0.27606276372E+02  0.46091001288E+02  0.10566000000E+00 0. -1.
         23    2    1    0    0    0 -0.18861430183E+02 -0.19660374192E+01 -0.22222672201E+02  0.95785859393E+02  0.91222063385E+02 0.  0.
         13    1    3    3    0    0 -0.40992508526E+02  0.27571703048E+02  0.53836041707E+01  0.49694858105E+02  0.10566000000E+00 0.  1.
         22    1    1    0    0    0  0.18861430183E+02  0.19660374192E+01  0.22222672201E+02  0.29214140607E+02  0.00000000000E+00 0.  1.
</event>
<event>
 5    1  0.1691066E-003  0.9118800E+02  0.7818608E-02  0.1130116E+00
         25   -1    0    0    0    0  0.00000000000E+00  0.00000000000E+00  0.99999998245E-14  0.12500000000E+03  0.12500000000E+03 0.  0.
        -13    1    3    3    0    0 -0.27796693911E+01  0.31171103071E+02  0.29038591797E+02  0.42692097702E+02  0.10566000000E+00 0. -1.
         23    2    1    0    0    0 -0.61159537649E+01 -0.20380627173E+02  0.21235974390E+02  0.94937706962E+02  0.90052355552E+02 0.  0.
         13    1    3    3    0    0 -0.33362843738E+01 -0.51551730244E+02 -0.78026174069E+01  0.52245609260E+02  0.10566000000E+00 0.  1.
         22    1    1    0    0    0  0.61159537649E+01  0.20380627173E+02 -0.21235974390E+02  0.30062293038E+02  0.00000000000E+00 0.  1.
</event>
<event>
 5    1  0.1691066E-003  0.9118800E+02  0.7818608E-02  0.1130116E+00
         25   -1    0    0    0    0  0.00000000000E+00  0.00000000000E+00  0.99999998245E-14  0.12500000000E+03  0.12500000000E+03 0.  0.
        -13    1    3    3    0    0 -0.33352590045E+02  0.32944120347E+02  0.92623060230E+01  0.47786104728E+02  0.10566000000E+00 0.  1.
         23    2    1    0    0    0  0.15346482076E+02  0.21862685868E+02  0.30373614940E+01  0.98116601586E+02  0.94361805814E+02 0.  0.
         13    1    3    3    0    0  0.48699072121E+02 -0.11081434479E+02 -0.62249445290E+01  0.50330496858E+02  0.10566000000E+00 0. -1.
         22    1    1    0    0    0 -0.15346482076E+02 -0.21862685868E+02 -0.30373614940E+01  0.26883398414E+02  0.00000000000E+00 0.  1.
</event>
<event>
 5    1  0.1691066E-003  0.9118800E+02  0.7818608E-02  0.1130116E+00
         25   -1    0    0    0    0  0.00000000000E+00  0.00000000000E+00  0.99999998245E-14  0.12500000000E+03  0.12500000000E+03 0.  0.
        -13    1    3    3    0    0  0.37333346621E+02 -0.20986019508E+01 -0.21535444255E+02  0.43150543720E+02  0.10566000000E+00 0.  1.
         23    2    1    0    0    0 -0.54072987414E+01 -0.28055195502E+02 -0.39554685630E+01  0.96155960652E+02  0.91727804744E+02 0.  0.
         13    1    3    3    0    0 -0.42740645362E+02 -0.25956593551E+02  0.17579975692E+02  0.53005416932E+02  0.10566000000E+00 0. -1.
         22    1    1    0    0    0  0.54072987414E+01  0.28055195502E+02  0.39554685630E+01  0.28844039348E+02  0.00000000000E+00 0.  1.
</event>
<event>
 5    1  0.1691066E-003  0.9118800E+02  0.7818608E-02  0.1130116E+00
         25   -1    0    0    0    0  0.00000000000E+00  0.00000000000E+00  0.99999998245E-14  0.12500000000E+03  0.12500000000E+03 0.  0.
        -13    1    3    3    0    0  0.33061820187E+02  0.15703127378E+02 -0.39516094193E+02  0.53862835312E+02  0.10566000000E+00 0. -1.
         23    2    1    0    0    0  0.22431063212E+02  0.15766155241E+02  0.27493610787E+01  0.97444905476E+02  0.93467782519E+02 0.  0.
         13    1    3    3    0    0 -0.10630756975E+02  0.63027862348E-01  0.42265455272E+02  0.43582070164E+02  0.10566000000E+00 0.  1.
         22    1    1    0    0    0 -0.22431063212E+02 -0.15766155241E+02 -0.27493610787E+01  0.27555094524E+02  0.00000000000E+00 0.  1.
</event>
<event>
 5    1  0.1691066E-003  0.9118800E+02  0.7818608E-02  0.1130116E+00
         25   -1    0    0    0    0  0.00000000000E+00  0.00000000000E+00  0.99999998245E-14  0.12500000000E+03  0.12500000000E+03 0.  0.
        -13    1    3    3    0    0 -0.11884385181E+02 -0.84123728347E+01 -0.35657597099E+02  0.38515996972E+02  0.10566000000E+00 0. -1.
         23    2    1    0    0    0 -0.39161097771E+02 -0.39406572197E+01  0.24181545841E+01  0.85566919604E+02  0.75938988016E+02 0.  0.
         13    1    3    3    0    0 -0.27276712590E+02  0.44717156150E+01  0.38075751683E+02  0.47050922632E+02  0.10566000000E+00 0.  1.
         22    1    1    0    0    0  0.39161097771E+02  0.39406572197E+01 -0.24181545841E+01  0.39433080396E+02  0.00000000000E+00 0.  1.
</event>
<event>
 5    1  0.1691066E-003  0.9118800E+02  0.7818608E-02  0.1130116E+00
         25   -1    0    0    0    0  0.00000000000E+00  0.00000000000E+00  0.99999998245E-14  0.12500000000E+03  0.12500000000E+03 0.  0.
        -13    1    3    3    0    0  0.26841632229E+02 -0.22513602394E+02  0.47419470938E+01  0.35352973563E+02  0.10566000000E+00 0.  1.
         23    2    1    0    0    0 -0.88521499708E+01  0.26862683386E+02 -0.19670385185E+01  0.96648041367E+02  0.92395943319E+02 0.  0.
         13    1    3    3    0    0 -0.35693782200E+02  0.49376285780E+02 -0.67089856122E+01  0.61295067804E+02  0.10566000000E+00 0. -1.
         22    1    1    0    0    0  0.88521499708E+01 -0.26862683386E+02  0.19670385185E+01  0.28351958633E+02  0.00000000000E+00 0. -1.
</event>
<event>
 5    1  0.1691066E-003  0.9118800E+02  0.7818608E-02  0.1130116E+00
         25   -1    0    0    0    0  0.00000000000E+00  0.00000000000E+00  0.99999998245E-14  0.12500000000E+03  0.12500000000E+03 0.  0.
        -13    1    3    3    0    0 -0.16463410623E+02  0.48011949312E+01  0.39248374737E+02  0.42831547318E+02  0.10566000000E+00 0.  1.
         23    2    1    0    0    0  0.25431727179E+02  0.97593181618E+01  0.47060527021E+01  0.97356484118E+02  0.93349456503E+02 0.  0.
         13    1    3    3    0    0  0.41895137802E+02  0.49581232306E+01 -0.34542322035E+02  0.54524936800E+02  0.10566000000E+00 0. -1.
         22    1    1    0    0    0 -0.25431727179E+02 -0.97593181618E+01 -0.47060527021E+01  0.27643515882E+02  0.00000000000E+00 0. -1.
</event>
<event>
 5    1  0.1691066E-003  0.9118800E+02  0.7818608E-02  0.1130116E+00
         25   -1    0    0    0    0  0.00000000000E+00  0.00000000000E+00  0.99999998245E-14  0.12500000000E+03  0.12500000000E+03 0.  0.
        -13    1    3    3    0    0  0.22646095063E+02 -0.19017338230E+02  0.36801057090E+02  0.47210525753E+02  0.10566000000E+00 0.  1.
         23    2    1    0    0    0  0.20389968416E+02  0.18232972342E+02  0.31402540589E+01  0.97467232468E+02  0.93497636960E+02 0.  0.
         13    1    3    3    0    0 -0.22561266473E+01  0.37250310571E+02 -0.33660803031E+02  0.50256706715E+02  0.10566000000E+00 0. -1.
         22    1    1    0    0    0 -0.20389968416E+02 -0.18232972342E+02 -0.31402540589E+01  0.27532767532E+02  0.00000000000E+00 0. -1.
</event>
<event>
 5    1  0.1691066E-003  0.9118800E+02  0.7818608E-02  0.1130116E+00
         25   -1    0    0    0    0  0.00000000000E+00  0.00000000000E+00  0.99999998245E-14  0.12500000000E+03  0.12500000000E+03 0.  0.
        -13    1    3    3    0    0  0.33096921722E+02  0.11836491577E+02  0.15221142591E+02  0.38304087330E+02  0.10566000000E+00 0.  1.
         23    2    1    0    0    0 -0.20542339783E+02  0.22395553126E+02  0.88791208958E+01  0.93339499192E+02  0.87805892729E+02 0.  0.
         13    1    3    3    0    0 -0.53639261505E+02  0.10559061549E+02 -0.63420216956E+01  0.55035411862E+02  0.10566000000E+00 0. -1.
         22    1    1    0    0    0  0.20542339783E+02 -0.22395553126E+02 -0.88791208958E+01  0.31660500808E+02  0.00000000000E+00 0. -1.
</event>
<event>
 5    1  0.1691066E-003  0.9118800E+02  0.7818608E-02  0.1130116E+00
         25   -1    0    0    0    0  0.00000000000E+00  0.00000000000E+00  0.99999998245E-14  0.12500000000E+03  0.12500000000E+03 0.  0.
        -13    1    3    3    0    0 -0.22816875100E+02 -0.17315851782E+02  0.23667392154E+02  0.37156495094E+02  0.10566000000E+00 0. -1.
         23    2    1    0    0    0 -0.99296711202E+01  0.17168580492E+02 -0.21713541620E+02  0.95591898831E+02  0.90955894299E+02 0.  0.
         13    1    3    3    0    0  0.12887203980E+02  0.34484432275E+02 -0.45380933773E+02  0.58435403737E+02  0.10566000000E+00 0.  1.
         22    1    1    0    0    0  0.99296711202E+01 -0.17168580492E+02  0.21713541620E+02  0.29408101169E+02  0.00000000000E+00 0.  1.
</event>
<event>
 5    1  0.1691066E-003  0.9118800E+02  0.7818608E-02  0.1130116E+00
         25   -1    0    0    0    0  0.00000000000E+00  0.00000000000E+00  0.99999998245E-14  0.12500000000E+03  0.12500000000E+03 0.  0.
        -13    1    3    3    0    0 -0.80385016938E+01  0.26158081606E+02 -0.20417951558E+02  0.34143325156E+02  0.10566000000E+00 0.  1.
         23    2    1    0    0    0  0.10807557338E+02 -0.27440970631E+02  0.24877253782E+01  0.95402720694E+02  0.90695535576E+02 0.  0.
         13    1    3    3    0    0  0.18846059032E+02 -0.53599052237E+02  0.22905676937E+02  0.61259395538E+02  0.10566000000E+00 0. -1.
         22    1    1    0    0    0 -0.10807557338E+02  0.27440970631E+02 -0.24877253782E+01  0.29597279306E+02  0.00000000000E+00 0. -1.
</event>
<event>
 5    1  0.1691066E-003  0.9118800E+02  0.7818608E-02  0.1130116E+00
         25   -1    0    0    0    0  0.00000000000E+00  0.00000000000E+00  0.99999998245E-14  0.12500000000E+03  0.12500000000E+03 0.  0.
        -13    1    3    3    0    0  0.23634385113E+02  0.31490832181E+02  0.42814636162E+02  0.58166664893E+02  0.10566000000E+00 0.  1.
         23    2    1    0    0    0  0.95083454462E+01  0.27199918991E+02  0.94099944012E+01  0.94688414412E+02  0.89705649782E+02 0.  0.
         13    1    3    3    0    0 -0.14126039667E+02 -0.42909131893E+01 -0.33404641761E+02  0.36521749518E+02  0.10566000000E+00 0. -1.
         22    1    1    0    0    0 -0.95083454462E+01 -0.27199918991E+02 -0.94099944012E+01  0.30311585588E+02  0.00000000000E+00 0.  1.
</event>
<event>
 5    1  0.1691066E-003  0.9118800E+02  0.7818608E-02  0.1130116E+00
         25   -1    0    0    0    0  0.00000000000E+00  0.00000000000E+00  0.99999998245E-14  0.12500000000E+03  0.12500000000E+03 0.  0.
        -13    1    3    3    0    0 -0.36860182401E+02 -0.20096046743E+02 -0.14255827568E+02  0.44336936352E+02  0.10566000000E+00 0. -1.
         23    2    1    0    0    0  0.11734472014E+02 -0.25870625037E+02  0.34620319919E+01  0.96382300253E+02  0.92035727103E+02 0.  0.
         13    1    3    3    0    0  0.48594654416E+02 -0.57745782940E+01  0.17717859560E+02  0.52045363902E+02  0.10566000000E+00 0.  1.
         22    1    1    0    0    0 -0.11734472014E+02  0.25870625037E+02 -0.34620319919E+01  0.28617699747E+02  0.00000000000E+00 0.  1.
</event>
<event>
 5    1  0.1691066E-003  0.9118800E+02  0.7818608E-02  0.1130116E+00
         25   -1    0    0    0    0  0.00000000000E+00  0.00000000000E+00  0.99999998245E-14  0.12500000000E+03  0.12500000000E+03 0.  0.
        -13    1    3    3    0    0 -0.28685423295E+02  0.78044727485E+01 -0.19264283304E+02  0.35424385382E+02  0.10566000000E+00 0.  1.
         23    2    1    0    0    0  0.25808554140E+02  0.12946314464E+02  0.56743904523E+01  0.95574038130E+02  0.90931345159E+02 0.  0.
         13    1    3    3    0    0  0.54493977435E+02  0.51418417152E+01  0.24938673756E+02  0.60149652747E+02  0.10566000000E+00 0. -1.
         22    1    1    0    0    0 -0.25808554140E+02 -0.12946314464E+02 -0.56743904523E+01  0.29425961870E+02  0.00000000000E+00 0. -1.
</event>
<event>
 5    1  0.1691066E-003  0.9118800E+02  0.7818608E-02  0.1130116E+00
         25   -1    0    0    0    0  0.00000000000E+00  0.00000000000E+00  0.99999998245E-14  0.12500000000E+03  0.12500000000E+03 0.  0.
        -13    1    3    3    0    0 -0.19247800046E+02 -0.18526373854E+02 -0.53681189753E+02  0.59961534605E+02  0.10566000000E+00 0.  1.
         23    2    1    0    0    0 -0.78716580131E+01  0.31834492504E+01 -0.29148254908E+02  0.94640189177E+02  0.89638425322E+02 0.  0.
         13    1    3    3    0    0  0.11376142033E+02  0.21709823105E+02  0.24532934845E+02  0.34678654572E+02  0.10566000000E+00 0. -1.
         22    1    1    0    0    0  0.78716580131E+01 -0.31834492504E+01  0.29148254908E+02  0.30359810823E+02  0.00000000000E+00 0.  1.
</event>
<event>
 5    1  0.1691066E-003  0.9118800E+02  0.7818608E-02  0.1130116E+00
         25   -1    0    0    0    0  0.00000000000E+00  0.00000000000E+00  0.99999998245E-14  0.12500000000E+03  0.12500000000E+03 0.  0.
        -13    1    3    3    0    0 -0.15083913596E+02 -0.45972078759E+02  0.25630333411E+02  0.54752914348E+02  0.10566000000E+00 0.  1.
         23    2    1    0    0    0 -0.10063977714E+01 -0.81885672057E+01 -0.12351819315E+02  0.11014628297E+03  0.10914014267E+03 0.  0.
         13    1    3    3    0    0  0.14077515825E+02  0.37783511553E+02 -0.37982152726E+02  0.55393368618E+02  0.10566000000E+00 0. -1.
         22    1    1    0    0    0  0.10063977714E+01  0.81885672057E+01  0.12351819315E+02  0.14853717035E+02  0.00000000000E+00 0. -1.
</event>
<event>
 5    1  0.1691066E-003  0.9118800E+02  0.7818608E-02  0.1130116E+00
         25   -1    0    0    0    0  0.00000000000E+00  0.00000000000E+00  0.99999998245E-14  0.12500000000E+03  0.12500000000E+03 0.  0.
        -13    1    3    3    0    0  0.12306766345E+02 -0.13528025507E+02 -0.36708719570E+02  0.41012257052E+02  0.10566000000E+00 0. -1.
         23    2    1    0    0    0  0.25118807355E+02  0.11184623831E+01  0.14626149222E+02  0.95911691660E+02  0.91394326492E+02 0.  0.
         13    1    3    3    0    0  0.12812041010E+02  0.14646487890E+02  0.51334868792E+02  0.54899434608E+02  0.10566000000E+00 0.  1.
         22    1    1    0    0    0 -0.25118807355E+02 -0.11184623831E+01 -0.14626149222E+02  0.29088308340E+02  0.00000000000E+00 0.  1.
</event>
<event>
 5    1  0.1691066E-003  0.9118800E+02  0.7818608E-02  0.1130116E+00
         25   -1    0    0    0    0  0.00000000000E+00  0.00000000000E+00  0.99999998245E-14  0.12500000000E+03  0.12500000000E+03 0.  0.
        -13    1    3    3    0    0 -0.27831279842E+02  0.55405590796E+01  0.30060324531E+01  0.28536386031E+02  0.10566000000E+00 0. -1.
         23    2    1    0    0    0  0.32819165852E+02  0.85017467169E+01 -0.77966032801E+01  0.90212583206E+02  0.83235484029E+02 0.  0.
         13    1    3    3    0    0  0.60650445694E+02  0.29611876373E+01 -0.10802635733E+02  0.61676197175E+02  0.10566000000E+00 0.  1.
         22    1    1    0    0    0 -0.32819165852E+02 -0.85017467169E+01  0.77966032801E+01  0.34787416794E+02  0.00000000000E+00 0.  1.
</event>
<event>
 5    1  0.1691066E-003  0.9118800E+02  0.7818608E-02  0.1130116E+00
         25   -1    0    0    0    0  0.00000000000E+00  0.00000000000E+00  0.99999998245E-14  0.12500000000E+03  0.12500000000E+03 0.  0.
        -13    1    3    3    0    0 -0.11730258124E+02  0.22953402798E+02 -0.26519519998E+02  0.36983155093E+02  0.10566000000E+00 0.  1.
         23    2    1    0    0    0 -0.13212627147E+02 -0.13226689717E+02  0.21101694243E+02  0.96807796522E+02  0.92611819605E+02 0.  0.
         13    1    3    3    0    0 -0.14823690231E+01 -0.36180092514E+02  0.47621214242E+02  0.59824641429E+02  0.10566000000E+00 0. -1.
         22    1    1    0    0    0  0.13212627147E+02  0.13226689717E+02 -0.21101694243E+02  0.28192203478E+02  0.00000000000E+00 0. -1.
</event>
<event>
 5    1  0.1691066E-003  0.9118800E+02  0.7818608E-02  0.1130116E+00
         25   -1    0    0    0    0  0.00000000000E+00  0.00000000000E+00  0.99999998245E-14  0.12500000000E+03  0.12500000000E+03 0.  0.
        -13    1    3    3    0    0  0.31684066509E+02 -0.94907361766E+01  0.10247927630E+02  0.34626367532E+02  0.10566000000E+00 0. -1.
         23    2    1    0    0    0 -0.24597439777E+02 -0.19732195098E+02 -0.29292323805E+01  0.93330235724E+02  0.87792704315E+02 0.  0.
         13    1    3    3    0    0 -0.56281506286E+02 -0.10241458921E+02 -0.13177160010E+02  0.58703868192E+02  0.10566000000E+00 0.  1.
         22    1    1    0    0    0  0.24597439777E+02  0.19732195098E+02  0.29292323805E+01  0.31669764276E+02  0.00000000000E+00 0.  1.
</event>
<event>
 5    1  0.1691066E-003  0.9118800E+02  0.7818608E-02  0.1130116E+00
         25   -1    0    0    0    0  0.00000000000E+00  0.00000000000E+00  0.99999998245E-14  0.12500000000E+03  0.12500000000E+03 0.  0.
        -13    1    3    3    0    0  0.38201656511E+02  0.31184410749E+02  0.36596327690E+02  0.61409579044E+02  0.10566000000E+00 0.  1.
         23    2    1    0    0    0  0.21308138116E+02  0.70757936370E+01  0.17926197807E+02  0.96269316517E+02  0.91882148045E+02 0.  0.
         13    1    3    3    0    0 -0.16893518395E+02 -0.24108617112E+02 -0.18670129883E+02  0.34859737473E+02  0.10566000000E+00 0. -1.
         22    1    1    0    0    0 -0.21308138116E+02 -0.70757936370E+01 -0.17926197807E+02  0.28730683483E+02  0.00000000000E+00 0.  1.
</event>
<event>
 5    1  0.1691066E-003  0.9118800E+02  0.7818608E-02  0.1130116E+00
         25   -1    0    0    0    0  0.00000000000E+00  0.00000000000E+00  0.99999998245E-14  0.12500000000E+03  0.12500000000E+03 0.  0.
        -13    1    3    3    0    0 -0.84608350076E+01  0.39331095414E+02 -0.33659773798E+00  0.40232390652E+02  0.10566000000E+00 0. -1.
         23    2    1    0    0    0 -0.22352459029E+02 -0.11361853593E+02  0.15977296384E+02  0.95267893761E+02  0.90509521268E+02 0.  0.
         13    1    3    3    0    0 -0.13891624021E+02 -0.50692949007E+02  0.16313894122E+02  0.55035503109E+02  0.10566000000E+00 0.  1.
         22    1    1    0    0    0  0.22352459029E+02  0.11361853593E+02 -0.15977296384E+02  0.29732106239E+02  0.00000000000E+00 0.  1.
</event>
<event>
 5    1  0.1691066E-003  0.9118800E+02  0.7818608E-02  0.1130116E+00
         25   -1    0    0    0    0  0.00000000000E+00  0.00000000000E+00  0.99999998245E-14  0.12500000000E+03  0.12500000000E+03 0.  0.
        -13    1    3    3    0    0  0.36881769770E+02 -0.33088884631E+02 -0.32875668502E+02  0.59463938408E+02  0.10566000000E+00 0. -1.
         23    2    1    0    0    0  0.25892780597E+02 -0.71737982299E+01 -0.81696483376E+01  0.96917218406E+02  0.92759390907E+02 0.  0.
         13    1    3    3    0    0 -0.10988989172E+02  0.25915086401E+02  0.24706020164E+02  0.37453279998E+02  0.10566000000E+00 0.  1.
         22    1    1    0    0    0 -0.25892780597E+02  0.71737982299E+01  0.81696483376E+01  0.28082781594E+02  0.00000000000E+00 0. -1.
</event>
<event>
 5    1  0.1691066E-003  0.9118800E+02  0.7818608E-02  0.1130116E+00
         25   -1    0    0    0    0  0.00000000000E+00  0.00000000000E+00  0.99999998245E-14  0.12500000000E+03  0.12500000000E+03 0.  0.
        -13    1    3    3    0    0 -0.34323857854E+02 -0.15103896289E+02  0.13704681541E+02  0.39925986040E+02  0.10566000000E+00 0.  1.
         23    2    1    0    0    0 -0.72150395371E+01  0.28189046244E+02 -0.70480004438E+01  0.95060837788E+02  0.90223109274E+02 0.  0.
         13    1    3    3    0    0  0.27108818317E+02  0.43292942533E+02 -0.20752681985E+02  0.55134851748E+02  0.10566000000E+00 0. -1.
         22    1    1    0    0    0  0.72150395371E+01 -0.28189046244E+02  0.70480004438E+01  0.29939162212E+02  0.00000000000E+00 0. -1.
</event>
<event>
 5    1  0.1691066E-003  0.9118800E+02  0.7818608E-02  0.1130116E+00
         25   -1    0    0    0    0  0.00000000000E+00  0.00000000000E+00  0.99999998245E-14  0.12500000000E+03  0.12500000000E+03 0.  0.
        -13    1    3    3    0    0 -0.18028885670E+02 -0.87355860065E+01 -0.37175815376E+02  0.42230363416E+02  0.10566000000E+00 0. -1.
         23    2    1    0    0    0  0.11572941977E+02 -0.26733903914E+02  0.34988953736E+01  0.95659296646E+02  0.91048471495E+02 0.  0.
         13    1    3    3    0    0  0.29601827647E+02 -0.17998317907E+02  0.40674710749E+02  0.53428933230E+02  0.10566000000E+00 0.  1.
         22    1    1    0    0    0 -0.11572941977E+02  0.26733903914E+02 -0.34988953736E+01  0.29340703354E+02  0.00000000000E+00 0.  1.
</event>
<event>
 5    1  0.1691066E-003  0.9118800E+02  0.7818608E-02  0.1130116E+00
         25   -1    0    0    0    0  0.00000000000E+00  0.00000000000E+00  0.99999998245E-14  0.12500000000E+03  0.12500000000E+03 0.  0.
        -13    1    3    3    0    0  0.30830418571E+02  0.33416182498E+01 -0.23482633774E+02  0.38898925110E+02  0.10566000000E+00 0. -1.
         23    2    1    0    0    0 -0.88134505037E+01  0.22444610167E+02  0.14356619679E+02  0.96936679385E+02  0.92785612281E+02 0.  0.
         13    1    3    3    0    0 -0.39643869074E+02  0.19102991917E+02  0.37839253453E+02  0.58037754275E+02  0.10566000000E+00 0.  1.
         22    1    1    0    0    0  0.88134505037E+01 -0.22444610167E+02 -0.14356619679E+02  0.28063320615E+02  0.00000000000E+00 0.  1.
</event>
<event>
 5    1  0.1691066E-003  0.9118800E+02  0.7818608E-02  0.1130116E+00
         25   -1    0    0    0    0  0.00000000000E+00  0.00000000000E+00  0.99999998245E-14  0.12500000000E+03  0.12500000000E+03 0.  0.
        -13    1    3    3    0    0  0.24061423414E+02 -0.56363817283E+02  0.94679206713E+01  0.62011972080E+02  0.10566000000E+00 0. -1.
         23    2    1    0    0    0  0.11791445487E+02 -0.40310962482E+02  0.77557469869E+01  0.82289772956E+02  0.70338063940E+02 0.  0.
         13    1    3    3    0    0 -0.12269977927E+02  0.16052854801E+02 -0.17121736844E+01  0.20277800876E+02  0.10566000000E+00 0.  1.
         22    1    1    0    0    0 -0.11791445487E+02  0.40310962482E+02 -0.77557469869E+01  0.42710227044E+02  0.00000000000E+00 0. -1.
</event>
<event>
 5    1  0.1691066E-003  0.9118800E+02  0.7818608E-02  0.1130116E+00
         25   -1    0    0    0    0  0.00000000000E+00  0.00000000000E+00  0.99999998245E-14  0.12500000000E+03  0.12500000000E+03 0.  0.
        -13    1    3    3    0    0  0.20107866889E+02  0.21940449011E+02 -0.26622954982E+02  0.39931222240E+02  0.10566000000E+00 0. -1.
         23    2    1    0    0    0 -0.13951258300E+02  0.15169199844E+02  0.18797653915E+02  0.97105663213E+02  0.93012987282E+02 0.  0.
         13    1    3    3    0    0 -0.34059125189E+02 -0.67712491665E+01  0.45420608897E+02  0.57174440973E+02  0.10566000000E+00 0.  1.
         22    1    1    0    0    0  0.13951258300E+02 -0.15169199844E+02 -0.18797653915E+02  0.27894336787E+02  0.00000000000E+00 0.  1.
</event>
<event>
 5    1  0.1691066E-003  0.9118800E+02  0.7818608E-02  0.1130116E+00
         25   -1    0    0    0    0  0.00000000000E+00  0.00000000000E+00  0.99999998245E-14  0.12500000000E+03  0.12500000000E+03 0.  0.
        -13    1    3    3    0    0  0.28448996230E+02  0.50772268374E+02 -0.13624675149E+02  0.59773000253E+02  0.10566000000E+00 0.  1.
         23    2    1    0    0    0  0.23899896936E+02  0.16913673997E+02 -0.29119125395E+01  0.95576256590E+02  0.90934394744E+02 0.  0.
         13    1    3    3    0    0 -0.45490992933E+01 -0.33858594377E+02  0.10712762609E+02  0.35803256337E+02  0.10566000000E+00 0. -1.
         22    1    1    0    0    0 -0.23899896936E+02 -0.16913673997E+02  0.29119125395E+01  0.29423743410E+02  0.00000000000E+00 0.  1.
</event>
<event>
 5    1  0.1691066E-003  0.9118800E+02  0.7818608E-02  0.1130116E+00
         25   -1    0    0    0    0  0.00000000000E+00  0.00000000000E+00  0.99999998245E-14  0.12500000000E+03  0.12500000000E+03 0.  0.
        -13    1    3    3    0    0 -0.30321191616E+02  0.47494934321E+02  0.14058249000E+02  0.58075717612E+02  0.10566000000E+00 0. -1.
         23    2    1    0    0    0 -0.22863560898E+01  0.20072585224E+02  0.18580641100E+02  0.97552298358E+02  0.93611295203E+02 0.  0.
         13    1    3    3    0    0  0.28034835526E+02 -0.27422349098E+02  0.45223921008E+01  0.39476580746E+02  0.10566000000E+00 0.  1.
         22    1    1    0    0    0  0.22863560898E+01 -0.20072585224E+02 -0.18580641100E+02  0.27447701642E+02  0.00000000000E+00 0.  1.
</event>
<event>
 5    1  0.1691066E-003  0.9118800E+02  0.7818608E-02  0.1130116E+00
         25   -1    0    0    0    0  0.00000000000E+00  0.00000000000E+00  0.99999998245E-14  0.12500000000E+03  0.12500000000E+03 0.  0.
        -13    1    3    3    0    0 -0.15036170062E+02 -0.23117030831E+01  0.34575126526E+02  0.37774077349E+02  0.10566000000E+00 0.  1.
         23    2    1    0    0    0  0.74632067295E+01  0.25346679031E+02 -0.11625804044E+02  0.96132840246E+02  0.91696292517E+02 0.  0.
         13    1    3    3    0    0  0.22499376791E+02  0.27658382114E+02 -0.46200930570E+02  0.58358762896E+02  0.10566000000E+00 0. -1.
         22    1    1    0    0    0 -0.74632067295E+01 -0.25346679031E+02  0.11625804044E+02  0.28867159754E+02  0.00000000000E+00 0. -1.
</event>
<event>
 5    1  0.1691066E-003  0.9118800E+02  0.7818608E-02  0.1130116E+00
         25   -1    0    0    0    0  0.00000000000E+00  0.00000000000E+00  0.99999998245E-14  0.12500000000E+03  0.12500000000E+03 0.  0.
        -13    1    3    3    0    0  0.31625801663E+02 -0.21973648819E+02 -0.28223985243E+01  0.38613594377E+02  0.10566000000E+00 0. -1.
         23    2    1    0    0    0 -0.25472902377E+02 -0.12742286784E+02 -0.10472809506E+00  0.96517626574E+02  0.92219339856E+02 0.  0.
         13    1    3    3    0    0 -0.57098704040E+02  0.92313620347E+01  0.27176704293E+01  0.57904032197E+02  0.10566000000E+00 0.  1.
         22    1    1    0    0    0  0.25472902377E+02  0.12742286784E+02  0.10472809506E+00  0.28482373426E+02  0.00000000000E+00 0.  1.
</event>
<event>
 5    1  0.1691066E-003  0.9118800E+02  0.7818608E-02  0.1130116E+00
         25   -1    0    0    0    0  0.00000000000E+00  0.00000000000E+00  0.99999998245E-14  0.12500000000E+03  0.12500000000E+03 0.  0.
        -13    1    3    3    0    0  0.25673122084E+02 -0.31194951387E+01  0.34261130434E+02  0.42926409937E+02  0.10566000000E+00 0. -1.
         23    2    1    0    0    0 -0.39416550025E+01 -0.29090665037E+02 -0.76038992365E+00  0.95633665035E+02  0.91013275179E+02 0.  0.
         13    1    3    3    0    0 -0.29614777087E+02 -0.25971169898E+02 -0.35021520357E+02  0.52707255098E+02  0.10566000000E+00 0.  1.
         22    1    1    0    0    0  0.39416550025E+01  0.29090665037E+02  0.76038992365E+00  0.29366334965E+02  0.00000000000E+00 0.  1.
</event>
<event>
 5    1  0.1691066E-003  0.9118800E+02  0.7818608E-02  0.1130116E+00
         25   -1    0    0    0    0  0.00000000000E+00  0.00000000000E+00  0.99999998245E-14  0.12500000000E+03  0.12500000000E+03 0.  0.
        -13    1    3    3    0    0  0.15190460060E+02  0.21810955765E+02  0.55750529892E+02  0.61762453120E+02  0.10566000000E+00 0.  1.
         23    2    1    0    0    0  0.13909447409E+01  0.13836283052E+02  0.25535097365E+02  0.95923916127E+02  0.91411044364E+02 0.  0.
         13    1    3    3    0    0 -0.13799515319E+02 -0.79746727131E+01 -0.30215432527E+02  0.34161463006E+02  0.10566000000E+00 0. -1.
         22    1    1    0    0    0 -0.13909447409E+01 -0.13836283052E+02 -0.25535097365E+02  0.29076083873E+02  0.00000000000E+00 0.  1.
</event>
<event>
 5    1  0.1691066E-003  0.9118800E+02  0.7818608E-02  0.1130116E+00
         25   -1    0    0    0    0  0.00000000000E+00  0.00000000000E+00  0.99999998245E-14  0.12500000000E+03  0.12500000000E+03 0.  0.
        -13    1    3    3    0    0  0.12770958506E+02  0.33856109765E+00 -0.34170901978E+02  0.36481141852E+02  0.10566000000E+00 0. -1.
         23    2    1    0    0    0  0.77312299345E+01 -0.24018752909E+02  0.17815785644E+02  0.94111901553E+02  0.88898680463E+02 0.  0.
         13    1    3    3    0    0 -0.50397285712E+01 -0.24357314006E+02  0.51986687622E+02  0.57630759701E+02  0.10566000000E+00 0.  1.
         22    1    1    0    0    0 -0.77312299345E+01  0.24018752909E+02 -0.17815785644E+02  0.30888098447E+02  0.00000000000E+00 0.  1.
</event>
<event>
 5    1  0.1691066E-003  0.9118800E+02  0.7818608E-02  0.1130116E+00
         25   -1    0    0    0    0  0.00000000000E+00  0.00000000000E+00  0.99999998245E-14  0.12500000000E+03  0.12500000000E+03 0.  0.
        -13    1    3    3    0    0 -0.50833550970E+02  0.25168747279E+02  0.17584170757E+02  0.59386277616E+02  0.10566000000E+00 0.  1.
         23    2    1    0    0    0 -0.16390897840E+02  0.22993590974E+02  0.11875990174E+02  0.94366588494E+02  0.89256076115E+02 0.  0.
         13    1    3    3    0    0  0.34442653130E+02 -0.21751563054E+01 -0.57081805833E+01  0.34980310879E+02  0.10566000000E+00 0. -1.
         22    1    1    0    0    0  0.16390897840E+02 -0.22993590974E+02 -0.11875990174E+02  0.30633411506E+02  0.00000000000E+00 0.  1.
</event>
<event>
 5    1  0.1691066E-003  0.9118800E+02  0.7818608E-02  0.1130116E+00
         25   -1    0    0    0    0  0.00000000000E+00  0.00000000000E+00  0.99999998245E-14  0.12500000000E+03  0.12500000000E+03 0.  0.
        -13    1    3    3    0    0 -0.18590241649E+02 -0.54367443164E+02  0.18326342674E+02  0.60309882778E+02  0.10566000000E+00 0.  1.
         23    2    1    0    0    0  0.21590821026E+01 -0.27148916714E+02  0.12523496409E+02  0.95023954954E+02  0.90171995312E+02 0.  0.
         13    1    3    3    0    0  0.20749323752E+02  0.27218526450E+02 -0.58028462650E+01  0.34714072177E+02  0.10566000000E+00 0. -1.
         22    1    1    0    0    0 -0.21590821026E+01  0.27148916714E+02 -0.12523496409E+02  0.29976045046E+02  0.00000000000E+00 0.  1.
</event>
<event>
 5    1  0.1691066E-003  0.9118800E+02  0.7818608E-02  0.1130116E+00
         25   -1    0    0    0    0  0.00000000000E+00  0.00000000000E+00  0.99999998245E-14  0.12500000000E+03  0.12500000000E+03 0.  0.
        -13    1    3    3    0    0 -0.22122670257E+02  0.55480892162E+01 -0.48129264192E+02  0.53260032567E+02  0.10566000000E+00 0. -1.
         23    2    1    0    0    0 -0.97707703257E+01  0.24126207151E+02 -0.10651845469E+02  0.96875213136E+02  0.92702768481E+02 0.  0.
         13    1    3    3    0    0  0.12351899932E+02  0.18578117935E+02  0.37477418724E+02  0.43615180570E+02  0.10566000000E+00 0.  1.
         22    1    1    0    0    0  0.97707703257E+01 -0.24126207151E+02  0.10651845469E+02  0.28124786864E+02  0.00000000000E+00 0. -1.
</event>
<event>
 5    1  0.1691066E-003  0.9118800E+02  0.7818608E-02  0.1130116E+00
         25   -1    0    0    0    0  0.00000000000E+00  0.00000000000E+00  0.99999998245E-14  0.12500000000E+03  0.12500000000E+03 0.  0.
        -13    1    3    3    0    0  0.16020567824E+02 -0.38217159067E+02 -0.11227707418E+02  0.42933465018E+02  0.10566000000E+00 0.  1.
         23    2    1    0    0    0 -0.21761270499E+02 -0.70151545743E+00 -0.18187835334E+02  0.96630256050E+02  0.92371878905E+02 0.  0.
         13    1    3    3    0    0 -0.37781838323E+02  0.37515643609E+02 -0.69601279167E+01  0.53696791032E+02  0.10566000000E+00 0. -1.
         22    1    1    0    0    0  0.21761270499E+02  0.70151545743E+00  0.18187835334E+02  0.28369743950E+02  0.00000000000E+00 0. -1.
</event>
<event>
 5    1  0.1691066E-003  0.9118800E+02  0.7818608E-02  0.1130116E+00
         25   -1    0    0    0    0  0.00000000000E+00  0.00000000000E+00  0.99999998245E-14  0.12500000000E+03  0.12500000000E+03 0.  0.
        -13    1    3    3    0    0 -0.43297863084E+01 -0.34169434687E+02 -0.28766002649E+02  0.44875287060E+02  0.10566000000E+00 0.  1.
         23    2    1    0    0    0  0.14866653701E+02  0.13271808978E+02 -0.19939497202E+02  0.96808833751E+02  0.92613219563E+02 0.  0.
         13    1    3    3    0    0  0.19196440010E+02  0.47441243664E+02  0.88265054470E+01  0.51933546691E+02  0.10566000000E+00 0. -1.
         22    1    1    0    0    0 -0.14866653701E+02 -0.13271808978E+02  0.19939497202E+02  0.28191166249E+02  0.00000000000E+00 0. -1.
</event>
<event>
 5    1  0.1691066E-003  0.9118800E+02  0.7818608E-02  0.1130116E+00
         25   -1    0    0    0    0  0.00000000000E+00  0.00000000000E+00  0.99999998245E-14  0.12500000000E+03  0.12500000000E+03 0.  0.
        -13    1    3    3    0    0  0.77888558956E+01 -0.21439691807E+02  0.24840273071E+02  0.33725020255E+02  0.10566000000E+00 0.  1.
         23    2    1    0    0    0 -0.62135199084E+01  0.25320299958E+02 -0.13357325058E+02  0.95705912673E+02  0.91112447933E+02 0.  0.
         13    1    3    3    0    0 -0.14002375804E+02  0.46759991765E+02 -0.38197598129E+02  0.61980892418E+02  0.10566000000E+00 0. -1.
         22    1    1    0    0    0  0.62135199084E+01 -0.25320299958E+02  0.13357325058E+02  0.29294087327E+02  0.00000000000E+00 0. -1.
</event>
<event>
 5    1  0.1691066E-003  0.9118800E+02  0.7818608E-02  0.1130116E+00
         25   -1    0    0    0    0  0.00000000000E+00  0.00000000000E+00  0.99999998245E-14  0.12500000000E+03  0.12500000000E+03 0.  0.
        -13    1    3    3    0    0  0.50687170343E+02  0.20446949674E+02 -0.24516590785E+02  0.59902766014E+02  0.10566000000E+00 0. -1.
         23    2    1    0    0    0  0.27381768462E+02 -0.18375199657E+01 -0.66680314175E+01  0.96758180534E+02  0.92544827698E+02 0.  0.
         13    1    3    3    0    0 -0.23305401881E+02 -0.22284469640E+02  0.17848559367E+02  0.36855414520E+02  0.10566000000E+00 0.  1.
         22    1    1    0    0    0 -0.27381768462E+02  0.18375199657E+01  0.66680314175E+01  0.28241819466E+02  0.00000000000E+00 0. -1.
</event>
<event>
 5    1  0.1691066E-003  0.9118800E+02  0.7818608E-02  0.1130116E+00
         25   -1    0    0    0    0  0.00000000000E+00  0.00000000000E+00  0.99999998245E-14  0.12500000000E+03  0.12500000000E+03 0.  0.
        -13    1    3    3    0    0 -0.28324238216E+02 -0.13834233783E+02 -0.13409106495E+02  0.34255857834E+02  0.10566000000E+00 0. -1.
         23    2    1    0    0    0  0.26049396315E+02  0.79388355690E+00  0.12332323276E+02  0.96167943243E+02  0.91744132296E+02 0.  0.
         13    1    3    3    0    0  0.54373634531E+02  0.14628117340E+02  0.25741429771E+02  0.61912085409E+02  0.10566000000E+00 0.  1.
         22    1    1    0    0    0 -0.26049396315E+02 -0.79388355690E+00 -0.12332323276E+02  0.28832056757E+02  0.00000000000E+00 0.  1.
</event>
<event>
 5    1  0.1691066E-003  0.9118800E+02  0.7818608E-02  0.1130116E+00
         25   -1    0    0    0    0  0.00000000000E+00  0.00000000000E+00  0.99999998245E-14  0.12500000000E+03  0.12500000000E+03 0.  0.
        -13    1    3    3    0    0 -0.12856731276E+01 -0.27845824249E+02  0.31532788497E+02  0.42087656123E+02  0.10566000000E+00 0.  1.
         23    2    1    0    0    0  0.61596208158E+01  0.23755824279E+02  0.10515222460E+02  0.98300748715E+02  0.94605428908E+02 0.  0.
         13    1    3    3    0    0  0.74452939434E+01  0.51601648528E+02 -0.21017566036E+02  0.56213092593E+02  0.10566000000E+00 0. -1.
         22    1    1    0    0    0 -0.61596208158E+01 -0.23755824279E+02 -0.10515222460E+02  0.26699251285E+02  0.00000000000E+00 0. -1.
</event>
<event>
 5    1  0.1691066E-003  0.9118800E+02  0.7818608E-02  0.1130116E+00
         25   -1    0    0    0    0  0.00000000000E+00  0.00000000000E+00  0.99999998245E-14  0.12500000000E+03  0.12500000000E+03 0.  0.
        -13    1    3    3    0    0  0.54342386524E+01  0.22847381198E+02 -0.27880932044E+02  0.36453961554E+02  0.10566000000E+00 0.  1.
         23    2    1    0    0    0 -0.30560260323E+01 -0.28702480237E+02  0.93844373336E+00  0.96120035604E+02  0.91678835622E+02 0.  0.
         13    1    3    3    0    0 -0.84902646847E+01 -0.51549861435E+02  0.28819375777E+02  0.59666074050E+02  0.10566000000E+00 0. -1.
         22    1    1    0    0    0  0.30560260323E+01  0.28702480237E+02 -0.93844373336E+00  0.28879964396E+02  0.00000000000E+00 0. -1.
</event>
<event>
 5    1  0.1691066E-003  0.9118800E+02  0.7818608E-02  0.1130116E+00
         25   -1    0    0    0    0  0.00000000000E+00  0.00000000000E+00  0.99999998245E-14  0.12500000000E+03  0.12500000000E+03 0.  0.
        -13    1    3    3    0    0  0.22175557714E+02 -0.18845552948E+02  0.32948506519E+02  0.43960498993E+02  0.10566000000E+00 0. -1.
         23    2    1    0    0    0 -0.25783063389E+01 -0.25877858359E+02 -0.12467120742E+02  0.96160091601E+02  0.91733433929E+02 0.  0.
         13    1    3    3    0    0 -0.24753864053E+02 -0.70323054111E+01 -0.45415627261E+02  0.52199592608E+02  0.10566000000E+00 0.  1.
         22    1    1    0    0    0  0.25783063389E+01  0.25877858359E+02  0.12467120742E+02  0.28839908399E+02  0.00000000000E+00 0. -1.
</event>
<event>
 5    1  0.1691066E-003  0.9118800E+02  0.7818608E-02  0.1130116E+00
         25   -1    0    0    0    0  0.00000000000E+00  0.00000000000E+00  0.99999998245E-14  0.12500000000E+03  0.12500000000E+03 0.  0.
        -13    1    3    3    0    0 -0.26560139126E+02 -0.49448344932E+02 -0.64569892186E+01  0.56500298059E+02  0.10566000000E+00 0. -1.
         23    2    1    0    0    0  0.38584063224E+00 -0.20429130678E+02 -0.18021846789E+02  0.97755088274E+02  0.93881691871E+02 0.  0.
         13    1    3    3    0    0  0.26945979758E+02  0.29019214254E+02 -0.11564857570E+02  0.41254790215E+02  0.10566000000E+00 0.  1.
         22    1    1    0    0    0 -0.38584063224E+00  0.20429130678E+02  0.18021846789E+02  0.27244911726E+02  0.00000000000E+00 0. -1.
</event>
<event>
 5    1  0.1691066E-003  0.9118800E+02  0.7818608E-02  0.1130116E+00
         25   -1    0    0    0    0  0.00000000000E+00  0.00000000000E+00  0.99999998245E-14  0.12500000000E+03  0.12500000000E+03 0.  0.
        -13    1    3    3    0    0  0.35355217347E+02  0.31425764782E+02  0.34935566998E+02  0.58805400188E+02  0.10566000000E+00 0.  1.
         23    2    1    0    0    0  0.10954032287E+02  0.45576365454E+01  0.26350211222E+02  0.96101963637E+02  0.91654191989E+02 0.  0.
         13    1    3    3    0    0 -0.24401185059E+02 -0.26868128237E+02 -0.85853557760E+01  0.37296563449E+02  0.10566000000E+00 0. -1.
         22    1    1    0    0    0 -0.10954032287E+02 -0.45576365454E+01 -0.26350211222E+02  0.28898036363E+02  0.00000000000E+00 0.  1.
</event>
<event>
 5    1  0.1691066E-003  0.9118800E+02  0.7818608E-02  0.1130116E+00
         25   -1    0    0    0    0  0.00000000000E+00  0.00000000000E+00  0.99999998245E-14  0.12500000000E+03  0.12500000000E+03 0.  0.
        -13    1    3    3    0    0 -0.57022301405E+02 -0.17043593508E+02  0.12026692614E+01  0.59527174589E+02  0.10566000000E+00 0. -1.
         23    2    1    0    0    0 -0.21152549264E+02 -0.18774926674E+02 -0.58335565240E+01  0.96121658744E+02  0.91681048674E+02 0.  0.
         13    1    3    3    0    0  0.35869752141E+02 -0.17313331659E+01 -0.70362257854E+01  0.36594484155E+02  0.10566000000E+00 0.  1.
         22    1    1    0    0    0  0.21152549264E+02  0.18774926674E+02  0.58335565240E+01  0.28878341256E+02  0.00000000000E+00 0. -1.
</event>
<event>
 5    1  0.1691066E-003  0.9118800E+02  0.7818608E-02  0.1130116E+00
         25   -1    0    0    0    0  0.00000000000E+00  0.00000000000E+00  0.99999998245E-14  0.12500000000E+03  0.12500000000E+03 0.  0.
        -13    1    3    3    0    0 -0.17203089062E+02 -0.11689032838E+02  0.30004277152E+02  0.36508185019E+02  0.10566000000E+00 0. -1.
         23    2    1    0    0    0  0.19548336880E+02 -0.38063176256E+01 -0.18463305258E+02  0.97842695832E+02  0.93998265718E+02 0.  0.
         13    1    3    3    0    0  0.36751425941E+02  0.78827152122E+01 -0.48467582411E+02  0.61334510812E+02  0.10566000000E+00 0.  1.
         22    1    1    0    0    0 -0.19548336880E+02  0.38063176256E+01  0.18463305258E+02  0.27157304168E+02  0.00000000000E+00 0.  1.
</event>
<event>
 5    1  0.1691066E-003  0.9118800E+02  0.7818608E-02  0.1130116E+00
         25   -1    0    0    0    0  0.00000000000E+00  0.00000000000E+00  0.99999998245E-14  0.12500000000E+03  0.12500000000E+03 0.  0.
        -13    1    3    3    0    0 -0.46801976647E+01  0.38889019186E+02  0.48343650715E+02  0.62220412984E+02  0.10566000000E+00 0. -1.
         23    2    1    0    0    0 -0.48069420535E+01  0.19524011825E+02  0.19294231577E+02  0.97133154076E+02  0.93049924873E+02 0.  0.
         13    1    3    3    0    0 -0.12674438879E+00 -0.19365007361E+02 -0.29049419138E+02  0.34912741092E+02  0.10566000000E+00 0.  1.
         22    1    1    0    0    0  0.48069420535E+01 -0.19524011825E+02 -0.19294231577E+02  0.27866845924E+02  0.00000000000E+00 0. -1.
</event>
<event>
 5    1  0.1691066E-003  0.9118800E+02  0.7818608E-02  0.1130116E+00
         25   -1    0    0    0    0  0.00000000000E+00  0.00000000000E+00  0.99999998245E-14  0.12500000000E+03  0.12500000000E+03 0.  0.
        -13    1    3    3    0    0  0.10248329947E+02  0.13147792776E+02 -0.47150632927E+02  0.50010859531E+02  0.10566000000E+00 0. -1.
         23    2    1    0    0    0 -0.23180298865E+02  0.38433998129E+01 -0.16746516347E+02  0.96146165119E+02  0.91714455129E+02 0.  0.
         13    1    3    3    0    0 -0.33428628812E+02 -0.93043929634E+01  0.30404116580E+02  0.46135305588E+02  0.10566000000E+00 0.  1.
         22    1    1    0    0    0  0.23180298865E+02 -0.38433998129E+01  0.16746516347E+02  0.28853834881E+02  0.00000000000E+00 0. -1.
</event>
<event>
 5    1  0.1691066E-003  0.9118800E+02  0.7818608E-02  0.1130116E+00
         25   -1    0    0    0    0  0.00000000000E+00  0.00000000000E+00  0.99999998245E-14  0.12500000000E+03  0.12500000000E+03 0.  0.
        -13    1    3    3    0    0 -0.29118233687E+02 -0.26753576302E+02 -0.27137069865E+02  0.47958910568E+02  0.10566000000E+00 0.  1.
         23    2    1    0    0    0  0.11097352600E+02 -0.42644148779E+00 -0.26759808877E+02  0.96027246278E+02  0.91552234104E+02 0.  0.
         13    1    3    3    0    0  0.40215586288E+02  0.26327134815E+02  0.37726098741E+00  0.48068335710E+02  0.10566000000E+00 0. -1.
         22    1    1    0    0    0 -0.11097352600E+02  0.42644148779E+00  0.26759808877E+02  0.28972753722E+02  0.00000000000E+00 0.  1.
</event>
<event>
 5    1  0.1691066E-003  0.9118800E+02  0.7818608E-02  0.1130116E+00
         25   -1    0    0    0    0  0.00000000000E+00  0.00000000000E+00  0.99999998245E-14  0.12500000000E+03  0.12500000000E+03 0.  0.
        -13    1    3    3    0    0 -0.27480835234E+02  0.36372564894E+02  0.24372141840E+02  0.51693057987E+02  0.10566000000E+00 0.  1.
         23    2    1    0    0    0 -0.14860622458E+02  0.21118919984E+02 -0.14549046827E+02  0.95360134198E+02  0.90636822261E+02 0.  0.
         13    1    3    3    0    0  0.12620212776E+02 -0.15253644910E+02 -0.38921188667E+02  0.43667076211E+02  0.10566000000E+00 0. -1.
         22    1    1    0    0    0  0.14860622458E+02 -0.21118919984E+02  0.14549046827E+02  0.29639865802E+02  0.00000000000E+00 0.  1.
</event>
<event>
 5    1  0.1691066E-003  0.9118800E+02  0.7818608E-02  0.1130116E+00
         25   -1    0    0    0    0  0.00000000000E+00  0.00000000000E+00  0.99999998245E-14  0.12500000000E+03  0.12500000000E+03 0.  0.
        -13    1    3    3    0    0  0.12859130167E+02  0.17418297525E+02  0.54353735530E+02  0.58507213636E+02  0.10566000000E+00 0.  1.
         23    2    1    0    0    0  0.11891015717E+02 -0.63944134323E+01  0.27179721193E+02  0.94651655366E+02  0.89654413396E+02 0.  0.
         13    1    3    3    0    0 -0.96811444988E+00 -0.23812710958E+02 -0.27174014337E+02  0.36144441730E+02  0.10566000000E+00 0. -1.
         22    1    1    0    0    0 -0.11891015717E+02  0.63944134323E+01 -0.27179721193E+02  0.30348344634E+02  0.00000000000E+00 0.  1.
</event>
<event>
 5    1  0.1691066E-003  0.9118800E+02  0.7818608E-02  0.1130116E+00
         25   -1    0    0    0    0  0.00000000000E+00  0.00000000000E+00  0.99999998245E-14  0.12500000000E+03  0.12500000000E+03 0.  0.
        -13    1    3    3    0    0 -0.34327107916E+02 -0.32859451729E+02 -0.21063041871E+02  0.51978426320E+02  0.10566000000E+00 0. -1.
         23    2    1    0    0    0 -0.27357353256E+02 -0.24926135983E+01  0.98001852062E+01  0.95833554728E+02  0.91287396074E+02 0.  0.
         13    1    3    3    0    0  0.69697546595E+01  0.30366838131E+02  0.30863227077E+02  0.43855128408E+02  0.10566000000E+00 0.  1.
         22    1    1    0    0    0  0.27357353256E+02  0.24926135983E+01 -0.98001852062E+01  0.29166445272E+02  0.00000000000E+00 0.  1.
</event>
<event>
 5    1  0.1691066E-003  0.9118800E+02  0.7818608E-02  0.1130116E+00
         25   -1    0    0    0    0  0.00000000000E+00  0.00000000000E+00  0.99999998245E-14  0.12500000000E+03  0.12500000000E+03 0.  0.
        -13    1    3    3    0    0  0.14052985017E+02 -0.84977842935E+01  0.56838624215E+02  0.59163663616E+02  0.10566000000E+00 0. -1.
         23    2    1    0    0    0  0.33143818587E+01 -0.18351256742E+02  0.32102340207E+02  0.87874348519E+02  0.79646639162E+02 0.  0.
         13    1    3    3    0    0 -0.10738603158E+02 -0.98534724486E+01 -0.24736284008E+02  0.28710684903E+02  0.10566000000E+00 0.  1.
         22    1    1    0    0    0 -0.33143818587E+01  0.18351256742E+02 -0.32102340207E+02  0.37125651481E+02  0.00000000000E+00 0. -1.
</event>
<event>
 5    1  0.1691066E-003  0.9118800E+02  0.7818608E-02  0.1130116E+00
         25   -1    0    0    0    0  0.00000000000E+00  0.00000000000E+00  0.99999998245E-14  0.12500000000E+03  0.12500000000E+03 0.  0.
        -13    1    3    3    0    0  0.10857747342E+02 -0.14066875365E+01 -0.40168859918E+02  0.41634335810E+02  0.10566000000E+00 0. -1.
         23    2    1    0    0    0 -0.21276340454E+00  0.26842761319E+02  0.65757068193E+01  0.97362724018E+02  0.93357811696E+02 0.  0.
         13    1    3    3    0    0 -0.11070510746E+02  0.28249448856E+02  0.46744566737E+02  0.55728388209E+02  0.10566000000E+00 0.  1.
         22    1    1    0    0    0  0.21276340454E+00 -0.26842761319E+02 -0.65757068193E+01  0.27637275982E+02  0.00000000000E+00 0.  1.
</event>
<event>
 5    1  0.1691066E-003  0.9118800E+02  0.7818608E-02  0.1130116E+00
         25   -1    0    0    0    0  0.00000000000E+00  0.00000000000E+00  0.99999998245E-14  0.12500000000E+03  0.12500000000E+03 0.  0.
        -13    1    3    3    0    0  0.43273793092E+01  0.31775733753E+02  0.44996177051E+02  0.55254778802E+02  0.10566000000E+00 0. -1.
         23    2    1    0    0    0 -0.42033401051E+01  0.27831442207E+02  0.49102740972E+01  0.96427845110E+02  0.92097563907E+02 0.  0.
         13    1    3    3    0    0 -0.85307194143E+01 -0.39442915463E+01 -0.40085902954E+02  0.41173066308E+02  0.10566000000E+00 0.  1.
         22    1    1    0    0    0  0.42033401051E+01 -0.27831442207E+02 -0.49102740972E+01  0.28572154890E+02  0.00000000000E+00 0. -1.
</event>
<event>
 5    1  0.1691066E-003  0.9118800E+02  0.7818608E-02  0.1130116E+00
         25   -1    0    0    0    0  0.00000000000E+00  0.00000000000E+00  0.99999998245E-14  0.12500000000E+03  0.12500000000E+03 0.  0.
        -13    1    3    3    0    0 -0.19598914666E+02  0.18478077910E+02  0.36671013505E+02  0.45500892462E+02  0.10566000000E+00 0. -1.
         23    2    1    0    0    0  0.23062075941E+02 -0.15694967231E+01  0.15466316063E+02  0.97187599901E+02  0.93123036759E+02 0.  0.
         13    1    3    3    0    0  0.42660990607E+02 -0.20047574633E+02 -0.21204697441E+02  0.51686707439E+02  0.10566000000E+00 0.  1.
         22    1    1    0    0    0 -0.23062075941E+02  0.15694967231E+01 -0.15466316063E+02  0.27812400099E+02  0.00000000000E+00 0.  1.
</event>
<event>
 5    1  0.1691066E-003  0.9118800E+02  0.7818608E-02  0.1130116E+00
         25   -1    0    0    0    0  0.00000000000E+00  0.00000000000E+00  0.99999998245E-14  0.12500000000E+03  0.12500000000E+03 0.  0.
        -13    1    3    3    0    0  0.40715052396E+01  0.24463175645E+02  0.31610167319E+02  0.40177580309E+02  0.10566000000E+00 0.  1.
         23    2    1    0    0    0 -0.13739735484E+01 -0.25877457567E+02  0.16009976230E+01  0.99036683439E+02  0.95572856292E+02 0.  0.
         13    1    3    3    0    0 -0.54454787880E+01 -0.50340633212E+02 -0.30009169696E+02  0.58859103130E+02  0.10566000000E+00 0. -1.
         22    1    1    0    0    0  0.13739735484E+01  0.25877457567E+02 -0.16009976230E+01  0.25963316561E+02  0.00000000000E+00 0. -1.
</event>
<event>
 5    1  0.1691066E-003  0.9118800E+02  0.7818608E-02  0.1130116E+00
         25   -1    0    0    0    0  0.00000000000E+00  0.00000000000E+00  0.99999998245E-14  0.12500000000E+03  0.12500000000E+03 0.  0.
        -13    1    3    3    0    0  0.17636980450E+02 -0.11867613091E+02  0.58382431102E+02  0.62132300338E+02  0.10566000000E+00 0.  1.
         23    2    1    0    0    0  0.77785263849E+01 -0.10217752279E+02  0.26365126790E+02  0.95673768653E+02  0.91068337875E+02 0.  0.
         13    1    3    3    0    0 -0.98584540652E+01  0.16498608117E+01 -0.32017304312E+02  0.33541468315E+02  0.10566000000E+00 0. -1.
         22    1    1    0    0    0 -0.77785263849E+01  0.10217752279E+02 -0.26365126790E+02  0.29326231347E+02  0.00000000000E+00 0.  1.
</event>
<event>
 5    1  0.1691066E-003  0.9118800E+02  0.7818608E-02  0.1130116E+00
         25   -1    0    0    0    0  0.00000000000E+00  0.00000000000E+00  0.99999998245E-14  0.12500000000E+03  0.12500000000E+03 0.  0.
        -13    1    3    3    0    0  0.30106847613E+01  0.26730817915E+02 -0.21595049551E+02  0.34495770441E+02  0.10566000000E+00 0. -1.
         23    2    1    0    0    0 -0.19250066281E+02 -0.17886889551E+02  0.13487170056E+02  0.95463418855E+02  0.90779153519E+02 0.  0.
         13    1    3    3    0    0 -0.22260751043E+02 -0.44617707466E+02  0.35082219607E+02  0.60967648414E+02  0.10566000000E+00 0.  1.
         22    1    1    0    0    0  0.19250066281E+02  0.17886889551E+02 -0.13487170056E+02  0.29536581145E+02  0.00000000000E+00 0.  1.
</event>
<event>
 5    1  0.1691066E-003  0.9118800E+02  0.7818608E-02  0.1130116E+00
         25   -1    0    0    0    0  0.00000000000E+00  0.00000000000E+00  0.99999998245E-14  0.12500000000E+03  0.12500000000E+03 0.  0.
        -13    1    3    3    0    0 -0.17735659486E+02 -0.25397639678E+02  0.24721792636E+02  0.39632964989E+02  0.10566000000E+00 0.  1.
         23    2    1    0    0    0  0.14074611225E+02 -0.74719742231E+01 -0.21311835330E+02  0.98389486945E+02  0.94722604147E+02 0.  0.
         13    1    3    3    0    0  0.31810270711E+02  0.17925665454E+02 -0.46033627966E+02  0.58756521957E+02  0.10566000000E+00 0. -1.
         22    1    1    0    0    0 -0.14074611225E+02  0.74719742231E+01  0.21311835330E+02  0.26610513055E+02  0.00000000000E+00 0. -1.
</event>
<event>
 5    1  0.1691066E-003  0.9118800E+02  0.7818608E-02  0.1130116E+00
         25   -1    0    0    0    0  0.00000000000E+00  0.00000000000E+00  0.99999998245E-14  0.12500000000E+03  0.12500000000E+03 0.  0.
        -13    1    3    3    0    0  0.20957744465E+02  0.74980708494E+01 -0.40810593696E+02  0.46486168280E+02  0.10566000000E+00 0. -1.
         23    2    1    0    0    0  0.12272890647E+02 -0.25736227970E+02 -0.51026628076E+01  0.96034253977E+02  0.91561801501E+02 0.  0.
         13    1    3    3    0    0 -0.86848538180E+01 -0.33234298819E+02  0.35707930888E+02  0.49548085697E+02  0.10566000000E+00 0.  1.
         22    1    1    0    0    0 -0.12272890647E+02  0.25736227970E+02  0.51026628076E+01  0.28965746023E+02  0.00000000000E+00 0.  1.
</event>
<event>
 5    1  0.1691066E-003  0.9118800E+02  0.7818608E-02  0.1130116E+00
         25   -1    0    0    0    0  0.00000000000E+00  0.00000000000E+00  0.99999998245E-14  0.12500000000E+03  0.12500000000E+03 0.  0.
        -13    1    3    3    0    0 -0.11344376721E+02  0.33329708763E+02 -0.18693668534E+02  0.39862623807E+02  0.10566000000E+00 0.  1.
         23    2    1    0    0    0  0.16620422553E+02  0.85763072319E+01  0.22682698905E+02  0.95601082992E+02  0.90968515147E+02 0.  0.
         13    1    3    3    0    0  0.27964799274E+02 -0.24753401531E+02  0.41376367440E+02  0.55738459186E+02  0.10566000000E+00 0. -1.
         22    1    1    0    0    0 -0.16620422553E+02 -0.85763072319E+01 -0.22682698905E+02  0.29398917008E+02  0.00000000000E+00 0. -1.
</event>
<event>
 5    1  0.1691066E-003  0.9118800E+02  0.7818608E-02  0.1130116E+00
         25   -1    0    0    0    0  0.00000000000E+00  0.00000000000E+00  0.99999998245E-14  0.12500000000E+03  0.12500000000E+03 0.  0.
        -13    1    3    3    0    0  0.69613935034E+01  0.50669320417E+02  0.19159294054E+02  0.54616213195E+02  0.10566000000E+00 0.  1.
         23    2    1    0    0    0 -0.67082631681E+01  0.14063968312E+02  0.26389038113E+02  0.94353999740E+02  0.89238444266E+02 0.  0.
         13    1    3    3    0    0 -0.13669656672E+02 -0.36605352106E+02  0.72297440592E+01  0.39737786545E+02  0.10566000000E+00 0. -1.
         22    1    1    0    0    0  0.67082631681E+01 -0.14063968312E+02 -0.26389038113E+02  0.30646000260E+02  0.00000000000E+00 0.  1.
</event>
<event>
 5    1  0.1691066E-003  0.9118800E+02  0.7818608E-02  0.1130116E+00
         25   -1    0    0    0    0  0.00000000000E+00  0.00000000000E+00  0.99999998245E-14  0.12500000000E+03  0.12500000000E+03 0.  0.
        -13    1    3    3    0    0 -0.62772532768E+01 -0.31512029485E+02  0.37098292915E+02  0.49078573861E+02  0.10566000000E+00 0.  1.
         23    2    1    0    0    0 -0.22384490248E+02 -0.21284598235E+02 -0.34772555007E+01  0.93916389665E+02  0.88623345774E+02 0.  0.
         13    1    3    3    0    0 -0.16107236971E+02  0.10227431251E+02 -0.40575548416E+02  0.44837815804E+02  0.10566000000E+00 0. -1.
         22    1    1    0    0    0  0.22384490248E+02  0.21284598235E+02  0.34772555007E+01  0.31083610335E+02  0.00000000000E+00 0. -1.
</event>
<event>
 5    1  0.1691066E-003  0.9118800E+02  0.7818608E-02  0.1130116E+00
         25   -1    0    0    0    0  0.00000000000E+00  0.00000000000E+00  0.99999998245E-14  0.12500000000E+03  0.12500000000E+03 0.  0.
        -13    1    3    3    0    0 -0.73761675420E+01  0.18843591170E+02  0.34479246041E+02  0.39978973816E+02  0.10566000000E+00 0.  1.
         23    2    1    0    0    0 -0.20577866551E+02  0.12977992076E+02 -0.18208940434E+02  0.94611805222E+02  0.89598835403E+02 0.  0.
         13    1    3    3    0    0 -0.13201699009E+02 -0.58655990940E+01 -0.52688186475E+02  0.54632831407E+02  0.10566000000E+00 0. -1.
         22    1    1    0    0    0  0.20577866551E+02 -0.12977992076E+02  0.18208940434E+02  0.30388194778E+02  0.00000000000E+00 0. -1.
</event>
<event>
 5    1  0.1691066E-003  0.9118800E+02  0.7818608E-02  0.1130116E+00
         25   -1    0    0    0    0  0.00000000000E+00  0.00000000000E+00  0.99999998245E-14  0.12500000000E+03  0.12500000000E+03 0.  0.
        -13    1    3    3    0    0  0.20535381371E+02  0.33923566719E+02 -0.47028919271E+02  0.61516182252E+02  0.10566000000E+00 0.  1.
         23    2    1    0    0    0  0.14999546908E+02  0.18109563087E+02 -0.16724051480E+02  0.96144557176E+02  0.91712263597E+02 0.  0.
         13    1    3    3    0    0 -0.55358344637E+01 -0.15814003632E+02  0.30304867791E+02  0.34628374925E+02  0.10566000000E+00 0. -1.
         22    1    1    0    0    0 -0.14999546908E+02 -0.18109563087E+02  0.16724051480E+02  0.28855442824E+02  0.00000000000E+00 0.  1.
</event>
<event>
 5    1  0.1691066E-003  0.9118800E+02  0.7818608E-02  0.1130116E+00
         25   -1    0    0    0    0  0.00000000000E+00  0.00000000000E+00  0.99999998245E-14  0.12500000000E+03  0.12500000000E+03 0.  0.
        -13    1    3    3    0    0 -0.49188215315E+01 -0.34442622214E+02  0.10840939593E+02  0.36442093320E+02  0.10566000000E+00 0.  1.
         23    2    1    0    0    0  0.23694203685E+02  0.13923682966E+02  0.16536197452E+02  0.92926177936E+02  0.87215505984E+02 0.  0.
         13    1    3    3    0    0  0.28613025216E+02  0.48366305181E+02  0.56952578588E+01  0.56484084616E+02  0.10566000000E+00 0. -1.
         22    1    1    0    0    0 -0.23694203685E+02 -0.13923682966E+02 -0.16536197452E+02  0.32073822064E+02  0.00000000000E+00 0. -1.
</event>
<event>
 5    1  0.1691066E-003  0.9118800E+02  0.7818608E-02  0.1130116E+00
         25   -1    0    0    0    0  0.00000000000E+00  0.00000000000E+00  0.99999998245E-14  0.12500000000E+03  0.12500000000E+03 0.  0.
        -13    1    3    3    0    0 -0.21697879116E+02  0.84484306878E+01 -0.31411470242E+02  0.39100710557E+02  0.10566000000E+00 0. -1.
         23    2    1    0    0    0 -0.16962664841E+02  0.51458017430E+01  0.24195190505E+02  0.95006358712E+02  0.90147599403E+02 0.  0.
         13    1    3    3    0    0  0.47352142747E+01 -0.33026289448E+01  0.55606660748E+02  0.55905648156E+02  0.10566000000E+00 0.  1.
         22    1    1    0    0    0  0.16962664841E+02 -0.51458017430E+01 -0.24195190505E+02  0.29993641288E+02  0.00000000000E+00 0.  1.
</event>
<event>
 5    1  0.1691066E-003  0.9118800E+02  0.7818608E-02  0.1130116E+00
         25   -1    0    0    0    0  0.00000000000E+00  0.00000000000E+00  0.99999998245E-14  0.12500000000E+03  0.12500000000E+03 0.  0.
        -13    1    3    3    0    0 -0.12516825434E+02  0.34007533450E+02 -0.49071759978E+02  0.61001901951E+02  0.10566000000E+00 0.  1.
         23    2    1    0    0    0  0.38386153501E+01  0.17188908286E+02 -0.21722096623E+02  0.97034967950E+02  0.92917931463E+02 0.  0.
         13    1    3    3    0    0  0.16355440784E+02 -0.16818625164E+02  0.27349663354E+02  0.36033065999E+02  0.10566000000E+00 0. -1.
         22    1    1    0    0    0 -0.38386153501E+01 -0.17188908286E+02  0.21722096623E+02  0.27965032050E+02  0.00000000000E+00 0.  1.
</event>
<event>
 5    1  0.1691066E-003  0.9118800E+02  0.7818608E-02  0.1130116E+00
         25   -1    0    0    0    0  0.00000000000E+00  0.00000000000E+00  0.99999998245E-14  0.12500000000E+03  0.12500000000E+03 0.  0.
        -13    1    3    3    0    0  0.49018649921E+02 -0.31590361338E+02 -0.18086008216E+02  0.61056480629E+02  0.10566000000E+00 0.  1.
         23    2    1    0    0    0  0.19347880664E+02 -0.20940074366E+02 -0.20735002349E+01  0.96414573576E+02  0.92079549271E+02 0.  0.
         13    1    3    3    0    0 -0.29670769257E+02  0.10650286972E+02  0.16012507981E+02  0.35358092946E+02  0.10566000000E+00 0. -1.
         22    1    1    0    0    0 -0.19347880664E+02  0.20940074366E+02  0.20735002349E+01  0.28585426424E+02  0.00000000000E+00 0.  1.
</event>
<event>
 5    1  0.1691066E-003  0.9118800E+02  0.7818608E-02  0.1130116E+00
         25   -1    0    0    0    0  0.00000000000E+00  0.00000000000E+00  0.99999998245E-14  0.12500000000E+03  0.12500000000E+03 0.  0.
        -13    1    3    3    0    0  0.55426730333E+02  0.28320302927E+02 -0.95418871290E-01  0.62242929414E+02  0.10566000000E+00 0. -1.
         23    2    1    0    0    0  0.27402205771E+02  0.10208549851E+02 -0.21865642122E+01  0.95676350257E+02  0.91071881304E+02 0.  0.
         13    1    3    3    0    0 -0.28024524561E+02 -0.18111753076E+02 -0.20911453409E+01  0.33433420843E+02  0.10566000000E+00 0.  1.
         22    1    1    0    0    0 -0.27402205771E+02 -0.10208549851E+02  0.21865642122E+01  0.29323649743E+02  0.00000000000E+00 0. -1.
</event>
<event>
 5    1  0.1691066E-003  0.9118800E+02  0.7818608E-02  0.1130116E+00
         25   -1    0    0    0    0  0.00000000000E+00  0.00000000000E+00  0.99999998245E-14  0.12500000000E+03  0.12500000000E+03 0.  0.
        -13    1    3    3    0    0 -0.36021682507E+01  0.34091566007E+02 -0.15868788011E+02  0.37776184110E+02  0.10566000000E+00 0.  1.
         23    2    1    0    0    0 -0.29627862638E+02 -0.39600175857E+01  0.13250629397E+02  0.92303346300E+02  0.86318228521E+02 0.  0.
         13    1    3    3    0    0 -0.26025694387E+02 -0.38051583593E+02  0.29119417408E+02  0.54527162190E+02  0.10566000000E+00 0. -1.
         22    1    1    0    0    0  0.29627862638E+02  0.39600175857E+01 -0.13250629397E+02  0.32696653700E+02  0.00000000000E+00 0. -1.
</event>
<event>
 5    1  0.1691066E-003  0.9118800E+02  0.7818608E-02  0.1130116E+00
         25   -1    0    0    0    0  0.00000000000E+00  0.00000000000E+00  0.99999998245E-14  0.12500000000E+03  0.12500000000E+03 0.  0.
        -13    1    3    3    0    0 -0.39379449555E+02  0.40825620415E+02  0.22740217873E+02  0.61111381939E+02  0.10566000000E+00 0. -1.
         23    2    1    0    0    0 -0.11254872651E+02  0.13082210826E+02  0.16531830039E+02  0.10110192889E+03  0.98236867934E+02 0.  0.
         13    1    3    3    0    0  0.28124576904E+02 -0.27743409589E+02 -0.62083878336E+01  0.39990546947E+02  0.10566000000E+00 0.  1.
         22    1    1    0    0    0  0.11254872651E+02 -0.13082210826E+02 -0.16531830039E+02  0.23898071114E+02  0.00000000000E+00 0. -1.
</event>
<event>
 5    1  0.1691066E-003  0.9118800E+02  0.7818608E-02  0.1130116E+00
         25   -1    0    0    0    0  0.00000000000E+00  0.00000000000E+00  0.99999998245E-14  0.12500000000E+03  0.12500000000E+03 0.  0.
        -13    1    3    3    0    0 -0.10774196513E+02 -0.28771700294E+02  0.13554366752E+02  0.33580143990E+02  0.10566000000E+00 0.  1.
         23    2    1    0    0    0  0.22321491737E+02  0.15734939718E+02 -0.12626757236E+02  0.94912256323E+02  0.90017021061E+02 0.  0.
         13    1    3    3    0    0  0.33095688250E+02  0.44506640012E+02 -0.26181123989E+02  0.61332112333E+02  0.10566000000E+00 0. -1.
         22    1    1    0    0    0 -0.22321491737E+02 -0.15734939718E+02  0.12626757236E+02  0.30087743677E+02  0.00000000000E+00 0. -1.
</event>
<event>
 5    1  0.1691066E-003  0.9118800E+02  0.7818608E-02  0.1130116E+00
         25   -1    0    0    0    0  0.00000000000E+00  0.00000000000E+00  0.99999998245E-14  0.12500000000E+03  0.12500000000E+03 0.  0.
        -13    1    3    3    0    0  0.51238289579E+02 -0.23996723607E+02 -0.53548145238E+01  0.56832123535E+02  0.10566000000E+00 0. -1.
         23    2    1    0    0    0  0.13028445916E+02 -0.25725445088E+02  0.30780324544E+01  0.95999772212E+02  0.91514714953E+02 0.  0.
         13    1    3    3    0    0 -0.38209843663E+02 -0.17287214812E+01  0.84328469782E+01  0.39167648677E+02  0.10566000000E+00 0.  1.
         22    1    1    0    0    0 -0.13028445916E+02  0.25725445088E+02 -0.30780324544E+01  0.29000227788E+02  0.00000000000E+00 0. -1.
</event>
<event>
 5    1  0.1691066E-003  0.9118800E+02  0.7818608E-02  0.1130116E+00
         25   -1    0    0    0    0  0.00000000000E+00  0.00000000000E+00  0.99999998245E-14  0.12500000000E+03  0.12500000000E+03 0.  0.
        -13    1    3    3    0    0  0.46093212594E+00 -0.47366822497E+02 -0.19660698475E+01  0.47409966532E+02  0.10566000000E+00 0.  1.
         23    2    1    0    0    0  0.23463611184E+02 -0.82328570116E+01 -0.16597464311E+02  0.95103565331E+02  0.90282286927E+02 0.  0.
         13    1    3    3    0    0  0.23002679058E+02  0.39133965486E+02 -0.14631394463E+02  0.47693598799E+02  0.10566000000E+00 0. -1.
         22    1    1    0    0    0 -0.23463611184E+02  0.82328570116E+01  0.16597464311E+02  0.29896434669E+02  0.00000000000E+00 0. -1.
</event>
<event>
 5    1  0.1691066E-003  0.9118800E+02  0.7818608E-02  0.1130116E+00
         25   -1    0    0    0    0  0.00000000000E+00  0.00000000000E+00  0.99999998245E-14  0.12500000000E+03  0.12500000000E+03 0.  0.
        -13    1    3    3    0    0 -0.26362611446E+02 -0.41365463926E+02 -0.38690255566E+02  0.62474282132E+02  0.10566000000E+00 0. -1.
         23    2    1    0    0    0 -0.13366954414E+02 -0.20266591881E+02 -0.17609364981E+02  0.95008335294E+02  0.90150340119E+02 0.  0.
         13    1    3    3    0    0  0.12995657033E+02  0.21098872044E+02  0.21080890585E+02  0.32534053162E+02  0.10566000000E+00 0.  1.
         22    1    1    0    0    0  0.13366954414E+02  0.20266591881E+02  0.17609364981E+02  0.29991664706E+02  0.00000000000E+00 0. -1.
</event>
<event>
 5    1  0.1691066E-003  0.9118800E+02  0.7818608E-02  0.1130116E+00
         25   -1    0    0    0    0  0.00000000000E+00  0.00000000000E+00  0.99999998245E-14  0.12500000000E+03  0.12500000000E+03 0.  0.
        -13    1    3    3    0    0  0.20983485000E+02 -0.26222765571E+02 -0.25115133505E+02  0.41937109723E+02  0.10566000000E+00 0. -1.
         23    2    1    0    0    0 -0.11615796548E+02 -0.21630816383E+02  0.16810980582E+02  0.95243857526E+02  0.90476319451E+02 0.  0.
         13    1    3    3    0    0 -0.32599281548E+02  0.45919491880E+01  0.41926114087E+02  0.53306747802E+02  0.10566000000E+00 0.  1.
         22    1    1    0    0    0  0.11615796548E+02  0.21630816383E+02 -0.16810980582E+02  0.29756142474E+02  0.00000000000E+00 0.  1.
</event>
<event>
 5    1  0.1691066E-003  0.9118800E+02  0.7818608E-02  0.1130116E+00
         25   -1    0    0    0    0  0.00000000000E+00  0.00000000000E+00  0.99999998245E-14  0.12500000000E+03  0.12500000000E+03 0.  0.
        -13    1    3    3    0    0 -0.33101163903E+02  0.13922298272E+02  0.51265790379E+01  0.36274101196E+02  0.10566000000E+00 0.  1.
         23    2    1    0    0    0  0.12046294533E+02 -0.11932149798E+02 -0.23781920114E+02  0.95792652721E+02  0.91231371688E+02 0.  0.
         13    1    3    3    0    0  0.45147458437E+02 -0.25854448070E+02 -0.28908499152E+02  0.59518551524E+02  0.10566000000E+00 0. -1.
         22    1    1    0    0    0 -0.12046294533E+02  0.11932149798E+02  0.23781920114E+02  0.29207347279E+02  0.00000000000E+00 0. -1.
</event>
<event>
 5    1  0.1691066E-003  0.9118800E+02  0.7818608E-02  0.1130116E+00
         25   -1    0    0    0    0  0.00000000000E+00  0.00000000000E+00  0.99999998245E-14  0.12500000000E+03  0.12500000000E+03 0.  0.
        -13    1    3    3    0    0  0.26455192329E+02  0.10961933196E+02  0.34822282321E+02  0.45084849901E+02  0.10566000000E+00 0.  1.
         23    2    1    0    0    0  0.25764751739E+02  0.56418599491E+00 -0.14454948191E+02  0.95451966813E+02  0.90763383053E+02 0.  0.
         13    1    3    3    0    0 -0.69044058973E+00 -0.10397747201E+02 -0.49277230512E+02  0.50367116912E+02  0.10566000000E+00 0. -1.
         22    1    1    0    0    0 -0.25764751739E+02 -0.56418599491E+00  0.14454948191E+02  0.29548033187E+02  0.00000000000E+00 0. -1.
</event>
<event>
 5    1  0.1691066E-003  0.9118800E+02  0.7818608E-02  0.1130116E+00
         25   -1    0    0    0    0  0.00000000000E+00  0.00000000000E+00  0.99999998245E-14  0.12500000000E+03  0.12500000000E+03 0.  0.
        -13    1    3    3    0    0  0.19844585004E+02 -0.54219317918E+02  0.50741721518E+01  0.57959471845E+02  0.10566000000E+00 0. -1.
         23    2    1    0    0    0  0.48193941334E+00 -0.23937659979E+02  0.16782474391E+02  0.95761407736E+02  0.91188551552E+02 0.  0.
         13    1    3    3    0    0 -0.19362645590E+02  0.30281657939E+02  0.11708302239E+02  0.37801935892E+02  0.10566000000E+00 0.  1.
         22    1    1    0    0    0 -0.48193941334E+00  0.23937659979E+02 -0.16782474391E+02  0.29238592264E+02  0.00000000000E+00 0. -1.
</event>
<event>
 5    1  0.1691066E-003  0.9118800E+02  0.7818608E-02  0.1130116E+00
         25   -1    0    0    0    0  0.00000000000E+00  0.00000000000E+00  0.99999998245E-14  0.12500000000E+03  0.12500000000E+03 0.  0.
        -13    1    3    3    0    0 -0.39114406547E+02  0.10775907842E+01  0.56049759741E+01  0.39528785981E+02  0.10566000000E+00 0. -1.
         23    2    1    0    0    0  0.26040448593E+01  0.30061848718E+02  0.15180276197E+02  0.91222247212E+02  0.84738195656E+02 0.  0.
         13    1    3    3    0    0  0.41718451406E+02  0.28984257934E+02  0.95753002225E+01  0.51693461232E+02  0.10566000000E+00 0.  1.
         22    1    1    0    0    0 -0.26040448593E+01 -0.30061848718E+02 -0.15180276197E+02  0.33777752788E+02  0.00000000000E+00 0.  1.
</event>
<event>
 5    1  0.1691066E-003  0.9118800E+02  0.7818608E-02  0.1130116E+00
         25   -1    0    0    0    0  0.00000000000E+00  0.00000000000E+00  0.99999998245E-14  0.12500000000E+03  0.12500000000E+03 0.  0.
        -13    1    3    3    0    0  0.26708519038E+02 -0.39417822149E+02  0.27805135606E+02  0.55138429632E+02  0.10566000000E+00 0.  1.
         23    2    1    0    0    0  0.18815611750E+02 -0.26125465145E+02 -0.59442650222E+01  0.92260093751E+02  0.86255570473E+02 0.  0.
         13    1    3    3    0    0 -0.78929072883E+01  0.13292357004E+02 -0.33749400628E+02  0.37121664119E+02  0.10566000000E+00 0. -1.
         22    1    1    0    0    0 -0.18815611750E+02  0.26125465145E+02  0.59442650222E+01  0.32739906249E+02  0.00000000000E+00 0.  1.
</event>
<event>
 5    1  0.1691066E-003  0.9118800E+02  0.7818608E-02  0.1130116E+00
         25   -1    0    0    0    0  0.00000000000E+00  0.00000000000E+00  0.99999998245E-14  0.12500000000E+03  0.12500000000E+03 0.  0.
        -13    1    3    3    0    0 -0.50758289352E+02 -0.75672207854E+00 -0.15483887280E+02  0.53072954465E+02  0.10566000000E+00 0. -1.
         23    2    1    0    0    0 -0.19222440384E+02 -0.22850968058E+02  0.13751882837E+01  0.95107524386E+02  0.90287768255E+02 0.  0.
         13    1    3    3    0    0  0.31535848968E+02 -0.22094245980E+02  0.16859075564E+02  0.42034569921E+02  0.10566000000E+00 0.  1.
         22    1    1    0    0    0  0.19222440384E+02  0.22850968058E+02 -0.13751882837E+01  0.29892475614E+02  0.00000000000E+00 0. -1.
</event>
<event>
 5    1  0.1691066E-003  0.9118800E+02  0.7818608E-02  0.1130116E+00
         25   -1    0    0    0    0  0.00000000000E+00  0.00000000000E+00  0.99999998245E-14  0.12500000000E+03  0.12500000000E+03 0.  0.
        -13    1    3    3    0    0  0.25183746972E+02  0.16398263004E+02 -0.34537947724E+02  0.45782148684E+02  0.10566000000E+00 0.  1.
         23    2    1    0    0    0 -0.11556047281E+02 -0.15712701792E+02 -0.20825160248E+02  0.96467237678E+02  0.92151014208E+02 0.  0.
         13    1    3    3    0    0 -0.36739794254E+02 -0.32110964796E+02  0.13712787476E+02  0.50685088994E+02  0.10566000000E+00 0. -1.
         22    1    1    0    0    0  0.11556047281E+02  0.15712701792E+02  0.20825160248E+02  0.28532762322E+02  0.00000000000E+00 0.  1.
</event>
<event>
 5    1  0.1691066E-003  0.9118800E+02  0.7818608E-02  0.1130116E+00
         25   -1    0    0    0    0  0.00000000000E+00  0.00000000000E+00  0.99999998245E-14  0.12500000000E+03  0.12500000000E+03 0.  0.
        -13    1    3    3    0    0 -0.34057082468E+02  0.11359843892E+02  0.39589938497E+02  0.53444413307E+02  0.10566000000E+00 0. -1.
         23    2    1    0    0    0 -0.23195243524E+02  0.83706712426E+01 -0.53431298863E+01  0.99768343372E+02  0.96525052930E+02 0.  0.
         13    1    3    3    0    0  0.10861838944E+02 -0.29891726489E+01 -0.44933068383E+02  0.46323930066E+02  0.10566000000E+00 0.  1.
         22    1    1    0    0    0  0.23195243524E+02 -0.83706712426E+01  0.53431298863E+01  0.25231656628E+02  0.00000000000E+00 0. -1.
</event>
<event>
 5    1  0.1691066E-003  0.9118800E+02  0.7818608E-02  0.1130116E+00
         25   -1    0    0    0    0  0.00000000000E+00  0.00000000000E+00  0.99999998245E-14  0.12500000000E+03  0.12500000000E+03 0.  0.
        -13    1    3    3    0    0  0.19920631246E+02 -0.14287413070E+02 -0.27282756497E+02  0.36678627122E+02  0.10566000000E+00 0. -1.
         23    2    1    0    0    0 -0.18722307823E+02 -0.13325032389E+02  0.17703716561E+02  0.95991330977E+02  0.91503184340E+02 0.  0.
         13    1    3    3    0    0 -0.38642939069E+02  0.96238068145E+00  0.44986473058E+02  0.59312703855E+02  0.10566000000E+00 0.  1.
         22    1    1    0    0    0  0.18722307823E+02  0.13325032389E+02 -0.17703716561E+02  0.29008669023E+02  0.00000000000E+00 0.  1.
</event>
<event>
 5    1  0.1691066E-003  0.9118800E+02  0.7818608E-02  0.1130116E+00
         25   -1    0    0    0    0  0.00000000000E+00  0.00000000000E+00  0.99999998245E-14  0.12500000000E+03  0.12500000000E+03 0.  0.
        -13    1    3    3    0    0  0.21656910580E+02  0.31150155935E+02  0.94664238696E+01  0.39102152570E+02  0.10566000000E+00 0.  1.
         23    2    1    0    0    0  0.20161167195E+02 -0.13645911328E+02 -0.20629247211E+02  0.93089979644E+02  0.87449956610E+02 0.  0.
         13    1    3    3    0    0 -0.14957433855E+01 -0.44796067262E+02 -0.30095671080E+02  0.53987827075E+02  0.10566000000E+00 0. -1.
         22    1    1    0    0    0 -0.20161167195E+02  0.13645911328E+02  0.20629247211E+02  0.31910020356E+02  0.00000000000E+00 0. -1.
</event>
<event>
 5    1  0.1691066E-003  0.9118800E+02  0.7818608E-02  0.1130116E+00
         25   -1    0    0    0    0  0.00000000000E+00  0.00000000000E+00  0.99999998245E-14  0.12500000000E+03  0.12500000000E+03 0.  0.
        -13    1    3    3    0    0 -0.28471921107E+02  0.44242291694E+02 -0.59030818360E+01  0.52942310160E+02  0.10566000000E+00 0.  1.
         23    2    1    0    0    0 -0.52906679764E+01  0.14760572549E+02 -0.25353077948E+02  0.95189863619E+02  0.90401691935E+02 0.  0.
         13    1    3    3    0    0  0.23181253131E+02 -0.29481719145E+02 -0.19449996112E+02  0.42247553459E+02  0.10566000000E+00 0. -1.
         22    1    1    0    0    0  0.52906679764E+01 -0.14760572549E+02  0.25353077948E+02  0.29810136381E+02  0.00000000000E+00 0. -1.
</event>
<event>
 5    1  0.1691066E-003  0.9118800E+02  0.7818608E-02  0.1130116E+00
         25   -1    0    0    0    0  0.00000000000E+00  0.00000000000E+00  0.99999998245E-14  0.12500000000E+03  0.12500000000E+03 0.  0.
        -13    1    3    3    0    0  0.51307004497E+02  0.27945337395E+02  0.89079963222E+01  0.59099189124E+02  0.10566000000E+00 0. -1.
         23    2    1    0    0    0  0.14374411610E+02  0.22825008397E+02  0.95342582940E+01  0.96390442180E+02  0.92046784545E+02 0.  0.
         13    1    3    3    0    0 -0.36932592887E+02 -0.51203289984E+01  0.62626197175E+00  0.37291253057E+02  0.10566000000E+00 0.  1.
         22    1    1    0    0    0 -0.14374411610E+02 -0.22825008397E+02 -0.95342582940E+01  0.28609557820E+02  0.00000000000E+00 0. -1.
</event>
<event>
 5    1  0.1691066E-003  0.9118800E+02  0.7818608E-02  0.1130116E+00
         25   -1    0    0    0    0  0.00000000000E+00  0.00000000000E+00  0.99999998245E-14  0.12500000000E+03  0.12500000000E+03 0.  0.
        -13    1    3    3    0    0 -0.13684788742E+02 -0.38990057649E+02  0.30362668406E+02  0.51277683598E+02  0.10566000000E+00 0. -1.
         23    2    1    0    0    0  0.20067009807E+02 -0.12464076291E+02  0.15678018785E+02  0.96647956804E+02  0.92395828915E+02 0.  0.
         13    1    3    3    0    0  0.33751798549E+02  0.26525981358E+02 -0.14684649621E+02  0.45370273206E+02  0.10566000000E+00 0.  1.
         22    1    1    0    0    0 -0.20067009807E+02  0.12464076291E+02 -0.15678018785E+02  0.28352043196E+02  0.00000000000E+00 0. -1.
</event>
<event>
 5    1  0.1691066E-003  0.9118800E+02  0.7818608E-02  0.1130116E+00
         25   -1    0    0    0    0  0.00000000000E+00  0.00000000000E+00  0.99999998245E-14  0.12500000000E+03  0.12500000000E+03 0.  0.
        -13    1    3    3    0    0  0.40090622109E+02 -0.77992842556E+01 -0.37561418714E+02  0.55488360544E+02  0.10566000000E+00 0. -1.
         23    2    1    0    0    0  0.24037628395E+02  0.12627071792E+02 -0.45946024744E+01  0.97461646876E+02  0.93490169104E+02 0.  0.
         13    1    3    3    0    0 -0.16052993715E+02  0.20426356047E+02  0.32966816239E+02  0.41973286333E+02  0.10566000000E+00 0.  1.
         22    1    1    0    0    0 -0.24037628395E+02 -0.12627071792E+02  0.45946024744E+01  0.27538353124E+02  0.00000000000E+00 0. -1.
</event>
<event>
 5    1  0.1691066E-003  0.9118800E+02  0.7818608E-02  0.1130116E+00
         25   -1    0    0    0    0  0.00000000000E+00  0.00000000000E+00  0.99999998245E-14  0.12500000000E+03  0.12500000000E+03 0.  0.
        -13    1    3    3    0    0 -0.31055609626E+02  0.12917108900E+02 -0.20112004023E+02  0.39189366688E+02  0.10566000000E+00 0.  1.
         23    2    1    0    0    0  0.21914757033E+02  0.19554793931E+02 -0.20069279876E+01  0.95560667443E+02  0.90912963106E+02 0.  0.
         13    1    3    3    0    0  0.52970366659E+02  0.66376850306E+01  0.18105076035E+02  0.56371300755E+02  0.10566000000E+00 0. -1.
         22    1    1    0    0    0 -0.21914757033E+02 -0.19554793931E+02  0.20069279876E+01  0.29439332557E+02  0.00000000000E+00 0. -1.
</event>
<event>
 5    1  0.1691066E-003  0.9118800E+02  0.7818608E-02  0.1130116E+00
         25   -1    0    0    0    0  0.00000000000E+00  0.00000000000E+00  0.99999998245E-14  0.12500000000E+03  0.12500000000E+03 0.  0.
        -13    1    3    3    0    0 -0.39189885153E+02 -0.45167299605E+02  0.53968357828E+01  0.60042227244E+02  0.10566000000E+00 0. -1.
         23    2    1    0    0    0 -0.98151661902E+01 -0.27486662102E+02 -0.38702192459E+01  0.95557977687E+02  0.90909264774E+02 0.  0.
         13    1    3    3    0    0  0.29374718962E+02  0.17680637502E+02 -0.92670550286E+01  0.35515750443E+02  0.10566000000E+00 0.  1.
         22    1    1    0    0    0  0.98151661902E+01  0.27486662102E+02  0.38702192459E+01  0.29442022313E+02  0.00000000000E+00 0. -1.
</event>
<event>
 5    1  0.1691066E-003  0.9118800E+02  0.7818608E-02  0.1130116E+00
         25   -1    0    0    0    0  0.00000000000E+00  0.00000000000E+00  0.99999998245E-14  0.12500000000E+03  0.12500000000E+03 0.  0.
        -13    1    3    3    0    0 -0.18154546268E+02  0.23439306227E+02  0.84454703958E+01  0.30827354100E+02  0.10566000000E+00 0.  1.
         23    2    1    0    0    0  0.28610961446E+02 -0.15663699077E+02 -0.91561757795E-01  0.92381800062E+02  0.86431765083E+02 0.  0.
         13    1    3    3    0    0  0.46765507714E+02 -0.39103005304E+02 -0.85370321536E+01  0.61554445961E+02  0.10566000000E+00 0. -1.
         22    1    1    0    0    0 -0.28610961446E+02  0.15663699077E+02  0.91561757795E-01  0.32618199938E+02  0.00000000000E+00 0. -1.
</event>
<event>
 5    1  0.1691066E-003  0.9118800E+02  0.7818608E-02  0.1130116E+00
         25   -1    0    0    0    0  0.00000000000E+00  0.00000000000E+00  0.99999998245E-14  0.12500000000E+03  0.12500000000E+03 0.  0.
        -13    1    3    3    0    0 -0.18417223366E+02 -0.38920743576E+02  0.41717759850E+02  0.59953323910E+02  0.10566000000E+00 0.  1.
         23    2    1    0    0    0 -0.14474628649E+02 -0.52331170331E+01  0.17868003957E+02  0.10141682901E+03  0.98636743930E+02 0.  0.
         13    1    3    3    0    0  0.39425947167E+01  0.33687626543E+02 -0.23849755893E+02  0.41463505102E+02  0.10566000000E+00 0. -1.
         22    1    1    0    0    0  0.14474628649E+02  0.52331170331E+01 -0.17868003957E+02  0.23583170987E+02  0.00000000000E+00 0.  1.
</event>
<event>
 5    1  0.1691066E-003  0.9118800E+02  0.7818608E-02  0.1130116E+00
         25   -1    0    0    0    0  0.00000000000E+00  0.00000000000E+00  0.99999998245E-14  0.12500000000E+03  0.12500000000E+03 0.  0.
        -13    1    3    3    0    0 -0.39341489509E+02 -0.15647416630E+02  0.18415152448E+02  0.46170590723E+02  0.10566000000E+00 0.  1.
         23    2    1    0    0    0  0.71710594497E+01 -0.27328782816E+02  0.10916805401E+02  0.94710346585E+02  0.89736205883E+02 0.  0.
         13    1    3    3    0    0  0.46512548959E+02 -0.11681366186E+02 -0.74983470467E+01  0.48539755862E+02  0.10566000000E+00 0. -1.
         22    1    1    0    0    0 -0.71710594497E+01  0.27328782816E+02 -0.10916805401E+02  0.30289653415E+02  0.00000000000E+00 0.  1.
</event>
<event>
 5    1  0.1691066E-003  0.9118800E+02  0.7818608E-02  0.1130116E+00
         25   -1    0    0    0    0  0.00000000000E+00  0.00000000000E+00  0.99999998245E-14  0.12500000000E+03  0.12500000000E+03 0.  0.
        -13    1    3    3    0    0 -0.12350132382E+02  0.30483042443E+02 -0.22581076565E+02  0.39895586589E+02  0.10566000000E+00 0. -1.
         23    2    1    0    0    0  0.13045138001E+02 -0.14270910938E+02 -0.27275672743E+02  0.91566531020E+02  0.85244546775E+02 0.  0.
         13    1    3    3    0    0  0.25395270383E+02 -0.44753953381E+02 -0.46945961783E+01  0.51670944431E+02  0.10566000000E+00 0.  1.
         22    1    1    0    0    0 -0.13045138001E+02  0.14270910938E+02  0.27275672743E+02  0.33433468980E+02  0.00000000000E+00 0. -1.
</event>
<event>
 5    1  0.1691066E-003  0.9118800E+02  0.7818608E-02  0.1130116E+00
         25   -1    0    0    0    0  0.00000000000E+00  0.00000000000E+00  0.99999998245E-14  0.12500000000E+03  0.12500000000E+03 0.  0.
        -13    1    3    3    0    0  0.61116918663E+02  0.88107692662E+01 -0.26962528266E+01  0.61807672220E+02  0.10566000000E+00 0. -1.
         23    2    1    0    0    0  0.27254264845E+02  0.96717598472E+01 -0.45147183280E+01  0.95730210585E+02  0.91145776898E+02 0.  0.
         13    1    3    3    0    0 -0.33862653817E+02  0.86099058097E+00 -0.18184655014E+01  0.33922538365E+02  0.10566000000E+00 0.  1.
         22    1    1    0    0    0 -0.27254264845E+02 -0.96717598472E+01  0.45147183280E+01  0.29269789415E+02  0.00000000000E+00 0. -1.
</event>
<event>
 5    1  0.1691066E-003  0.9118800E+02  0.7818608E-02  0.1130116E+00
         25   -1    0    0    0    0  0.00000000000E+00  0.00000000000E+00  0.99999998245E-14  0.12500000000E+03  0.12500000000E+03 0.  0.
        -13    1    3    3    0    0  0.37927712546E+02 -0.42841123929E+02 -0.22991628314E+02  0.61664409630E+02  0.10566000000E+00 0.  1.
         23    2    1    0    0    0  0.12624928011E+02 -0.13295314848E+02 -0.14847368388E+02  0.10140765903E+03  0.98625122351E+02 0.  0.
         13    1    3    3    0    0 -0.25302784534E+02  0.29545809081E+02  0.81442599266E+01  0.39743249405E+02  0.10566000000E+00 0. -1.
         22    1    1    0    0    0 -0.12624928011E+02  0.13295314848E+02  0.14847368388E+02  0.23592340965E+02  0.00000000000E+00 0.  1.
</event>
<event>
 5    1  0.1691066E-003  0.9118800E+02  0.7818608E-02  0.1130116E+00
         25   -1    0    0    0    0  0.00000000000E+00  0.00000000000E+00  0.99999998245E-14  0.12500000000E+03  0.12500000000E+03 0.  0.
        -13    1    3    3    0    0 -0.67711464066E+01  0.56003544064E+02 -0.12200088192E+02  0.57715671072E+02  0.10566000000E+00 0. -1.
         23    2    1    0    0    0  0.25928606335E+00  0.20655268887E+02 -0.21753658403E+02  0.95001183091E+02  0.90140422523E+02 0.  0.
         13    1    3    3    0    0  0.70304324700E+01 -0.35348275177E+02 -0.95535702105E+01  0.37285512019E+02  0.10566000000E+00 0.  1.
         22    1    1    0    0    0 -0.25928606335E+00 -0.20655268887E+02  0.21753658403E+02  0.29998816909E+02  0.00000000000E+00 0. -1.
</event>
<event>
 5    1  0.1691066E-003  0.9118800E+02  0.7818608E-02  0.1130116E+00
         25   -1    0    0    0    0  0.00000000000E+00  0.00000000000E+00  0.99999998245E-14  0.12500000000E+03  0.12500000000E+03 0.  0.
        -13    1    3    3    0    0 -0.22174666245E+02  0.17785684648E+02  0.27024070208E+02  0.39221906329E+02  0.10566000000E+00 0. -1.
         23    2    1    0    0    0 -0.80037681261E+01 -0.24937173942E+02 -0.94505709147E+01  0.97156935530E+02  0.93081866562E+02 0.  0.
         13    1    3    3    0    0  0.14170898118E+02 -0.42722858590E+02 -0.36474641122E+02  0.57935029202E+02  0.10566000000E+00 0.  1.
         22    1    1    0    0    0  0.80037681261E+01  0.24937173942E+02  0.94505709147E+01  0.27843064470E+02  0.00000000000E+00 0.  1.
</event>
<event>
 5    1  0.1691066E-003  0.9118800E+02  0.7818608E-02  0.1130116E+00
         25   -1    0    0    0    0  0.00000000000E+00  0.00000000000E+00  0.99999998245E-14  0.12500000000E+03  0.12500000000E+03 0.  0.
        -13    1    3    3    0    0  0.14500993428E+02 -0.26140303441E+02 -0.14809351428E+02  0.33360490527E+02  0.10566000000E+00 0.  1.
         23    2    1    0    0    0 -0.10458003357E+02  0.18173105448E+02  0.20815102983E+02  0.95455117058E+02  0.90767721490E+02 0.  0.
         13    1    3    3    0    0 -0.24958996785E+02  0.44313408890E+02  0.35624454411E+02  0.62094626532E+02  0.10566000000E+00 0. -1.
         22    1    1    0    0    0  0.10458003357E+02 -0.18173105448E+02 -0.20815102983E+02  0.29544882942E+02  0.00000000000E+00 0. -1.
</event>
<event>
 5    1  0.1691066E-003  0.9118800E+02  0.7818608E-02  0.1130116E+00
         25   -1    0    0    0    0  0.00000000000E+00  0.00000000000E+00  0.99999998245E-14  0.12500000000E+03  0.12500000000E+03 0.  0.
        -13    1    3    3    0    0  0.78463245895E+01  0.42563119903E+02 -0.25364473772E+02  0.50165243737E+02  0.10566000000E+00 0.  1.
         23    2    1    0    0    0  0.30595729539E+02  0.14085909799E+02 -0.15481672539E+02  0.87929881232E+02  0.79733746356E+02 0.  0.
         13    1    3    3    0    0  0.22749404949E+02 -0.28477210104E+02  0.98828012333E+01  0.37764637495E+02  0.10566000000E+00 0. -1.
         22    1    1    0    0    0 -0.30595729539E+02 -0.14085909799E+02  0.15481672539E+02  0.37070118768E+02  0.00000000000E+00 0.  1.
</event>
<event>
 5    1  0.1691066E-003  0.9118800E+02  0.7818608E-02  0.1130116E+00
         25   -1    0    0    0    0  0.00000000000E+00  0.00000000000E+00  0.99999998245E-14  0.12500000000E+03  0.12500000000E+03 0.  0.
        -13    1    3    3    0    0 -0.44216371474E+01 -0.19114181283E+02 -0.35802516542E+02  0.40825655610E+02  0.10566000000E+00 0.  1.
         23    2    1    0    0    0  0.29652803809E+02  0.55245625546E+01 -0.20113656975E+01  0.94769962667E+02  0.89819211012E+02 0.  0.
         13    1    3    3    0    0  0.34074440957E+02  0.24638743838E+02  0.33791150845E+02  0.53944307057E+02  0.10566000000E+00 0. -1.
         22    1    1    0    0    0 -0.29652803809E+02 -0.55245625546E+01  0.20113656975E+01  0.30230037333E+02  0.00000000000E+00 0. -1.
</event>
<event>
 5    1  0.1691066E-003  0.9118800E+02  0.7818608E-02  0.1130116E+00
         25   -1    0    0    0    0  0.00000000000E+00  0.00000000000E+00  0.99999998245E-14  0.12500000000E+03  0.12500000000E+03 0.  0.
        -13    1    3    3    0    0  0.37893558304E+02  0.44822813665E+02  0.15722022387E+02  0.60763472068E+02  0.10566000000E+00 0. -1.
         23    2    1    0    0    0  0.13081786448E+02  0.17875946088E+02  0.16462551295E+02  0.97401119944E+02  0.93409207180E+02 0.  0.
         13    1    3    3    0    0 -0.24811771856E+02 -0.26946867577E+02  0.74052890751E+00  0.36637647876E+02  0.10566000000E+00 0.  1.
         22    1    1    0    0    0 -0.13081786448E+02 -0.17875946088E+02 -0.16462551295E+02  0.27598880056E+02  0.00000000000E+00 0. -1.
</event>
<event>
 5    1  0.1691066E-003  0.9118800E+02  0.7818608E-02  0.1130116E+00
         25   -1    0    0    0    0  0.00000000000E+00  0.00000000000E+00  0.99999998245E-14  0.12500000000E+03  0.12500000000E+03 0.  0.
        -13    1    3    3    0    0 -0.30771201682E+02 -0.24602249990E+02  0.22314086594E+02  0.45277667587E+02  0.10566000000E+00 0.  1.
         23    2    1    0    0    0  0.10991051804E+02 -0.23700139021E+02 -0.88750192202E+01  0.97408954794E+02  0.93419691172E+02 0.  0.
         13    1    3    3    0    0  0.41762253486E+02  0.90211096879E+00 -0.31189105814E+02  0.52131287208E+02  0.10566000000E+00 0. -1.
         22    1    1    0    0    0 -0.10991051804E+02  0.23700139021E+02  0.88750192202E+01  0.27591045206E+02  0.00000000000E+00 0. -1.
</event>
<event>
 5    1  0.1691066E-003  0.9118800E+02  0.7818608E-02  0.1130116E+00
         25   -1    0    0    0    0  0.00000000000E+00  0.00000000000E+00  0.99999998245E-14  0.12500000000E+03  0.12500000000E+03 0.  0.
        -13    1    3    3    0    0 -0.45514740819E+02  0.49339871338E+01  0.18739738004E+02  0.49468422305E+02  0.10566000000E+00 0.  1.
         23    2    1    0    0    0 -0.13788308773E+02 -0.25438503163E+02  0.40391925111E+01  0.95784422338E+02  0.91220094192E+02 0.  0.
         13    1    3    3    0    0  0.31726432046E+02 -0.30372490296E+02 -0.14700545493E+02  0.46316000032E+02  0.10566000000E+00 0. -1.
         22    1    1    0    0    0  0.13788308773E+02  0.25438503163E+02 -0.40391925111E+01  0.29215577662E+02  0.00000000000E+00 0.  1.
</event>
<event>
 5    1  0.1691066E-003  0.9118800E+02  0.7818608E-02  0.1130116E+00
         25   -1    0    0    0    0  0.00000000000E+00  0.00000000000E+00  0.99999998245E-14  0.12500000000E+03  0.12500000000E+03 0.  0.
        -13    1    3    3    0    0 -0.30226170781E+02 -0.49650072528E+02 -0.20780127306E+02  0.61729862765E+02  0.10566000000E+00 0. -1.
         23    2    1    0    0    0 -0.13438814644E+02 -0.25921978401E+02 -0.33793952050E+01  0.95606616133E+02  0.90976117928E+02 0.  0.
         13    1    3    3    0    0  0.16787356138E+02  0.23728094128E+02  0.17400732101E+02  0.33876753367E+02  0.10566000000E+00 0.  1.
         22    1    1    0    0    0  0.13438814644E+02  0.25921978401E+02  0.33793952050E+01  0.29393383867E+02  0.00000000000E+00 0. -1.
</event>
<event>
 5    1  0.1691066E-003  0.9118800E+02  0.7818608E-02  0.1130116E+00
         25   -1    0    0    0    0  0.00000000000E+00  0.00000000000E+00  0.99999998245E-14  0.12500000000E+03  0.12500000000E+03 0.  0.
        -13    1    3    3    0    0 -0.10599715113E+02  0.11598041932E+02 -0.29776598885E+02  0.33667871070E+02  0.10566000000E+00 0.  1.
         23    2    1    0    0    0  0.10126003628E+02 -0.13255152432E+02  0.23607157345E+02  0.96094414149E+02  0.91643895253E+02 0.  0.
         13    1    3    3    0    0  0.20725718741E+02 -0.24853194365E+02  0.53383756231E+02  0.62426543079E+02  0.10566000000E+00 0. -1.
         22    1    1    0    0    0 -0.10126003628E+02  0.13255152432E+02 -0.23607157345E+02  0.28905585851E+02  0.00000000000E+00 0. -1.
</event>
<event>
 5    1  0.1691066E-003  0.9118800E+02  0.7818608E-02  0.1130116E+00
         25   -1    0    0    0    0  0.00000000000E+00  0.00000000000E+00  0.99999998245E-14  0.12500000000E+03  0.12500000000E+03 0.  0.
        -13    1    3    3    0    0 -0.26672294940E+02  0.44531249914E+02  0.22003481289E+02  0.56379144098E+02  0.10566000000E+00 0. -1.
         23    2    1    0    0    0 -0.10592963227E+02  0.15331273174E+02  0.29084722595E+02  0.90457563845E+02  0.83602577480E+02 0.  0.
         13    1    3    3    0    0  0.16079331713E+02 -0.29199976741E+02  0.70812413063E+01  0.34078419747E+02  0.10566000000E+00 0.  1.
         22    1    1    0    0    0  0.10592963227E+02 -0.15331273174E+02 -0.29084722595E+02  0.34542436155E+02  0.00000000000E+00 0. -1.
</event>
<event>
 5    1  0.1691066E-003  0.9118800E+02  0.7818608E-02  0.1130116E+00
         25   -1    0    0    0    0  0.00000000000E+00  0.00000000000E+00  0.99999998245E-14  0.12500000000E+03  0.12500000000E+03 0.  0.
        -13    1    3    3    0    0 -0.49272418717E+02  0.36651341562E+01  0.15243110689E+02  0.51706557051E+02  0.10566000000E+00 0.  1.
         23    2    1    0    0    0 -0.19119642569E+02  0.13741947900E+02 -0.16198588422E+02  0.96420354605E+02  0.92087396810E+02 0.  0.
         13    1    3    3    0    0  0.30152776148E+02  0.10076813744E+02 -0.31441699110E+02  0.44713797553E+02  0.10566000000E+00 0. -1.
         22    1    1    0    0    0  0.19119642569E+02 -0.13741947900E+02  0.16198588422E+02  0.28579645395E+02  0.00000000000E+00 0.  1.
</event>
<event>
 5    1  0.1691066E-003  0.9118800E+02  0.7818608E-02  0.1130116E+00
         25   -1    0    0    0    0  0.00000000000E+00  0.00000000000E+00  0.99999998245E-14  0.12500000000E+03  0.12500000000E+03 0.  0.
        -13    1    3    3    0    0 -0.25972881872E+02 -0.20146506606E+02 -0.22354729261E+02  0.39751948449E+02  0.10566000000E+00 0.  1.
         23    2    1    0    0    0  0.10364668824E+02  0.22375426866E+02 -0.14922531579E+02  0.96176953041E+02  0.91756407189E+02 0.  0.
         13    1    3    3    0    0  0.36337550696E+02  0.42521933472E+02  0.74321976817E+01  0.56425004592E+02  0.10566000000E+00 0. -1.
         22    1    1    0    0    0 -0.10364668824E+02 -0.22375426866E+02  0.14922531579E+02  0.28823046959E+02  0.00000000000E+00 0. -1.
</event>
<event>
 5    1  0.1691066E-003  0.9118800E+02  0.7818608E-02  0.1130116E+00
         25   -1    0    0    0    0  0.00000000000E+00  0.00000000000E+00  0.99999998245E-14  0.12500000000E+03  0.12500000000E+03 0.  0.
        -13    1    3    3    0    0 -0.11023189275E+02 -0.46987517332E+01  0.34874875362E+02  0.36876239846E+02  0.10566000000E+00 0.  1.
         23    2    1    0    0    0 -0.17120809306E+02 -0.25468691140E+02 -0.14701107669E+02  0.90972086365E+02  0.84368368428E+02 0.  0.
         13    1    3    3    0    0 -0.60976200317E+01 -0.20769939407E+02 -0.49575983031E+02  0.54095846519E+02  0.10566000000E+00 0. -1.
         22    1    1    0    0    0  0.17120809306E+02  0.25468691140E+02  0.14701107669E+02  0.34027913635E+02  0.00000000000E+00 0. -1.
</event>
<event>
 5    1  0.1691066E-003  0.9118800E+02  0.7818608E-02  0.1130116E+00
         25   -1    0    0    0    0  0.00000000000E+00  0.00000000000E+00  0.99999998245E-14  0.12500000000E+03  0.12500000000E+03 0.  0.
        -13    1    3    3    0    0  0.42170443872E+02 -0.20633447682E+01 -0.77889351077E+01  0.42933464828E+02  0.10566000000E+00 0. -1.
         23    2    1    0    0    0 -0.24235765005E+01  0.27175697589E+02 -0.89943671549E+01  0.96272123242E+02  0.91885966341E+02 0.  0.
         13    1    3    3    0    0 -0.44594020372E+02  0.29239042358E+02 -0.12054320472E+01  0.53338658414E+02  0.10566000000E+00 0.  1.
         22    1    1    0    0    0  0.24235765005E+01 -0.27175697589E+02  0.89943671549E+01  0.28727876758E+02  0.00000000000E+00 0.  1.
</event>
<event>
 5    1  0.1691066E-003  0.9118800E+02  0.7818608E-02  0.1130116E+00
         25   -1    0    0    0    0  0.00000000000E+00  0.00000000000E+00  0.99999998245E-14  0.12500000000E+03  0.12500000000E+03 0.  0.
        -13    1    3    3    0    0  0.15642012364E+02 -0.47808549418E+01 -0.39242545539E+02  0.42514911140E+02  0.10566000000E+00 0.  1.
         23    2    1    0    0    0  0.19459624175E+02 -0.22412359604E+02  0.89704709670E+01  0.93992578543E+02  0.88730742337E+02 0.  0.
         13    1    3    3    0    0  0.38176118113E+01 -0.17631504662E+02  0.48213016506E+02  0.51477667403E+02  0.10566000000E+00 0. -1.
         22    1    1    0    0    0 -0.19459624175E+02  0.22412359604E+02 -0.89704709670E+01  0.31007421457E+02  0.00000000000E+00 0. -1.
</event>
<event>
 5    1  0.1691066E-003  0.9118800E+02  0.7818608E-02  0.1130116E+00
         25   -1    0    0    0    0  0.00000000000E+00  0.00000000000E+00  0.99999998245E-14  0.12500000000E+03  0.12500000000E+03 0.  0.
        -13    1    3    3    0    0  0.26869328730E+02 -0.37499660668E+02  0.35017518103E+02  0.57917381802E+02  0.10566000000E+00 0.  1.
         23    2    1    0    0    0 -0.30305734730E+01 -0.24376425954E+02  0.15129383233E+02  0.96150515518E+02  0.91720384209E+02 0.  0.
         13    1    3    3    0    0 -0.29899902203E+02  0.13123234713E+02 -0.19888134870E+02  0.38233133716E+02  0.10566000000E+00 0. -1.
         22    1    1    0    0    0  0.30305734730E+01  0.24376425954E+02 -0.15129383233E+02  0.28849484482E+02  0.00000000000E+00 0.  1.
</event>
<event>
 5    1  0.1691066E-003  0.9118800E+02  0.7818608E-02  0.1130116E+00
         25   -1    0    0    0    0  0.00000000000E+00  0.00000000000E+00  0.99999998245E-14  0.12500000000E+03  0.12500000000E+03 0.  0.
        -13    1    3    3    0    0  0.32267701703E+02  0.83432656309E+01  0.14128039340E+02  0.36199824782E+02  0.10566000000E+00 0.  1.
         23    2    1    0    0    0 -0.29311769605E+01 -0.12032629134E+02 -0.27771252489E+02  0.94592461016E+02  0.89571844092E+02 0.  0.
         13    1    3    3    0    0 -0.35198878664E+02 -0.20375894765E+02 -0.41899291828E+02  0.58392636235E+02  0.10566000000E+00 0. -1.
         22    1    1    0    0    0  0.29311769605E+01  0.12032629134E+02  0.27771252489E+02  0.30407538984E+02  0.00000000000E+00 0. -1.
</event>
<event>
 5    1  0.1691066E-003  0.9118800E+02  0.7818608E-02  0.1130116E+00
         25   -1    0    0    0    0  0.00000000000E+00  0.00000000000E+00  0.99999998245E-14  0.12500000000E+03  0.12500000000E+03 0.  0.
        -13    1    3    3    0    0 -0.47388587422E+02  0.17309425397E+02  0.35550566324E+02  0.61718298384E+02  0.10566000000E+00 0.  1.
         23    2    1    0    0    0 -0.26685199474E+02  0.66155506834E+01  0.11522072163E+02  0.95190210857E+02  0.90402172066E+02 0.  0.
         13    1    3    3    0    0  0.20703387948E+02 -0.10693874714E+02 -0.24028494161E+02  0.33471912473E+02  0.10566000000E+00 0. -1.
         22    1    1    0    0    0  0.26685199474E+02 -0.66155506834E+01 -0.11522072163E+02  0.29809789143E+02  0.00000000000E+00 0.  1.
</event>
<event>
 5    1  0.1691066E-003  0.9118800E+02  0.7818608E-02  0.1130116E+00
         25   -1    0    0    0    0  0.00000000000E+00  0.00000000000E+00  0.99999998245E-14  0.12500000000E+03  0.12500000000E+03 0.  0.
        -13    1    3    3    0    0  0.39709432449E+02 -0.26398232489E+02  0.27106796671E+02  0.54849751993E+02  0.10566000000E+00 0. -1.
         23    2    1    0    0    0  0.57863715102E+01  0.73321191090E+01  0.19619458812E+02  0.10327063669E+03  0.10095870033E+03 0.  0.
         13    1    3    3    0    0 -0.33923060939E+02  0.33730351598E+02 -0.74873378592E+01  0.48420884695E+02  0.10566000000E+00 0.  1.
         22    1    1    0    0    0 -0.57863715102E+01 -0.73321191090E+01 -0.19619458812E+02  0.21729363312E+02  0.00000000000E+00 0. -1.
</event>
<event>
 5    1  0.1691066E-003  0.9118800E+02  0.7818608E-02  0.1130116E+00
         25   -1    0    0    0    0  0.00000000000E+00  0.00000000000E+00  0.99999998245E-14  0.12500000000E+03  0.12500000000E+03 0.  0.
        -13    1    3    3    0    0  0.72755995346E+01 -0.23653274335E+02  0.37716235290E+02  0.45110279359E+02  0.10566000000E+00 0. -1.
         23    2    1    0    0    0  0.28936485970E+02  0.83455859291E+00 -0.13109981561E+01  0.96021811228E+02  0.91544813108E+02 0.  0.
         13    1    3    3    0    0  0.21660886436E+02  0.24487832928E+02 -0.39027233446E+02  0.50911531869E+02  0.10566000000E+00 0.  1.
         22    1    1    0    0    0 -0.28936485970E+02 -0.83455859291E+00  0.13109981561E+01  0.28978188772E+02  0.00000000000E+00 0.  1.
</event>
<event>
 5    1  0.1691066E-003  0.9118800E+02  0.7818608E-02  0.1130116E+00
         25   -1    0    0    0    0  0.00000000000E+00  0.00000000000E+00  0.99999998245E-14  0.12500000000E+03  0.12500000000E+03 0.  0.
        -13    1    3    3    0    0  0.24337994864E+02  0.36231225582E+02 -0.15544916330E+02  0.46332443157E+02  0.10566000000E+00 0. -1.
         23    2    1    0    0    0 -0.18756893556E+02  0.25885404678E+02 -0.85930229244E+00  0.93021669342E+02  0.87352260048E+02 0.  0.
         13    1    3    3    0    0 -0.43094888420E+02 -0.10345820903E+02  0.14685614038E+02  0.46689226185E+02  0.10566000000E+00 0.  1.
         22    1    1    0    0    0  0.18756893556E+02 -0.25885404678E+02  0.85930229244E+00  0.31978330658E+02  0.00000000000E+00 0.  1.
</event>
<event>
 5    1  0.1691066E-003  0.9118800E+02  0.7818608E-02  0.1130116E+00
         25   -1    0    0    0    0  0.00000000000E+00  0.00000000000E+00  0.99999998245E-14  0.12500000000E+03  0.12500000000E+03 0.  0.
        -13    1    3    3    0    0 -0.38389298773E+02  0.36165377214E+01  0.21868214713E+02  0.44328857239E+02  0.10566000000E+00 0. -1.
         23    2    1    0    0    0  0.88182165254E+01  0.22607697375E+02  0.16843272459E+02  0.95460792996E+02  0.90775537724E+02 0.  0.
         13    1    3    3    0    0  0.47207515298E+02  0.18991159653E+02 -0.50249422536E+01  0.51131935757E+02  0.10566000000E+00 0.  1.
         22    1    1    0    0    0 -0.88182165254E+01 -0.22607697375E+02 -0.16843272459E+02  0.29539207004E+02  0.00000000000E+00 0.  1.
</event>
<event>
 5    1  0.1691066E-003  0.9118800E+02  0.7818608E-02  0.1130116E+00
         25   -1    0    0    0    0  0.00000000000E+00  0.00000000000E+00  0.99999998245E-14  0.12500000000E+03  0.12500000000E+03 0.  0.
        -13    1    3    3    0    0  0.38890973628E+02 -0.24440679273E+02 -0.95317580364E+01  0.46911834417E+02  0.10566000000E+00 0.  1.
         23    2    1    0    0    0 -0.53109709753E+01 -0.12022248258E+02 -0.26144103444E+02  0.95738164604E+02  0.91156684620E+02 0.  0.
         13    1    3    3    0    0 -0.44201944603E+02  0.12418431015E+02 -0.16612345407E+02  0.48826330187E+02  0.10566000000E+00 0. -1.
         22    1    1    0    0    0  0.53109709753E+01  0.12022248258E+02  0.26144103444E+02  0.29261835396E+02  0.00000000000E+00 0. -1.
</event>
<event>
 5    1  0.1691066E-003  0.9118800E+02  0.7818608E-02  0.1130116E+00
         25   -1    0    0    0    0  0.00000000000E+00  0.00000000000E+00  0.99999998245E-14  0.12500000000E+03  0.12500000000E+03 0.  0.
        -13    1    3    3    0    0  0.22529677585E+02  0.64745884025E+00 -0.55603512041E+02  0.59998060722E+02  0.10566000000E+00 0.  1.
         23    2    1    0    0    0  0.98831274490E+00 -0.76484732143E+01 -0.27876121586E+02  0.96076755728E+02  0.91619806439E+02 0.  0.
         13    1    3    3    0    0 -0.21541364840E+02 -0.82959320546E+01  0.27727390455E+02  0.36078695006E+02  0.10566000000E+00 0. -1.
         22    1    1    0    0    0 -0.98831274490E+00  0.76484732143E+01  0.27876121586E+02  0.28923244272E+02  0.00000000000E+00 0.  1.
</event>
<event>
 5    1  0.1691066E-003  0.9118800E+02  0.7818608E-02  0.1130116E+00
         25   -1    0    0    0    0  0.00000000000E+00  0.00000000000E+00  0.99999998245E-14  0.12500000000E+03  0.12500000000E+03 0.  0.
        -13    1    3    3    0    0  0.11993605988E+02 -0.56454277533E+02 -0.94191947234E+01  0.58477896933E+02  0.10566000000E+00 0. -1.
         23    2    1    0    0    0  0.18949002819E+02 -0.22864847527E+02  0.34271428496E+01  0.95106668496E+02  0.90286583300E+02 0.  0.
         13    1    3    3    0    0  0.69553968311E+01  0.33589430006E+02  0.12846337573E+02  0.36628771564E+02  0.10566000000E+00 0.  1.
         22    1    1    0    0    0 -0.18949002819E+02  0.22864847527E+02 -0.34271428496E+01  0.29893331504E+02  0.00000000000E+00 0. -1.
</event>
<event>
 5    1  0.1691066E-003  0.9118800E+02  0.7818608E-02  0.1130116E+00
         25   -1    0    0    0    0  0.00000000000E+00  0.00000000000E+00  0.99999998245E-14  0.12500000000E+03  0.12500000000E+03 0.  0.
        -13    1    3    3    0    0 -0.26780079548E+02  0.21529930358E+02  0.13500520305E+02  0.36918637222E+02  0.10566000000E+00 0. -1.
         23    2    1    0    0    0  0.26562946972E+02 -0.52664947090E+01  0.74135881364E+01  0.96923543538E+02  0.92767914090E+02 0.  0.
         13    1    3    3    0    0  0.53343026520E+02 -0.26796425067E+02 -0.60869321688E+01  0.60004906316E+02  0.10566000000E+00 0.  1.
         22    1    1    0    0    0 -0.26562946972E+02  0.52664947090E+01 -0.74135881364E+01  0.28076456462E+02  0.00000000000E+00 0.  1.
</event>
<event>
 5    1  0.1691066E-003  0.9118800E+02  0.7818608E-02  0.1130116E+00
         25   -1    0    0    0    0  0.00000000000E+00  0.00000000000E+00  0.99999998245E-14  0.12500000000E+03  0.12500000000E+03 0.  0.
        -13    1    3    3    0    0  0.24366992048E+02 -0.27608605062E+02 -0.65191649212E+01  0.37396471094E+02  0.10566000000E+00 0. -1.
         23    2    1    0    0    0 -0.22243830662E+01  0.21476453482E+02  0.16544924858E+02  0.97798520762E+02  0.93939502822E+02 0.  0.
         13    1    3    3    0    0 -0.26591375115E+02  0.49085058544E+02  0.23064089779E+02  0.60402049668E+02  0.10566000000E+00 0.  1.
         22    1    1    0    0    0  0.22243830662E+01 -0.21476453482E+02 -0.16544924858E+02  0.27201479238E+02  0.00000000000E+00 0.  1.
</event>
<event>
 5    1  0.1691066E-003  0.9118800E+02  0.7818608E-02  0.1130116E+00
         25   -1    0    0    0    0  0.00000000000E+00  0.00000000000E+00  0.99999998245E-14  0.12500000000E+03  0.12500000000E+03 0.  0.
        -13    1    3    3    0    0 -0.11438568827E+02 -0.57361495416E+01 -0.33058872681E+02  0.35449181871E+02  0.10566000000E+00 0.  1.
         23    2    1    0    0    0 -0.59682029295E+00  0.15049277355E+02  0.23734119252E+02  0.96890475634E+02  0.92723346082E+02 0.  0.
         13    1    3    3    0    0  0.10841748534E+02  0.20785426896E+02  0.56792991933E+02  0.61441293763E+02  0.10566000000E+00 0. -1.
         22    1    1    0    0    0  0.59682029295E+00 -0.15049277355E+02 -0.23734119252E+02  0.28109524366E+02  0.00000000000E+00 0. -1.
</event>
<event>
 5    1  0.1691066E-003  0.9118800E+02  0.7818608E-02  0.1130116E+00
         25   -1    0    0    0    0  0.00000000000E+00  0.00000000000E+00  0.99999998245E-14  0.12500000000E+03  0.12500000000E+03 0.  0.
        -13    1    3    3    0    0  0.48666885128E+02 -0.10777102876E+02 -0.26328677242E+02  0.56372174553E+02  0.10566000000E+00 0.  1.
         23    2    1    0    0    0  0.28942329621E+02  0.85796115020E+01  0.38719263106E+00  0.94810298187E+02  0.89875327798E+02 0.  0.
         13    1    3    3    0    0 -0.19724555507E+02  0.19356714378E+02  0.26715869873E+02  0.38438123635E+02  0.10566000000E+00 0. -1.
         22    1    1    0    0    0 -0.28942329621E+02 -0.85796115020E+01 -0.38719263106E+00  0.30189701813E+02  0.00000000000E+00 0.  1.
</event>
<event>
 5    1  0.1691066E-003  0.9118800E+02  0.7818608E-02  0.1130116E+00
         25   -1    0    0    0    0  0.00000000000E+00  0.00000000000E+00  0.99999998245E-14  0.12500000000E+03  0.12500000000E+03 0.  0.
        -13    1    3    3    0    0  0.53427780856E+02 -0.25843364043E+02 -0.12210340634E+02  0.60592993115E+02  0.10566000000E+00 0. -1.
         23    2    1    0    0    0  0.24138777830E+02 -0.13493684824E+02  0.52389359345E+01  0.96853835519E+02  0.92673938515E+02 0.  0.
         13    1    3    3    0    0 -0.29289003026E+02  0.12349679219E+02  0.17449276569E+02  0.36260842404E+02  0.10566000000E+00 0.  1.
         22    1    1    0    0    0 -0.24138777830E+02  0.13493684824E+02 -0.52389359345E+01  0.28146164481E+02  0.00000000000E+00 0. -1.
</event>
<event>
 5    1  0.1691066E-003  0.9118800E+02  0.7818608E-02  0.1130116E+00
         25   -1    0    0    0    0  0.00000000000E+00  0.00000000000E+00  0.99999998245E-14  0.12500000000E+03  0.12500000000E+03 0.  0.
        -13    1    3    3    0    0  0.36024452392E+02  0.32546473057E+02 -0.29785984337E+02  0.56958319020E+02  0.10566000000E+00 0.  1.
         23    2    1    0    0    0  0.73356146292E+01  0.28936020146E+02 -0.56599836561E+01  0.94616782282E+02  0.89605778667E+02 0.  0.
         13    1    3    3    0    0 -0.28688837763E+02 -0.36104529104E+01  0.24126000681E+02  0.37658463263E+02  0.10566000000E+00 0. -1.
         22    1    1    0    0    0 -0.73356146292E+01 -0.28936020146E+02  0.56599836561E+01  0.30383217718E+02  0.00000000000E+00 0.  1.
</event>
<event>
 5    1  0.1691066E-003  0.9118800E+02  0.7818608E-02  0.1130116E+00
         25   -1    0    0    0    0  0.00000000000E+00  0.00000000000E+00  0.99999998245E-14  0.12500000000E+03  0.12500000000E+03 0.  0.
        -13    1    3    3    0    0  0.36116436729E+02  0.58669260609E+01  0.20055357771E+02  0.41725847658E+02  0.10566000000E+00 0.  1.
         23    2    1    0    0    0 -0.22052900894E+02 -0.68591186800E+00  0.82677085234E+01  0.10143825310E+03  0.98663890427E+02 0.  0.
         13    1    3    3    0    0 -0.58169337623E+02 -0.65528379289E+01 -0.11787649248E+02  0.59712405438E+02  0.10566000000E+00 0. -1.
         22    1    1    0    0    0  0.22052900894E+02  0.68591186800E+00 -0.82677085234E+01  0.23561746903E+02  0.00000000000E+00 0. -1.
</event>
<event>
 5    1  0.1691066E-003  0.9118800E+02  0.7818608E-02  0.1130116E+00
         25   -1    0    0    0    0  0.00000000000E+00  0.00000000000E+00  0.99999998245E-14  0.12500000000E+03  0.12500000000E+03 0.  0.
        -13    1    3    3    0    0 -0.52934672568E+02  0.87563476436E+01  0.25901574366E+02  0.59578988768E+02  0.10566000000E+00 0. -1.
         23    2    1    0    0    0 -0.28849597893E+02  0.86721175321E+01  0.10041050809E+00  0.94875010317E+02  0.89965285413E+02 0.  0.
         13    1    3    3    0    0  0.24085074674E+02 -0.84230111526E-01 -0.25801163858E+02  0.35296021550E+02  0.10566000000E+00 0.  1.
         22    1    1    0    0    0  0.28849597893E+02 -0.86721175321E+01 -0.10041050809E+00  0.30124989683E+02  0.00000000000E+00 0. -1.
</event>
<event>
 5    1  0.1691066E-003  0.9118800E+02  0.7818608E-02  0.1130116E+00
         25   -1    0    0    0    0  0.00000000000E+00  0.00000000000E+00  0.99999998245E-14  0.12500000000E+03  0.12500000000E+03 0.  0.
        -13    1    3    3    0    0 -0.46391816020E+02  0.17128126983E+02 -0.38074115441E+01  0.49599202355E+02  0.10566000000E+00 0. -1.
         23    2    1    0    0    0 -0.16250538299E+02  0.13588968202E+02  0.25541132045E+02  0.91817331664E+02  0.85611523266E+02 0.  0.
         13    1    3    3    0    0  0.30141277721E+02 -0.35391587812E+01  0.29348543589E+02  0.42218129309E+02  0.10566000000E+00 0.  1.
         22    1    1    0    0    0  0.16250538299E+02 -0.13588968202E+02 -0.25541132045E+02  0.33182668336E+02  0.00000000000E+00 0. -1.
</event>
<event>
 5    1  0.1691066E-003  0.9118800E+02  0.7818608E-02  0.1130116E+00
         25   -1    0    0    0    0  0.00000000000E+00  0.00000000000E+00  0.99999998245E-14  0.12500000000E+03  0.12500000000E+03 0.  0.
        -13    1    3    3    0    0 -0.39457131616E+02  0.33902328838E+01 -0.13887213832E+02  0.41966948739E+02  0.10566000000E+00 0.  1.
         23    2    1    0    0    0  0.71981004673E+01 -0.22633586564E+02 -0.17480304793E+02  0.95510121283E+02  0.90843438512E+02 0.  0.
         13    1    3    3    0    0  0.46655232084E+02 -0.26023819448E+02 -0.35930909614E+01  0.53543172544E+02  0.10566000000E+00 0. -1.
         22    1    1    0    0    0 -0.71981004673E+01  0.22633586564E+02  0.17480304793E+02  0.29489878717E+02  0.00000000000E+00 0. -1.
</event>
<event>
 5    1  0.1691066E-003  0.9118800E+02  0.7818608E-02  0.1130116E+00
         25   -1    0    0    0    0  0.00000000000E+00  0.00000000000E+00  0.99999998245E-14  0.12500000000E+03  0.12500000000E+03 0.  0.
        -13    1    3    3    0    0  0.72262304922E+01 -0.30708043795E+02 -0.19079543249E+02  0.36867906036E+02  0.10566000000E+00 0. -1.
         23    2    1    0    0    0 -0.17549762982E+02 -0.59190993979E+01  0.25442755155E+02  0.93529955382E+02  0.88076607822E+02 0.  0.
         13    1    3    3    0    0 -0.24775993474E+02  0.24788944397E+02  0.44522298404E+02  0.56662049346E+02  0.10566000000E+00 0.  1.
         22    1    1    0    0    0  0.17549762982E+02  0.59190993979E+01 -0.25442755155E+02  0.31470044618E+02  0.00000000000E+00 0.  1.
</event>
<event>
 5    1  0.1691066E-003  0.9118800E+02  0.7818608E-02  0.1130116E+00
         25   -1    0    0    0    0  0.00000000000E+00  0.00000000000E+00  0.99999998245E-14  0.12500000000E+03  0.12500000000E+03 0.  0.
        -13    1    3    3    0    0  0.39130364221E+02 -0.26720210705E+01 -0.46776644588E+02  0.61044170431E+02  0.10566000000E+00 0. -1.
         23    2    1    0    0    0  0.13092381624E+02 -0.99444981679E+01 -0.20206042171E+02  0.98950285210E+02  0.95459788930E+02 0.  0.
         13    1    3    3    0    0 -0.26037982597E+02 -0.72724770974E+01  0.26570602416E+02  0.37906114779E+02  0.10566000000E+00 0.  1.
         22    1    1    0    0    0 -0.13092381624E+02  0.99444981679E+01  0.20206042171E+02  0.26049714790E+02  0.00000000000E+00 0. -1.
</event>
<event>
 5    1  0.1691066E-003  0.9118800E+02  0.7818608E-02  0.1130116E+00
         25   -1    0    0    0    0  0.00000000000E+00  0.00000000000E+00  0.99999998245E-14  0.12500000000E+03  0.12500000000E+03 0.  0.
        -13    1    3    3    0    0  0.26479874208E+02 -0.27946426965E+02 -0.84355379508E+01  0.39412637348E+02  0.10566000000E+00 0.  1.
         23    2    1    0    0    0 -0.12727772324E+02  0.18149055214E+02 -0.11543585633E+02  0.10000722579E+03  0.96833911659E+02 0.  0.
         13    1    3    3    0    0 -0.39207646532E+02  0.46095482179E+02 -0.31080476825E+01  0.60594588441E+02  0.10566000000E+00 0. -1.
         22    1    1    0    0    0  0.12727772324E+02 -0.18149055214E+02  0.11543585633E+02  0.24992774211E+02  0.00000000000E+00 0. -1.
</event>
<event>
 5    1  0.1691066E-003  0.9118800E+02  0.7818608E-02  0.1130116E+00
         25   -1    0    0    0    0  0.00000000000E+00  0.00000000000E+00  0.99999998245E-14  0.12500000000E+03  0.12500000000E+03 0.  0.
        -13    1    3    3    0    0  0.33167759187E+02  0.17152444532E+02 -0.47754612329E+01  0.37644691484E+02  0.10566000000E+00 0.  1.
         23    2    1    0    0    0 -0.83045813008E+01 -0.13437508171E+01  0.29362857405E+02  0.94455783987E+02  0.89380903983E+02 0.  0.
         13    1    3    3    0    0 -0.41472340488E+02 -0.18496195349E+02  0.34138318638E+02  0.56811092503E+02  0.10566000000E+00 0. -1.
         22    1    1    0    0    0  0.83045813008E+01  0.13437508171E+01 -0.29362857405E+02  0.30544216013E+02  0.00000000000E+00 0.  1.
</event>
<event>
 5    1  0.1691066E-003  0.9118800E+02  0.7818608E-02  0.1130116E+00
         25   -1    0    0    0    0  0.00000000000E+00  0.00000000000E+00  0.99999998245E-14  0.12500000000E+03  0.12500000000E+03 0.  0.
        -13    1    3    3    0    0 -0.58969351830E+02 -0.13576470571E+02 -0.45201373655E+01  0.60680703805E+02  0.10566000000E+00 0.  1.
         23    2    1    0    0    0 -0.23076023071E+02 -0.15191931604E+02 -0.63307349777E+01  0.96656114734E+02  0.92406864915E+02 0.  0.
         13    1    3    3    0    0  0.35893328759E+02 -0.16154610330E+01 -0.18105976122E+01  0.35975410929E+02  0.10566000000E+00 0. -1.
         22    1    1    0    0    0  0.23076023071E+02  0.15191931604E+02  0.63307349777E+01  0.28343885266E+02  0.00000000000E+00 0.  1.
</event>
<event>
 5    1  0.1691066E-003  0.9118800E+02  0.7818608E-02  0.1130116E+00
         25   -1    0    0    0    0  0.00000000000E+00  0.00000000000E+00  0.99999998245E-14  0.12500000000E+03  0.12500000000E+03 0.  0.
        -13    1    3    3    0    0  0.48840618946E+02 -0.11142321204E+02  0.21805874013E+02  0.54635745500E+02  0.10566000000E+00 0. -1.
         23    2    1    0    0    0  0.28744041895E+02 -0.50843131864E+01 -0.11186898679E+02  0.93739531560E+02  0.88373541799E+02 0.  0.
         13    1    3    3    0    0 -0.20096577052E+02  0.60580080176E+01 -0.32992772691E+02  0.39103786060E+02  0.10566000000E+00 0.  1.
         22    1    1    0    0    0 -0.28744041895E+02  0.50843131864E+01  0.11186898679E+02  0.31260468440E+02  0.00000000000E+00 0. -1.
</event>
<event>
 5    1  0.1691066E-003  0.9118800E+02  0.7818608E-02  0.1130116E+00
         25   -1    0    0    0    0  0.00000000000E+00  0.00000000000E+00  0.99999998245E-14  0.12500000000E+03  0.12500000000E+03 0.  0.
        -13    1    3    3    0    0  0.64604416961E+01  0.15989306923E+02 -0.49241145446E+02  0.52173717633E+02  0.10566000000E+00 0.  1.
         23    2    1    0    0    0  0.84832865077E+01  0.26295971680E+02 -0.59300463085E+01  0.96740316247E+02  0.92520695316E+02 0.  0.
         13    1    3    3    0    0  0.20228448115E+01  0.10306664758E+02  0.43311099137E+02  0.44566598614E+02  0.10566000000E+00 0. -1.
         22    1    1    0    0    0 -0.84832865077E+01 -0.26295971680E+02  0.59300463085E+01  0.28259683753E+02  0.00000000000E+00 0.  1.
</event>
<event>
 5    1  0.1691066E-003  0.9118800E+02  0.7818608E-02  0.1130116E+00
         25   -1    0    0    0    0  0.00000000000E+00  0.00000000000E+00  0.99999998245E-14  0.12500000000E+03  0.12500000000E+03 0.  0.
        -13    1    3    3    0    0 -0.21512863626E+02 -0.35139519603E+02 -0.17826026837E+02  0.44892845044E+02  0.10566000000E+00 0.  1.
         23    2    1    0    0    0 -0.26671386583E+02  0.11373231022E+02 -0.16347089890E+02  0.91714258397E+02  0.85460895147E+02 0.  0.
         13    1    3    3    0    0 -0.51585229576E+01  0.46512750626E+02  0.14789369474E+01  0.46821413353E+02  0.10566000000E+00 0. -1.
         22    1    1    0    0    0  0.26671386583E+02 -0.11373231022E+02  0.16347089890E+02  0.33285741603E+02  0.00000000000E+00 0. -1.
</event>
<event>
 5    1  0.1691066E-003  0.9118800E+02  0.7818608E-02  0.1130116E+00
         25   -1    0    0    0    0  0.00000000000E+00  0.00000000000E+00  0.99999998245E-14  0.12500000000E+03  0.12500000000E+03 0.  0.
        -13    1    3    3    0    0  0.23233898122E+02 -0.44394389027E+02 -0.30410632957E+02  0.58613083522E+02  0.10566000000E+00 0. -1.
         23    2    1    0    0    0  0.18046408135E+01 -0.31721215433E+02 -0.77093074134E+01  0.92305571456E+02  0.86321450776E+02 0.  0.
         13    1    3    3    0    0 -0.21429257308E+02  0.12673173594E+02  0.22701325544E+02  0.33692487934E+02  0.10566000000E+00 0.  1.
         22    1    1    0    0    0 -0.18046408135E+01  0.31721215433E+02  0.77093074134E+01  0.32694428544E+02  0.00000000000E+00 0. -1.
</event>
<event>
 5    1  0.1691066E-003  0.9118800E+02  0.7818608E-02  0.1130116E+00
         25   -1    0    0    0    0  0.00000000000E+00  0.00000000000E+00  0.99999998245E-14  0.12500000000E+03  0.12500000000E+03 0.  0.
        -13    1    3    3    0    0 -0.10202944444E+02 -0.21228660185E+02 -0.33957063071E+02  0.41326134407E+02  0.10566000000E+00 0.  1.
         23    2    1    0    0    0  0.77351182916E+01 -0.15782727644E+02  0.19957057097E+02  0.98406567073E+02  0.94745141133E+02 0.  0.
         13    1    3    3    0    0  0.17938062735E+02  0.54459325414E+01  0.53914120167E+02  0.57080432666E+02  0.10566000000E+00 0. -1.
         22    1    1    0    0    0 -0.77351182916E+01  0.15782727644E+02 -0.19957057097E+02  0.26593432927E+02  0.00000000000E+00 0. -1.
</event>
<event>
 5    1  0.1691066E-003  0.9118800E+02  0.7818608E-02  0.1130116E+00
         25   -1    0    0    0    0  0.00000000000E+00  0.00000000000E+00  0.99999998245E-14  0.12500000000E+03  0.12500000000E+03 0.  0.
        -13    1    3    3    0    0 -0.32580597624E+02 -0.26754746706E+02 -0.44933377001E+02  0.61614376128E+02  0.10566000000E+00 0.  1.
         23    2    1    0    0    0 -0.15466720597E+02 -0.18051838373E+02 -0.15975705256E+02  0.96358919834E+02  0.92003967081E+02 0.  0.
         13    1    3    3    0    0  0.17113877028E+02  0.87029083334E+01  0.28957671746E+02  0.34744543706E+02  0.10566000000E+00 0. -1.
         22    1    1    0    0    0  0.15466720597E+02  0.18051838373E+02  0.15975705256E+02  0.28641080166E+02  0.00000000000E+00 0.  1.
</event>
<event>
 5    1  0.1691066E-003  0.9118800E+02  0.7818608E-02  0.1130116E+00
         25   -1    0    0    0    0  0.00000000000E+00  0.00000000000E+00  0.99999998245E-14  0.12500000000E+03  0.12500000000E+03 0.  0.
        -13    1    3    3    0    0 -0.15627678551E+01  0.35520286682E+02  0.16204044043E+02  0.39073203308E+02  0.10566000000E+00 0. -1.
         23    2    1    0    0    0  0.23904129409E+02 -0.12764298463E+02 -0.46409898967E+01  0.97506846211E+02  0.93550582856E+02 0.  0.
         13    1    3    3    0    0  0.25466897264E+02 -0.48284585145E+02 -0.20845033940E+02  0.58433642903E+02  0.10566000000E+00 0.  1.
         22    1    1    0    0    0 -0.23904129409E+02  0.12764298463E+02  0.46409898967E+01  0.27493153789E+02  0.00000000000E+00 0.  1.
</event>
<event>
 5    1  0.1691066E-003  0.9118800E+02  0.7818608E-02  0.1130116E+00
         25   -1    0    0    0    0  0.00000000000E+00  0.00000000000E+00  0.99999998245E-14  0.12500000000E+03  0.12500000000E+03 0.  0.
        -13    1    3    3    0    0  0.31105510950E+02 -0.42627607295E+02 -0.20353240394E+02  0.56559095411E+02  0.10566000000E+00 0.  1.
         23    2    1    0    0    0  0.24673522924E+01 -0.28205313950E+02  0.34278198032E+01  0.96480225966E+02  0.92168630735E+02 0.  0.
         13    1    3    3    0    0 -0.28638158658E+02  0.14422293345E+02  0.23781060197E+02  0.39921130555E+02  0.10566000000E+00 0. -1.
         22    1    1    0    0    0 -0.24673522924E+01  0.28205313950E+02 -0.34278198032E+01  0.28519774034E+02  0.00000000000E+00 0.  1.
</event>
<event>
 5    1  0.1691066E-003  0.9118800E+02  0.7818608E-02  0.1130116E+00
         25   -1    0    0    0    0  0.00000000000E+00  0.00000000000E+00  0.99999998245E-14  0.12500000000E+03  0.12500000000E+03 0.  0.
        -13    1    3    3    0    0  0.24908566121E+02  0.57581753052E+01  0.22295959222E+02  0.33922178744E+02  0.10566000000E+00 0.  1.
         23    2    1    0    0    0 -0.30380490814E+02  0.23279244648E+01 -0.21137455777E+01  0.94457220579E+02  0.89382913047E+02 0.  0.
         13    1    3    3    0    0 -0.55289056935E+02 -0.34302508404E+01 -0.24409704800E+02  0.60535041835E+02  0.10566000000E+00 0. -1.
         22    1    1    0    0    0  0.30380490814E+02 -0.23279244648E+01  0.21137455777E+01  0.30542779421E+02  0.00000000000E+00 0. -1.
</event>
<event>
 5    1  0.1691066E-003  0.9118800E+02  0.7818608E-02  0.1130116E+00
         25   -1    0    0    0    0  0.00000000000E+00  0.00000000000E+00  0.99999998245E-14  0.12500000000E+03  0.12500000000E+03 0.  0.
        -13    1    3    3    0    0  0.11719641432E+02  0.39618394517E+02 -0.23642575289E+02  0.47601992708E+02  0.10566000000E+00 0. -1.
         23    2    1    0    0    0  0.78767705030E+00 -0.14288154831E+02 -0.16645233955E+02  0.10304924564E+03  0.10068421629E+03 0.  0.
         13    1    3    3    0    0 -0.10931964382E+02 -0.53906549348E+02  0.69973413339E+01  0.55447252931E+02  0.10566000000E+00 0.  1.
         22    1    1    0    0    0 -0.78767705030E+00  0.14288154831E+02  0.16645233955E+02  0.21950754361E+02  0.00000000000E+00 0.  1.
</event>
<event>
 5    1  0.1691066E-003  0.9118800E+02  0.7818608E-02  0.1130116E+00
         25   -1    0    0    0    0  0.00000000000E+00  0.00000000000E+00  0.99999998245E-14  0.12500000000E+03  0.12500000000E+03 0.  0.
        -13    1    3    3    0    0 -0.96385705830E+01 -0.33854615561E+02 -0.21338156025E+02  0.41162666389E+02  0.10566000000E+00 0. -1.
         23    2    1    0    0    0 -0.38995730250E+02 -0.10351630807E+02  0.50116047557E+00  0.84650596040E+02  0.74415381542E+02 0.  0.
         13    1    3    3    0    0 -0.29357159667E+02  0.23502984754E+02  0.21839316501E+02  0.43487929651E+02  0.10566000000E+00 0.  1.
         22    1    1    0    0    0  0.38995730250E+02  0.10351630807E+02 -0.50116047557E+00  0.40349403960E+02  0.00000000000E+00 0. -1.
</event>
<event>
 5    1  0.1691066E-003  0.9118800E+02  0.7818608E-02  0.1130116E+00
         25   -1    0    0    0    0  0.00000000000E+00  0.00000000000E+00  0.99999998245E-14  0.12500000000E+03  0.12500000000E+03 0.  0.
        -13    1    3    3    0    0  0.20089769581E+02 -0.38099745805E+02 -0.21519878875E+02  0.48148788386E+02  0.10566000000E+00 0. -1.
         23    2    1    0    0    0 -0.18664579871E+00 -0.25277447957E+02  0.17711694840E+02  0.94134350064E+02  0.88930239604E+02 0.  0.
         13    1    3    3    0    0 -0.20276415379E+02  0.12822297848E+02  0.39231573714E+02  0.45985561678E+02  0.10566000000E+00 0.  1.
         22    1    1    0    0    0  0.18664579871E+00  0.25277447957E+02 -0.17711694840E+02  0.30865649936E+02  0.00000000000E+00 0. -1.
</event>
<event>
 5    1  0.1691066E-003  0.9118800E+02  0.7818608E-02  0.1130116E+00
         25   -1    0    0    0    0  0.00000000000E+00  0.00000000000E+00  0.99999998245E-14  0.12500000000E+03  0.12500000000E+03 0.  0.
        -13    1    3    3    0    0 -0.56363001837E+02  0.22422786410E+02  0.51172508388E+01  0.60875009213E+02  0.10566000000E+00 0. -1.
         23    2    1    0    0    0 -0.31016626121E+02  0.15999616368E+01  0.38722232943E+01  0.93701675981E+02  0.88319980725E+02 0.  0.
         13    1    3    3    0    0  0.25346375716E+02 -0.20822824774E+02 -0.12450275445E+01  0.32826666768E+02  0.10566000000E+00 0.  1.
         22    1    1    0    0    0  0.31016626121E+02 -0.15999616368E+01 -0.38722232943E+01  0.31298324019E+02  0.00000000000E+00 0. -1.
</event>
<event>
 5    1  0.1691066E-003  0.9118800E+02  0.7818608E-02  0.1130116E+00
         25   -1    0    0    0    0  0.00000000000E+00  0.00000000000E+00  0.99999998245E-14  0.12500000000E+03  0.12500000000E+03 0.  0.
        -13    1    3    3    0    0 -0.46669716530E+01 -0.50648367378E+02 -0.11248509206E+01  0.50875477355E+02  0.10566000000E+00 0.  1.
         23    2    1    0    0    0  0.15744343024E+02 -0.18004051507E+02  0.19125024951E+02  0.94376532082E+02  0.89270000675E+02 0.  0.
         13    1    3    3    0    0  0.20411314677E+02  0.32644315871E+02  0.20249875872E+02  0.43501054727E+02  0.10566000000E+00 0. -1.
         22    1    1    0    0    0 -0.15744343024E+02  0.18004051507E+02 -0.19125024951E+02  0.30623467918E+02  0.00000000000E+00 0. -1.
</event>
<event>
 5    1  0.1691066E-003  0.9118800E+02  0.7818608E-02  0.1130116E+00
         25   -1    0    0    0    0  0.00000000000E+00  0.00000000000E+00  0.99999998245E-14  0.12500000000E+03  0.12500000000E+03 0.  0.
        -13    1    3    3    0    0 -0.42067644828E+02 -0.29845473145E+02 -0.98922982560E+01  0.52519593843E+02  0.10566000000E+00 0. -1.
         23    2    1    0    0    0  0.86980996075E+01 -0.15739576892E+02 -0.81991555918E+01  0.10523595765E+03  0.10336338526E+03 0.  0.
         13    1    3    3    0    0  0.50765744435E+02  0.14105896253E+02  0.16931426643E+01  0.52716363809E+02  0.10566000000E+00 0.  1.
         22    1    1    0    0    0 -0.86980996075E+01  0.15739576892E+02  0.81991555918E+01  0.19764042348E+02  0.00000000000E+00 0. -1.
</event>
<event>
 5    1  0.1691066E-003  0.9118800E+02  0.7818608E-02  0.1130116E+00
         25   -1    0    0    0    0  0.00000000000E+00  0.00000000000E+00  0.99999998245E-14  0.12500000000E+03  0.12500000000E+03 0.  0.
        -13    1    3    3    0    0 -0.51270301183E+02  0.30019180678E+02 -0.86058927325E+01  0.60032220896E+02  0.10566000000E+00 0.  1.
         23    2    1    0    0    0 -0.23586936993E+02  0.88636613185E+01 -0.15314380608E+02  0.95513760123E+02  0.90848445395E+02 0.  0.
         13    1    3    3    0    0  0.27683364190E+02 -0.21155519359E+02 -0.67084878757E+01  0.35481539226E+02  0.10566000000E+00 0. -1.
         22    1    1    0    0    0  0.23586936993E+02 -0.88636613185E+01  0.15314380608E+02  0.29486239877E+02  0.00000000000E+00 0.  1.
</event>
<event>
 5    1  0.1691066E-003  0.9118800E+02  0.7818608E-02  0.1130116E+00
         25   -1    0    0    0    0  0.00000000000E+00  0.00000000000E+00  0.99999998245E-14  0.12500000000E+03  0.12500000000E+03 0.  0.
        -13    1    3    3    0    0 -0.13577624722E+02 -0.43382593198E+02 -0.51664273692E-01  0.45457838916E+02  0.10566000000E+00 0. -1.
         23    2    1    0    0    0  0.64814359360E+01 -0.47503331286E+01  0.27081461833E+02  0.96751455760E+02  0.92535744121E+02 0.  0.
         13    1    3    3    0    0  0.20059060658E+02  0.38632260070E+02  0.27133126107E+02  0.51293616844E+02  0.10566000000E+00 0.  1.
         22    1    1    0    0    0 -0.64814359360E+01  0.47503331286E+01 -0.27081461833E+02  0.28248544240E+02  0.00000000000E+00 0.  1.
</event>
<event>
 5    1  0.1691066E-003  0.9118800E+02  0.7818608E-02  0.1130116E+00
         25   -1    0    0    0    0  0.00000000000E+00  0.00000000000E+00  0.99999998245E-14  0.12500000000E+03  0.12500000000E+03 0.  0.
        -13    1    3    3    0    0  0.34159129739E+02  0.49585859023E+01 -0.18210843187E+01  0.34565318324E+02  0.10566000000E+00 0.  1.
         23    2    1    0    0    0 -0.18151702577E+02  0.12035509334E+02  0.23369364413E+02  0.93055282371E+02  0.87400346639E+02 0.  0.
         13    1    3    3    0    0 -0.52310832316E+02  0.70769234313E+01  0.25190448732E+02  0.58489964047E+02  0.10566000000E+00 0. -1.
         22    1    1    0    0    0  0.18151702577E+02 -0.12035509334E+02 -0.23369364413E+02  0.31944717629E+02  0.00000000000E+00 0. -1.
</event>
<event>
 5    1  0.1691066E-003  0.9118800E+02  0.7818608E-02  0.1130116E+00
         25   -1    0    0    0    0  0.00000000000E+00  0.00000000000E+00  0.99999998245E-14  0.12500000000E+03  0.12500000000E+03 0.  0.
        -13    1    3    3    0    0 -0.41084696542E+02 -0.18006698304E+02  0.20815565501E+02  0.49451920134E+02  0.10566000000E+00 0.  1.
         23    2    1    0    0    0 -0.30772306377E+01  0.65612257780E+01  0.28707858479E+02  0.95391552378E+02  0.90680141677E+02 0.  0.
         13    1    3    3    0    0  0.38007465905E+02  0.24567924082E+02  0.78922929782E+01  0.45939632244E+02  0.10566000000E+00 0. -1.
         22    1    1    0    0    0  0.30772306377E+01 -0.65612257780E+01 -0.28707858479E+02  0.29608447622E+02  0.00000000000E+00 0. -1.
</event>
<event>
 5    1  0.1691066E-003  0.9118800E+02  0.7818608E-02  0.1130116E+00
         25   -1    0    0    0    0  0.00000000000E+00  0.00000000000E+00  0.99999998245E-14  0.12500000000E+03  0.12500000000E+03 0.  0.
        -13    1    3    3    0    0  0.32649252065E+02 -0.10192955398E+02  0.13081155376E+02  0.36619636675E+02  0.10566000000E+00 0.  1.
         23    2    1    0    0    0 -0.16103877075E+02 -0.15406494450E+02 -0.19415608714E+02  0.95442246536E+02  0.90749995228E+02 0.  0.
         13    1    3    3    0    0 -0.48753129141E+02 -0.52135390515E+01 -0.32496764091E+02  0.58822609861E+02  0.10566000000E+00 0. -1.
         22    1    1    0    0    0  0.16103877075E+02  0.15406494450E+02  0.19415608714E+02  0.29557753464E+02  0.00000000000E+00 0. -1.
</event>
<event>
 5    1  0.1691066E-003  0.9118800E+02  0.7818608E-02  0.1130116E+00
         25   -1    0    0    0    0  0.00000000000E+00  0.00000000000E+00  0.99999998245E-14  0.12500000000E+03  0.12500000000E+03 0.  0.
        -13    1    3    3    0    0 -0.37419104154E+02 -0.16135662536E+02  0.42391001651E+01  0.40969868140E+02  0.10566000000E+00 0.  1.
         23    2    1    0    0    0  0.59689036454E+01 -0.10800022460E+01  0.30519461248E+02  0.93883577802E+02  0.88577053747E+02 0.  0.
         13    1    3    3    0    0  0.43388007799E+02  0.15055660289E+02  0.26280361082E+02  0.52913709662E+02  0.10566000000E+00 0. -1.
         22    1    1    0    0    0 -0.59689036454E+01  0.10800022460E+01 -0.30519461248E+02  0.31116422198E+02  0.00000000000E+00 0. -1.
</event>
<event>
 5    1  0.1691066E-003  0.9118800E+02  0.7818608E-02  0.1130116E+00
         25   -1    0    0    0    0  0.00000000000E+00  0.00000000000E+00  0.99999998245E-14  0.12500000000E+03  0.12500000000E+03 0.  0.
        -13    1    3    3    0    0  0.26433845289E+02 -0.24547707904E+02 -0.15122143371E+02  0.39115579048E+02  0.10566000000E+00 0.  1.
         23    2    1    0    0    0 -0.26256970083E+02 -0.86677011426E+01  0.33093919857E+01  0.97152027070E+02  0.93075274737E+02 0.  0.
         13    1    3    3    0    0 -0.52690815372E+02  0.15880006761E+02  0.18431535357E+02  0.58036448021E+02  0.10566000000E+00 0. -1.
         22    1    1    0    0    0  0.26256970083E+02  0.86677011426E+01 -0.33093919857E+01  0.27847972930E+02  0.00000000000E+00 0. -1.
</event>
<event>
 5    1  0.1691066E-003  0.9118800E+02  0.7818608E-02  0.1130116E+00
         25   -1    0    0    0    0  0.00000000000E+00  0.00000000000E+00  0.99999998245E-14  0.12500000000E+03  0.12500000000E+03 0.  0.
        -13    1    3    3    0    0 -0.90285005425E+01  0.16997197045E+02  0.58855880303E+02  0.61922890272E+02  0.10566000000E+00 0.  1.
         23    2    1    0    0    0 -0.96648515638E+01  0.10097820770E+02  0.26213100684E+02  0.95293064993E+02  0.90544277832E+02 0.  0.
         13    1    3    3    0    0 -0.63635102133E+00 -0.68993762746E+01 -0.32642779619E+02  0.33370174720E+02  0.10566000000E+00 0. -1.
         22    1    1    0    0    0  0.96648515638E+01 -0.10097820770E+02 -0.26213100684E+02  0.29706935007E+02  0.00000000000E+00 0.  1.
</event>
<event>
 5    1  0.1691066E-003  0.9118800E+02  0.7818608E-02  0.1130116E+00
         25   -1    0    0    0    0  0.00000000000E+00  0.00000000000E+00  0.99999998245E-14  0.12500000000E+03  0.12500000000E+03 0.  0.
        -13    1    3    3    0    0  0.19205301697E+02 -0.22405425329E+02 -0.15758082838E+02  0.33454073537E+02  0.10566000000E+00 0. -1.
         23    2    1    0    0    0 -0.58662144788E+01  0.25600551479E+02  0.13987196912E+02  0.95243616050E+02  0.90475985833E+02 0.  0.
         13    1    3    3    0    0 -0.25071516175E+02  0.48005976808E+02  0.29745279750E+02  0.61789542513E+02  0.10566000000E+00 0.  1.
         22    1    1    0    0    0  0.58662144788E+01 -0.25600551479E+02 -0.13987196912E+02  0.29756383950E+02  0.00000000000E+00 0.  1.
</event>
<event>
 5    1  0.1691066E-003  0.9118800E+02  0.7818608E-02  0.1130116E+00
         25   -1    0    0    0    0  0.00000000000E+00  0.00000000000E+00  0.99999998245E-14  0.12500000000E+03  0.12500000000E+03 0.  0.
        -13    1    3    3    0    0 -0.14473640009E+02  0.79603445896E-01 -0.29489429430E+02  0.32850117260E+02  0.10566000000E+00 0.  1.
         23    2    1    0    0    0  0.24438333340E+02 -0.13041545565E+02  0.15086150119E+02  0.93457869879E+02  0.87974243217E+02 0.  0.
         13    1    3    3    0    0  0.38911973349E+02 -0.13121149011E+02  0.44575579550E+02  0.60607752619E+02  0.10566000000E+00 0. -1.
         22    1    1    0    0    0 -0.24438333340E+02  0.13041545565E+02 -0.15086150119E+02  0.31542130121E+02  0.00000000000E+00 0. -1.
</event>
<event>
 5    1  0.1691066E-003  0.9118800E+02  0.7818608E-02  0.1130116E+00
         25   -1    0    0    0    0  0.00000000000E+00  0.00000000000E+00  0.99999998245E-14  0.12500000000E+03  0.12500000000E+03 0.  0.
        -13    1    3    3    0    0  0.11032640120E+01  0.59086934833E+02  0.16773284065E+02  0.61431565842E+02  0.10566000000E+00 0.  1.
         23    2    1    0    0    0  0.67326565620E+01  0.25159376354E+02  0.12575165396E+02  0.96078422110E+02  0.91622079913E+02 0.  0.
         13    1    3    3    0    0  0.56293925500E+01 -0.33927558480E+02 -0.41981186690E+01  0.34646856268E+02  0.10566000000E+00 0. -1.
         22    1    1    0    0    0 -0.67326565620E+01 -0.25159376354E+02 -0.12575165396E+02  0.28921577890E+02  0.00000000000E+00 0.  1.
</event>
<event>
 5    1  0.1691066E-003  0.9118800E+02  0.7818608E-02  0.1130116E+00
         25   -1    0    0    0    0  0.00000000000E+00  0.00000000000E+00  0.99999998245E-14  0.12500000000E+03  0.12500000000E+03 0.  0.
        -13    1    3    3    0    0 -0.92530814452E+01 -0.71306114862E+01  0.45683754743E+02  0.47153809474E+02  0.10566000000E+00 0.  1.
         23    2    1    0    0    0 -0.10406850425E+02 -0.30513252779E+02  0.75691751549E+01  0.91884240255E+02  0.85709159743E+02 0.  0.
         13    1    3    3    0    0 -0.11537689800E+01 -0.23382641293E+02 -0.38114579588E+02  0.44730430782E+02  0.10566000000E+00 0. -1.
         22    1    1    0    0    0  0.10406850425E+02  0.30513252779E+02 -0.75691751549E+01  0.33115759745E+02  0.00000000000E+00 0.  1.
</event>
<event>
 5    1  0.1691066E-003  0.9118800E+02  0.7818608E-02  0.1130116E+00
         25   -1    0    0    0    0  0.00000000000E+00  0.00000000000E+00  0.99999998245E-14  0.12500000000E+03  0.12500000000E+03 0.  0.
        -13    1    3    3    0    0  0.57974211812E+02 -0.18931689113E+01 -0.11213972266E+02  0.59079248995E+02  0.10566000000E+00 0. -1.
         23    2    1    0    0    0  0.21563452021E+02 -0.10359936246E+02 -0.15173564144E+02  0.96670725549E+02  0.92426627046E+02 0.  0.
         13    1    3    3    0    0 -0.36410759791E+02 -0.84667673345E+01 -0.39595918785E+01  0.37591476554E+02  0.10566000000E+00 0.  1.
         22    1    1    0    0    0 -0.21563452021E+02  0.10359936246E+02  0.15173564144E+02  0.28329274451E+02  0.00000000000E+00 0. -1.
</event>
<event>
 5    1  0.1691066E-003  0.9118800E+02  0.7818608E-02  0.1130116E+00
         25   -1    0    0    0    0  0.00000000000E+00  0.00000000000E+00  0.99999998245E-14  0.12500000000E+03  0.12500000000E+03 0.  0.
        -13    1    3    3    0    0  0.46870186444E+02 -0.14036384966E+02 -0.46810467759E+01  0.49150359543E+02  0.10566000000E+00 0. -1.
         23    2    1    0    0    0  0.17274286033E+02  0.22090739844E+02 -0.76056320165E+01  0.95944064579E+02  0.91438592207E+02 0.  0.
         13    1    3    3    0    0 -0.29595900411E+02  0.36127124810E+02 -0.29245852407E+01  0.46793705036E+02  0.10566000000E+00 0.  1.
         22    1    1    0    0    0 -0.17274286033E+02 -0.22090739844E+02  0.76056320165E+01  0.29055935421E+02  0.00000000000E+00 0. -1.
</event>
<event>
 5    1  0.1691066E-003  0.9118800E+02  0.7818608E-02  0.1130116E+00
         25   -1    0    0    0    0  0.00000000000E+00  0.00000000000E+00  0.99999998245E-14  0.12500000000E+03  0.12500000000E+03 0.  0.
        -13    1    3    3    0    0 -0.18611957001E+02  0.27697032678E+01 -0.37281147490E+02  0.41760882675E+02  0.10566000000E+00 0.  1.
         23    2    1    0    0    0 -0.83622421334E+01 -0.27624399770E+02  0.58888622065E+01  0.95543027069E+02  0.90888705389E+02 0.  0.
         13    1    3    3    0    0  0.10249714867E+02 -0.30394103038E+02  0.43170009697E+02  0.53782144394E+02  0.10566000000E+00 0. -1.
         22    1    1    0    0    0  0.83622421334E+01  0.27624399770E+02 -0.58888622065E+01  0.29456972931E+02  0.00000000000E+00 0. -1.
</event>
<event>
 5    1  0.1691066E-003  0.9118800E+02  0.7818608E-02  0.1130116E+00
         25   -1    0    0    0    0  0.00000000000E+00  0.00000000000E+00  0.99999998245E-14  0.12500000000E+03  0.12500000000E+03 0.  0.
        -13    1    3    3    0    0 -0.17115538548E+01  0.38616756177E+02  0.27806853727E+02  0.47617387082E+02  0.10566000000E+00 0. -1.
         23    2    1    0    0    0  0.74475723243E+01  0.37311235143E+02 -0.92770292444E+01  0.85838055807E+02  0.76383990153E+02 0.  0.
         13    1    3    3    0    0  0.91591261791E+01 -0.13055210345E+01 -0.37083882971E+02  0.38220668725E+02  0.10566000000E+00 0.  1.
         22    1    1    0    0    0 -0.74475723243E+01 -0.37311235143E+02  0.92770292444E+01  0.39161944193E+02  0.00000000000E+00 0. -1.
</event>
<event>
 5    1  0.1691066E-003  0.9118800E+02  0.7818608E-02  0.1130116E+00
         25   -1    0    0    0    0  0.00000000000E+00  0.00000000000E+00  0.99999998245E-14  0.12500000000E+03  0.12500000000E+03 0.  0.
        -13    1    3    3    0    0  0.10866466965E+02  0.28915332287E+02 -0.53795313942E+02  0.62033245214E+02  0.10566000000E+00 0. -1.
         23    2    1    0    0    0  0.45250403840E+00  0.16471953268E+02 -0.28193162058E+02  0.92344458492E+02  0.86377743794E+02 0.  0.
         13    1    3    3    0    0 -0.10413962927E+02 -0.12443379019E+02  0.25602151884E+02  0.30311213278E+02  0.10566000000E+00 0.  1.
         22    1    1    0    0    0 -0.45250403840E+00 -0.16471953268E+02  0.28193162058E+02  0.32655541508E+02  0.00000000000E+00 0. -1.
</event>
<event>
 5    1  0.1691066E-003  0.9118800E+02  0.7818608E-02  0.1130116E+00
         25   -1    0    0    0    0  0.00000000000E+00  0.00000000000E+00  0.99999998245E-14  0.12500000000E+03  0.12500000000E+03 0.  0.
        -13    1    3    3    0    0  0.43119297427E+02 -0.27146329735E+02  0.16261237677E+02  0.53484914168E+02  0.10566000000E+00 0.  1.
         23    2    1    0    0    0 -0.14080234804E+01 -0.79634220336E+01  0.21287146008E+02  0.10222850014E+03  0.99660047339E+02 0.  0.
         13    1    3    3    0    0 -0.44527320908E+02  0.19182907701E+02  0.50259083305E+01  0.48743585975E+02  0.10566000000E+00 0. -1.
         22    1    1    0    0    0  0.14080234804E+01  0.79634220336E+01 -0.21287146008E+02  0.22771499858E+02  0.00000000000E+00 0.  1.
</event>
<event>
 5    1  0.1691066E-003  0.9118800E+02  0.7818608E-02  0.1130116E+00
         25   -1    0    0    0    0  0.00000000000E+00  0.00000000000E+00  0.99999998245E-14  0.12500000000E+03  0.12500000000E+03 0.  0.
        -13    1    3    3    0    0 -0.12287523910E+02 -0.50512094666E+02  0.22132106095E+02  0.56500409163E+02  0.10566000000E+00 0. -1.
         23    2    1    0    0    0 -0.23814613807E+02 -0.17321346044E+02  0.13046248716E+02  0.92791779542E+02  0.87022668802E+02 0.  0.
         13    1    3    3    0    0 -0.11527089897E+02  0.33190748622E+02 -0.90858573793E+01  0.36291370378E+02  0.10566000000E+00 0.  1.
         22    1    1    0    0    0  0.23814613807E+02  0.17321346044E+02 -0.13046248716E+02  0.32208220458E+02  0.00000000000E+00 0. -1.
</event>
<event>
 5    1  0.1691066E-003  0.9118800E+02  0.7818608E-02  0.1130116E+00
         25   -1    0    0    0    0  0.00000000000E+00  0.00000000000E+00  0.99999998245E-14  0.12500000000E+03  0.12500000000E+03 0.  0.
        -13    1    3    3    0    0  0.91045468130E+00 -0.29409785198E+02 -0.23048463056E+02  0.37376559585E+02  0.10566000000E+00 0.  1.
         23    2    1    0    0    0  0.17670651367E+02 -0.54990440222E+00  0.24081090928E+02  0.95126043870E+02  0.90313404141E+02 0.  0.
         13    1    3    3    0    0  0.16760196685E+02  0.28859880796E+02  0.47129553983E+02  0.57749484285E+02  0.10566000000E+00 0. -1.
         22    1    1    0    0    0 -0.17670651367E+02  0.54990440222E+00 -0.24081090928E+02  0.29873956130E+02  0.00000000000E+00 0. -1.
</event>
<event>
 5    1  0.1691066E-003  0.9118800E+02  0.7818608E-02  0.1130116E+00
         25   -1    0    0    0    0  0.00000000000E+00  0.00000000000E+00  0.99999998245E-14  0.12500000000E+03  0.12500000000E+03 0.  0.
        -13    1    3    3    0    0 -0.29217180126E+02 -0.17465529394E+02  0.23079463757E+02  0.41126161296E+02  0.10566000000E+00 0. -1.
         23    2    1    0    0    0  0.20544011996E+02 -0.21049163061E+02  0.13133580776E+01  0.95557707224E+02  0.90908892888E+02 0.  0.
         13    1    3    3    0    0  0.49761192122E+02 -0.35836336663E+01 -0.21766105680E+02  0.54431545929E+02  0.10566000000E+00 0.  1.
         22    1    1    0    0    0 -0.20544011996E+02  0.21049163061E+02 -0.13133580776E+01  0.29442292776E+02  0.00000000000E+00 0.  1.
</event>
<event>
 5    1  0.1691066E-003  0.9118800E+02  0.7818608E-02  0.1130116E+00
         25   -1    0    0    0    0  0.00000000000E+00  0.00000000000E+00  0.99999998245E-14  0.12500000000E+03  0.12500000000E+03 0.  0.
        -13    1    3    3    0    0  0.31110005156E+02 -0.54036183452E+01  0.17700070022E+02  0.36198551834E+02  0.10566000000E+00 0. -1.
         23    2    1    0    0    0 -0.23930848600E+02  0.43243927690E+01 -0.10152046735E+02  0.98647581886E+02  0.95062587128E+02 0.  0.
         13    1    3    3    0    0 -0.55040853757E+02  0.97280111143E+01 -0.27852116757E+02  0.62449030052E+02  0.10566000000E+00 0.  1.
         22    1    1    0    0    0  0.23930848600E+02 -0.43243927690E+01  0.10152046735E+02  0.26352418114E+02  0.00000000000E+00 0.  1.
</event>
<event>
 5    1  0.1691066E-003  0.9118800E+02  0.7818608E-02  0.1130116E+00
         25   -1    0    0    0    0  0.00000000000E+00  0.00000000000E+00  0.99999998245E-14  0.12500000000E+03  0.12500000000E+03 0.  0.
        -13    1    3    3    0    0  0.26557964286E+01  0.35635480559E+02  0.22531076480E+02  0.42244541668E+02  0.10566000000E+00 0. -1.
         23    2    1    0    0    0 -0.61052315196E+01  0.84662492814E+01 -0.25122998310E+02  0.97794921928E+02  0.93934713935E+02 0.  0.
         13    1    3    3    0    0 -0.87610279482E+01 -0.27169231278E+02 -0.47654074790E+02  0.55550380260E+02  0.10566000000E+00 0.  1.
         22    1    1    0    0    0  0.61052315196E+01 -0.84662492814E+01  0.25122998310E+02  0.27205078072E+02  0.00000000000E+00 0.  1.
</event>
<event>
 5    1  0.1691066E-003  0.9118800E+02  0.7818608E-02  0.1130116E+00
         25   -1    0    0    0    0  0.00000000000E+00  0.00000000000E+00  0.99999998245E-14  0.12500000000E+03  0.12500000000E+03 0.  0.
        -13    1    3    3    0    0  0.35987591819E+02  0.99039869552E+01  0.25157057190E+02  0.45012047421E+02  0.10566000000E+00 0.  1.
         23    2    1    0    0    0  0.30641234232E+02  0.10662172987E+00 -0.17914250906E+02  0.89506099270E+02  0.82167662846E+02 0.  0.
         13    1    3    3    0    0 -0.53463575870E+01 -0.97973652253E+01 -0.43071308096E+02  0.44494051849E+02  0.10566000000E+00 0. -1.
         22    1    1    0    0    0 -0.30641234232E+02 -0.10662172987E+00  0.17914250906E+02  0.35493900730E+02  0.00000000000E+00 0.  1.
</event>
<event>
 5    1  0.1691066E-003  0.9118800E+02  0.7818608E-02  0.1130116E+00
         25   -1    0    0    0    0  0.00000000000E+00  0.00000000000E+00  0.99999998245E-14  0.12500000000E+03  0.12500000000E+03 0.  0.
        -13    1    3    3    0    0  0.15497398830E+02 -0.27078626130E+02  0.17060499925E+02  0.35559712953E+02  0.10566000000E+00 0. -1.
         23    2    1    0    0    0  0.88380371721E+01  0.10895045297E+02 -0.27284215097E+02  0.94320343768E+02  0.89191288487E+02 0.  0.
         13    1    3    3    0    0 -0.66593616582E+01  0.37973671426E+02 -0.44344715022E+02  0.58760630815E+02  0.10566000000E+00 0.  1.
         22    1    1    0    0    0 -0.88380371721E+01 -0.10895045297E+02  0.27284215097E+02  0.30679656232E+02  0.00000000000E+00 0.  1.
</event>
<event>
 5    1  0.1691066E-003  0.9118800E+02  0.7818608E-02  0.1130116E+00
         25   -1    0    0    0    0  0.00000000000E+00  0.00000000000E+00  0.99999998245E-14  0.12500000000E+03  0.12500000000E+03 0.  0.
        -13    1    3    3    0    0  0.21952896713E+02  0.72012452312E+01  0.28983041452E+02  0.37065016698E+02  0.10566000000E+00 0. -1.
         23    2    1    0    0    0 -0.27903183707E+01 -0.27071251933E+02 -0.11370796508E+02  0.95505363690E+02  0.90836891859E+02 0.  0.
         13    1    3    3    0    0 -0.24743215084E+02 -0.34272497164E+02 -0.40353837960E+02  0.58440346993E+02  0.10566000000E+00 0.  1.
         22    1    1    0    0    0  0.27903183707E+01  0.27071251933E+02  0.11370796508E+02  0.29494636310E+02  0.00000000000E+00 0.  1.
</event>
<event>
 5    1  0.1691066E-003  0.9118800E+02  0.7818608E-02  0.1130116E+00
         25   -1    0    0    0    0  0.00000000000E+00  0.00000000000E+00  0.99999998245E-14  0.12500000000E+03  0.12500000000E+03 0.  0.
        -13    1    3    3    0    0  0.49708595215E+02  0.70633444321E+01 -0.34690747289E+02  0.61026997176E+02  0.10566000000E+00 0.  1.
         23    2    1    0    0    0  0.16385544659E+02  0.95780337424E+01 -0.19672279085E+02  0.97664613254E+02  0.93761150343E+02 0.  0.
         13    1    3    3    0    0 -0.33323050556E+02  0.25146893103E+01  0.15018468203E+02  0.36637616078E+02  0.10566000000E+00 0. -1.
         22    1    1    0    0    0 -0.16385544659E+02 -0.95780337424E+01  0.19672279085E+02  0.27335386746E+02  0.00000000000E+00 0.  1.
</event>
<event>
 5    1  0.1691066E-003  0.9118800E+02  0.7818608E-02  0.1130116E+00
         25   -1    0    0    0    0  0.00000000000E+00  0.00000000000E+00  0.99999998245E-14  0.12500000000E+03  0.12500000000E+03 0.  0.
        -13    1    3    3    0    0  0.28406603935E+02 -0.18944202217E+02 -0.30072149274E+02  0.45499046922E+02  0.10566000000E+00 0. -1.
         23    2    1    0    0    0  0.14200870637E+02  0.24255667490E+02 -0.10813468644E+02  0.94884667753E+02  0.89978702693E+02 0.  0.
         13    1    3    3    0    0 -0.14205733298E+02  0.43199869707E+02  0.19258680630E+02  0.49385620831E+02  0.10566000000E+00 0.  1.
         22    1    1    0    0    0 -0.14200870637E+02 -0.24255667490E+02  0.10813468644E+02  0.30115332247E+02  0.00000000000E+00 0.  1.
</event>
<event>
 5    1  0.1691066E-003  0.9118800E+02  0.7818608E-02  0.1130116E+00
         25   -1    0    0    0    0  0.00000000000E+00  0.00000000000E+00  0.99999998245E-14  0.12500000000E+03  0.12500000000E+03 0.  0.
        -13    1    3    3    0    0  0.39108130384E+02 -0.27363742674E+02 -0.23690363332E+02  0.53286628286E+02  0.10566000000E+00 0. -1.
         23    2    1    0    0    0  0.50400573667E+01 -0.42114809873E+01 -0.29403715309E+02  0.94871654139E+02  0.89960622134E+02 0.  0.
         13    1    3    3    0    0 -0.34068073017E+02  0.23152261687E+02 -0.57133519766E+01  0.41585025853E+02  0.10566000000E+00 0.  1.
         22    1    1    0    0    0 -0.50400573667E+01  0.42114809873E+01  0.29403715309E+02  0.30128345861E+02  0.00000000000E+00 0. -1.
</event>
<event>
 5    1  0.1691066E-003  0.9118800E+02  0.7818608E-02  0.1130116E+00
         25   -1    0    0    0    0  0.00000000000E+00  0.00000000000E+00  0.99999998245E-14  0.12500000000E+03  0.12500000000E+03 0.  0.
        -13    1    3    3    0    0 -0.26190499991E+02  0.30410908109E+02 -0.29639973455E+02  0.49892933490E+02  0.10566000000E+00 0. -1.
         23    2    1    0    0    0  0.60134566383E+01  0.29259384436E+02  0.20106812666E+01  0.95061461667E+02  0.90223973626E+02 0.  0.
         13    1    3    3    0    0  0.32203956629E+02 -0.11515236729E+01  0.31650654721E+02  0.45168528177E+02  0.10566000000E+00 0.  1.
         22    1    1    0    0    0 -0.60134566383E+01 -0.29259384436E+02 -0.20106812666E+01  0.29938538333E+02  0.00000000000E+00 0. -1.
</event>
<event>
 5    1  0.1691066E-003  0.9118800E+02  0.7818608E-02  0.1130116E+00
         25   -1    0    0    0    0  0.00000000000E+00  0.00000000000E+00  0.99999998245E-14  0.12500000000E+03  0.12500000000E+03 0.  0.
        -13    1    3    3    0    0  0.21511256222E+02 -0.36972279695E+02  0.28027020131E+02  0.51139110586E+02  0.10566000000E+00 0. -1.
         23    2    1    0    0    0  0.21591708442E+02 -0.19471003517E+02 -0.11002720341E+02  0.93913319472E+02  0.88619015273E+02 0.  0.
         13    1    3    3    0    0  0.80452219940E-01  0.17501276179E+02 -0.39029740472E+02  0.42774208885E+02  0.10566000000E+00 0.  1.
         22    1    1    0    0    0 -0.21591708442E+02  0.19471003517E+02  0.11002720341E+02  0.31086680528E+02  0.00000000000E+00 0. -1.
</event>
<event>
 5    1  0.1691066E-003  0.9118800E+02  0.7818608E-02  0.1130116E+00
         25   -1    0    0    0    0  0.00000000000E+00  0.00000000000E+00  0.99999998245E-14  0.12500000000E+03  0.12500000000E+03 0.  0.
        -13    1    3    3    0    0 -0.56148175655E+02  0.45000367491E+01  0.26380626425E+02  0.62199811693E+02  0.10566000000E+00 0.  1.
         23    2    1    0    0    0 -0.27939007421E+02 -0.15528394276E+01  0.10660715205E+02  0.95055880466E+02  0.90216240869E+02 0.  0.
         13    1    3    3    0    0  0.28209168234E+02 -0.60528761768E+01 -0.15719911220E+02  0.32856068773E+02  0.10566000000E+00 0. -1.
         22    1    1    0    0    0  0.27939007421E+02  0.15528394276E+01 -0.10660715205E+02  0.29944119534E+02  0.00000000000E+00 0.  1.
</event>
<event>
 5    1  0.1691066E-003  0.9118800E+02  0.7818608E-02  0.1130116E+00
         25   -1    0    0    0    0  0.00000000000E+00  0.00000000000E+00  0.99999998245E-14  0.12500000000E+03  0.12500000000E+03 0.  0.
        -13    1    3    3    0    0  0.19982458344E+02 -0.10745574131E+02  0.37047036026E+02  0.43442606358E+02  0.10566000000E+00 0.  1.
         23    2    1    0    0    0 -0.41240249994E+01 -0.26898175892E+02 -0.76497090639E+01  0.96732748678E+02  0.92510470594E+02 0.  0.
         13    1    3    3    0    0 -0.24106483344E+02 -0.16152601761E+02 -0.44696745089E+02  0.53290142320E+02  0.10566000000E+00 0. -1.
         22    1    1    0    0    0  0.41240249994E+01  0.26898175892E+02  0.76497090639E+01  0.28267251322E+02  0.00000000000E+00 0. -1.
</event>
<event>
 5    1  0.1691066E-003  0.9118800E+02  0.7818608E-02  0.1130116E+00
         25   -1    0    0    0    0  0.00000000000E+00  0.00000000000E+00  0.99999998245E-14  0.12500000000E+03  0.12500000000E+03 0.  0.
        -13    1    3    3    0    0 -0.35769146098E+02  0.20452375595E+02  0.35721580851E+01  0.41358227204E+02  0.10566000000E+00 0. -1.
         23    2    1    0    0    0  0.10477630502E+02 -0.66468316099E+00 -0.23719858890E+02  0.99060565727E+02  0.95604086899E+02 0.  0.
         13    1    3    3    0    0  0.46246776600E+02 -0.21117058756E+02 -0.27292016975E+02  0.57702338523E+02  0.10566000000E+00 0.  1.
         22    1    1    0    0    0 -0.10477630502E+02  0.66468316099E+00  0.23719858890E+02  0.25939434273E+02  0.00000000000E+00 0.  1.
</event>
<event>
 5    1  0.1691066E-003  0.9118800E+02  0.7818608E-02  0.1130116E+00
         25   -1    0    0    0    0  0.00000000000E+00  0.00000000000E+00  0.99999998245E-14  0.12500000000E+03  0.12500000000E+03 0.  0.
        -13    1    3    3    0    0  0.31605966922E+02 -0.39437099488E+02 -0.76076719239E+01  0.51108803520E+02  0.10566000000E+00 0. -1.
         23    2    1    0    0    0  0.23161128893E+02  0.85556690045E+01 -0.41637519153E+01  0.99960547256E+02  0.96773636978E+02 0.  0.
         13    1    3    3    0    0 -0.84448380293E+01  0.47992768493E+02  0.34439200085E+01  0.48851743735E+02  0.10566000000E+00 0.  1.
         22    1    1    0    0    0 -0.23161128893E+02 -0.85556690045E+01  0.41637519153E+01  0.25039452744E+02  0.00000000000E+00 0.  1.
</event>
<event>
 5    1  0.1691066E-003  0.9118800E+02  0.7818608E-02  0.1130116E+00
         25   -1    0    0    0    0  0.00000000000E+00  0.00000000000E+00  0.99999998245E-14  0.12500000000E+03  0.12500000000E+03 0.  0.
        -13    1    3    3    0    0  0.14333371343E+02  0.28016021434E+02  0.16659391650E+02  0.35607435813E+02  0.10566000000E+00 0.  1.
         23    2    1    0    0    0 -0.16195281319E+02 -0.22900452698E+02  0.94060300573E+01  0.95416368171E+02  0.90714343093E+02 0.  0.
         13    1    3    3    0    0 -0.30528652662E+02 -0.50916474132E+02 -0.72533615922E+01  0.59808932358E+02  0.10566000000E+00 0. -1.
         22    1    1    0    0    0  0.16195281319E+02  0.22900452698E+02 -0.94060300573E+01  0.29583631829E+02  0.00000000000E+00 0. -1.
</event>
<event>
 5    1  0.1691066E-003  0.9118800E+02  0.7818608E-02  0.1130116E+00
         25   -1    0    0    0    0  0.00000000000E+00  0.00000000000E+00  0.99999998245E-14  0.12500000000E+03  0.12500000000E+03 0.  0.
        -13    1    3    3    0    0  0.11264785581E+02  0.39314399561E+02 -0.27554948214E+02  0.49313322157E+02  0.10566000000E+00 0. -1.
         23    2    1    0    0    0 -0.16105382870E+02  0.23516714386E+02  0.64925651753E+01  0.95766926000E+02  0.91196115597E+02 0.  0.
         13    1    3    3    0    0 -0.27370168451E+02 -0.15797685175E+02  0.34047513390E+02  0.46453603843E+02  0.10566000000E+00 0.  1.
         22    1    1    0    0    0  0.16105382870E+02 -0.23516714386E+02 -0.64925651753E+01  0.29233074000E+02  0.00000000000E+00 0. -1.
</event>
<event>
 5    1  0.1691066E-003  0.9118800E+02  0.7818608E-02  0.1130116E+00
         25   -1    0    0    0    0  0.00000000000E+00  0.00000000000E+00  0.99999998245E-14  0.12500000000E+03  0.12500000000E+03 0.  0.
        -13    1    3    3    0    0 -0.11651377106E+02 -0.16078991119E+02  0.56680772806E+02  0.60058385874E+02  0.10566000000E+00 0. -1.
         23    2    1    0    0    0  0.63574443538E+01 -0.11171956131E+02  0.26543858528E+02  0.95507524213E+02  0.90839864890E+02 0.  0.
         13    1    3    3    0    0  0.18008821460E+02  0.49070349883E+01 -0.30136914278E+02  0.35449138339E+02  0.10566000000E+00 0.  1.
         22    1    1    0    0    0 -0.63574443538E+01  0.11171956131E+02 -0.26543858528E+02  0.29492475787E+02  0.00000000000E+00 0. -1.
</event>
<event>
 5    1  0.1691066E-003  0.9118800E+02  0.7818608E-02  0.1130116E+00
         25   -1    0    0    0    0  0.00000000000E+00  0.00000000000E+00  0.99999998245E-14  0.12500000000E+03  0.12500000000E+03 0.  0.
        -13    1    3    3    0    0 -0.39992072860E+02 -0.30937898529E+02  0.24195662311E+02  0.56053195232E+02  0.10566000000E+00 0.  1.
         23    2    1    0    0    0 -0.20837580014E+02  0.26385192933E+00  0.24718600823E+02  0.92669154274E+02  0.86846350347E+02 0.  0.
         13    1    3    3    0    0  0.19154492846E+02  0.31201750458E+02  0.52293851123E+00  0.36615959042E+02  0.10566000000E+00 0. -1.
         22    1    1    0    0    0  0.20837580014E+02 -0.26385192933E+00 -0.24718600823E+02  0.32330845726E+02  0.00000000000E+00 0.  1.
</event>
<event>
 5    1  0.1691066E-003  0.9118800E+02  0.7818608E-02  0.1130116E+00
         25   -1    0    0    0    0  0.00000000000E+00  0.00000000000E+00  0.99999998245E-14  0.12500000000E+03  0.12500000000E+03 0.  0.
        -13    1    3    3    0    0  0.39593913239E+02 -0.24217048981E+02 -0.12690319938E+02  0.48116512873E+02  0.10566000000E+00 0. -1.
         23    2    1    0    0    0 -0.76719547424E+01 -0.18675446432E+02 -0.20367288596E+02  0.96321477832E+02  0.91953082917E+02 0.  0.
         13    1    3    3    0    0 -0.47265867981E+02  0.55416025490E+01 -0.76769686572E+01  0.48204964958E+02  0.10566000000E+00 0.  1.
         22    1    1    0    0    0  0.76719547424E+01  0.18675446432E+02  0.20367288596E+02  0.28678522168E+02  0.00000000000E+00 0. -1.
</event>
<event>
 5    1  0.1691066E-003  0.9118800E+02  0.7818608E-02  0.1130116E+00
         25   -1    0    0    0    0  0.00000000000E+00  0.00000000000E+00  0.99999998245E-14  0.12500000000E+03  0.12500000000E+03 0.  0.
        -13    1    3    3    0    0  0.44253054150E+02  0.18056022351E+01 -0.31288554586E+02  0.54227094825E+02  0.10566000000E+00 0. -1.
         23    2    1    0    0    0  0.29487609747E+02 -0.60610750790E+01  0.52755669480E+01  0.94437157097E+02  0.89354850312E+02 0.  0.
         13    1    3    3    0    0 -0.14765444403E+02 -0.78666773141E+01  0.36564121534E+02  0.40210062272E+02  0.10566000000E+00 0.  1.
         22    1    1    0    0    0 -0.29487609747E+02  0.60610750790E+01 -0.52755669480E+01  0.30562842903E+02  0.00000000000E+00 0. -1.
</event>
<event>
 5    1  0.1691066E-003  0.9118800E+02  0.7818608E-02  0.1130116E+00
         25   -1    0    0    0    0  0.00000000000E+00  0.00000000000E+00  0.99999998245E-14  0.12500000000E+03  0.12500000000E+03 0.  0.
        -13    1    3    3    0    0 -0.47626015624E+02 -0.95187737119E+01  0.35077360255E+02  0.59910573221E+02  0.10566000000E+00 0. -1.
         23    2    1    0    0    0 -0.18077487013E+02  0.59962132267E+01  0.22365364927E+02  0.95623824992E+02  0.90999759604E+02 0.  0.
         13    1    3    3    0    0  0.29548528611E+02  0.15514986939E+02 -0.12711995328E+02  0.35713251771E+02  0.10566000000E+00 0.  1.
         22    1    1    0    0    0  0.18077487013E+02 -0.59962132267E+01 -0.22365364927E+02  0.29376175008E+02  0.00000000000E+00 0. -1.
</event>
<event>
 5    1  0.1691066E-003  0.9118800E+02  0.7818608E-02  0.1130116E+00
         25   -1    0    0    0    0  0.00000000000E+00  0.00000000000E+00  0.99999998245E-14  0.12500000000E+03  0.12500000000E+03 0.  0.
        -13    1    3    3    0    0  0.23269151673E+02  0.27881482375E+01  0.28138009343E+02  0.36619474655E+02  0.10566000000E+00 0. -1.
         23    2    1    0    0    0 -0.29472412264E+02 -0.30266477431E+01  0.33544383692E+01  0.95183294314E+02  0.90392607986E+02 0.  0.
         13    1    3    3    0    0 -0.52741563937E+02 -0.58147959806E+01 -0.24783570974E+02  0.58563819659E+02  0.10566000000E+00 0.  1.
         22    1    1    0    0    0  0.29472412264E+02  0.30266477431E+01 -0.33544383692E+01  0.29816705686E+02  0.00000000000E+00 0.  1.
</event>
<event>
 5    1  0.1691066E-003  0.9118800E+02  0.7818608E-02  0.1130116E+00
         25   -1    0    0    0    0  0.00000000000E+00  0.00000000000E+00  0.99999998245E-14  0.12500000000E+03  0.12500000000E+03 0.  0.
        -13    1    3    3    0    0  0.11027195935E+02  0.26972481207E+02  0.17999004620E+02  0.34250388669E+02  0.10566000000E+00 0.  1.
         23    2    1    0    0    0 -0.27832509590E+02 -0.11952646360E+02 -0.57631681006E+01  0.94166115203E+02  0.88974877358E+02 0.  0.
         13    1    3    3    0    0 -0.38859705525E+02 -0.38925127568E+02 -0.23762172720E+02  0.59915726534E+02  0.10566000000E+00 0. -1.
         22    1    1    0    0    0  0.27832509590E+02  0.11952646360E+02  0.57631681006E+01  0.30833884797E+02  0.00000000000E+00 0. -1.
</event>
<event>
 5    1  0.1691066E-003  0.9118800E+02  0.7818608E-02  0.1130116E+00
         25   -1    0    0    0    0  0.00000000000E+00  0.00000000000E+00  0.99999998245E-14  0.12500000000E+03  0.12500000000E+03 0.  0.
        -13    1    3    3    0    0 -0.46992922780E+02 -0.22330741411E+02 -0.11575335576E+02  0.53300997750E+02  0.10566000000E+00 0. -1.
         23    2    1    0    0    0 -0.25581633359E+02 -0.12459525354E+01  0.16587681199E+02  0.94485683187E+02  0.89422708507E+02 0.  0.
         13    1    3    3    0    0  0.21411289421E+02  0.21084788876E+02  0.28163016775E+02  0.41184685437E+02  0.10566000000E+00 0.  1.
         22    1    1    0    0    0  0.25581633359E+02  0.12459525354E+01 -0.16587681199E+02  0.30514316813E+02  0.00000000000E+00 0. -1.
</event>
<event>
 5    1  0.1691066E-003  0.9118800E+02  0.7818608E-02  0.1130116E+00
         25   -1    0    0    0    0  0.00000000000E+00  0.00000000000E+00  0.99999998245E-14  0.12500000000E+03  0.12500000000E+03 0.  0.
        -13    1    3    3    0    0  0.38899189794E+02  0.44872955295E+02  0.73450300819E+01  0.59838864582E+02  0.10566000000E+00 0.  1.
         23    2    1    0    0    0  0.24514135294E+02  0.15267319445E+02 -0.62505063073E+01  0.95451688689E+02  0.90763000018E+02 0.  0.
         13    1    3    3    0    0 -0.14385054500E+02 -0.29605635851E+02 -0.13595536389E+02  0.35612824106E+02  0.10566000000E+00 0. -1.
         22    1    1    0    0    0 -0.24514135294E+02 -0.15267319445E+02  0.62505063073E+01  0.29548311311E+02  0.00000000000E+00 0.  1.
</event>
<event>
 5    1  0.1691066E-003  0.9118800E+02  0.7818608E-02  0.1130116E+00
         25   -1    0    0    0    0  0.00000000000E+00  0.00000000000E+00  0.99999998245E-14  0.12500000000E+03  0.12500000000E+03 0.  0.
        -13    1    3    3    0    0  0.23651831492E+02 -0.56312016724E+02 -0.77516362757E+01  0.61567453979E+02  0.10566000000E+00 0.  1.
         23    2    1    0    0    0  0.39191454760E+01 -0.27970288959E+02 -0.58671609970E+01  0.96153503785E+02  0.91724456643E+02 0.  0.
         13    1    3    3    0    0 -0.19732686016E+02  0.28341727765E+02  0.18844752787E+01  0.34586049807E+02  0.10566000000E+00 0. -1.
         22    1    1    0    0    0 -0.39191454760E+01  0.27970288959E+02  0.58671609970E+01  0.28846496215E+02  0.00000000000E+00 0.  1.
</event>
<event>
 5    1  0.1691066E-003  0.9118800E+02  0.7818608E-02  0.1130116E+00
         25   -1    0    0    0    0  0.00000000000E+00  0.00000000000E+00  0.99999998245E-14  0.12500000000E+03  0.12500000000E+03 0.  0.
        -13    1    3    3    0    0 -0.22252015426E+02 -0.31931678085E+02  0.39878178571E+02  0.55723106034E+02  0.10566000000E+00 0.  1.
         23    2    1    0    0    0 -0.25536304856E+02 -0.10833388083E+02  0.47132673201E+01  0.96863190446E+02  0.92686555721E+02 0.  0.
         13    1    3    3    0    0 -0.32842894305E+01  0.21098290002E+02 -0.35164911251E+02  0.41140084412E+02  0.10566000000E+00 0. -1.
         22    1    1    0    0    0  0.25536304856E+02  0.10833388083E+02 -0.47132673201E+01  0.28136809554E+02  0.00000000000E+00 0. -1.
</event>
<event>
 5    1  0.1691066E-003  0.9118800E+02  0.7818608E-02  0.1130116E+00
         25   -1    0    0    0    0  0.00000000000E+00  0.00000000000E+00  0.99999998245E-14  0.12500000000E+03  0.12500000000E+03 0.  0.
        -13    1    3    3    0    0  0.32057056747E+02 -0.21964484739E+02 -0.14900900684E+02  0.41619003860E+02  0.10566000000E+00 0.  1.
         23    2    1    0    0    0  0.41696141039E+01  0.25739228848E+02 -0.99262834489E+01  0.97099736801E+02  0.93005022447E+02 0.  0.
         13    1    3    3    0    0 -0.27887442643E+02  0.47703713586E+02  0.49746172348E+01  0.55480732941E+02  0.10566000000E+00 0. -1.
         22    1    1    0    0    0 -0.41696141039E+01 -0.25739228848E+02  0.99262834489E+01  0.27900263199E+02  0.00000000000E+00 0. -1.
</event>
<event>
 5    1  0.1691066E-003  0.9118800E+02  0.7818608E-02  0.1130116E+00
         25   -1    0    0    0    0  0.00000000000E+00  0.00000000000E+00  0.99999998245E-14  0.12500000000E+03  0.12500000000E+03 0.  0.
        -13    1    3    3    0    0  0.24442723780E+02 -0.16966818084E+02 -0.18068920698E+02  0.34811157994E+02  0.10566000000E+00 0. -1.
         23    2    1    0    0    0 -0.27988497878E+02 -0.19891384436E+01  0.87906489032E+01  0.95596119417E+02  0.90961694434E+02 0.  0.
         13    1    3    3    0    0 -0.52431221658E+02  0.14977679640E+02  0.26859569602E+02  0.60784961423E+02  0.10566000000E+00 0.  1.
         22    1    1    0    0    0  0.27988497878E+02  0.19891384436E+01 -0.87906489032E+01  0.29403880583E+02  0.00000000000E+00 0.  1.
</event>
<event>
 5    1  0.1691066E-003  0.9118800E+02  0.7818608E-02  0.1130116E+00
         25   -1    0    0    0    0  0.00000000000E+00  0.00000000000E+00  0.99999998245E-14  0.12500000000E+03  0.12500000000E+03 0.  0.
        -13    1    3    3    0    0  0.54270859127E+02 -0.11322504649E+02  0.38386983398E+01  0.55572223556E+02  0.10566000000E+00 0. -1.
         23    2    1    0    0    0  0.24174885437E+02  0.96703122462E+01 -0.12944401507E+02  0.95922559342E+02  0.91409189010E+02 0.  0.
         13    1    3    3    0    0 -0.30095973690E+02  0.20992816895E+02 -0.16783099847E+02  0.40350335786E+02  0.10566000000E+00 0.  1.
         22    1    1    0    0    0 -0.24174885437E+02 -0.96703122462E+01  0.12944401507E+02  0.29077440658E+02  0.00000000000E+00 0. -1.
</event>
<event>
 5    1  0.1691066E-003  0.9118800E+02  0.7818608E-02  0.1130116E+00
         25   -1    0    0    0    0  0.00000000000E+00  0.00000000000E+00  0.99999998245E-14  0.12500000000E+03  0.12500000000E+03 0.  0.
        -13    1    3    3    0    0 -0.28618506585E+02  0.78481233551E+00 -0.42612119385E+02  0.51336524347E+02  0.10566000000E+00 0.  1.
         23    2    1    0    0    0 -0.29791468134E+02  0.55456968642E+01  0.46625132280E+00  0.94693173746E+02  0.89712281414E+02 0.  0.
         13    1    3    3    0    0 -0.11729615494E+01  0.47608845287E+01  0.43078370707E+02  0.43356649399E+02  0.10566000000E+00 0. -1.
         22    1    1    0    0    0  0.29791468134E+02 -0.55456968642E+01 -0.46625132280E+00  0.30306826254E+02  0.00000000000E+00 0. -1.
</event>
<event>
 5    1  0.1691066E-003  0.9118800E+02  0.7818608E-02  0.1130116E+00
         25   -1    0    0    0    0  0.00000000000E+00  0.00000000000E+00  0.99999998245E-14  0.12500000000E+03  0.12500000000E+03 0.  0.
        -13    1    3    3    0    0  0.28361002416E+02 -0.35999775919E+02 -0.33070168011E+02  0.56515285547E+02  0.10566000000E+00 0.  1.
         23    2    1    0    0    0  0.42600101605E+01 -0.23599047637E+02  0.21112661176E+01  0.10092677461E+03  0.98013742164E+02 0.  0.
         13    1    3    3    0    0 -0.24100992255E+02  0.12400728282E+02  0.35181434128E+02  0.44411489065E+02  0.10566000000E+00 0. -1.
         22    1    1    0    0    0 -0.42600101605E+01  0.23599047637E+02 -0.21112661176E+01  0.24073225388E+02  0.00000000000E+00 0.  1.
</event>
<event>
 5    1  0.1691066E-003  0.9118800E+02  0.7818608E-02  0.1130116E+00
         25   -1    0    0    0    0  0.00000000000E+00  0.00000000000E+00  0.99999998245E-14  0.12500000000E+03  0.12500000000E+03 0.  0.
        -13    1    3    3    0    0  0.20427917126E+02  0.31190178547E+02 -0.22334395220E+02  0.43462206683E+02  0.10566000000E+00 0.  1.
         23    2    1    0    0    0 -0.24236015218E+02  0.21999103668E+01 -0.15751030982E+01  0.10061342605E+03  0.97613300899E+02 0.  0.
         13    1    3    3    0    0 -0.44663932345E+02 -0.28990268180E+02  0.20759292121E+02  0.57151219366E+02  0.10566000000E+00 0. -1.
         22    1    1    0    0    0  0.24236015218E+02 -0.21999103668E+01  0.15751030982E+01  0.24386573951E+02  0.00000000000E+00 0. -1.
</event>
<event>
 5    1  0.1691066E-003  0.9118800E+02  0.7818608E-02  0.1130116E+00
         25   -1    0    0    0    0  0.00000000000E+00  0.00000000000E+00  0.99999998245E-14  0.12500000000E+03  0.12500000000E+03 0.  0.
        -13    1    3    3    0    0 -0.13396316228E+02 -0.14211830210E+02  0.32778398975E+02  0.38155890892E+02  0.10566000000E+00 0. -1.
         23    2    1    0    0    0  0.31862322827E+02 -0.14630811331E+02  0.12176662245E+02  0.87884782641E+02  0.79663013126E+02 0.  0.
         13    1    3    3    0    0  0.45258639055E+02 -0.41898112135E+00 -0.20601736729E+02  0.49728891749E+02  0.10566000000E+00 0.  1.
         22    1    1    0    0    0 -0.31862322827E+02  0.14630811331E+02 -0.12176662245E+02  0.37115217359E+02  0.00000000000E+00 0.  1.
</event>
<event>
 5    1  0.1691066E-003  0.9118800E+02  0.7818608E-02  0.1130116E+00
         25   -1    0    0    0    0  0.00000000000E+00  0.00000000000E+00  0.99999998245E-14  0.12500000000E+03  0.12500000000E+03 0.  0.
        -13    1    3    3    0    0 -0.57841431092E+02 -0.10547225757E+02 -0.30824913207E+01  0.58876039598E+02  0.10566000000E+00 0. -1.
         23    2    1    0    0    0 -0.32228679880E+02  0.93602508920E+01 -0.25611559922E+00  0.91438598081E+02  0.85056742944E+02 0.  0.
         13    1    3    3    0    0  0.25612751212E+02  0.19907476649E+02  0.28263757214E+01  0.32562558483E+02  0.10566000000E+00 0.  1.
         22    1    1    0    0    0  0.32228679880E+02 -0.93602508920E+01  0.25611559922E+00  0.33561401919E+02  0.00000000000E+00 0. -1.
</event>
<event>
 5    1  0.1691066E-003  0.9118800E+02  0.7818608E-02  0.1130116E+00
         25   -1    0    0    0    0  0.00000000000E+00  0.00000000000E+00  0.99999998245E-14  0.12500000000E+03  0.12500000000E+03 0.  0.
        -13    1    3    3    0    0 -0.11407149212E+02 -0.27562544677E+02 -0.38440065436E+02  0.48656620485E+02  0.10566000000E+00 0. -1.
         23    2    1    0    0    0 -0.17731363448E+01  0.16277627645E+02 -0.24263453911E+02  0.95728505847E+02  0.91143438939E+02 0.  0.
         13    1    3    3    0    0  0.96340128675E+01  0.43840172322E+02  0.14176611525E+02  0.47071885362E+02  0.10566000000E+00 0.  1.
         22    1    1    0    0    0  0.17731363448E+01 -0.16277627645E+02  0.24263453911E+02  0.29271494153E+02  0.00000000000E+00 0. -1.
</event>
<event>
 5    1  0.1691066E-003  0.9118800E+02  0.7818608E-02  0.1130116E+00
         25   -1    0    0    0    0  0.00000000000E+00  0.00000000000E+00  0.99999998245E-14  0.12500000000E+03  0.12500000000E+03 0.  0.
        -13    1    3    3    0    0 -0.30977445258E+02 -0.18748147795E+02  0.51857524215E+01  0.36578659799E+02  0.10566000000E+00 0. -1.
         23    2    1    0    0    0  0.18629555237E+02  0.99643764901E+01  0.20136638689E+02  0.95813815856E+02  0.91260363598E+02 0.  0.
         13    1    3    3    0    0  0.49607000495E+02  0.28712524286E+02  0.14950886267E+02  0.59235156058E+02  0.10566000000E+00 0.  1.
         22    1    1    0    0    0 -0.18629555237E+02 -0.99643764901E+01 -0.20136638689E+02  0.29186184144E+02  0.00000000000E+00 0.  1.
</event>
<event>
 5    1  0.1691066E-003  0.9118800E+02  0.7818608E-02  0.1130116E+00
         25   -1    0    0    0    0  0.00000000000E+00  0.00000000000E+00  0.99999998245E-14  0.12500000000E+03  0.12500000000E+03 0.  0.
        -13    1    3    3    0    0 -0.40683121479E+01  0.12175052812E+02 -0.40703054170E+02  0.42679419601E+02  0.10566000000E+00 0. -1.
         23    2    1    0    0    0  0.10263513716E+02  0.25698829774E+02  0.88012832748E+01  0.95961540109E+02  0.91462478794E+02 0.  0.
         13    1    3    3    0    0  0.14331825864E+02  0.13523776962E+02  0.49504337444E+02  0.53282120508E+02  0.10566000000E+00 0.  1.
         22    1    1    0    0    0 -0.10263513716E+02 -0.25698829774E+02 -0.88012832748E+01  0.29038459891E+02  0.00000000000E+00 0.  1.
</event>
<event>
 5    1  0.1691066E-003  0.9118800E+02  0.7818608E-02  0.1130116E+00
         25   -1    0    0    0    0  0.00000000000E+00  0.00000000000E+00  0.99999998245E-14  0.12500000000E+03  0.12500000000E+03 0.  0.
        -13    1    3    3    0    0  0.41004466392E+02 -0.44204932263E+02  0.25513780893E+01  0.60348678483E+02  0.10566000000E+00 0.  1.
         23    2    1    0    0    0  0.24260064300E+02 -0.13696127939E+02  0.89593333518E+01  0.95735613889E+02  0.91153186846E+02 0.  0.
         13    1    3    3    0    0 -0.16744402092E+02  0.30508804325E+02  0.64079552625E+01  0.35386935406E+02  0.10566000000E+00 0. -1.
         22    1    1    0    0    0 -0.24260064300E+02  0.13696127939E+02 -0.89593333518E+01  0.29264386111E+02  0.00000000000E+00 0.  1.
</event>
<event>
 5    1  0.1691066E-003  0.9118800E+02  0.7818608E-02  0.1130116E+00
         25   -1    0    0    0    0  0.00000000000E+00  0.00000000000E+00  0.99999998245E-14  0.12500000000E+03  0.12500000000E+03 0.  0.
        -13    1    3    3    0    0  0.30600609405E+02 -0.24839705287E+02 -0.48201389400E+02  0.62263900928E+02  0.10566000000E+00 0. -1.
         23    2    1    0    0    0  0.12415593056E+02 -0.97877070991E+01 -0.25383612893E+02  0.95095586200E+02  0.90271238776E+02 0.  0.
         13    1    3    3    0    0 -0.18185016349E+02  0.15051998188E+02  0.22817776507E+02  0.32831685272E+02  0.10566000000E+00 0.  1.
         22    1    1    0    0    0 -0.12415593056E+02  0.97877070991E+01  0.25383612893E+02  0.29904413800E+02  0.00000000000E+00 0. -1.
</event>
<event>
 5    1  0.1691066E-003  0.9118800E+02  0.7818608E-02  0.1130116E+00
         25   -1    0    0    0    0  0.00000000000E+00  0.00000000000E+00  0.99999998245E-14  0.12500000000E+03  0.12500000000E+03 0.  0.
        -13    1    3    3    0    0 -0.28535448514E+02 -0.39878650979E+02  0.16459893447E+01  0.49064234130E+02  0.10566000000E+00 0. -1.
         23    2    1    0    0    0 -0.68818669007E+01 -0.12127298362E+02  0.28455981064E+02  0.93311290403E+02  0.87765725661E+02 0.  0.
         13    1    3    3    0    0  0.21653581613E+02  0.27751352617E+02  0.26809991720E+02  0.44247056273E+02  0.10566000000E+00 0.  1.
         22    1    1    0    0    0  0.68818669007E+01  0.12127298362E+02 -0.28455981064E+02  0.31688709597E+02  0.00000000000E+00 0.  1.
</event>
<event>
 5    1  0.1691066E-003  0.9118800E+02  0.7818608E-02  0.1130116E+00
         25   -1    0    0    0    0  0.00000000000E+00  0.00000000000E+00  0.99999998245E-14  0.12500000000E+03  0.12500000000E+03 0.  0.
        -13    1    3    3    0    0  0.46502867425E+02  0.23109849105E+02  0.22442512693E+02  0.56570834751E+02  0.10566000000E+00 0. -1.
         23    2    1    0    0    0  0.55982602513E+01  0.18956520834E+02  0.18589254911E+02  0.97866061876E+02  0.94029333024E+02 0.  0.
         13    1    3    3    0    0 -0.40904607173E+02 -0.41533282709E+01 -0.38532577823E+01  0.41295227125E+02  0.10566000000E+00 0.  1.
         22    1    1    0    0    0 -0.55982602513E+01 -0.18956520834E+02 -0.18589254911E+02  0.27133938124E+02  0.00000000000E+00 0. -1.
</event>
<event>
 5    1  0.1691066E-003  0.9118800E+02  0.7818608E-02  0.1130116E+00
         25   -1    0    0    0    0  0.00000000000E+00  0.00000000000E+00  0.99999998245E-14  0.12500000000E+03  0.12500000000E+03 0.  0.
        -13    1    3    3    0    0 -0.44567292505E+02  0.21843298631E+02  0.29506808027E+02  0.57741113085E+02  0.10566000000E+00 0.  1.
         23    2    1    0    0    0 -0.30193906767E+02  0.49050137754E+01  0.33521226010E+00  0.94408440164E+02  0.89314668677E+02 0.  0.
         13    1    3    3    0    0  0.14373385738E+02 -0.16938284856E+02 -0.29171595767E+02  0.36667327078E+02  0.10566000000E+00 0. -1.
         22    1    1    0    0    0  0.30193906767E+02 -0.49050137754E+01 -0.33521226010E+00  0.30591559836E+02  0.00000000000E+00 0. -1.
</event>
<event>
 5    1  0.1691066E-003  0.9118800E+02  0.7818608E-02  0.1130116E+00
         25   -1    0    0    0    0  0.00000000000E+00  0.00000000000E+00  0.99999998245E-14  0.12500000000E+03  0.12500000000E+03 0.  0.
        -13    1    3    3    0    0  0.38379533040E+02  0.13659270854E+02  0.37855070057E+02  0.55610985693E+02  0.10566000000E+00 0.  1.
         23    2    1    0    0    0  0.28738973344E+02 -0.31834665912E+01  0.24556123486E+01  0.95981159906E+02  0.91489288861E+02 0.  0.
         13    1    3    3    0    0 -0.96405596956E+01 -0.16842737445E+02 -0.35399457708E+02  0.40370174213E+02  0.10566000000E+00 0. -1.
         22    1    1    0    0    0 -0.28738973344E+02  0.31834665912E+01 -0.24556123486E+01  0.29018840094E+02  0.00000000000E+00 0. -1.
</event>
<event>
 5    1  0.1691066E-003  0.9118800E+02  0.7818608E-02  0.1130116E+00
         25   -1    0    0    0    0  0.00000000000E+00  0.00000000000E+00  0.99999998245E-14  0.12500000000E+03  0.12500000000E+03 0.  0.
        -13    1    3    3    0    0 -0.45752305543E+02  0.20083072702E+02 -0.14159560396E+02  0.51933684505E+02  0.10566000000E+00 0. -1.
         23    2    1    0    0    0 -0.20533833218E+02 -0.13795154062E+02 -0.18095121471E+02  0.94350725893E+02  0.89233858335E+02 0.  0.
         13    1    3    3    0    0  0.25218472324E+02 -0.33878226764E+02 -0.39355610747E+01  0.42417041388E+02  0.10566000000E+00 0.  1.
         22    1    1    0    0    0  0.20533833218E+02  0.13795154062E+02  0.18095121471E+02  0.30649274107E+02  0.00000000000E+00 0.  1.
</event>
<event>
 5    1  0.1691066E-003  0.9118800E+02  0.7818608E-02  0.1130116E+00
         25   -1    0    0    0    0  0.00000000000E+00  0.00000000000E+00  0.99999998245E-14  0.12500000000E+03  0.12500000000E+03 0.  0.
        -13    1    3    3    0    0  0.41361521581E+02  0.77425780771E+01  0.33075192938E+01  0.42209878354E+02  0.10566000000E+00 0.  1.
         23    2    1    0    0    0 -0.60378401811E+01 -0.13486307755E+02  0.22923311025E+02  0.97727042712E+02  0.93844342813E+02 0.  0.
         13    1    3    3    0    0 -0.47399361762E+02 -0.21228885832E+02  0.19615791731E+02  0.55517164358E+02  0.10566000000E+00 0. -1.
         22    1    1    0    0    0  0.60378401811E+01  0.13486307755E+02 -0.22923311025E+02  0.27272957288E+02  0.00000000000E+00 0. -1.
</event>
<event>
 5    1  0.1691066E-003  0.9118800E+02  0.7818608E-02  0.1130116E+00
         25   -1    0    0    0    0  0.00000000000E+00  0.00000000000E+00  0.99999998245E-14  0.12500000000E+03  0.12500000000E+03 0.  0.
        -13    1    3    3    0    0 -0.29735877460E+02 -0.15075160860E+02 -0.16621584289E+01  0.33380485586E+02  0.10566000000E+00 0. -1.
         23    2    1    0    0    0  0.26255780176E+02  0.10545954139E+02 -0.88010229807E+01  0.95368240908E+02  0.90648001782E+02 0.  0.
         13    1    3    3    0    0  0.55991657637E+02  0.25621115000E+02 -0.71388645518E+01  0.61987755322E+02  0.10566000000E+00 0.  1.
         22    1    1    0    0    0 -0.26255780176E+02 -0.10545954139E+02  0.88010229807E+01  0.29631759092E+02  0.00000000000E+00 0.  1.
</event>
<event>
 5    1  0.1691066E-003  0.9118800E+02  0.7818608E-02  0.1130116E+00
         25   -1    0    0    0    0  0.00000000000E+00  0.00000000000E+00  0.99999998245E-14  0.12500000000E+03  0.12500000000E+03 0.  0.
        -13    1    3    3    0    0 -0.26952941234E+02 -0.20908006007E+02 -0.51792268355E+02  0.62016578281E+02  0.10566000000E+00 0.  1.
         23    2    1    0    0    0 -0.11355093674E+02 -0.14966304771E+02 -0.22939982774E+02  0.95349178081E+02  0.90621711086E+02 0.  0.
         13    1    3    3    0    0  0.15597847560E+02  0.59417012358E+01  0.28852285581E+02  0.33332599799E+02  0.10566000000E+00 0. -1.
         22    1    1    0    0    0  0.11355093674E+02  0.14966304771E+02  0.22939982774E+02  0.29650821919E+02  0.00000000000E+00 0.  1.
</event>
<event>
 5    1  0.1691066E-003  0.9118800E+02  0.7818608E-02  0.1130116E+00
         25   -1    0    0    0    0  0.00000000000E+00  0.00000000000E+00  0.99999998245E-14  0.12500000000E+03  0.12500000000E+03 0.  0.
        -13    1    3    3    0    0 -0.20202875438E+02 -0.32925867894E+02 -0.12045146404E+02  0.40464375301E+02  0.10566000000E+00 0.  1.
         23    2    1    0    0    0 -0.16035514295E+02  0.10260391381E+02  0.22212617937E+02  0.95745705519E+02  0.91167024629E+02 0.  0.
         13    1    3    3    0    0  0.41673611437E+01  0.43186259274E+02  0.34257764341E+02  0.55281330218E+02  0.10566000000E+00 0. -1.
         22    1    1    0    0    0  0.16035514295E+02 -0.10260391381E+02 -0.22212617937E+02  0.29254294481E+02  0.00000000000E+00 0. -1.
</event>
<event>
 5    1  0.1691066E-003  0.9118800E+02  0.7818608E-02  0.1130116E+00
         25   -1    0    0    0    0  0.00000000000E+00  0.00000000000E+00  0.99999998245E-14  0.12500000000E+03  0.12500000000E+03 0.  0.
        -13    1    3    3    0    0  0.19521812711E+02 -0.20866771195E+02  0.47611423735E+02  0.55528210360E+02  0.10566000000E+00 0.  1.
         23    2    1    0    0    0  0.18819002512E+02 -0.18686903782E+02  0.52340019491E+01  0.97967611927E+02  0.94164234090E+02 0.  0.
         13    1    3    3    0    0 -0.70281019938E+00  0.21798674126E+01 -0.42377421786E+02  0.42439401567E+02  0.10566000000E+00 0. -1.
         22    1    1    0    0    0 -0.18819002512E+02  0.18686903782E+02 -0.52340019491E+01  0.27032388073E+02  0.00000000000E+00 0.  1.
</event>
<event>
 5    1  0.1691066E-003  0.9118800E+02  0.7818608E-02  0.1130116E+00
         25   -1    0    0    0    0  0.00000000000E+00  0.00000000000E+00  0.99999998245E-14  0.12500000000E+03  0.12500000000E+03 0.  0.
        -13    1    3    3    0    0  0.49110215211E+02 -0.14961389318E+02  0.31303080157E+02  0.60129447027E+02  0.10566000000E+00 0. -1.
         23    2    1    0    0    0  0.16731066665E+02 -0.10984833719E+02  0.24341305375E+02  0.93486601088E+02  0.88015057076E+02 0.  0.
         13    1    3    3    0    0 -0.32379148545E+02  0.39765555989E+01 -0.69617747820E+01  0.33357154062E+02  0.10566000000E+00 0.  1.
         22    1    1    0    0    0 -0.16731066665E+02  0.10984833719E+02 -0.24341305375E+02  0.31513398912E+02  0.00000000000E+00 0. -1.
</event>
<event>
 5    1  0.1691066E-003  0.9118800E+02  0.7818608E-02  0.1130116E+00
         25   -1    0    0    0    0  0.00000000000E+00  0.00000000000E+00  0.99999998245E-14  0.12500000000E+03  0.12500000000E+03 0.  0.
        -13    1    3    3    0    0 -0.31538256922E+02 -0.42928733437E+01  0.14781582713E+02  0.35094112936E+02  0.10566000000E+00 0. -1.
         23    2    1    0    0    0  0.28473770295E+02  0.49570311265E+00  0.45044407660E+01  0.96167877237E+02  0.91744042364E+02 0.  0.
         13    1    3    3    0    0  0.60012027218E+02  0.47885764563E+01 -0.10277141947E+02  0.61073764301E+02  0.10566000000E+00 0.  1.
         22    1    1    0    0    0 -0.28473770295E+02 -0.49570311265E+00 -0.45044407660E+01  0.28832122763E+02  0.00000000000E+00 0.  1.
</event>
<event>
 5    1  0.1691066E-003  0.9118800E+02  0.7818608E-02  0.1130116E+00
         25   -1    0    0    0    0  0.00000000000E+00  0.00000000000E+00  0.99999998245E-14  0.12500000000E+03  0.12500000000E+03 0.  0.
        -13    1    3    3    0    0 -0.29501851463E+02 -0.16189306520E+02 -0.29680865080E+01  0.33782740962E+02  0.10566000000E+00 0. -1.
         23    2    1    0    0    0  0.22076682989E+02  0.18667909310E+02 -0.13842497866E+01  0.96055450992E+02  0.91590735055E+02 0.  0.
         13    1    3    3    0    0  0.51578534452E+02  0.34857215830E+02  0.15838367214E+01  0.62272710030E+02  0.10566000000E+00 0.  1.
         22    1    1    0    0    0 -0.22076682989E+02 -0.18667909310E+02  0.13842497866E+01  0.28944549008E+02  0.00000000000E+00 0.  1.
</event>
<event>
 5    1  0.1691066E-003  0.9118800E+02  0.7818608E-02  0.1130116E+00
         25   -1    0    0    0    0  0.00000000000E+00  0.00000000000E+00  0.99999998245E-14  0.12500000000E+03  0.12500000000E+03 0.  0.
        -13    1    3    3    0    0  0.45506648947E+02 -0.30084037100E+02 -0.34405407835E+01  0.54660340939E+02  0.10566000000E+00 0. -1.
         23    2    1    0    0    0  0.10646858161E+02 -0.20216041557E+02 -0.20129732148E+02  0.94549219365E+02  0.89511478824E+02 0.  0.
         13    1    3    3    0    0 -0.34859790786E+02  0.98679955430E+01 -0.16689191364E+02  0.39888878426E+02  0.10566000000E+00 0.  1.
         22    1    1    0    0    0 -0.10646858161E+02  0.20216041557E+02  0.20129732148E+02  0.30450780635E+02  0.00000000000E+00 0. -1.
</event>
<event>
 5    1  0.1691066E-003  0.9118800E+02  0.7818608E-02  0.1130116E+00
         25   -1    0    0    0    0  0.00000000000E+00  0.00000000000E+00  0.99999998245E-14  0.12500000000E+03  0.12500000000E+03 0.  0.
        -13    1    3    3    0    0  0.62997894595E+01  0.37943335435E+02  0.21201832947E+02  0.43919391338E+02  0.10566000000E+00 0.  1.
         23    2    1    0    0    0  0.59665168729E+01  0.56467774912E+01 -0.24089907796E+02  0.99547906231E+02  0.96239163326E+02 0.  0.
         13    1    3    3    0    0 -0.33327258659E+00 -0.32296557944E+02 -0.45291740743E+02  0.55628514893E+02  0.10566000000E+00 0. -1.
         22    1    1    0    0    0 -0.59665168729E+01 -0.56467774912E+01  0.24089907796E+02  0.25452093769E+02  0.00000000000E+00 0. -1.
</event>
<event>
 5    1  0.1691066E-003  0.9118800E+02  0.7818608E-02  0.1130116E+00
         25   -1    0    0    0    0  0.00000000000E+00  0.00000000000E+00  0.99999998245E-14  0.12500000000E+03  0.12500000000E+03 0.  0.
        -13    1    3    3    0    0 -0.32243395586E+02 -0.22962841614E+02 -0.46327591122E+02  0.60935913197E+02  0.10566000000E+00 0.  1.
         23    2    1    0    0    0 -0.15880145163E+02 -0.53770337502E+01 -0.31914750518E+02  0.88949441017E+02  0.81316420570E+02 0.  0.
         13    1    3    3    0    0  0.16363250424E+02  0.17585807863E+02  0.14412840604E+02  0.28013527821E+02  0.10566000000E+00 0. -1.
         22    1    1    0    0    0  0.15880145163E+02  0.53770337502E+01  0.31914750518E+02  0.36050558983E+02  0.00000000000E+00 0.  1.
</event>
<event>
 5    1  0.1691066E-003  0.9118800E+02  0.7818608E-02  0.1130116E+00
         25   -1    0    0    0    0  0.00000000000E+00  0.00000000000E+00  0.99999998245E-14  0.12500000000E+03  0.12500000000E+03 0.  0.
        -13    1    3    3    0    0  0.24084335736E+02  0.21412342608E+02  0.75250680666E+01  0.33093525911E+02  0.10566000000E+00 0.  1.
         23    2    1    0    0    0 -0.21801438626E+02 -0.14555937135E+02 -0.14047234722E+02  0.95259407615E+02  0.90497800547E+02 0.  0.
         13    1    3    3    0    0 -0.45885774362E+02 -0.35968279742E+02 -0.21572302789E+02  0.62165881704E+02  0.10566000000E+00 0. -1.
         22    1    1    0    0    0  0.21801438626E+02  0.14555937135E+02  0.14047234722E+02  0.29740592385E+02  0.00000000000E+00 0. -1.
</event>
<event>
 5    1  0.1691066E-003  0.9118800E+02  0.7818608E-02  0.1130116E+00
         25   -1    0    0    0    0  0.00000000000E+00  0.00000000000E+00  0.99999998245E-14  0.12500000000E+03  0.12500000000E+03 0.  0.
        -13    1    3    3    0    0  0.31124451978E+02  0.13059263223E+02  0.18156368490E+02  0.38326762812E+02  0.10566000000E+00 0.  1.
         23    2    1    0    0    0 -0.21545357830E+02 -0.10609827157E+02  0.16060618070E+02  0.96108576893E+02  0.91663210850E+02 0.  0.
         13    1    3    3    0    0 -0.52669809808E+02 -0.23669090380E+02 -0.20957504193E+01  0.57781814081E+02  0.10566000000E+00 0. -1.
         22    1    1    0    0    0  0.21545357830E+02  0.10609827157E+02 -0.16060618070E+02  0.28891423107E+02  0.00000000000E+00 0. -1.
</event>
<event>
 5    1  0.1691066E-003  0.9118800E+02  0.7818608E-02  0.1130116E+00
         25   -1    0    0    0    0  0.00000000000E+00  0.00000000000E+00  0.99999998245E-14  0.12500000000E+03  0.12500000000E+03 0.  0.
        -13    1    3    3    0    0 -0.17798701991E+02 -0.58096440016E+02  0.14113671332E+02  0.62379459901E+02  0.10566000000E+00 0.  1.
         23    2    1    0    0    0 -0.10653399319E+02 -0.27093774366E+02  0.83530588983E+01  0.94712360287E+02  0.89739010869E+02 0.  0.
         13    1    3    3    0    0  0.71453026723E+01  0.31002665650E+02 -0.57606124340E+01  0.32332900386E+02  0.10566000000E+00 0. -1.
         22    1    1    0    0    0  0.10653399319E+02  0.27093774366E+02 -0.83530588983E+01  0.30287639713E+02  0.00000000000E+00 0.  1.
</event>
<event>
 5    1  0.1691066E-003  0.9118800E+02  0.7818608E-02  0.1130116E+00
         25   -1    0    0    0    0  0.00000000000E+00  0.00000000000E+00  0.99999998245E-14  0.12500000000E+03  0.12500000000E+03 0.  0.
        -13    1    3    3    0    0 -0.56670072876E+02  0.92667620867E+00 -0.19249154214E+02  0.59857305240E+02  0.10566000000E+00 0.  1.
         23    2    1    0    0    0 -0.29643801161E+02 -0.25892493467E+01  0.30715587106E+01  0.95085227188E+02  0.90256893349E+02 0.  0.
         13    1    3    3    0    0  0.27026271715E+02 -0.35159255554E+01  0.22320712925E+02  0.35227921948E+02  0.10566000000E+00 0. -1.
         22    1    1    0    0    0  0.29643801161E+02  0.25892493467E+01 -0.30715587106E+01  0.29914772812E+02  0.00000000000E+00 0.  1.
</event>
<event>
 5    1  0.1691066E-003  0.9118800E+02  0.7818608E-02  0.1130116E+00
         25   -1    0    0    0    0  0.00000000000E+00  0.00000000000E+00  0.99999998245E-14  0.12500000000E+03  0.12500000000E+03 0.  0.
        -13    1    3    3    0    0 -0.65885382882E+01 -0.56297747742E+02 -0.13675938631E+01  0.56698560075E+02  0.10566000000E+00 0.  1.
         23    2    1    0    0    0  0.15801372822E+02 -0.23702654800E+02 -0.34917863398E+01  0.96299968651E+02  0.91923838925E+02 0.  0.
         13    1    3    3    0    0  0.22389911110E+02  0.32595092942E+02 -0.21241924767E+01  0.39601408575E+02  0.10566000000E+00 0. -1.
         22    1    1    0    0    0 -0.15801372822E+02  0.23702654800E+02  0.34917863398E+01  0.28700031349E+02  0.00000000000E+00 0.  1.
</event>
<event>
 5    1  0.1691066E-003  0.9118800E+02  0.7818608E-02  0.1130116E+00
         25   -1    0    0    0    0  0.00000000000E+00  0.00000000000E+00  0.99999998245E-14  0.12500000000E+03  0.12500000000E+03 0.  0.
        -13    1    3    3    0    0  0.30049382304E+02  0.50690745598E+01  0.19839353420E+02  0.36363058203E+02  0.10566000000E+00 0.  1.
         23    2    1    0    0    0 -0.25465692434E+02 -0.10852554787E+02  0.35006745088E+00  0.97316033814E+02  0.93295275623E+02 0.  0.
         13    1    3    3    0    0 -0.55515074738E+02 -0.15921629347E+02 -0.19489285969E+02  0.60952975611E+02  0.10566000000E+00 0. -1.
         22    1    1    0    0    0  0.25465692434E+02  0.10852554787E+02 -0.35006745088E+00  0.27683966186E+02  0.00000000000E+00 0. -1.
</event>
<event>
 5    1  0.1691066E-003  0.9118800E+02  0.7818608E-02  0.1130116E+00
         25   -1    0    0    0    0  0.00000000000E+00  0.00000000000E+00  0.99999998245E-14  0.12500000000E+03  0.12500000000E+03 0.  0.
        -13    1    3    3    0    0  0.58621603730E+01  0.19996874524E+02 -0.55983620766E+02  0.59736227476E+02  0.10566000000E+00 0.  1.
         23    2    1    0    0    0  0.87003577629E+01  0.18960647418E+02 -0.19187474545E+02  0.96656366586E+02  0.92407205598E+02 0.  0.
         13    1    3    3    0    0  0.28381973899E+01 -0.10362271055E+01  0.36796146222E+02  0.36920139109E+02  0.10566000000E+00 0. -1.
         22    1    1    0    0    0 -0.87003577629E+01 -0.18960647418E+02  0.19187474545E+02  0.28343633414E+02  0.00000000000E+00 0.  1.
</event>
<event>
 5    1  0.1691066E-003  0.9118800E+02  0.7818608E-02  0.1130116E+00
         25   -1    0    0    0    0  0.00000000000E+00  0.00000000000E+00  0.99999998245E-14  0.12500000000E+03  0.12500000000E+03 0.  0.
        -13    1    3    3    0    0  0.57186787166E+02 -0.15987907131E+02 -0.14588370706E+02  0.61145511076E+02  0.10566000000E+00 0.  1.
         23    2    1    0    0    0  0.26269368118E+02 -0.11758018332E+02  0.13536358533E+01  0.96187450192E+02  0.91770706372E+02 0.  0.
         13    1    3    3    0    0 -0.30917419048E+02  0.42298887989E+01  0.15942006560E+02  0.35041939116E+02  0.10566000000E+00 0. -1.
         22    1    1    0    0    0 -0.26269368118E+02  0.11758018332E+02 -0.13536358533E+01  0.28812549808E+02  0.00000000000E+00 0.  1.
</event>
<event>
 5    1  0.1691066E-003  0.9118800E+02  0.7818608E-02  0.1130116E+00
         25   -1    0    0    0    0  0.00000000000E+00  0.00000000000E+00  0.99999998245E-14  0.12500000000E+03  0.12500000000E+03 0.  0.
        -13    1    3    3    0    0 -0.47285187812E+02 -0.16905362404E+02  0.31737097967E+02  0.59404838320E+02  0.10566000000E+00 0.  1.
         23    2    1    0    0    0 -0.96593862986E+01 -0.16668777046E+02  0.14988691551E+02  0.10059072418E+03  0.97584225384E+02 0.  0.
         13    1    3    3    0    0  0.37625801513E+02  0.23658535807E+00 -0.16748406416E+02  0.41185885855E+02  0.10566000000E+00 0. -1.
         22    1    1    0    0    0  0.96593862986E+01  0.16668777046E+02 -0.14988691551E+02  0.24409275825E+02  0.00000000000E+00 0.  1.
</event>
<event>
 5    1  0.1691066E-003  0.9118800E+02  0.7818608E-02  0.1130116E+00
         25   -1    0    0    0    0  0.00000000000E+00  0.00000000000E+00  0.99999998245E-14  0.12500000000E+03  0.12500000000E+03 0.  0.
        -13    1    3    3    0    0 -0.12542035521E+02 -0.12894873650E+02  0.27265567965E+02  0.32665008525E+02  0.10566000000E+00 0.  1.
         23    2    1    0    0    0 -0.18189323519E-01  0.13456523351E+02 -0.27312684204E+02  0.94552322421E+02  0.89515812040E+02 0.  0.
         13    1    3    3    0    0  0.12523846197E+02  0.26351397000E+02 -0.54578252169E+02  0.61887313896E+02  0.10566000000E+00 0. -1.
         22    1    1    0    0    0  0.18189323519E-01 -0.13456523351E+02  0.27312684204E+02  0.30447677579E+02  0.00000000000E+00 0. -1.
</event>
<event>
 5    1  0.1691066E-003  0.9118800E+02  0.7818608E-02  0.1130116E+00
         25   -1    0    0    0    0  0.00000000000E+00  0.00000000000E+00  0.99999998245E-14  0.12500000000E+03  0.12500000000E+03 0.  0.
        -13    1    3    3    0    0 -0.45273661238E+01 -0.27196713948E+01  0.36056826535E+02  0.36441728284E+02  0.10566000000E+00 0.  1.
         23    2    1    0    0    0  0.20902684051E+02 -0.15933592154E+02 -0.14813938501E+02  0.94829578502E+02  0.89902139159E+02 0.  0.
         13    1    3    3    0    0  0.25430050175E+02 -0.13213920759E+02 -0.50870765036E+02  0.58387850218E+02  0.10566000000E+00 0. -1.
         22    1    1    0    0    0 -0.20902684051E+02  0.15933592154E+02  0.14813938501E+02  0.30170421498E+02  0.00000000000E+00 0. -1.
</event>
<event>
 5    1  0.1691066E-003  0.9118800E+02  0.7818608E-02  0.1130116E+00
         25   -1    0    0    0    0  0.00000000000E+00  0.00000000000E+00  0.99999998245E-14  0.12500000000E+03  0.12500000000E+03 0.  0.
        -13    1    3    3    0    0 -0.18913930050E+02  0.40322744237E+02 -0.63237953863E+01  0.44985130931E+02  0.10566000000E+00 0.  1.
         23    2    1    0    0    0 -0.26171815825E+02 -0.10641068418E+02 -0.11228664116E+01  0.96725327417E+02  0.92500442455E+02 0.  0.
         13    1    3    3    0    0 -0.72578857755E+01 -0.50963812655E+02  0.52009289747E+01  0.51740196487E+02  0.10566000000E+00 0. -1.
         22    1    1    0    0    0  0.26171815825E+02  0.10641068418E+02  0.11228664116E+01  0.28274672583E+02  0.00000000000E+00 0.  1.
</event>
<event>
 5    1  0.1691066E-003  0.9118800E+02  0.7818608E-02  0.1130116E+00
         25   -1    0    0    0    0  0.00000000000E+00  0.00000000000E+00  0.99999998245E-14  0.12500000000E+03  0.12500000000E+03 0.  0.
        -13    1    3    3    0    0 -0.34930696016E+01 -0.30722293713E+02  0.18535216615E+02  0.36050329891E+02  0.10566000000E+00 0.  1.
         23    2    1    0    0    0 -0.19334044674E+02  0.16775788826E+02 -0.14059957589E+02  0.95795295215E+02  0.91234992211E+02 0.  0.
         13    1    3    3    0    0 -0.15840975072E+02  0.47498082540E+02 -0.32595174203E+02  0.59744965324E+02  0.10566000000E+00 0. -1.
         22    1    1    0    0    0  0.19334044674E+02 -0.16775788826E+02  0.14059957589E+02  0.29204704785E+02  0.00000000000E+00 0. -1.
</event>
<event>
 5    1  0.1691066E-003  0.9118800E+02  0.7818608E-02  0.1130116E+00
         25   -1    0    0    0    0  0.00000000000E+00  0.00000000000E+00  0.99999998245E-14  0.12500000000E+03  0.12500000000E+03 0.  0.
        -13    1    3    3    0    0 -0.46858261099E+02  0.14484229691E+02  0.23003071461E+02  0.54172336147E+02  0.10566000000E+00 0.  1.
         23    2    1    0    0    0 -0.16924781206E+02  0.23927472696E+02 -0.37992030603E+01  0.95446554982E+02  0.90755929534E+02 0.  0.
         13    1    3    3    0    0  0.29933479893E+02  0.94432430057E+01 -0.26802274521E+02  0.41274218836E+02  0.10566000000E+00 0. -1.
         22    1    1    0    0    0  0.16924781206E+02 -0.23927472696E+02  0.37992030603E+01  0.29553445018E+02  0.00000000000E+00 0.  1.
</event>
<event>
 5    1  0.1691066E-003  0.9118800E+02  0.7818608E-02  0.1130116E+00
         25   -1    0    0    0    0  0.00000000000E+00  0.00000000000E+00  0.99999998245E-14  0.12500000000E+03  0.12500000000E+03 0.  0.
        -13    1    3    3    0    0 -0.15167676455E+01  0.17470597092E+02  0.27202481305E+02  0.32365235980E+02  0.10566000000E+00 0.  1.
         23    2    1    0    0    0  0.59794640418E+01 -0.17306603446E+02 -0.24061131587E+02  0.94764084828E+02  0.89811030542E+02 0.  0.
         13    1    3    3    0    0  0.74962316872E+01 -0.34777200538E+02 -0.51263612892E+02  0.62398848848E+02  0.10566000000E+00 0. -1.
         22    1    1    0    0    0 -0.59794640418E+01  0.17306603446E+02  0.24061131587E+02  0.30235915172E+02  0.00000000000E+00 0. -1.
</event>
<event>
 5    1  0.1691066E-003  0.9118800E+02  0.7818608E-02  0.1130116E+00
         25   -1    0    0    0    0  0.00000000000E+00  0.00000000000E+00  0.99999998245E-14  0.12500000000E+03  0.12500000000E+03 0.  0.
        -13    1    3    3    0    0 -0.20812342073E+02 -0.31182246166E+02  0.44726630264E+01  0.37755819910E+02  0.10566000000E+00 0.  1.
         23    2    1    0    0    0 -0.14894782776E+02  0.12222109211E+02 -0.27096285369E+02  0.91751794209E+02  0.85515779551E+02 0.  0.
         13    1    3    3    0    0  0.59175592967E+01  0.43404355377E+02 -0.31568948395E+02  0.53995974299E+02  0.10566000000E+00 0. -1.
         22    1    1    0    0    0  0.14894782776E+02 -0.12222109211E+02  0.27096285369E+02  0.33248205791E+02  0.00000000000E+00 0. -1.
</event>
<event>
 5    1  0.1691066E-003  0.9118800E+02  0.7818608E-02  0.1130116E+00
         25   -1    0    0    0    0  0.00000000000E+00  0.00000000000E+00  0.99999998245E-14  0.12500000000E+03  0.12500000000E+03 0.  0.
        -13    1    3    3    0    0 -0.73813095115E+01  0.19224991917E+02  0.39505721032E+02  0.44551062868E+02  0.10566000000E+00 0. -1.
         23    2    1    0    0    0  0.27481501113E+02 -0.45862822901E+01  0.15893318451E+02  0.92924082865E+02  0.87212503211E+02 0.  0.
         13    1    3    3    0    0  0.34862810624E+02 -0.23811274207E+02 -0.23612402581E+02  0.48373019998E+02  0.10566000000E+00 0.  1.
         22    1    1    0    0    0 -0.27481501113E+02  0.45862822901E+01 -0.15893318451E+02  0.32075917135E+02  0.00000000000E+00 0. -1.
</event>
<event>
 4    1  0.1691066E-003  0.9118800E+02  0.7818608E-02  0.1130116E+00
         25   -1    0    0    0    0  0.00000000000E+00  0.00000000000E+00  0.99999998245E-14  0.12500000000E+03  0.12500000000E+03 0.  0.
        -13    1    1    0    0    0  0.41383283545E+02 -0.34842887392E+02  0.18312367543E+02  0.57113544172E+02  0.10566000000E+00 0.  1.
         13    1    1    0    0    0 -0.12297656488E+02  0.41830557749E+01  0.10529421068E+02  0.16721548456E+02  0.10566000000E+00 0. -1.
         22    1    1    0    0    0 -0.29085627058E+02  0.30659831617E+02 -0.28841788610E+02  0.51164907372E+02  0.00000000000E+00 0.  1.
</event>
<event>
 5    1  0.1691066E-003  0.9118800E+02  0.7818608E-02  0.1130116E+00
         25   -1    0    0    0    0  0.00000000000E+00  0.00000000000E+00  0.99999998245E-14  0.12500000000E+03  0.12500000000E+03 0.  0.
        -13    1    3    3    0    0 -0.15699316395E+02 -0.27942365180E+02  0.37102656541E+02  0.49029201437E+02  0.10566000000E+00 0. -1.
         23    2    1    0    0    0  0.17294682323E+02 -0.22066248537E+02  0.30643226651E+01  0.96796889630E+02  0.92597097187E+02 0.  0.
         13    1    3    3    0    0  0.32993998719E+02  0.58761166431E+01 -0.34038333876E+02  0.47767688193E+02  0.10566000000E+00 0.  1.
         22    1    1    0    0    0 -0.17294682323E+02  0.22066248537E+02 -0.30643226651E+01  0.28203110370E+02  0.00000000000E+00 0.  1.
</event>
<event>
 5    1  0.1691066E-003  0.9118800E+02  0.7818608E-02  0.1130116E+00
         25   -1    0    0    0    0  0.00000000000E+00  0.00000000000E+00  0.99999998245E-14  0.12500000000E+03  0.12500000000E+03 0.  0.
        -13    1    3    3    0    0  0.15766371877E+02  0.16517206458E+02  0.53967715906E+02  0.58599676753E+02  0.10566000000E+00 0. -1.
         23    2    1    0    0    0 -0.44682414762E+01  0.17822099847E+02  0.24270218069E+02  0.94559305035E+02  0.89525562041E+02 0.  0.
         13    1    3    3    0    0 -0.20234613353E+02  0.13048933891E+01 -0.29697497838E+02  0.35959628282E+02  0.10566000000E+00 0.  1.
         22    1    1    0    0    0  0.44682414762E+01 -0.17822099847E+02 -0.24270218069E+02  0.30440694965E+02  0.00000000000E+00 0. -1.
</event>
<event>
 5    1  0.1691066E-003  0.9118800E+02  0.7818608E-02  0.1130116E+00
         25   -1    0    0    0    0  0.00000000000E+00  0.00000000000E+00  0.99999998245E-14  0.12500000000E+03  0.12500000000E+03 0.  0.
        -13    1    3    3    0    0 -0.44996420869E+02 -0.24787477692E+02 -0.23321463237E+01  0.51425159327E+02  0.10566000000E+00 0. -1.
         23    2    1    0    0    0 -0.11057960235E+02 -0.74151437586E+01 -0.25638318768E+02  0.96110793870E+02  0.91666234065E+02 0.  0.
         13    1    3    3    0    0  0.33938460633E+02  0.17372333934E+02 -0.23306172445E+02  0.44685634543E+02  0.10566000000E+00 0.  1.
         22    1    1    0    0    0  0.11057960235E+02  0.74151437586E+01  0.25638318768E+02  0.28889206130E+02  0.00000000000E+00 0. -1.
</event>
<event>
 5    1  0.1691066E-003  0.9118800E+02  0.7818608E-02  0.1130116E+00
         25   -1    0    0    0    0  0.00000000000E+00  0.00000000000E+00  0.99999998245E-14  0.12500000000E+03  0.12500000000E+03 0.  0.
        -13    1    3    3    0    0 -0.14808136965E+02  0.28811949710E+02  0.91090119218E+01  0.33651071731E+02  0.10566000000E+00 0. -1.
         23    2    1    0    0    0  0.21666575412E+02  0.37966994171E+02 -0.15528919952E+02  0.78609478432E+02  0.63461560082E+02 0.  0.
         13    1    3    3    0    0  0.36474712377E+02  0.91550444610E+01 -0.24637931874E+02  0.44958406701E+02  0.10566000000E+00 0.  1.
         22    1    1    0    0    0 -0.21666575412E+02 -0.37966994171E+02  0.15528919952E+02  0.46390521568E+02  0.00000000000E+00 0.  1.
</event>
<event>
 5    1  0.1691066E-003  0.9118800E+02  0.7818608E-02  0.1130116E+00
         25   -1    0    0    0    0  0.00000000000E+00  0.00000000000E+00  0.99999998245E-14  0.12500000000E+03  0.12500000000E+03 0.  0.
        -13    1    3    3    0    0 -0.20764171682E+02  0.49714840190E+02 -0.25889234901E+02  0.59774407639E+02  0.10566000000E+00 0.  1.
         23    2    1    0    0    0  0.25399905976E+01  0.25022599985E+02 -0.16201020459E+02  0.95082528079E+02  0.90253155179E+02 0.  0.
         13    1    3    3    0    0  0.23304162280E+02 -0.24692240205E+02  0.96882144423E+01  0.35308120440E+02  0.10566000000E+00 0. -1.
         22    1    1    0    0    0 -0.25399905976E+01 -0.25022599985E+02  0.16201020459E+02  0.29917471921E+02  0.00000000000E+00 0.  1.
</event>
<event>
 5    1  0.1691066E-003  0.9118800E+02  0.7818608E-02  0.1130116E+00
         25   -1    0    0    0    0  0.00000000000E+00  0.00000000000E+00  0.99999998245E-14  0.12500000000E+03  0.12500000000E+03 0.  0.
        -13    1    3    3    0    0 -0.41613490163E+02 -0.29551550593E+02 -0.21178132799E+02  0.55258494179E+02  0.10566000000E+00 0.  1.
         23    2    1    0    0    0 -0.10671323722E+02 -0.30050893396E+02  0.60866709798E+00  0.93104799429E+02  0.87471137280E+02 0.  0.
         13    1    3    3    0    0  0.30942166440E+02 -0.49934280230E+00  0.21786799897E+02  0.37846305250E+02  0.10566000000E+00 0. -1.
         22    1    1    0    0    0  0.10671323722E+02  0.30050893396E+02 -0.60866709798E+00  0.31895200571E+02  0.00000000000E+00 0.  1.
</event>
<event>
 5    1  0.1691066E-003  0.9118800E+02  0.7818608E-02  0.1130116E+00
         25   -1    0    0    0    0  0.00000000000E+00  0.00000000000E+00  0.99999998245E-14  0.12500000000E+03  0.12500000000E+03 0.  0.
        -13    1    3    3    0    0  0.35744276661E+02  0.34422135266E+02 -0.78689291155E+01  0.50244083431E+02  0.10566000000E+00 0.  1.
         23    2    1    0    0    0  0.26041848287E+02 -0.84491858331E+01  0.71652240370E+01  0.96699698960E+02  0.92465803084E+02 0.  0.
         13    1    3    3    0    0 -0.97024283742E+01 -0.42871321100E+02  0.15034153152E+02  0.46455615529E+02  0.10566000000E+00 0. -1.
         22    1    1    0    0    0 -0.26041848287E+02  0.84491858331E+01 -0.71652240370E+01  0.28300301040E+02  0.00000000000E+00 0.  1.
</event>
<event>
 5    1  0.1691066E-003  0.9118800E+02  0.7818608E-02  0.1130116E+00
         25   -1    0    0    0    0  0.00000000000E+00  0.00000000000E+00  0.99999998245E-14  0.12500000000E+03  0.12500000000E+03 0.  0.
        -13    1    3    3    0    0  0.10085474568E+02 -0.66190359277E+01  0.28975816976E+02  0.31386901206E+02  0.10566000000E+00 0.  1.
         23    2    1    0    0    0 -0.19079415148E+02 -0.10385852830E+02 -0.24402223209E+02  0.92329546699E+02  0.86356161764E+02 0.  0.
         13    1    3    3    0    0 -0.29164889716E+02 -0.37668169025E+01 -0.53378040184E+02  0.60942645493E+02  0.10566000000E+00 0. -1.
         22    1    1    0    0    0  0.19079415148E+02  0.10385852830E+02  0.24402223209E+02  0.32670453301E+02  0.00000000000E+00 0. -1.
</event>
<event>
 5    1  0.1691066E-003  0.9118800E+02  0.7818608E-02  0.1130116E+00
         25   -1    0    0    0    0  0.00000000000E+00  0.00000000000E+00  0.99999998245E-14  0.12500000000E+03  0.12500000000E+03 0.  0.
        -13    1    3    3    0    0  0.97874858906E+01  0.25457439213E+02 -0.22189897294E+02  0.35160756495E+02  0.10566000000E+00 0.  1.
         23    2    1    0    0    0  0.15952320821E+01 -0.19176246348E+02  0.20088077993E+02  0.97182666072E+02  0.93116413795E+02 0.  0.
         13    1    3    3    0    0 -0.81922538084E+01 -0.44633685561E+02  0.42277975287E+02  0.62021909577E+02  0.10566000000E+00 0. -1.
         22    1    1    0    0    0 -0.15952320821E+01  0.19176246348E+02 -0.20088077993E+02  0.27817333928E+02  0.00000000000E+00 0. -1.
</event>
<event>
 5    1  0.1691066E-003  0.9118800E+02  0.7818608E-02  0.1130116E+00
         25   -1    0    0    0    0  0.00000000000E+00  0.00000000000E+00  0.99999998245E-14  0.12500000000E+03  0.12500000000E+03 0.  0.
        -13    1    3    3    0    0 -0.17139277486E+02 -0.36438529109E+02 -0.14501341878E+02  0.42799781737E+02  0.10566000000E+00 0. -1.
         23    2    1    0    0    0 -0.71515132049E+01 -0.62245938169E+01  0.27739004145E+02  0.95685463328E+02  0.91084388520E+02 0.  0.
         13    1    3    3    0    0  0.99877642815E+01  0.30213935292E+02  0.42240346023E+02  0.52885681592E+02  0.10566000000E+00 0.  1.
         22    1    1    0    0    0  0.71515132049E+01  0.62245938169E+01 -0.27739004145E+02  0.29314536672E+02  0.00000000000E+00 0.  1.
</event>
<event>
 5    1  0.1691066E-003  0.9118800E+02  0.7818608E-02  0.1130116E+00
         25   -1    0    0    0    0  0.00000000000E+00  0.00000000000E+00  0.99999998245E-14  0.12500000000E+03  0.12500000000E+03 0.  0.
        -13    1    3    3    0    0  0.17079009279E+02 -0.49099164470E+02  0.16019474496E+02  0.54397198795E+02  0.10566000000E+00 0. -1.
         23    2    1    0    0    0  0.25798079860E+02 -0.89671804463E+01  0.10051995557E+02  0.95896840991E+02  0.91374012979E+02 0.  0.
         13    1    3    3    0    0  0.87190705806E+01  0.40131984024E+02 -0.59674789396E+01  0.41499642196E+02  0.10566000000E+00 0.  1.
         22    1    1    0    0    0 -0.25798079860E+02  0.89671804463E+01 -0.10051995557E+02  0.29103159009E+02  0.00000000000E+00 0. -1.
</event>
<event>
 5    1  0.1691066E-003  0.9118800E+02  0.7818608E-02  0.1130116E+00
         25   -1    0    0    0    0  0.00000000000E+00  0.00000000000E+00  0.99999998245E-14  0.12500000000E+03  0.12500000000E+03 0.  0.
        -13    1    3    3    0    0  0.36417530170E+02 -0.13630158207E+01 -0.33834193605E+02  0.49727840660E+02  0.10566000000E+00 0.  1.
         23    2    1    0    0    0  0.56778081034E+01 -0.26325161179E+02 -0.84050057926E+01  0.96788375830E+02  0.92585603403E+02 0.  0.
         13    1    3    3    0    0 -0.30739722067E+02 -0.24962145358E+02  0.25429187812E+02  0.47060535169E+02  0.10566000000E+00 0. -1.
         22    1    1    0    0    0 -0.56778081034E+01  0.26325161179E+02  0.84050057926E+01  0.28211624170E+02  0.00000000000E+00 0. -1.
</event>
<event>
 5    1  0.1691066E-003  0.9118800E+02  0.7818608E-02  0.1130116E+00
         25   -1    0    0    0    0  0.00000000000E+00  0.00000000000E+00  0.99999998245E-14  0.12500000000E+03  0.12500000000E+03 0.  0.
        -13    1    3    3    0    0 -0.23709626951E+02  0.16630760940E+02  0.36421868610E+02  0.46532701369E+02  0.10566000000E+00 0. -1.
         23    2    1    0    0    0 -0.23502465895E+02 -0.16160085550E+02 -0.12163200111E+01  0.96451905449E+02  0.92130214166E+02 0.  0.
         13    1    3    3    0    0  0.20716105603E+00 -0.32790846490E+02 -0.37638188621E+02  0.49919204080E+02  0.10566000000E+00 0.  1.
         22    1    1    0    0    0  0.23502465895E+02  0.16160085550E+02  0.12163200111E+01  0.28548094551E+02  0.00000000000E+00 0.  1.
</event>
<event>
 5    1  0.1691066E-003  0.9118800E+02  0.7818608E-02  0.1130116E+00
         25   -1    0    0    0    0  0.00000000000E+00  0.00000000000E+00  0.99999998245E-14  0.12500000000E+03  0.12500000000E+03 0.  0.
        -13    1    3    3    0    0 -0.12152293963E+02  0.15496989553E+02 -0.31301274083E+02  0.36981290634E+02  0.10566000000E+00 0. -1.
         23    2    1    0    0    0  0.25552399330E+02 -0.10897810067E+02  0.64187951167E+01  0.96488803839E+02  0.92180263395E+02 0.  0.
         13    1    3    3    0    0  0.37704693293E+02 -0.26394799620E+02  0.37720069199E+02  0.59507513204E+02  0.10566000000E+00 0.  1.
         22    1    1    0    0    0 -0.25552399330E+02  0.10897810067E+02 -0.64187951167E+01  0.28511196161E+02  0.00000000000E+00 0.  1.
</event>
<event>
 5    1  0.1691066E-003  0.9118800E+02  0.7818608E-02  0.1130116E+00
         25   -1    0    0    0    0  0.00000000000E+00  0.00000000000E+00  0.99999998245E-14  0.12500000000E+03  0.12500000000E+03 0.  0.
        -13    1    3    3    0    0 -0.53618722504E+02 -0.12685232151E+02 -0.29426592813E+02  0.62464534308E+02  0.10566000000E+00 0.  1.
         23    2    1    0    0    0 -0.24891520912E+02 -0.73858516137E+01 -0.13518223756E+02  0.95727470371E+02  0.91142018810E+02 0.  0.
         13    1    3    3    0    0  0.28727201592E+02  0.52993805377E+01  0.15908369057E+02  0.33262936062E+02  0.10566000000E+00 0. -1.
         22    1    1    0    0    0  0.24891520912E+02  0.73858516137E+01  0.13518223756E+02  0.29272529629E+02  0.00000000000E+00 0.  1.
</event>
<event>
 5    1  0.1691066E-003  0.9118800E+02  0.7818608E-02  0.1130116E+00
         25   -1    0    0    0    0  0.00000000000E+00  0.00000000000E+00  0.99999998245E-14  0.12500000000E+03  0.12500000000E+03 0.  0.
        -13    1    3    3    0    0  0.43070758914E+02 -0.30281612538E+02  0.27500713751E+02  0.59400056836E+02  0.10566000000E+00 0. -1.
         23    2    1    0    0    0  0.22831361362E+02 -0.18053591087E+02 -0.29274627148E+00  0.95891772414E+02  0.91367078883E+02 0.  0.
         13    1    3    3    0    0 -0.20239397552E+02  0.12228021450E+02 -0.27793460022E+02  0.36491715579E+02  0.10566000000E+00 0.  1.
         22    1    1    0    0    0 -0.22831361362E+02  0.18053591087E+02  0.29274627148E+00  0.29108227586E+02  0.00000000000E+00 0. -1.
</event>
<event>
 5    1  0.1691066E-003  0.9118800E+02  0.7818608E-02  0.1130116E+00
         25   -1    0    0    0    0  0.00000000000E+00  0.00000000000E+00  0.99999998245E-14  0.12500000000E+03  0.12500000000E+03 0.  0.
        -13    1    3    3    0    0  0.36315502071E+00 -0.10147271799E+02  0.37076455802E+02  0.38441822868E+02  0.10566000000E+00 0. -1.
         23    2    1    0    0    0 -0.26150432173E+02  0.52223936961E+01 -0.11565567458E+02  0.95933165818E+02  0.91423691975E+02 0.  0.
         13    1    3    3    0    0 -0.26513587194E+02  0.15369665496E+02 -0.48642023259E+02  0.57491342950E+02  0.10566000000E+00 0.  1.
         22    1    1    0    0    0  0.26150432173E+02 -0.52223936961E+01  0.11565567458E+02  0.29066834182E+02  0.00000000000E+00 0.  1.
</event>
<event>
 5    1  0.1691066E-003  0.9118800E+02  0.7818608E-02  0.1130116E+00
         25   -1    0    0    0    0  0.00000000000E+00  0.00000000000E+00  0.99999998245E-14  0.12500000000E+03  0.12500000000E+03 0.  0.
        -13    1    3    3    0    0 -0.31210957485E+00  0.11129866431E+02  0.33642976085E+02  0.35437724857E+02  0.10566000000E+00 0. -1.
         23    2    1    0    0    0  0.27810205758E+02 -0.67005916461E+01 -0.13671419496E+02  0.93294902874E+02  0.87742382681E+02 0.  0.
         13    1    3    3    0    0  0.28122315333E+02 -0.17830458077E+02 -0.47314395580E+02  0.57857178017E+02  0.10566000000E+00 0.  1.
         22    1    1    0    0    0 -0.27810205758E+02  0.67005916461E+01  0.13671419496E+02  0.31705097126E+02  0.00000000000E+00 0.  1.
</event>
<event>
 5    1  0.1691066E-003  0.9118800E+02  0.7818608E-02  0.1130116E+00
         25   -1    0    0    0    0  0.00000000000E+00  0.00000000000E+00  0.99999998245E-14  0.12500000000E+03  0.12500000000E+03 0.  0.
        -13    1    3    3    0    0 -0.39232715586E+02 -0.55013467531E+01  0.10175190157E+00  0.39616818472E+02  0.10566000000E+00 0.  1.
         23    2    1    0    0    0  0.12509829500E+02 -0.23876833810E+02 -0.11426525816E+02  0.95722627865E+02  0.91135377139E+02 0.  0.
         13    1    3    3    0    0  0.51742545086E+02 -0.18375487057E+02 -0.11528277717E+02  0.56105809393E+02  0.10566000000E+00 0. -1.
         22    1    1    0    0    0 -0.12509829500E+02  0.23876833810E+02  0.11426525816E+02  0.29277372135E+02  0.00000000000E+00 0.  1.
</event>
<event>
 5    1  0.1691066E-003  0.9118800E+02  0.7818608E-02  0.1130116E+00
         25   -1    0    0    0    0  0.00000000000E+00  0.00000000000E+00  0.99999998245E-14  0.12500000000E+03  0.12500000000E+03 0.  0.
        -13    1    3    3    0    0 -0.31385694459E+02 -0.36781473767E+01  0.30944744740E+02  0.44228712121E+02  0.10566000000E+00 0. -1.
         23    2    1    0    0    0 -0.29309784961E+02  0.12071078886E+02 -0.12835284686E+02  0.90801769448E+02  0.84115648734E+02 0.  0.
         13    1    3    3    0    0  0.20759094982E+01  0.15749226263E+02 -0.43780029426E+02  0.46573057327E+02  0.10566000000E+00 0.  1.
         22    1    1    0    0    0  0.29309784961E+02 -0.12071078886E+02  0.12835284686E+02  0.34198230552E+02  0.00000000000E+00 0. -1.
</event>
<event>
 5    1  0.1691066E-003  0.9118800E+02  0.7818608E-02  0.1130116E+00
         25   -1    0    0    0    0  0.00000000000E+00  0.00000000000E+00  0.99999998245E-14  0.12500000000E+03  0.12500000000E+03 0.  0.
        -13    1    3    3    0    0  0.44181981469E+02 -0.40083092054E+02  0.91684585097E+00  0.59661993978E+02  0.10566000000E+00 0.  1.
         23    2    1    0    0    0  0.10251501251E+02 -0.23785189366E+02  0.78481554285E+01  0.97936702811E+02  0.94123194287E+02 0.  0.
         13    1    3    3    0    0 -0.33930480217E+02  0.16297902687E+02  0.69313095775E+01  0.38274708833E+02  0.10566000000E+00 0. -1.
         22    1    1    0    0    0 -0.10251501251E+02  0.23785189366E+02 -0.78481554285E+01  0.27063297189E+02  0.00000000000E+00 0.  1.
</event>
<event>
 5    1  0.1691066E-003  0.9118800E+02  0.7818608E-02  0.1130116E+00
         25   -1    0    0    0    0  0.00000000000E+00  0.00000000000E+00  0.99999998245E-14  0.12500000000E+03  0.12500000000E+03 0.  0.
        -13    1    3    3    0    0 -0.65783204090E+01  0.51741338982E+02  0.30190141089E+02  0.60265215855E+02  0.10566000000E+00 0. -1.
         23    2    1    0    0    0  0.63162369932E+01  0.27345242502E+02  0.76082953416E+01  0.95921772832E+02  0.91408113469E+02 0.  0.
         13    1    3    3    0    0  0.12894557402E+02 -0.24396096480E+02 -0.22581845747E+02  0.35656556977E+02  0.10566000000E+00 0.  1.
         22    1    1    0    0    0 -0.63162369932E+01 -0.27345242502E+02 -0.76082953416E+01  0.29078227168E+02  0.00000000000E+00 0. -1.
</event>
<event>
 5    1  0.1691066E-003  0.9118800E+02  0.7818608E-02  0.1130116E+00
         25   -1    0    0    0    0  0.00000000000E+00  0.00000000000E+00  0.99999998245E-14  0.12500000000E+03  0.12500000000E+03 0.  0.
        -13    1    3    3    0    0 -0.15152002779E+02  0.35466300759E+02 -0.93004231028E+01  0.39673047673E+02  0.10566000000E+00 0.  1.
         23    2    1    0    0    0 -0.78696374502E+01 -0.19544429815E+02 -0.19729493242E+02  0.96135335893E+02  0.91699694511E+02 0.  0.
         13    1    3    3    0    0  0.72823653292E+01 -0.55010730574E+02 -0.10429070139E+02  0.56462288220E+02  0.10566000000E+00 0. -1.
         22    1    1    0    0    0  0.78696374502E+01  0.19544429815E+02  0.19729493242E+02  0.28864664107E+02  0.00000000000E+00 0.  1.
</event>
<event>
 5    1  0.1691066E-003  0.9118800E+02  0.7818608E-02  0.1130116E+00
         25   -1    0    0    0    0  0.00000000000E+00  0.00000000000E+00  0.99999998245E-14  0.12500000000E+03  0.12500000000E+03 0.  0.
        -13    1    3    3    0    0  0.27997458311E+01 -0.58759933955E+02  0.74937386747E+01  0.59302071621E+02  0.10566000000E+00 0. -1.
         23    2    1    0    0    0  0.71601855259E+01 -0.28438438544E+02  0.16652929550E+02  0.91275630381E+02  0.84816906306E+02 0.  0.
         13    1    3    3    0    0  0.43604396947E+01  0.30321495411E+02  0.91591908752E+01  0.31973558761E+02  0.10566000000E+00 0.  1.
         22    1    1    0    0    0 -0.71601855259E+01  0.28438438544E+02 -0.16652929550E+02  0.33724369619E+02  0.00000000000E+00 0. -1.
</event>
<event>
 5    1  0.1691066E-003  0.9118800E+02  0.7818608E-02  0.1130116E+00
         25   -1    0    0    0    0  0.00000000000E+00  0.00000000000E+00  0.99999998245E-14  0.12500000000E+03  0.12500000000E+03 0.  0.
        -13    1    3    3    0    0  0.25856214079E+02  0.23548211049E+02 -0.38906789591E+01  0.35188216734E+02  0.10566000000E+00 0.  1.
         23    2    1    0    0    0 -0.10127869695E+02 -0.25514088702E+02 -0.86519555036E+01  0.96218082049E+02  0.91812420251E+02 0.  0.
         13    1    3    3    0    0 -0.35984083775E+02 -0.49062299752E+02 -0.47612765445E+01  0.61029865315E+02  0.10566000000E+00 0. -1.
         22    1    1    0    0    0  0.10127869695E+02  0.25514088702E+02  0.86519555036E+01  0.28781917951E+02  0.00000000000E+00 0. -1.
</event>
<event>
 5    1  0.1691066E-003  0.9118800E+02  0.7818608E-02  0.1130116E+00
         25   -1    0    0    0    0  0.00000000000E+00  0.00000000000E+00  0.99999998245E-14  0.12500000000E+03  0.12500000000E+03 0.  0.
        -13    1    3    3    0    0  0.36726994581E+02 -0.13627956729E+02 -0.29744073330E+02  0.49186526589E+02  0.10566000000E+00 0.  1.
         23    2    1    0    0    0  0.19696277956E+02  0.20518185533E+02 -0.17640966633E+01  0.96503485477E+02  0.92200170116E+02 0.  0.
         13    1    3    3    0    0 -0.17030716625E+02  0.34146142262E+02  0.27979976667E+02  0.47316958889E+02  0.10566000000E+00 0. -1.
         22    1    1    0    0    0 -0.19696277956E+02 -0.20518185533E+02  0.17640966633E+01  0.28496514523E+02  0.00000000000E+00 0.  1.
</event>
<event>
 5    1  0.1691066E-003  0.9118800E+02  0.7818608E-02  0.1130116E+00
         25   -1    0    0    0    0  0.00000000000E+00  0.00000000000E+00  0.99999998245E-14  0.12500000000E+03  0.12500000000E+03 0.  0.
        -13    1    3    3    0    0  0.38805016124E+02  0.11850575801E+02 -0.94124658113E+01  0.41651783874E+02  0.10566000000E+00 0.  1.
         23    2    1    0    0    0 -0.11472193679E+02  0.11973737141E+02 -0.25624068700E+02  0.94478294516E+02  0.89412379618E+02 0.  0.
         13    1    3    3    0    0 -0.50277209803E+02  0.12316133974E+00 -0.16211602888E+02  0.52826510642E+02  0.10566000000E+00 0. -1.
         22    1    1    0    0    0  0.11472193679E+02 -0.11973737141E+02  0.25624068700E+02  0.30521705484E+02  0.00000000000E+00 0.  1.
</event>
<event>
 5    1  0.1691066E-003  0.9118800E+02  0.7818608E-02  0.1130116E+00
         25   -1    0    0    0    0  0.00000000000E+00  0.00000000000E+00  0.99999998245E-14  0.12500000000E+03  0.12500000000E+03 0.  0.
        -13    1    3    3    0    0  0.51836180108E+02 -0.26248715596E+01  0.71416677545E+01  0.52391736956E+02  0.10566000000E+00 0. -1.
         23    2    1    0    0    0  0.19998653506E+02 -0.25264351350E+02 -0.26592545129E+01  0.92668819604E+02  0.86845868647E+02 0.  0.
         13    1    3    3    0    0 -0.31837526602E+02 -0.22639479791E+02 -0.98009222675E+01  0.40277082648E+02  0.10566000000E+00 0.  1.
         22    1    1    0    0    0 -0.19998653506E+02  0.25264351350E+02  0.26592545129E+01  0.32331180396E+02  0.00000000000E+00 0. -1.
</event>
<event>
 5    1  0.1691066E-003  0.9118800E+02  0.7818608E-02  0.1130116E+00
         25   -1    0    0    0    0  0.00000000000E+00  0.00000000000E+00  0.99999998245E-14  0.12500000000E+03  0.12500000000E+03 0.  0.
        -13    1    3    3    0    0  0.26088882338E+02  0.31792963278E+02 -0.23729588017E+02  0.47481857663E+02  0.10566000000E+00 0.  1.
         23    2    1    0    0    0  0.13508246465E+01 -0.96771421993E+01 -0.27400553534E+02  0.95909414885E+02  0.91391212495E+02 0.  0.
         13    1    3    3    0    0 -0.24738057692E+02 -0.41470105477E+02 -0.36709655168E+01  0.48427557222E+02  0.10566000000E+00 0. -1.
         22    1    1    0    0    0 -0.13508246465E+01  0.96771421993E+01  0.27400553534E+02  0.29090585115E+02  0.00000000000E+00 0.  1.
</event>
<event>
 5    1  0.1691066E-003  0.9118800E+02  0.7818608E-02  0.1130116E+00
         25   -1    0    0    0    0  0.00000000000E+00  0.00000000000E+00  0.99999998245E-14  0.12500000000E+03  0.12500000000E+03 0.  0.
        -13    1    3    3    0    0 -0.25844793137E+02  0.27534262252E+02  0.11686520198E+02  0.39530682368E+02  0.10566000000E+00 0.  1.
         23    2    1    0    0    0  0.27010215021E+02  0.11361647714E+02  0.59279627473E+01  0.95103854820E+02  0.90282687737E+02 0.  0.
         13    1    3    3    0    0  0.52855008159E+02 -0.16172614539E+02 -0.57585574509E+01  0.55573172452E+02  0.10566000000E+00 0. -1.
         22    1    1    0    0    0 -0.27010215021E+02 -0.11361647714E+02 -0.59279627473E+01  0.29896145180E+02  0.00000000000E+00 0. -1.
</event>
<event>
 5    1  0.1691066E-003  0.9118800E+02  0.7818608E-02  0.1130116E+00
         25   -1    0    0    0    0  0.00000000000E+00  0.00000000000E+00  0.99999998245E-14  0.12500000000E+03  0.12500000000E+03 0.  0.
        -13    1    3    3    0    0  0.17333597055E+02 -0.23160514335E+02 -0.16020901405E+02  0.33068768604E+02  0.10566000000E+00 0.  1.
         23    2    1    0    0    0 -0.14412094145E+02  0.23495375509E+02  0.10605095592E+02  0.95466812220E+02  0.90783825954E+02 0.  0.
         13    1    3    3    0    0 -0.31745691200E+02  0.46655889844E+02  0.26625996997E+02  0.62398043615E+02  0.10566000000E+00 0. -1.
         22    1    1    0    0    0  0.14412094145E+02 -0.23495375509E+02 -0.10605095592E+02  0.29533187780E+02  0.00000000000E+00 0. -1.
</event>
<event>
 5    1  0.1691066E-003  0.9118800E+02  0.7818608E-02  0.1130116E+00
         25   -1    0    0    0    0  0.00000000000E+00  0.00000000000E+00  0.99999998245E-14  0.12500000000E+03  0.12500000000E+03 0.  0.
        -13    1    3    3    0    0  0.91907409698E+00 -0.13195332186E+02  0.35261389910E+02  0.37660832056E+02  0.10566000000E+00 0.  1.
         23    2    1    0    0    0 -0.29782194767E+02 -0.31777397457E+02  0.23998426359E+02  0.75273683205E+02  0.56510360124E+02 0.  0.
         13    1    3    3    0    0 -0.30701268864E+02 -0.18582065271E+02 -0.11262963552E+02  0.37612851150E+02  0.10566000000E+00 0. -1.
         22    1    1    0    0    0  0.29782194767E+02  0.31777397457E+02 -0.23998426359E+02  0.49726316795E+02  0.00000000000E+00 0. -1.
</event>
<event>
 5    1  0.1691066E-003  0.9118800E+02  0.7818608E-02  0.1130116E+00
         25   -1    0    0    0    0  0.00000000000E+00  0.00000000000E+00  0.99999998245E-14  0.12500000000E+03  0.12500000000E+03 0.  0.
        -13    1    3    3    0    0  0.80909351425E+01  0.20850548995E+02  0.49307356477E+02  0.54142729814E+02  0.10566000000E+00 0. -1.
         23    2    1    0    0    0  0.10514063551E+02  0.25743353563E+02  0.76462118168E+01  0.96160264562E+02  0.91733669612E+02 0.  0.
         13    1    3    3    0    0  0.24231284081E+01  0.48928045676E+01 -0.41661144661E+02  0.42017534748E+02  0.10566000000E+00 0.  1.
         22    1    1    0    0    0 -0.10514063551E+02 -0.25743353563E+02 -0.76462118168E+01  0.28839735438E+02  0.00000000000E+00 0.  1.
</event>
<event>
 5    1  0.1691066E-003  0.9118800E+02  0.7818608E-02  0.1130116E+00
         25   -1    0    0    0    0  0.00000000000E+00  0.00000000000E+00  0.99999998245E-14  0.12500000000E+03  0.12500000000E+03 0.  0.
        -13    1    3    3    0    0  0.21356764348E+02  0.19656921549E+02  0.19586015413E+02  0.35016126456E+02  0.10566000000E+00 0. -1.
         23    2    1    0    0    0  0.61062057812E+01 -0.14204466016E+02 -0.26570717981E+02  0.94258242440E+02  0.89104212077E+02 0.  0.
         13    1    3    3    0    0 -0.15250558567E+02 -0.33861387565E+02 -0.46156733395E+02  0.59242115983E+02  0.10566000000E+00 0.  1.
         22    1    1    0    0    0 -0.61062057812E+01  0.14204466016E+02  0.26570717981E+02  0.30741757560E+02  0.00000000000E+00 0.  1.
</event>
<event>
 5    1  0.1691066E-003  0.9118800E+02  0.7818608E-02  0.1130116E+00
         25   -1    0    0    0    0  0.00000000000E+00  0.00000000000E+00  0.99999998245E-14  0.12500000000E+03  0.12500000000E+03 0.  0.
        -13    1    3    3    0    0  0.50042680838E+02  0.18398349075E+02  0.75016483410E+00  0.53323006905E+02  0.10566000000E+00 0.  1.
         23    2    1    0    0    0  0.21790084667E+02 -0.58022314531E+01 -0.19064404648E+02  0.95471620359E+02  0.90790446027E+02 0.  0.
         13    1    3    3    0    0 -0.28252596171E+02 -0.24200580528E+02 -0.19814569482E+02  0.42148613454E+02  0.10566000000E+00 0. -1.
         22    1    1    0    0    0 -0.21790084667E+02  0.58022314531E+01  0.19064404648E+02  0.29528379641E+02  0.00000000000E+00 0.  1.
</event>
<event>
 5    1  0.1691066E-003  0.9118800E+02  0.7818608E-02  0.1130116E+00
         25   -1    0    0    0    0  0.00000000000E+00  0.00000000000E+00  0.99999998245E-14  0.12500000000E+03  0.12500000000E+03 0.  0.
        -13    1    3    3    0    0 -0.22666211533E+02  0.13731818718E+02 -0.30856788894E+02  0.40675208364E+02  0.10566000000E+00 0. -1.
         23    2    1    0    0    0  0.70918743563E+01  0.25179759976E+02  0.13704151502E+02  0.95468343042E+02  0.90785933714E+02 0.  0.
         13    1    3    3    0    0  0.29758085889E+02  0.11447941258E+02  0.44560940396E+02  0.54793134678E+02  0.10566000000E+00 0.  1.
         22    1    1    0    0    0 -0.70918743563E+01 -0.25179759976E+02 -0.13704151502E+02  0.29531656958E+02  0.00000000000E+00 0.  1.
</event>
<event>
 5    1  0.1691066E-003  0.9118800E+02  0.7818608E-02  0.1130116E+00
         25   -1    0    0    0    0  0.00000000000E+00  0.00000000000E+00  0.99999998245E-14  0.12500000000E+03  0.12500000000E+03 0.  0.
        -13    1    3    3    0    0 -0.23707156984E+02 -0.27295646714E+02  0.14494645394E+02  0.38951091524E+02  0.10566000000E+00 0.  1.
         23    2    1    0    0    0  0.16561371565E+02  0.73242633205E+01  0.26026582295E+02  0.93293425804E+02  0.87740278385E+02 0.  0.
         13    1    3    3    0    0  0.40268528549E+02  0.34619910034E+02  0.11531936901E+02  0.54342334280E+02  0.10566000000E+00 0. -1.
         22    1    1    0    0    0 -0.16561371565E+02 -0.73242633205E+01 -0.26026582295E+02  0.31706574196E+02  0.00000000000E+00 0. -1.
</event>
<event>
 5    1  0.1691066E-003  0.9118800E+02  0.7818608E-02  0.1130116E+00
         25   -1    0    0    0    0  0.00000000000E+00  0.00000000000E+00  0.99999998245E-14  0.12500000000E+03  0.12500000000E+03 0.  0.
        -13    1    3    3    0    0  0.42814568086E+02  0.70739189333E+01  0.33985160488E+02  0.55119233185E+02  0.10566000000E+00 0. -1.
         23    2    1    0    0    0  0.25116467637E+02 -0.13993409279E+02  0.37418297016E+01  0.96005970626E+02  0.91523180979E+02 0.  0.
         13    1    3    3    0    0 -0.17698100449E+02 -0.21067328212E+02 -0.30243330787E+02  0.40886737442E+02  0.10566000000E+00 0.  1.
         22    1    1    0    0    0 -0.25116467637E+02  0.13993409279E+02 -0.37418297016E+01  0.28994029374E+02  0.00000000000E+00 0. -1.
</event>
<event>
 5    1  0.1691066E-003  0.9118800E+02  0.7818608E-02  0.1130116E+00
         25   -1    0    0    0    0  0.00000000000E+00  0.00000000000E+00  0.99999998245E-14  0.12500000000E+03  0.12500000000E+03 0.  0.
        -13    1    3    3    0    0  0.21878566259E+02  0.26145303263E+02 -0.14091021110E+02  0.36889247542E+02  0.10566000000E+00 0. -1.
         23    2    1    0    0    0 -0.29657101045E+02  0.18259828590E+02 -0.48830744046E+01  0.89831698958E+02  0.82661507000E+02 0.  0.
         13    1    3    3    0    0 -0.51535667304E+02 -0.78854746729E+01  0.92079467052E+01  0.52942451416E+02  0.10566000000E+00 0.  1.
         22    1    1    0    0    0  0.29657101045E+02 -0.18259828590E+02  0.48830744046E+01  0.35168301042E+02  0.00000000000E+00 0.  1.
</event>
<event>
 5    1  0.1691066E-003  0.9118800E+02  0.7818608E-02  0.1130116E+00
         25   -1    0    0    0    0  0.00000000000E+00  0.00000000000E+00  0.99999998245E-14  0.12500000000E+03  0.12500000000E+03 0.  0.
        -13    1    3    3    0    0 -0.10002733254E+02 -0.34575263218E+02 -0.16509065579E+02  0.39598786717E+02  0.10566000000E+00 0.  1.
         23    2    1    0    0    0  0.22812936095E+02  0.12610492002E+02 -0.21200139686E+01  0.98847580972E+02  0.95325207805E+02 0.  0.
         13    1    3    3    0    0  0.32815669349E+02  0.47185755219E+02  0.14389051610E+02  0.59248794255E+02  0.10566000000E+00 0. -1.
         22    1    1    0    0    0 -0.22812936095E+02 -0.12610492002E+02  0.21200139686E+01  0.26152419028E+02  0.00000000000E+00 0. -1.
</event>
<event>
 5    1  0.1691066E-003  0.9118800E+02  0.7818608E-02  0.1130116E+00
         25   -1    0    0    0    0  0.00000000000E+00  0.00000000000E+00  0.99999998245E-14  0.12500000000E+03  0.12500000000E+03 0.  0.
        -13    1    3    3    0    0  0.19043584620E+02 -0.18355716284E+01  0.26852088376E+02  0.32970793933E+02  0.10566000000E+00 0. -1.
         23    2    1    0    0    0 -0.41103801913E+01  0.29900100027E+02 -0.15779589262E+02  0.90942597806E+02  0.84324666921E+02 0.  0.
         13    1    3    3    0    0 -0.23153964811E+02  0.31735671656E+02 -0.42631677638E+02  0.57971803872E+02  0.10566000000E+00 0.  1.
         22    1    1    0    0    0  0.41103801913E+01 -0.29900100027E+02  0.15779589262E+02  0.34057402194E+02  0.00000000000E+00 0.  1.
</event>
<event>
 5    1  0.1691066E-003  0.9118800E+02  0.7818608E-02  0.1130116E+00
         25   -1    0    0    0    0  0.00000000000E+00  0.00000000000E+00  0.99999998245E-14  0.12500000000E+03  0.12500000000E+03 0.  0.
        -13    1    3    3    0    0  0.14977555218E+02 -0.19925606995E+02  0.23805674039E+02  0.34468511063E+02  0.10566000000E+00 0.  1.
         23    2    1    0    0    0 -0.74334573807E+01  0.23800435170E+02 -0.13945161802E+02  0.96431056362E+02  0.92101922295E+02 0.  0.
         13    1    3    3    0    0 -0.22411012599E+02  0.43726042165E+02 -0.37750835841E+02  0.61962545299E+02  0.10566000000E+00 0. -1.
         22    1    1    0    0    0  0.74334573807E+01 -0.23800435170E+02  0.13945161802E+02  0.28568943638E+02  0.00000000000E+00 0. -1.
</event>
<event>
 5    1  0.1691066E-003  0.9118800E+02  0.7818608E-02  0.1130116E+00
         25   -1    0    0    0    0  0.00000000000E+00  0.00000000000E+00  0.99999998245E-14  0.12500000000E+03  0.12500000000E+03 0.  0.
        -13    1    3    3    0    0 -0.29558040921E+02  0.32859860541E+01  0.17576464572E+02  0.34545893509E+02  0.10566000000E+00 0. -1.
         23    2    1    0    0    0  0.25749422665E+02 -0.14384203279E+02  0.12937390310E+02  0.92792638426E+02  0.87023902500E+02 0.  0.
         13    1    3    3    0    0  0.55307463586E+02 -0.17670189333E+02 -0.46390742616E+01  0.58246744917E+02  0.10566000000E+00 0.  1.
         22    1    1    0    0    0 -0.25749422665E+02  0.14384203279E+02 -0.12937390310E+02  0.32207361574E+02  0.00000000000E+00 0.  1.
</event>
<event>
 5    1  0.1691066E-003  0.9118800E+02  0.7818608E-02  0.1130116E+00
         25   -1    0    0    0    0  0.00000000000E+00  0.00000000000E+00  0.99999998245E-14  0.12500000000E+03  0.12500000000E+03 0.  0.
        -13    1    3    3    0    0  0.38639783616E+02  0.44364632907E+02 -0.21043377694E+01  0.58870136167E+02  0.10566000000E+00 0.  1.
         23    2    1    0    0    0  0.69647955463E+01  0.27997032952E+02 -0.81213226210E+01  0.95028378219E+02  0.90178126808E+02 0.  0.
         13    1    3    3    0    0 -0.31674988069E+02 -0.16367599956E+02 -0.60169848516E+01  0.36158242051E+02  0.10566000000E+00 0. -1.
         22    1    1    0    0    0 -0.69647955463E+01 -0.27997032952E+02  0.81213226210E+01  0.29971621781E+02  0.00000000000E+00 0.  1.
</event>
<event>
 5    1  0.1691066E-003  0.9118800E+02  0.7818608E-02  0.1130116E+00
         25   -1    0    0    0    0  0.00000000000E+00  0.00000000000E+00  0.99999998245E-14  0.12500000000E+03  0.12500000000E+03 0.  0.
        -13    1    3    3    0    0 -0.38842463515E+02  0.76837860739E+01  0.19433565040E+02  0.44107280063E+02  0.10566000000E+00 0.  1.
         23    2    1    0    0    0  0.66241255268E+01  0.19171740134E+02 -0.12802428730E+02  0.10101381981E+03  0.98124690840E+02 0.  0.
         13    1    3    3    0    0  0.45466589042E+02  0.11487954060E+02 -0.32235993770E+02  0.56906539747E+02  0.10566000000E+00 0. -1.
         22    1    1    0    0    0 -0.66241255268E+01 -0.19171740134E+02  0.12802428730E+02  0.23986180190E+02  0.00000000000E+00 0. -1.
</event>
<event>
 5    1  0.1691066E-003  0.9118800E+02  0.7818608E-02  0.1130116E+00
         25   -1    0    0    0    0  0.00000000000E+00  0.00000000000E+00  0.99999998245E-14  0.12500000000E+03  0.12500000000E+03 0.  0.
        -13    1    3    3    0    0 -0.16706398681E+02 -0.40147955177E+02 -0.32021441843E+02  0.54003203271E+02  0.10566000000E+00 0.  1.
         23    2    1    0    0    0  0.11903715911E+02 -0.27447514540E+02 -0.65163424530E+01  0.94380933622E+02  0.89276163702E+02 0.  0.
         13    1    3    3    0    0  0.28610114592E+02  0.12700440637E+02  0.25505099390E+02  0.40377730351E+02  0.10566000000E+00 0. -1.
         22    1    1    0    0    0 -0.11903715911E+02  0.27447514540E+02  0.65163424530E+01  0.30619066378E+02  0.00000000000E+00 0.  1.
</event>
<event>
 5    1  0.1691066E-003  0.9118800E+02  0.7818608E-02  0.1130116E+00
         25   -1    0    0    0    0  0.00000000000E+00  0.00000000000E+00  0.99999998245E-14  0.12500000000E+03  0.12500000000E+03 0.  0.
        -13    1    3    3    0    0  0.33314032225E+02  0.48690001168E+01 -0.20727134463E+02  0.39536782524E+02  0.10566000000E+00 0. -1.
         23    2    1    0    0    0  0.12063964332E+02  0.79618739535E+01  0.28389483047E+02  0.93142608081E+02  0.87525150786E+02 0.  0.
         13    1    3    3    0    0 -0.21250067893E+02  0.30928738367E+01  0.49116617510E+02  0.53605825557E+02  0.10566000000E+00 0.  1.
         22    1    1    0    0    0 -0.12063964332E+02 -0.79618739535E+01 -0.28389483047E+02  0.31857391919E+02  0.00000000000E+00 0.  1.
</event>
<event>
 5    1  0.1691066E-003  0.9118800E+02  0.7818608E-02  0.1130116E+00
         25   -1    0    0    0    0  0.00000000000E+00  0.00000000000E+00  0.99999998245E-14  0.12500000000E+03  0.12500000000E+03 0.  0.
        -13    1    3    3    0    0 -0.10441408156E+02  0.35774980276E+02  0.63957644534E+01  0.37812553273E+02  0.10566000000E+00 0.  1.
         23    2    1    0    0    0  0.21556465413E+02  0.81645663142E+01  0.30733431037E+02  0.86582749610E+02  0.77593088627E+02 0.  0.
         13    1    3    3    0    0  0.31997873569E+02 -0.27610413962E+02  0.24337666584E+02  0.48770196338E+02  0.10566000000E+00 0. -1.
         22    1    1    0    0    0 -0.21556465413E+02 -0.81645663142E+01 -0.30733431037E+02  0.38417250390E+02  0.00000000000E+00 0. -1.
</event>
<event>
 5    1  0.1691066E-003  0.9118800E+02  0.7818608E-02  0.1130116E+00
         25   -1    0    0    0    0  0.00000000000E+00  0.00000000000E+00  0.99999998245E-14  0.12500000000E+03  0.12500000000E+03 0.  0.
        -13    1    3    3    0    0 -0.66679705056E+01  0.43452149593E+02  0.40889553253E+02  0.60037637064E+02  0.10566000000E+00 0.  1.
         23    2    1    0    0    0 -0.87968740494E+01  0.24646382495E+02  0.86204231701E+01  0.97447489066E+02  0.93471237643E+02 0.  0.
         13    1    3    3    0    0 -0.21289035438E+01 -0.18805767098E+02 -0.32269130083E+02  0.37409852002E+02  0.10566000000E+00 0. -1.
         22    1    1    0    0    0  0.87968740494E+01 -0.24646382495E+02 -0.86204231701E+01  0.27552510934E+02  0.00000000000E+00 0.  1.
</event>
<event>
 5    1  0.1691066E-003  0.9118800E+02  0.7818608E-02  0.1130116E+00
         25   -1    0    0    0    0  0.00000000000E+00  0.00000000000E+00  0.99999998245E-14  0.12500000000E+03  0.12500000000E+03 0.  0.
        -13    1    3    3    0    0 -0.19431253714E+02 -0.11602503917E+02  0.25231580452E+02  0.33894476455E+02  0.10566000000E+00 0. -1.
         23    2    1    0    0    0  0.56875003292E+01  0.52478591713E+01 -0.28452810448E+02  0.95513560603E+02  0.90848170872E+02 0.  0.
         13    1    3    3    0    0  0.25118754043E+02  0.16850363088E+02 -0.53684390900E+02  0.61619084148E+02  0.10566000000E+00 0.  1.
         22    1    1    0    0    0 -0.56875003292E+01 -0.52478591713E+01  0.28452810448E+02  0.29486439397E+02  0.00000000000E+00 0.  1.
</event>
<event>
 5    1  0.1691066E-003  0.9118800E+02  0.7818608E-02  0.1130116E+00
         25   -1    0    0    0    0  0.00000000000E+00  0.00000000000E+00  0.99999998245E-14  0.12500000000E+03  0.12500000000E+03 0.  0.
        -13    1    3    3    0    0  0.47184328042E+02  0.14010509879E+02 -0.27976042048E+01  0.49300029951E+02  0.10566000000E+00 0.  1.
         23    2    1    0    0    0  0.11830033028E+02 -0.36249553111E+01 -0.26767270996E+02  0.95511412733E+02  0.90845215521E+02 0.  0.
         13    1    3    3    0    0 -0.35354295015E+02 -0.17635465190E+02 -0.23969666791E+02  0.46211382781E+02  0.10566000000E+00 0. -1.
         22    1    1    0    0    0 -0.11830033028E+02  0.36249553111E+01  0.26767270996E+02  0.29488587267E+02  0.00000000000E+00 0.  1.
</event>
<event>
 5    1  0.1691066E-003  0.9118800E+02  0.7818608E-02  0.1130116E+00
         25   -1    0    0    0    0  0.00000000000E+00  0.00000000000E+00  0.99999998245E-14  0.12500000000E+03  0.12500000000E+03 0.  0.
        -13    1    3    3    0    0  0.12354040133E+02  0.27899289521E+02 -0.23736382257E+02  0.38657724585E+02  0.10566000000E+00 0.  1.
         23    2    1    0    0    0 -0.89111664962E+00 -0.20149871581E+02 -0.29956992487E+02  0.88885836400E+02  0.81218588390E+02 0.  0.
         13    1    3    3    0    0 -0.13245156783E+02 -0.48049161103E+02 -0.62206102300E+01  0.50228111815E+02  0.10566000000E+00 0. -1.
         22    1    1    0    0    0  0.89111664962E+00  0.20149871581E+02  0.29956992487E+02  0.36114163600E+02  0.00000000000E+00 0. -1.
</event>
<event>
 5    1  0.1691066E-003  0.9118800E+02  0.7818608E-02  0.1130116E+00
         25   -1    0    0    0    0  0.00000000000E+00  0.00000000000E+00  0.99999998245E-14  0.12500000000E+03  0.12500000000E+03 0.  0.
        -13    1    3    3    0    0  0.85446567110E+01  0.24167881290E+02  0.56028105266E+02  0.61613775960E+02  0.10566000000E+00 0. -1.
         23    2    1    0    0    0 -0.31185313161E+01  0.13385925241E+02  0.25014937125E+02  0.96457832748E+02  0.92138255827E+02 0.  0.
         13    1    3    3    0    0 -0.11663188027E+02 -0.10781956050E+02 -0.31013168141E+02  0.34844056787E+02  0.10566000000E+00 0.  1.
         22    1    1    0    0    0  0.31185313161E+01 -0.13385925241E+02 -0.25014937125E+02  0.28542167252E+02  0.00000000000E+00 0. -1.
</event>
<event>
 5    1  0.1691066E-003  0.9118800E+02  0.7818608E-02  0.1130116E+00
         25   -1    0    0    0    0  0.00000000000E+00  0.00000000000E+00  0.99999998245E-14  0.12500000000E+03  0.12500000000E+03 0.  0.
        -13    1    3    3    0    0 -0.16860220370E+02  0.29608644914E+02 -0.39142282485E+02  0.51894781305E+02  0.10566000000E+00 0.  1.
         23    2    1    0    0    0  0.23492444294E+01  0.29656927395E+02 -0.27633918259E+00  0.95248888168E+02  0.90483269404E+02 0.  0.
         13    1    3    3    0    0  0.19209464800E+02  0.48282480408E-01  0.38865943302E+02  0.43354106863E+02  0.10566000000E+00 0. -1.
         22    1    1    0    0    0 -0.23492444294E+01 -0.29656927395E+02  0.27633918259E+00  0.29751111832E+02  0.00000000000E+00 0.  1.
</event>
<event>
 5    1  0.1691066E-003  0.9118800E+02  0.7818608E-02  0.1130116E+00
         25   -1    0    0    0    0  0.00000000000E+00  0.00000000000E+00  0.99999998245E-14  0.12500000000E+03  0.12500000000E+03 0.  0.
        -13    1    3    3    0    0 -0.26671229859E+02  0.43035723803E+02 -0.10654519912E+02  0.51739327248E+02  0.10566000000E+00 0. -1.
         23    2    1    0    0    0  0.74317739042E+01  0.18240848625E+02 -0.22067445996E+02  0.95420750606E+02  0.90720381676E+02 0.  0.
         13    1    3    3    0    0  0.34103003763E+02 -0.24794875178E+02 -0.11412926084E+02  0.43681423358E+02  0.10566000000E+00 0.  1.
         22    1    1    0    0    0 -0.74317739042E+01 -0.18240848625E+02  0.22067445996E+02  0.29579249394E+02  0.00000000000E+00 0. -1.
</event>
<event>
 5    1  0.1691066E-003  0.9118800E+02  0.7818608E-02  0.1130116E+00
         25   -1    0    0    0    0  0.00000000000E+00  0.00000000000E+00  0.99999998245E-14  0.12500000000E+03  0.12500000000E+03 0.  0.
        -13    1    3    3    0    0 -0.24798759257E+02 -0.14048855910E+02  0.30933988770E+02  0.42062710782E+02  0.10566000000E+00 0.  1.
         23    2    1    0    0    0 -0.18598400853E+02 -0.85494865799E+01 -0.21597202683E+02  0.95243767059E+02  0.90476194465E+02 0.  0.
         13    1    3    3    0    0  0.62003584039E+01  0.54993693296E+01 -0.52531191453E+02  0.53181056278E+02  0.10566000000E+00 0. -1.
         22    1    1    0    0    0  0.18598400853E+02  0.85494865799E+01  0.21597202683E+02  0.29756232941E+02  0.00000000000E+00 0. -1.
</event>
<event>
 5    1  0.1691066E-003  0.9118800E+02  0.7818608E-02  0.1130116E+00
         25   -1    0    0    0    0  0.00000000000E+00  0.00000000000E+00  0.99999998245E-14  0.12500000000E+03  0.12500000000E+03 0.  0.
        -13    1    3    3    0    0  0.34625632487E+02  0.71858970177E+01 -0.42324008305E+02  0.55153462123E+02  0.10566000000E+00 0. -1.
         23    2    1    0    0    0  0.19742925339E+02 -0.16741723871E+02 -0.12263416340E+02  0.96356330552E+02  0.92000449119E+02 0.  0.
         13    1    3    3    0    0 -0.14882707148E+02 -0.23927620889E+02  0.30060591965E+02  0.41202868429E+02  0.10566000000E+00 0.  1.
         22    1    1    0    0    0 -0.19742925339E+02  0.16741723871E+02  0.12263416340E+02  0.28643669448E+02  0.00000000000E+00 0. -1.
</event>
<event>
 5    1  0.1691066E-003  0.9118800E+02  0.7818608E-02  0.1130116E+00
         25   -1    0    0    0    0  0.00000000000E+00  0.00000000000E+00  0.99999998245E-14  0.12500000000E+03  0.12500000000E+03 0.  0.
        -13    1    3    3    0    0  0.26364092340E+02  0.43473275370E+02  0.26668898956E+02  0.57412824106E+02  0.10566000000E+00 0. -1.
         23    2    1    0    0    0  0.27207260803E+01  0.14790904033E+02  0.26436985177E+02  0.94584750901E+02  0.89561083765E+02 0.  0.
         13    1    3    3    0    0 -0.23643366260E+02 -0.28682371336E+02 -0.23191377900E+00  0.37171926795E+02  0.10566000000E+00 0.  1.
         22    1    1    0    0    0 -0.27207260803E+01 -0.14790904033E+02 -0.26436985177E+02  0.30415249099E+02  0.00000000000E+00 0. -1.
</event>
<event>
 5    1  0.1691066E-003  0.9118800E+02  0.7818608E-02  0.1130116E+00
         25   -1    0    0    0    0  0.00000000000E+00  0.00000000000E+00  0.99999998245E-14  0.12500000000E+03  0.12500000000E+03 0.  0.
        -13    1    3    3    0    0 -0.24631582414E+02 -0.19385736832E+02  0.17604926185E+02  0.35950886425E+02  0.10566000000E+00 0.  1.
         23    2    1    0    0    0  0.20193114995E+02 -0.82478435904E+01 -0.19919550506E+02  0.95460580414E+02  0.90775244993E+02 0.  0.
         13    1    3    3    0    0  0.44824697409E+02  0.11137893242E+02 -0.37524476691E+02  0.59509693989E+02  0.10566000000E+00 0. -1.
         22    1    1    0    0    0 -0.20193114995E+02  0.82478435904E+01  0.19919550506E+02  0.29539419586E+02  0.00000000000E+00 0. -1.
</event>
<event>
 5    1  0.1691066E-003  0.9118800E+02  0.7818608E-02  0.1130116E+00
         25   -1    0    0    0    0  0.00000000000E+00  0.00000000000E+00  0.99999998245E-14  0.12500000000E+03  0.12500000000E+03 0.  0.
        -13    1    3    3    0    0 -0.31534567563E+02 -0.35064272964E+02  0.37376955776E+02  0.60174580821E+02  0.10566000000E+00 0.  1.
         23    2    1    0    0    0 -0.11807437406E+02 -0.83591165077E+01  0.25954435566E+02  0.95285977512E+02  0.90534492752E+02 0.  0.
         13    1    3    3    0    0  0.19727130157E+02  0.26705156457E+02 -0.11422520210E+02  0.35111396691E+02  0.10566000000E+00 0. -1.
         22    1    1    0    0    0  0.11807437406E+02  0.83591165077E+01 -0.25954435566E+02  0.29714022488E+02  0.00000000000E+00 0.  1.
</event>
<event>
 5    1  0.1691066E-003  0.9118800E+02  0.7818608E-02  0.1130116E+00
         25   -1    0    0    0    0  0.00000000000E+00  0.00000000000E+00  0.99999998245E-14  0.12500000000E+03  0.12500000000E+03 0.  0.
        -13    1    3    3    0    0  0.11129692028E+02 -0.15905434800E+02  0.35656381744E+02  0.40598542141E+02  0.10566000000E+00 0.  1.
         23    2    1    0    0    0 -0.29496690301E+02 -0.50981112073E+01  0.10533220328E+01  0.95047454801E+02  0.90204565850E+02 0.  0.
         13    1    3    3    0    0 -0.40626382329E+02  0.10807323593E+02 -0.34603059711E+02  0.54448912660E+02  0.10566000000E+00 0. -1.
         22    1    1    0    0    0  0.29496690301E+02  0.50981112073E+01 -0.10533220328E+01  0.29952545199E+02  0.00000000000E+00 0. -1.
</event>
<event>
 5    1  0.1691066E-003  0.9118800E+02  0.7818608E-02  0.1130116E+00
         25   -1    0    0    0    0  0.00000000000E+00  0.00000000000E+00  0.99999998245E-14  0.12500000000E+03  0.12500000000E+03 0.  0.
        -13    1    3    3    0    0 -0.74112875625E+00 -0.37711164635E+02  0.40825192590E+02  0.55582269871E+02  0.10566000000E+00 0. -1.
         23    2    1    0    0    0  0.11378118490E+02 -0.10733385194E+01  0.25411040886E+02  0.97137217748E+02  0.93055383707E+02 0.  0.
         13    1    3    3    0    0  0.12119247246E+02  0.36637826115E+02 -0.15414151704E+02  0.41554947877E+02  0.10566000000E+00 0.  1.
         22    1    1    0    0    0 -0.11378118490E+02  0.10733385194E+01 -0.25411040886E+02  0.27862782252E+02  0.00000000000E+00 0. -1.
</event>
<event>
 5    1  0.1691066E-003  0.9118800E+02  0.7818608E-02  0.1130116E+00
         25   -1    0    0    0    0  0.00000000000E+00  0.00000000000E+00  0.99999998245E-14  0.12500000000E+03  0.12500000000E+03 0.  0.
        -13    1    3    3    0    0 -0.34103662110E+02 -0.46824712054E+02  0.23303710165E+02  0.62439470687E+02  0.10566000000E+00 0. -1.
         23    2    1    0    0    0 -0.17319504047E+02 -0.20529801958E+02  0.10443823952E+02  0.96181404482E+02  0.91762471199E+02 0.  0.
         13    1    3    3    0    0  0.16784158062E+02  0.26294910096E+02 -0.12859886213E+02  0.33741933795E+02  0.10566000000E+00 0.  1.
         22    1    1    0    0    0  0.17319504047E+02  0.20529801958E+02 -0.10443823952E+02  0.28818595518E+02  0.00000000000E+00 0. -1.
</event>
<event>
 5    1  0.1691066E-003  0.9118800E+02  0.7818608E-02  0.1130116E+00
         25   -1    0    0    0    0  0.00000000000E+00  0.00000000000E+00  0.99999998245E-14  0.12500000000E+03  0.12500000000E+03 0.  0.
        -13    1    3    3    0    0  0.41596036754E+02  0.13075937222E+02 -0.52285763171E+01  0.43915368406E+02  0.10566000000E+00 0. -1.
         23    2    1    0    0    0  0.39098744456E+01  0.13751895611E+01  0.28727676652E+02  0.95974878633E+02  0.91480706482E+02 0.  0.
         13    1    3    3    0    0 -0.37686162309E+02 -0.11700747661E+02  0.33956252969E+02  0.52059510227E+02  0.10566000000E+00 0.  1.
         22    1    1    0    0    0 -0.39098744456E+01 -0.13751895611E+01 -0.28727676652E+02  0.29025121367E+02  0.00000000000E+00 0.  1.
</event>
<event>
 5    1  0.1691066E-003  0.9118800E+02  0.7818608E-02  0.1130116E+00
         25   -1    0    0    0    0  0.00000000000E+00  0.00000000000E+00  0.99999998245E-14  0.12500000000E+03  0.12500000000E+03 0.  0.
        -13    1    3    3    0    0  0.16686729525E+02 -0.33951468411E+02 -0.48186580534E+02  0.61262605700E+02  0.10566000000E+00 0.  1.
         23    2    1    0    0    0  0.28947416467E+01 -0.99830931472E+01 -0.26904888720E+02  0.96157068197E+02  0.91729314012E+02 0.  0.
         13    1    3    3    0    0 -0.13791987879E+02  0.23968375264E+02  0.21281691814E+02  0.34894462497E+02  0.10566000000E+00 0. -1.
         22    1    1    0    0    0 -0.28947416467E+01  0.99830931472E+01  0.26904888720E+02  0.28842931803E+02  0.00000000000E+00 0.  1.
</event>
<event>
 5    1  0.1691066E-003  0.9118800E+02  0.7818608E-02  0.1130116E+00
         25   -1    0    0    0    0  0.00000000000E+00  0.00000000000E+00  0.99999998245E-14  0.12500000000E+03  0.12500000000E+03 0.  0.
        -13    1    3    3    0    0  0.40276292147E+02  0.20572656111E+02  0.31787934339E+02  0.55280175670E+02  0.10566000000E+00 0.  1.
         23    2    1    0    0    0  0.31212808023E+02  0.10239131434E+01 -0.10520960715E+00  0.93770224915E+02  0.88416945371E+02 0.  0.
         13    1    3    3    0    0 -0.90634841238E+01 -0.19548742967E+02 -0.31893143946E+02  0.38490049245E+02  0.10566000000E+00 0. -1.
         22    1    1    0    0    0 -0.31212808023E+02 -0.10239131434E+01  0.10520960715E+00  0.31229775085E+02  0.00000000000E+00 0.  1.
</event>
<event>
 5    1  0.1691066E-003  0.9118800E+02  0.7818608E-02  0.1130116E+00
         25   -1    0    0    0    0  0.00000000000E+00  0.00000000000E+00  0.99999998245E-14  0.12500000000E+03  0.12500000000E+03 0.  0.
        -13    1    3    3    0    0 -0.95335107057E+01  0.40056227698E+02  0.36562378857E+02  0.55065487518E+02  0.10566000000E+00 0. -1.
         23    2    1    0    0    0  0.96789039465E+01  0.27706348245E+02  0.32266741740E+01  0.95474852398E+02  0.90794895779E+02 0.  0.
         13    1    3    3    0    0  0.19212414652E+02 -0.12349879453E+02 -0.33335704683E+02  0.40409364881E+02  0.10566000000E+00 0.  1.
         22    1    1    0    0    0 -0.96789039465E+01 -0.27706348245E+02 -0.32266741740E+01  0.29525147602E+02  0.00000000000E+00 0. -1.
</event>
<event>
 5    1  0.1691066E-003  0.9118800E+02  0.7818608E-02  0.1130116E+00
         25   -1    0    0    0    0  0.00000000000E+00  0.00000000000E+00  0.99999998245E-14  0.12500000000E+03  0.12500000000E+03 0.  0.
        -13    1    3    3    0    0 -0.28532159245E+01 -0.89163220077E+01  0.12132580581E+02  0.15324892001E+02  0.10566000000E+00 0. -1.
         23    2    1    0    0    0 -0.28876846146E+02  0.25583812264E+02 -0.30341609258E+02  0.75918262606E+02  0.57918612305E+02 0.  0.
         13    1    3    3    0    0 -0.26023630222E+02  0.34500134272E+02 -0.42474189839E+02  0.60593370604E+02  0.10566000000E+00 0.  1.
         22    1    1    0    0    0  0.28876846146E+02 -0.25583812264E+02  0.30341609258E+02  0.49081737394E+02  0.00000000000E+00 0.  1.
</event>
<event>
 5    1  0.1691066E-003  0.9118800E+02  0.7818608E-02  0.1130116E+00
         25   -1    0    0    0    0  0.00000000000E+00  0.00000000000E+00  0.99999998245E-14  0.12500000000E+03  0.12500000000E+03 0.  0.
        -13    1    3    3    0    0 -0.14145995463E+02 -0.32080582428E+02 -0.74643549590E+01  0.35846906638E+02  0.10566000000E+00 0.  1.
         23    2    1    0    0    0  0.20530072019E+01  0.21039253451E+02  0.18274702896E+02  0.97056668232E+02  0.92947119687E+02 0.  0.
         13    1    3    3    0    0  0.16199002665E+02  0.53119835878E+02  0.25739057855E+02  0.61209761594E+02  0.10566000000E+00 0. -1.
         22    1    1    0    0    0 -0.20530072019E+01 -0.21039253451E+02 -0.18274702896E+02  0.27943331768E+02  0.00000000000E+00 0. -1.
</event>
<event>
 5    1  0.1691066E-003  0.9118800E+02  0.7818608E-02  0.1130116E+00
         25   -1    0    0    0    0  0.00000000000E+00  0.00000000000E+00  0.99999998245E-14  0.12500000000E+03  0.12500000000E+03 0.  0.
        -13    1    3    3    0    0 -0.20507486980E+02 -0.16817814539E+02  0.54212034519E+02  0.60351899380E+02  0.10566000000E+00 0. -1.
         23    2    1    0    0    0 -0.14204277855E+02  0.28972759342E+01  0.23524387209E+02  0.97367546059E+02  0.93364267870E+02 0.  0.
         13    1    3    3    0    0  0.63032091253E+01  0.19715090473E+02 -0.30687647310E+02  0.37015646679E+02  0.10566000000E+00 0.  1.
         22    1    1    0    0    0  0.14204277855E+02 -0.28972759342E+01 -0.23524387209E+02  0.27632453941E+02  0.00000000000E+00 0. -1.
</event>
<event>
 5    1  0.1691066E-003  0.9118800E+02  0.7818608E-02  0.1130116E+00
         25   -1    0    0    0    0  0.00000000000E+00  0.00000000000E+00  0.99999998245E-14  0.12500000000E+03  0.12500000000E+03 0.  0.
        -13    1    3    3    0    0 -0.58300460392E+02  0.13563991105E+01 -0.18555470268E+01  0.58345845776E+02  0.10566000000E+00 0.  1.
         23    2    1    0    0    0 -0.24274946585E+02  0.25880291772E+01 -0.16630246341E+02  0.95461279308E+02  0.90776207384E+02 0.  0.
         13    1    3    3    0    0  0.34025513807E+02  0.12316300667E+01 -0.14774699315E+02  0.37115433533E+02  0.10566000000E+00 0. -1.
         22    1    1    0    0    0  0.24274946585E+02 -0.25880291772E+01  0.16630246341E+02  0.29538720692E+02  0.00000000000E+00 0.  1.
</event>
<event>
 5    1  0.1691066E-003  0.9118800E+02  0.7818608E-02  0.1130116E+00
         25   -1    0    0    0    0  0.00000000000E+00  0.00000000000E+00  0.99999998245E-14  0.12500000000E+03  0.12500000000E+03 0.  0.
        -13    1    3    3    0    0 -0.29782927079E+02  0.90034843907E+01 -0.28840259975E+02  0.42424724348E+02  0.10566000000E+00 0.  1.
         23    2    1    0    0    0 -0.13121504794E+02  0.13741786932E+02  0.21880107356E+02  0.96021565017E+02  0.91544476919E+02 0.  0.
         13    1    3    3    0    0  0.16661422284E+02  0.47383025411E+01  0.50720367331E+02  0.53596840669E+02  0.10566000000E+00 0. -1.
         22    1    1    0    0    0  0.13121504794E+02 -0.13741786932E+02 -0.21880107356E+02  0.28978434983E+02  0.00000000000E+00 0. -1.
</event>
<event>
 5    1  0.1691066E-003  0.9118800E+02  0.7818608E-02  0.1130116E+00
         25   -1    0    0    0    0  0.00000000000E+00  0.00000000000E+00  0.99999998245E-14  0.12500000000E+03  0.12500000000E+03 0.  0.
        -13    1    3    3    0    0 -0.83422520580E+00 -0.37504874427E+02 -0.20665288424E+02  0.42829625812E+02  0.10566000000E+00 0. -1.
         23    2    1    0    0    0  0.27816146974E+02 -0.40819926378E+01  0.84912763191E+01  0.95631607639E+02  0.91010449453E+02 0.  0.
         13    1    3    3    0    0  0.28650372180E+02  0.33422881790E+02  0.29156564743E+02  0.52801981827E+02  0.10566000000E+00 0.  1.
         22    1    1    0    0    0 -0.27816146974E+02  0.40819926378E+01 -0.84912763191E+01  0.29368392361E+02  0.00000000000E+00 0.  1.
</event>
<event>
 5    1  0.1691066E-003  0.9118800E+02  0.7818608E-02  0.1130116E+00
         25   -1    0    0    0    0  0.00000000000E+00  0.00000000000E+00  0.99999998245E-14  0.12500000000E+03  0.12500000000E+03 0.  0.
        -13    1    3    3    0    0 -0.24682774457E+02 -0.19564064644E+02 -0.17985765277E+02  0.36269696675E+02  0.10566000000E+00 0.  1.
         23    2    1    0    0    0 -0.15214015990E+01  0.26713542574E+02  0.11551647517E+02  0.95856071301E+02  0.91318222854E+02 0.  0.
         13    1    3    3    0    0  0.23161372858E+02  0.46277607218E+02  0.29537412794E+02  0.59586374626E+02  0.10566000000E+00 0. -1.
         22    1    1    0    0    0  0.15214015990E+01 -0.26713542574E+02 -0.11551647517E+02  0.29143928699E+02  0.00000000000E+00 0. -1.
</event>
<event>
 5    1  0.1691066E-003  0.9118800E+02  0.7818608E-02  0.1130116E+00
         25   -1    0    0    0    0  0.00000000000E+00  0.00000000000E+00  0.99999998245E-14  0.12500000000E+03  0.12500000000E+03 0.  0.
        -13    1    3    3    0    0 -0.91605207225E+01  0.44345036063E+02 -0.39266295212E+02  0.59935385767E+02  0.10566000000E+00 0.  1.
         23    2    1    0    0    0  0.72580530876E+01  0.17575167211E+02 -0.22522265444E+02  0.95524276466E+02  0.90862913868E+02 0.  0.
         13    1    3    3    0    0  0.16418573810E+02 -0.26769868851E+02  0.16744029768E+02  0.35588890699E+02  0.10566000000E+00 0. -1.
         22    1    1    0    0    0 -0.72580530876E+01 -0.17575167211E+02  0.22522265444E+02  0.29475723534E+02  0.00000000000E+00 0.  1.
</event>
<event>
 5    1  0.1691066E-003  0.9118800E+02  0.7818608E-02  0.1130116E+00
         25   -1    0    0    0    0  0.00000000000E+00  0.00000000000E+00  0.99999998245E-14  0.12500000000E+03  0.12500000000E+03 0.  0.
        -13    1    3    3    0    0  0.22738826959E+01  0.39721357617E+02  0.19427961519E+02  0.44276558655E+02  0.10566000000E+00 0.  1.
         23    2    1    0    0    0 -0.85239501592E+01 -0.11105277039E+02  0.24807116580E+02  0.96515303452E+02  0.92216190894E+02 0.  0.
         13    1    3    3    0    0 -0.10797832855E+02 -0.50826634656E+02  0.53791550605E+01  0.52238744798E+02  0.10566000000E+00 0. -1.
         22    1    1    0    0    0  0.85239501592E+01  0.11105277039E+02 -0.24807116580E+02  0.28484696548E+02  0.00000000000E+00 0.  1.
</event>
<event>
 5    1  0.1691066E-003  0.9118800E+02  0.7818608E-02  0.1130116E+00
         25   -1    0    0    0    0  0.00000000000E+00  0.00000000000E+00  0.99999998245E-14  0.12500000000E+03  0.12500000000E+03 0.  0.
        -13    1    3    3    0    0 -0.34144681140E+02 -0.51939371881E+01 -0.15090683169E+02  0.37690530856E+02  0.10566000000E+00 0. -1.
         23    2    1    0    0    0  0.20816923957E+02 -0.20107920176E+02 -0.30654133622E+01  0.95895540962E+02  0.91372234516E+02 0.  0.
         13    1    3    3    0    0  0.54961605097E+02 -0.14913982988E+02  0.12025269807E+02  0.58205010105E+02  0.10566000000E+00 0.  1.
         22    1    1    0    0    0 -0.20816923957E+02  0.20107920176E+02  0.30654133622E+01  0.29104459038E+02  0.00000000000E+00 0.  1.
</event>
<event>
 5    1  0.1691066E-003  0.9118800E+02  0.7818608E-02  0.1130116E+00
         25   -1    0    0    0    0  0.00000000000E+00  0.00000000000E+00  0.99999998245E-14  0.12500000000E+03  0.12500000000E+03 0.  0.
        -13    1    3    3    0    0 -0.51672215824E+02  0.10690561650E+02 -0.22352881654E+02  0.57305920102E+02  0.10566000000E+00 0.  1.
         23    2    1    0    0    0 -0.12840359917E+02  0.14489364675E+02 -0.21129056728E+02  0.96342477956E+02  0.91981625823E+02 0.  0.
         13    1    3    3    0    0  0.38831855907E+02  0.37988030244E+01  0.12238249257E+01  0.39036557854E+02  0.10566000000E+00 0. -1.
         22    1    1    0    0    0  0.12840359917E+02 -0.14489364675E+02  0.21129056728E+02  0.28657522044E+02  0.00000000000E+00 0.  1.
</event>
<event>
 5    1  0.1691066E-003  0.9118800E+02  0.7818608E-02  0.1130116E+00
         25   -1    0    0    0    0  0.00000000000E+00  0.00000000000E+00  0.99999998245E-14  0.12500000000E+03  0.12500000000E+03 0.  0.
        -13    1    3    3    0    0 -0.95106898344E+01 -0.54885886451E+01 -0.31777920881E+02  0.33621797186E+02  0.10566000000E+00 0. -1.
         23    2    1    0    0    0  0.10286612701E+02 -0.64894139281E+01  0.26857270629E+02  0.95517125655E+02  0.90853075973E+02 0.  0.
         13    1    3    3    0    0  0.19797302536E+02 -0.10008252830E+01  0.58635191510E+02  0.61895328470E+02  0.10566000000E+00 0.  1.
         22    1    1    0    0    0 -0.10286612701E+02  0.64894139281E+01 -0.26857270629E+02  0.29482874345E+02  0.00000000000E+00 0.  1.
</event>
<event>
 5    1  0.1691066E-003  0.9118800E+02  0.7818608E-02  0.1130116E+00
         25   -1    0    0    0    0  0.00000000000E+00  0.00000000000E+00  0.99999998245E-14  0.12500000000E+03  0.12500000000E+03 0.  0.
        -13    1    3    3    0    0  0.17533188563E+01  0.52047807648E+02  0.53680739830E+01  0.52353374202E+02  0.10566000000E+00 0.  1.
         23    2    1    0    0    0 -0.13594338807E+02  0.15213405585E+02  0.21468647257E+02  0.95383170796E+02  0.90668587167E+02 0.  0.
         13    1    3    3    0    0 -0.15347657663E+02 -0.36834402063E+02  0.16100573274E+02  0.43029796594E+02  0.10566000000E+00 0. -1.
         22    1    1    0    0    0  0.13594338807E+02 -0.15213405585E+02 -0.21468647257E+02  0.29616829204E+02  0.00000000000E+00 0. -1.
</event>
<event>
 5    1  0.1691066E-003  0.9118800E+02  0.7818608E-02  0.1130116E+00
         25   -1    0    0    0    0  0.00000000000E+00  0.00000000000E+00  0.99999998245E-14  0.12500000000E+03  0.12500000000E+03 0.  0.
        -13    1    3    3    0    0  0.10367318723E+02 -0.20902679060E+02  0.24350618891E+02  0.33724873518E+02  0.10566000000E+00 0.  1.
         23    2    1    0    0    0 -0.69423986869E+01  0.12955970974E+02 -0.24983237334E+02  0.96013516407E+02  0.91533486232E+02 0.  0.
         13    1    3    3    0    0 -0.17309717410E+02  0.33858650034E+02 -0.49333856225E+02  0.62288642889E+02  0.10566000000E+00 0. -1.
         22    1    1    0    0    0  0.69423986869E+01 -0.12955970974E+02  0.24983237334E+02  0.28986483593E+02  0.00000000000E+00 0. -1.
</event>
<event>
 5    1  0.1691066E-003  0.9118800E+02  0.7818608E-02  0.1130116E+00
         25   -1    0    0    0    0  0.00000000000E+00  0.00000000000E+00  0.99999998245E-14  0.12500000000E+03  0.12500000000E+03 0.  0.
        -13    1    3    3    0    0  0.48940619524E+02 -0.28798760890E+02 -0.27771048216E+01  0.56853111994E+02  0.10566000000E+00 0. -1.
         23    2    1    0    0    0  0.31548947887E+02  0.23453912470E+01  0.38362243113E+01  0.93132248434E+02  0.87510354293E+02 0.  0.
         13    1    3    3    0    0 -0.17391671636E+02  0.31144152137E+02  0.66133291329E+01  0.36279136441E+02  0.10566000000E+00 0.  1.
         22    1    1    0    0    0 -0.31548947887E+02 -0.23453912470E+01 -0.38362243113E+01  0.31867751566E+02  0.00000000000E+00 0. -1.
</event>
<event>
 5    1  0.1691066E-003  0.9118800E+02  0.7818608E-02  0.1130116E+00
         25   -1    0    0    0    0  0.00000000000E+00  0.00000000000E+00  0.99999998245E-14  0.12500000000E+03  0.12500000000E+03 0.  0.
        -13    1    3    3    0    0 -0.39704612866E+02 -0.35473720399E+02 -0.21796715988E+02  0.57532157214E+02  0.10566000000E+00 0. -1.
         23    2    1    0    0    0 -0.26937827337E+02 -0.87148004008E+00 -0.99386610281E+01  0.96274001286E+02  0.91888521162E+02 0.  0.
         13    1    3    3    0    0  0.12766785529E+02  0.34602240359E+02  0.11858054960E+02  0.38741844072E+02  0.10566000000E+00 0.  1.
         22    1    1    0    0    0  0.26937827337E+02  0.87148004008E+00  0.99386610281E+01  0.28725998714E+02  0.00000000000E+00 0. -1.
</event>
<event>
 5    1  0.1691066E-003  0.9118800E+02  0.7818608E-02  0.1130116E+00
         25   -1    0    0    0    0  0.00000000000E+00  0.00000000000E+00  0.99999998245E-14  0.12500000000E+03  0.12500000000E+03 0.  0.
        -13    1    3    3    0    0 -0.23659573912E+02 -0.41124773891E+02 -0.85314137873E+01  0.48206002225E+02  0.10566000000E+00 0. -1.
         23    2    1    0    0    0 -0.26711343862E+02  0.60900820698E+01 -0.10745457516E+02  0.95571275125E+02  0.90927546878E+02 0.  0.
         13    1    3    3    0    0 -0.30517699498E+01  0.47214855961E+02 -0.22140437290E+01  0.47365272900E+02  0.10566000000E+00 0.  1.
         22    1    1    0    0    0  0.26711343862E+02 -0.60900820698E+01  0.10745457516E+02  0.29428724875E+02  0.00000000000E+00 0. -1.
</event>
<event>
 5    1  0.1691066E-003  0.9118800E+02  0.7818608E-02  0.1130116E+00
         25   -1    0    0    0    0  0.00000000000E+00  0.00000000000E+00  0.99999998245E-14  0.12500000000E+03  0.12500000000E+03 0.  0.
        -13    1    3    3    0    0 -0.19242924428E+02 -0.19714216389E+02 -0.21781570494E+02  0.35119630488E+02  0.10566000000E+00 0. -1.
         23    2    1    0    0    0  0.14750073761E+02 -0.17149813398E+01  0.25146070226E+02  0.95796735032E+02  0.91236964867E+02 0.  0.
         13    1    3    3    0    0  0.33992998189E+02  0.17999235049E+02  0.46927640720E+02  0.60677104544E+02  0.10566000000E+00 0.  1.
         22    1    1    0    0    0 -0.14750073761E+02  0.17149813398E+01 -0.25146070226E+02  0.29203264968E+02  0.00000000000E+00 0.  1.
</event>
<event>
 5    1  0.1691066E-003  0.9118800E+02  0.7818608E-02  0.1130116E+00
         25   -1    0    0    0    0  0.00000000000E+00  0.00000000000E+00  0.99999998245E-14  0.12500000000E+03  0.12500000000E+03 0.  0.
        -13    1    3    3    0    0 -0.29418858452E+02  0.49040104291E+02 -0.10622368311E+02  0.58165685194E+02  0.10566000000E+00 0.  1.
         23    2    1    0    0    0 -0.12470475159E+02  0.18559092685E+02 -0.20763583481E+02  0.94486411700E+02  0.89423726857E+02 0.  0.
         13    1    3    3    0    0  0.16948383292E+02 -0.30481011606E+02 -0.10141215170E+02  0.36320726506E+02  0.10566000000E+00 0. -1.
         22    1    1    0    0    0  0.12470475159E+02 -0.18559092685E+02  0.20763583481E+02  0.30513588300E+02  0.00000000000E+00 0.  1.
</event>
<event>
 5    1  0.1691066E-003  0.9118800E+02  0.7818608E-02  0.1130116E+00
         25   -1    0    0    0    0  0.00000000000E+00  0.00000000000E+00  0.99999998245E-14  0.12500000000E+03  0.12500000000E+03 0.  0.
        -13    1    3    3    0    0 -0.88593388976E+01  0.29034119833E+02 -0.49878895761E+02  0.58389925557E+02  0.10566000000E+00 0.  1.
         23    2    1    0    0    0  0.70010235461E+01  0.81297882031E+01 -0.34645115787E+02  0.88731668982E+02  0.80980968415E+02 0.  0.
         13    1    3    3    0    0  0.15860362444E+02 -0.20904331630E+02  0.15233779974E+02  0.30341743425E+02  0.10566000000E+00 0. -1.
         22    1    1    0    0    0 -0.70010235461E+01 -0.81297882031E+01  0.34645115787E+02  0.36268331018E+02  0.00000000000E+00 0.  1.
</event>
<event>
 5    1  0.1691066E-003  0.9118800E+02  0.7818608E-02  0.1130116E+00
         25   -1    0    0    0    0  0.00000000000E+00  0.00000000000E+00  0.99999998245E-14  0.12500000000E+03  0.12500000000E+03 0.  0.
        -13    1    3    3    0    0 -0.41279932406E+02  0.33086705433E+02 -0.29212501606E+02  0.60432973698E+02  0.10566000000E+00 0.  1.
         23    2    1    0    0    0 -0.25487135515E+02  0.16653461704E+02 -0.42102824082E+01  0.94264705282E+02  0.89113278025E+02 0.  0.
         13    1    3    3    0    0  0.15792796891E+02 -0.16433243729E+02  0.25002219198E+02  0.33831731584E+02  0.10566000000E+00 0. -1.
         22    1    1    0    0    0  0.25487135515E+02 -0.16653461704E+02  0.42102824082E+01  0.30735294718E+02  0.00000000000E+00 0.  1.
</event>
<event>
 5    1  0.1691066E-003  0.9118800E+02  0.7818608E-02  0.1130116E+00
         25   -1    0    0    0    0  0.00000000000E+00  0.00000000000E+00  0.99999998245E-14  0.12500000000E+03  0.12500000000E+03 0.  0.
        -13    1    3    3    0    0 -0.19335954773E+02  0.50530913228E+01  0.52215014639E+02  0.55909138758E+02  0.10566000000E+00 0. -1.
         23    2    1    0    0    0 -0.49222598955E+01 -0.16859954519E+02  0.29791152430E+02  0.90416774703E+02  0.83541568549E+02 0.  0.
         13    1    3    3    0    0  0.14413694878E+02 -0.21913045842E+02 -0.22423862209E+02  0.34507635945E+02  0.10566000000E+00 0.  1.
         22    1    1    0    0    0  0.49222598955E+01  0.16859954519E+02 -0.29791152430E+02  0.34583225297E+02  0.00000000000E+00 0. -1.
</event>
<event>
 5    1  0.1691066E-003  0.9118800E+02  0.7818608E-02  0.1130116E+00
         25   -1    0    0    0    0  0.00000000000E+00  0.00000000000E+00  0.99999998245E-14  0.12500000000E+03  0.12500000000E+03 0.  0.
        -13    1    3    3    0    0 -0.10708444669E+02 -0.27887694588E+02 -0.19296117649E+02  0.35563262183E+02  0.10566000000E+00 0.  1.
         23    2    1    0    0    0  0.20787581243E+02  0.20725230163E+02 -0.50354701273E+01  0.95217208682E+02  0.90439494528E+02 0.  0.
         13    1    3    3    0    0  0.31496025913E+02  0.48612924752E+02  0.14260647522E+02  0.59653946500E+02  0.10566000000E+00 0. -1.
         22    1    1    0    0    0 -0.20787581243E+02 -0.20725230163E+02  0.50354701273E+01  0.29782791318E+02  0.00000000000E+00 0. -1.
</event>
<event>
 5    1  0.1691066E-003  0.9118800E+02  0.7818608E-02  0.1130116E+00
         25   -1    0    0    0    0  0.00000000000E+00  0.00000000000E+00  0.99999998245E-14  0.12500000000E+03  0.12500000000E+03 0.  0.
        -13    1    3    3    0    0 -0.12141628768E+02  0.23990505266E+02 -0.38088002352E+02  0.46622640200E+02  0.10566000000E+00 0.  1.
         23    2    1    0    0    0  0.25690889082E+02  0.90804291471E+01 -0.10324497736E+02  0.95861173173E+02  0.91325206232E+02 0.  0.
         13    1    3    3    0    0  0.37832517850E+02 -0.14910076119E+02  0.27763504616E+02  0.49238532973E+02  0.10566000000E+00 0. -1.
         22    1    1    0    0    0 -0.25690889082E+02 -0.90804291471E+01  0.10324497736E+02  0.29138826827E+02  0.00000000000E+00 0. -1.
</event>
<event>
 5    1  0.1691066E-003  0.9118800E+02  0.7818608E-02  0.1130116E+00
         25   -1    0    0    0    0  0.00000000000E+00  0.00000000000E+00  0.99999998245E-14  0.12500000000E+03  0.12500000000E+03 0.  0.
        -13    1    3    3    0    0  0.36263951741E+02  0.22420041116E+02 -0.21833339324E+02  0.47900295506E+02  0.10566000000E+00 0.  1.
         23    2    1    0    0    0  0.12161407297E+02  0.21700518028E+02  0.17882638098E+02  0.94363403331E+02  0.89251615295E+02 0.  0.
         13    1    3    3    0    0 -0.24102544444E+02 -0.71952308763E+00  0.39715977422E+02  0.46463107825E+02  0.10566000000E+00 0. -1.
         22    1    1    0    0    0 -0.12161407297E+02 -0.21700518028E+02 -0.17882638098E+02  0.30636596669E+02  0.00000000000E+00 0. -1.
</event>
<event>
 5    1  0.1691066E-003  0.9118800E+02  0.7818608E-02  0.1130116E+00
         25   -1    0    0    0    0  0.00000000000E+00  0.00000000000E+00  0.99999998245E-14  0.12500000000E+03  0.12500000000E+03 0.  0.
        -13    1    3    3    0    0 -0.27690069946E+02 -0.36432755722E+02  0.12188425511E+02  0.47356673696E+02  0.10566000000E+00 0.  1.
         23    2    1    0    0    0 -0.20254050885E+02  0.12466385860E+02  0.14972507728E+02  0.96896382060E+02  0.92731308170E+02 0.  0.
         13    1    3    3    0    0  0.74360190608E+01  0.48899141582E+02  0.27840822169E+01  0.49539708363E+02  0.10566000000E+00 0. -1.
         22    1    1    0    0    0  0.20254050885E+02 -0.12466385860E+02 -0.14972507728E+02  0.28103617940E+02  0.00000000000E+00 0. -1.
</event>
<event>
 5    1  0.1691066E-003  0.9118800E+02  0.7818608E-02  0.1130116E+00
         25   -1    0    0    0    0  0.00000000000E+00  0.00000000000E+00  0.99999998245E-14  0.12500000000E+03  0.12500000000E+03 0.  0.
        -13    1    3    3    0    0 -0.21427836355E+02  0.19053669088E+02 -0.13585972771E+02  0.31729864430E+02  0.10566000000E+00 0.  1.
         23    2    1    0    0    0 -0.56063017452E+01 -0.33820679429E+02  0.58084883903E+01  0.90229214652E+02  0.83260456779E+02 0.  0.
         13    1    3    3    0    0  0.15821534610E+02 -0.52874348518E+02  0.19394461161E+02  0.58499350222E+02  0.10566000000E+00 0. -1.
         22    1    1    0    0    0  0.56063017452E+01  0.33820679429E+02 -0.58084883903E+01  0.34770785348E+02  0.00000000000E+00 0. -1.
</event>
<event>
 5    1  0.1691066E-003  0.9118800E+02  0.7818608E-02  0.1130116E+00
         25   -1    0    0    0    0  0.00000000000E+00  0.00000000000E+00  0.99999998245E-14  0.12500000000E+03  0.12500000000E+03 0.  0.
        -13    1    3    3    0    0 -0.11224830654E+02  0.39289592523E+02 -0.16956306563E+02  0.44240212478E+02  0.10566000000E+00 0.  1.
         23    2    1    0    0    0 -0.26991674391E+02 -0.85911681278E+01 -0.31975652807E+01  0.96494157091E+02  0.92187522326E+02 0.  0.
         13    1    3    3    0    0 -0.15766843738E+02 -0.47880760650E+02  0.13758741282E+02  0.52253944613E+02  0.10566000000E+00 0. -1.
         22    1    1    0    0    0  0.26991674391E+02  0.85911681278E+01  0.31975652807E+01  0.28505842909E+02  0.00000000000E+00 0. -1.
</event>
<event>
 5    1  0.1691066E-003  0.9118800E+02  0.7818608E-02  0.1130116E+00
         25   -1    0    0    0    0  0.00000000000E+00  0.00000000000E+00  0.99999998245E-14  0.12500000000E+03  0.12500000000E+03 0.  0.
        -13    1    3    3    0    0 -0.16502538595E+02 -0.48956699069E+02  0.12381299631E+02  0.53126263829E+02  0.10566000000E+00 0.  1.
         23    2    1    0    0    0  0.87896800752E+01 -0.27958782020E+02 -0.11245271612E+02  0.93608789423E+02  0.88188419624E+02 0.  0.
         13    1    3    3    0    0  0.25292218670E+02  0.20997917050E+02 -0.23626571244E+02  0.40482525594E+02  0.10566000000E+00 0. -1.
         22    1    1    0    0    0 -0.87896800752E+01  0.27958782020E+02  0.11245271612E+02  0.31391210577E+02  0.00000000000E+00 0.  1.
</event>
<event>
 5    1  0.1691066E-003  0.9118800E+02  0.7818608E-02  0.1130116E+00
         25   -1    0    0    0    0  0.00000000000E+00  0.00000000000E+00  0.99999998245E-14  0.12500000000E+03  0.12500000000E+03 0.  0.
        -13    1    3    3    0    0 -0.11538180152E+02  0.30583639833E+02 -0.44940845019E+02  0.55571389596E+02  0.10566000000E+00 0.  1.
         23    2    1    0    0    0  0.33311656098E+01 -0.27192482091E+01 -0.29518606479E+02  0.95169828971E+02  0.90373985432E+02 0.  0.
         13    1    3    3    0    0  0.14869345762E+02 -0.33302888042E+02  0.15422238540E+02  0.39598439375E+02  0.10566000000E+00 0. -1.
         22    1    1    0    0    0 -0.33311656098E+01  0.27192482091E+01  0.29518606479E+02  0.29830171029E+02  0.00000000000E+00 0.  1.
</event>
<event>
 5    1  0.1691066E-003  0.9118800E+02  0.7818608E-02  0.1130116E+00
         25   -1    0    0    0    0  0.00000000000E+00  0.00000000000E+00  0.99999998245E-14  0.12500000000E+03  0.12500000000E+03 0.  0.
        -13    1    3    3    0    0  0.16933089158E+02 -0.35246536247E+02  0.10674625703E+02  0.40534018105E+02  0.10566000000E+00 0.  1.
         23    2    1    0    0    0  0.19901081762E+02  0.11203308385E+02 -0.18622852332E+02  0.95531749237E+02  0.90873193568E+02 0.  0.
         13    1    3    3    0    0  0.29679926038E+01  0.46449844632E+02 -0.29297478034E+02  0.54997731132E+02  0.10566000000E+00 0. -1.
         22    1    1    0    0    0 -0.19901081762E+02 -0.11203308385E+02  0.18622852332E+02  0.29468250763E+02  0.00000000000E+00 0. -1.
</event>
<event>
 5    1  0.1691066E-003  0.9118800E+02  0.7818608E-02  0.1130116E+00
         25   -1    0    0    0    0  0.00000000000E+00  0.00000000000E+00  0.99999998245E-14  0.12500000000E+03  0.12500000000E+03 0.  0.
        -13    1    3    3    0    0  0.48259027010E+02  0.26725513734E+02  0.11378804965E+02  0.56326504762E+02  0.10566000000E+00 0.  1.
         23    2    1    0    0    0  0.30636577164E+02  0.11106103987E+02 -0.12717705947E+02  0.90018784317E+02  0.82943933348E+02 0.  0.
         13    1    3    3    0    0 -0.17622449846E+02 -0.15619409747E+02 -0.24096510912E+02  0.33692279554E+02  0.10566000000E+00 0. -1.
         22    1    1    0    0    0 -0.30636577164E+02 -0.11106103987E+02  0.12717705947E+02  0.34981215683E+02  0.00000000000E+00 0.  1.
</event>
<event>
 5    1  0.1691066E-003  0.9118800E+02  0.7818608E-02  0.1130116E+00
         25   -1    0    0    0    0  0.00000000000E+00  0.00000000000E+00  0.99999998245E-14  0.12500000000E+03  0.12500000000E+03 0.  0.
        -13    1    3    3    0    0  0.19058306984E+02 -0.16000410585E+02 -0.36196562306E+02  0.43925328579E+02  0.10566000000E+00 0.  1.
         23    2    1    0    0    0  0.92917095053E+01 -0.22644932243E+02  0.14883159025E+02  0.96353233265E+02  0.91996240772E+02 0.  0.
         13    1    3    3    0    0 -0.97665974785E+01 -0.66445216587E+01  0.51079721331E+02  0.52427904685E+02  0.10566000000E+00 0. -1.
         22    1    1    0    0    0 -0.92917095053E+01  0.22644932243E+02 -0.14883159025E+02  0.28646766735E+02  0.00000000000E+00 0. -1.
</event>
<event>
 5    1  0.1691066E-003  0.9118800E+02  0.7818608E-02  0.1130116E+00
         25   -1    0    0    0    0  0.00000000000E+00  0.00000000000E+00  0.99999998245E-14  0.12500000000E+03  0.12500000000E+03 0.  0.
        -13    1    3    3    0    0 -0.13007629314E+02 -0.22881350316E+02 -0.28913071876E+02  0.39098996177E+02  0.10566000000E+00 0.  1.
         23    2    1    0    0    0  0.24646075545E+02 -0.11381931721E+02  0.11498105786E+02  0.95518075943E+02  0.90854383415E+02 0.  0.
         13    1    3    3    0    0  0.37653704859E+02  0.11499418595E+02  0.40411177662E+02  0.56419079766E+02  0.10566000000E+00 0. -1.
         22    1    1    0    0    0 -0.24646075545E+02  0.11381931721E+02 -0.11498105786E+02  0.29481924057E+02  0.00000000000E+00 0. -1.
</event>
<event>
 5    1  0.1691066E-003  0.9118800E+02  0.7818608E-02  0.1130116E+00
         25   -1    0    0    0    0  0.00000000000E+00  0.00000000000E+00  0.99999998245E-14  0.12500000000E+03  0.12500000000E+03 0.  0.
        -13    1    3    3    0    0  0.24073228597E+02  0.40844969877E+02  0.32377896488E+02  0.57412291753E+02  0.10566000000E+00 0.  1.
         23    2    1    0    0    0  0.90483884926E+01  0.60073298373E+01  0.27210200870E+02  0.95702280337E+02  0.91107464482E+02 0.  0.
         13    1    3    3    0    0 -0.15024840104E+02 -0.34837640040E+02 -0.51676956184E+01  0.38289988584E+02  0.10566000000E+00 0. -1.
         22    1    1    0    0    0 -0.90483884926E+01 -0.60073298373E+01 -0.27210200870E+02  0.29297719663E+02  0.00000000000E+00 0.  1.
</event>
<event>
 5    1  0.1691066E-003  0.9118800E+02  0.7818608E-02  0.1130116E+00
         25   -1    0    0    0    0  0.00000000000E+00  0.00000000000E+00  0.99999998245E-14  0.12500000000E+03  0.12500000000E+03 0.  0.
        -13    1    3    3    0    0  0.41659895271E+02  0.20598845947E+02  0.41777517041E+02  0.62491850848E+02  0.10566000000E+00 0.  1.
         23    2    1    0    0    0  0.19691303896E+02  0.99491896232E+01  0.18911776460E+02  0.95941625783E+02  0.91435258220E+02 0.  0.
         13    1    3    3    0    0 -0.21968591374E+02 -0.10649656323E+02 -0.22865740582E+02  0.33449774934E+02  0.10566000000E+00 0. -1.
         22    1    1    0    0    0 -0.19691303896E+02 -0.99491896232E+01 -0.18911776460E+02  0.29058374217E+02  0.00000000000E+00 0.  1.
</event>
<event>
 5    1  0.1691066E-003  0.9118800E+02  0.7818608E-02  0.1130116E+00
         25   -1    0    0    0    0  0.00000000000E+00  0.00000000000E+00  0.99999998245E-14  0.12500000000E+03  0.12500000000E+03 0.  0.
        -13    1    3    3    0    0 -0.30764069666E+02  0.51809913018E+02 -0.11964703902E+02  0.61431753782E+02  0.10566000000E+00 0.  1.
         23    2    1    0    0    0 -0.22102307083E+02  0.21224452184E+02 -0.57233492691E+01  0.93827158042E+02  0.88497398326E+02 0.  0.
         13    1    3    3    0    0  0.86617625833E+01 -0.30585460834E+02  0.62413546325E+01  0.32395404260E+02  0.10566000000E+00 0. -1.
         22    1    1    0    0    0  0.22102307083E+02 -0.21224452184E+02  0.57233492691E+01  0.31172841958E+02  0.00000000000E+00 0.  1.
</event>
<event>
 5    1  0.1691066E-003  0.9118800E+02  0.7818608E-02  0.1130116E+00
         25   -1    0    0    0    0  0.00000000000E+00  0.00000000000E+00  0.99999998245E-14  0.12500000000E+03  0.12500000000E+03 0.  0.
        -13    1    3    3    0    0 -0.17344598564E+02  0.34061573743E+02 -0.53875023133E+00  0.38227311193E+02  0.10566000000E+00 0. -1.
         23    2    1    0    0    0 -0.30866208372E+02 -0.15914383607E+02  0.31408401440E+01  0.90130883268E+02  0.83112699494E+02 0.  0.
         13    1    3    3    0    0 -0.13521609808E+02 -0.49975957350E+02  0.36795903753E+01  0.51903572076E+02  0.10566000000E+00 0.  1.
         22    1    1    0    0    0  0.30866208372E+02  0.15914383607E+02 -0.31408401440E+01  0.34869116732E+02  0.00000000000E+00 0. -1.
</event>
<event>
 5    1  0.1691066E-003  0.9118800E+02  0.7818608E-02  0.1130116E+00
         25   -1    0    0    0    0  0.00000000000E+00  0.00000000000E+00  0.99999998245E-14  0.12500000000E+03  0.12500000000E+03 0.  0.
        -13    1    3    3    0    0 -0.16632225262E+02  0.34672664315E+02  0.49214611080E+02  0.62457294815E+02  0.10566000000E+00 0.  1.
         23    2    1    0    0    0 -0.97853564682E+01  0.17826991769E+02  0.27907692578E+02  0.90468939464E+02  0.83619584225E+02 0.  0.
         13    1    3    3    0    0  0.68468687941E+01 -0.16845672546E+02 -0.21306918502E+02  0.28011644648E+02  0.10566000000E+00 0. -1.
         22    1    1    0    0    0  0.97853564682E+01 -0.17826991769E+02 -0.27907692578E+02  0.34531060536E+02  0.00000000000E+00 0.  1.
</event>
<event>
 5    1  0.1691066E-003  0.9118800E+02  0.7818608E-02  0.1130116E+00
         25   -1    0    0    0    0  0.00000000000E+00  0.00000000000E+00  0.99999998245E-14  0.12500000000E+03  0.12500000000E+03 0.  0.
        -13    1    3    3    0    0  0.52356492630E+02 -0.92474030793E+01 -0.31141010297E+02  0.61615667412E+02  0.10566000000E+00 0. -1.
         23    2    1    0    0    0  0.28684907502E+02 -0.10514994604E+02 -0.11659686892E+02  0.92299276333E+02  0.86312334480E+02 0.  0.
         13    1    3    3    0    0 -0.23671585129E+02 -0.12675915243E+01  0.19481323405E+02  0.30683608921E+02  0.10566000000E+00 0.  1.
         22    1    1    0    0    0 -0.28684907502E+02  0.10514994604E+02  0.11659686892E+02  0.32700723667E+02  0.00000000000E+00 0. -1.
</event>
<event>
 5    1  0.1691066E-003  0.9118800E+02  0.7818608E-02  0.1130116E+00
         25   -1    0    0    0    0  0.00000000000E+00  0.00000000000E+00  0.99999998245E-14  0.12500000000E+03  0.12500000000E+03 0.  0.
        -13    1    3    3    0    0  0.13066513306E+02 -0.38160573115E+02 -0.33146586043E+01  0.40471733792E+02  0.10566000000E+00 0.  1.
         23    2    1    0    0    0  0.16818672104E+01  0.82445400730E+01  0.26772268148E+02  0.96936581460E+02  0.92785480357E+02 0.  0.
         13    1    3    3    0    0 -0.11384646095E+02  0.46405113188E+02  0.30086926753E+02  0.56464847668E+02  0.10566000000E+00 0. -1.
         22    1    1    0    0    0 -0.16818672104E+01 -0.82445400730E+01 -0.26772268148E+02  0.28063418540E+02  0.00000000000E+00 0. -1.
</event>
<event>
 5    1  0.1691066E-003  0.9118800E+02  0.7818608E-02  0.1130116E+00
         25   -1    0    0    0    0  0.00000000000E+00  0.00000000000E+00  0.99999998245E-14  0.12500000000E+03  0.12500000000E+03 0.  0.
        -13    1    3    3    0    0  0.25978912626E+02  0.19341638627E+02 -0.33160349414E+01  0.32557796881E+02  0.10566000000E+00 0. -1.
         23    2    1    0    0    0  0.15026933888E+02 -0.34353947411E+02  0.59714615856E+00  0.87498546317E+02  0.79054642996E+02 0.  0.
         13    1    3    3    0    0 -0.10951978738E+02 -0.53695586038E+02  0.39131810999E+01  0.54940749436E+02  0.10566000000E+00 0.  1.
         22    1    1    0    0    0 -0.15026933888E+02  0.34353947411E+02 -0.59714615856E+00  0.37501453683E+02  0.00000000000E+00 0.  1.
</event>
<event>
 5    1  0.1691066E-003  0.9118800E+02  0.7818608E-02  0.1130116E+00
         25   -1    0    0    0    0  0.00000000000E+00  0.00000000000E+00  0.99999998245E-14  0.12500000000E+03  0.12500000000E+03 0.  0.
        -13    1    3    3    0    0 -0.50821494801E+01 -0.61013680184E+02 -0.12007248826E+02  0.62391366400E+02  0.10566000000E+00 0. -1.
         23    2    1    0    0    0 -0.42137525948E+01 -0.30511997708E+02 -0.39913987073E+01  0.93940879300E+02  0.88657880783E+02 0.  0.
         13    1    3    3    0    0  0.86839688527E+00  0.30501682476E+02  0.80158501185E+01  0.31549512899E+02  0.10566000000E+00 0.  1.
         22    1    1    0    0    0  0.42137525948E+01  0.30511997708E+02  0.39913987073E+01  0.31059120700E+02  0.00000000000E+00 0. -1.
</event>
<event>
 5    1  0.1691066E-003  0.9118800E+02  0.7818608E-02  0.1130116E+00
         25   -1    0    0    0    0  0.00000000000E+00  0.00000000000E+00  0.99999998245E-14  0.12500000000E+03  0.12500000000E+03 0.  0.
        -13    1    3    3    0    0 -0.31048991240E+02  0.13090710885E+02  0.44460026620E+02  0.55786303871E+02  0.10566000000E+00 0. -1.
         23    2    1    0    0    0  0.44792378663E+01  0.11819598448E+01  0.27838825286E+02  0.96778363012E+02  0.92572084092E+02 0.  0.
         13    1    3    3    0    0  0.35528229107E+02 -0.11908751040E+02 -0.16621201334E+02  0.40992059141E+02  0.10566000000E+00 0.  1.
         22    1    1    0    0    0 -0.44792378663E+01 -0.11819598448E+01 -0.27838825286E+02  0.28221636988E+02  0.00000000000E+00 0. -1.
</event>
<event>
 5    1  0.1691066E-003  0.9118800E+02  0.7818608E-02  0.1130116E+00
         25   -1    0    0    0    0  0.00000000000E+00  0.00000000000E+00  0.99999998245E-14  0.12500000000E+03  0.12500000000E+03 0.  0.
        -13    1    3    3    0    0  0.19406201845E+02 -0.29741640939E+02 -0.11418541868E+02  0.37303620979E+02  0.10566000000E+00 0. -1.
         23    2    1    0    0    0  0.11235860499E+02  0.22974627710E+02  0.13385449803E+02  0.96133958602E+02  0.91697817043E+02 0.  0.
         13    1    3    3    0    0 -0.81703413458E+01  0.52716268649E+02  0.24803991671E+02  0.58830337623E+02  0.10566000000E+00 0.  1.
         22    1    1    0    0    0 -0.11235860499E+02 -0.22974627710E+02 -0.13385449803E+02  0.28866041398E+02  0.00000000000E+00 0. -1.
</event>
<event>
 5    1  0.1691066E-003  0.9118800E+02  0.7818608E-02  0.1130116E+00
         25   -1    0    0    0    0  0.00000000000E+00  0.00000000000E+00  0.99999998245E-14  0.12500000000E+03  0.12500000000E+03 0.  0.
        -13    1    3    3    0    0  0.40334580245E+02  0.33502111646E+02  0.29677071130E+02  0.60249560688E+02  0.10566000000E+00 0.  1.
         23    2    1    0    0    0  0.87581725409E+01  0.19150269107E+02  0.19253195916E+02  0.96467142693E+02  0.92150885364E+02 0.  0.
         13    1    3    3    0    0 -0.31576407704E+02 -0.14351842539E+02 -0.10423875214E+02  0.36217582005E+02  0.10566000000E+00 0. -1.
         22    1    1    0    0    0 -0.87581725409E+01 -0.19150269107E+02 -0.19253195916E+02  0.28532857307E+02  0.00000000000E+00 0.  1.
</event>
<event>
 5    1  0.1691066E-003  0.9118800E+02  0.7818608E-02  0.1130116E+00
         25   -1    0    0    0    0  0.00000000000E+00  0.00000000000E+00  0.99999998245E-14  0.12500000000E+03  0.12500000000E+03 0.  0.
        -13    1    3    3    0    0  0.18123466658E+00 -0.52419238943E+02 -0.46460139404E+01  0.52625146717E+02  0.10566000000E+00 0.  1.
         23    2    1    0    0    0 -0.12218477732E+02 -0.18280196042E+02  0.18979252571E+02  0.95954022764E+02  0.91452204408E+02 0.  0.
         13    1    3    3    0    0 -0.12399712399E+02  0.34139042901E+02  0.23625266511E+02  0.43328876047E+02  0.10566000000E+00 0. -1.
         22    1    1    0    0    0  0.12218477732E+02  0.18280196042E+02 -0.18979252571E+02  0.29045977236E+02  0.00000000000E+00 0.  1.
</event>
<event>
 5    1  0.1691066E-003  0.9118800E+02  0.7818608E-02  0.1130116E+00
         25   -1    0    0    0    0  0.00000000000E+00  0.00000000000E+00  0.99999998245E-14  0.12500000000E+03  0.12500000000E+03 0.  0.
        -13    1    3    3    0    0  0.17406976812E+02  0.44030164940E+02  0.22882450056E+02  0.52585891178E+02  0.10566000000E+00 0. -1.
         23    2    1    0    0    0  0.12553449659E+02  0.22315021099E+02 -0.14118155939E+02  0.95761812777E+02  0.91189106774E+02 0.  0.
         13    1    3    3    0    0 -0.48535271530E+01 -0.21715143841E+02 -0.37000605995E+02  0.43175921599E+02  0.10566000000E+00 0.  1.
         22    1    1    0    0    0 -0.12553449659E+02 -0.22315021099E+02  0.14118155939E+02  0.29238187223E+02  0.00000000000E+00 0. -1.
</event>
<event>
 5    1  0.1691066E-003  0.9118800E+02  0.7818608E-02  0.1130116E+00
         25   -1    0    0    0    0  0.00000000000E+00  0.00000000000E+00  0.99999998245E-14  0.12500000000E+03  0.12500000000E+03 0.  0.
        -13    1    3    3    0    0 -0.28122162638E+01 -0.31626457828E+01 -0.59334974930E+02  0.59485807573E+02  0.10566000000E+00 0. -1.
         23    2    1    0    0    0 -0.71780225634E+01 -0.14169715513E+02 -0.32043626896E+02  0.89235508248E+02  0.81754981878E+02 0.  0.
         13    1    3    3    0    0 -0.43658062996E+01 -0.11007069730E+02  0.27291348034E+02  0.29749700674E+02  0.10566000000E+00 0.  1.
         22    1    1    0    0    0  0.71780225634E+01  0.14169715513E+02  0.32043626896E+02  0.35764491752E+02  0.00000000000E+00 0. -1.
</event>
<event>
 5    1  0.1691066E-003  0.9118800E+02  0.7818608E-02  0.1130116E+00
         25   -1    0    0    0    0  0.00000000000E+00  0.00000000000E+00  0.99999998245E-14  0.12500000000E+03  0.12500000000E+03 0.  0.
        -13    1    3    3    0    0 -0.34426918337E+02 -0.68503816239E+01 -0.37841975758E+02  0.51615566720E+02  0.10566000000E+00 0. -1.
         23    2    1    0    0    0 -0.16318088706E+01 -0.25194782669E+02 -0.13776628638E+02  0.96238300284E+02  0.91839942677E+02 0.  0.
         13    1    3    3    0    0  0.32795109466E+02 -0.18344401045E+02  0.24065347120E+02  0.44622733563E+02  0.10566000000E+00 0.  1.
         22    1    1    0    0    0  0.16318088706E+01  0.25194782669E+02  0.13776628638E+02  0.28761699716E+02  0.00000000000E+00 0. -1.
</event>
<event>
 5    1  0.1691066E-003  0.9118800E+02  0.7818608E-02  0.1130116E+00
         25   -1    0    0    0    0  0.00000000000E+00  0.00000000000E+00  0.99999998245E-14  0.12500000000E+03  0.12500000000E+03 0.  0.
        -13    1    3    3    0    0  0.19737232785E+02 -0.38673888556E+02  0.26041230502E+02  0.50629881139E+02  0.10566000000E+00 0. -1.
         23    2    1    0    0    0 -0.14715413223E+02 -0.11096246809E+02  0.23908972740E+02  0.94812104130E+02  0.89877839496E+02 0.  0.
         13    1    3    3    0    0 -0.34452646007E+02  0.27577641747E+02 -0.21322577620E+01  0.44182222991E+02  0.10566000000E+00 0.  1.
         22    1    1    0    0    0  0.14715413223E+02  0.11096246809E+02 -0.23908972740E+02  0.30187895870E+02  0.00000000000E+00 0.  1.
</event>
<event>
 5    1  0.1691066E-003  0.9118800E+02  0.7818608E-02  0.1130116E+00
         25   -1    0    0    0    0  0.00000000000E+00  0.00000000000E+00  0.99999998245E-14  0.12500000000E+03  0.12500000000E+03 0.  0.
        -13    1    3    3    0    0 -0.15951028645E+02  0.14348711742E+02 -0.26080963150E+02  0.33772009806E+02  0.10566000000E+00 0.  1.
         23    2    1    0    0    0  0.12730993410E+02 -0.20229145519E+02  0.16726674033E+02  0.95826756337E+02  0.91278086550E+02 0.  0.
         13    1    3    3    0    0  0.28682022054E+02 -0.34577857261E+02  0.42807637182E+02  0.62054746531E+02  0.10566000000E+00 0. -1.
         22    1    1    0    0    0 -0.12730993410E+02  0.20229145519E+02 -0.16726674033E+02  0.29173243663E+02  0.00000000000E+00 0. -1.
</event>
<event>
 5    1  0.1691066E-003  0.9118800E+02  0.7818608E-02  0.1130116E+00
         25   -1    0    0    0    0  0.00000000000E+00  0.00000000000E+00  0.99999998245E-14  0.12500000000E+03  0.12500000000E+03 0.  0.
        -13    1    3    3    0    0 -0.54004992103E+02 -0.14144971945E+02  0.16477600845E+01  0.55851102770E+02  0.10566000000E+00 0.  1.
         23    2    1    0    0    0 -0.29736329873E+02 -0.21631621798E+02 -0.13967193882E+02  0.85664788283E+02  0.76099915051E+02 0.  0.
         13    1    3    3    0    0  0.24268662230E+02 -0.74866498527E+01 -0.15614953966E+02  0.29813685512E+02  0.10566000000E+00 0. -1.
         22    1    1    0    0    0  0.29736329873E+02  0.21631621798E+02  0.13967193882E+02  0.39335211717E+02  0.00000000000E+00 0.  1.
</event>
<event>
 5    1  0.1691066E-003  0.9118800E+02  0.7818608E-02  0.1130116E+00
         25   -1    0    0    0    0  0.00000000000E+00  0.00000000000E+00  0.99999998245E-14  0.12500000000E+03  0.12500000000E+03 0.  0.
        -13    1    3    3    0    0 -0.45054543160E+02 -0.31583445223E+02  0.27590075494E+02  0.61552004853E+02  0.10566000000E+00 0.  1.
         23    2    1    0    0    0 -0.18590591998E+02 -0.14943262879E+02  0.20364663010E+02  0.93637112445E+02  0.88228556098E+02 0.  0.
         13    1    3    3    0    0  0.26463951163E+02  0.16640182344E+02 -0.72254124843E+01  0.32085107592E+02  0.10566000000E+00 0. -1.
         22    1    1    0    0    0  0.18590591998E+02  0.14943262879E+02 -0.20364663010E+02  0.31362887555E+02  0.00000000000E+00 0.  1.
</event>
<event>
 5    1  0.1691066E-003  0.9118800E+02  0.7818608E-02  0.1130116E+00
         25   -1    0    0    0    0  0.00000000000E+00  0.00000000000E+00  0.99999998245E-14  0.12500000000E+03  0.12500000000E+03 0.  0.
        -13    1    3    3    0    0 -0.46604138843E+02  0.25444482986E+02 -0.22412230594E+02  0.57634075997E+02  0.10566000000E+00 0.  1.
         23    2    1    0    0    0 -0.30406044520E+02  0.10763570882E+01 -0.22933805448E+02  0.86899533858E+02  0.78101750713E+02 0.  0.
         13    1    3    3    0    0  0.16198094324E+02 -0.24368125897E+02 -0.52157485421E+00  0.29265457861E+02  0.10566000000E+00 0. -1.
         22    1    1    0    0    0  0.30406044520E+02 -0.10763570882E+01  0.22933805448E+02  0.38100466142E+02  0.00000000000E+00 0.  1.
</event>
<event>
 5    1  0.1691066E-003  0.9118800E+02  0.7818608E-02  0.1130116E+00
         25   -1    0    0    0    0  0.00000000000E+00  0.00000000000E+00  0.99999998245E-14  0.12500000000E+03  0.12500000000E+03 0.  0.
        -13    1    3    3    0    0  0.18204653534E+02  0.24635188982E+02 -0.47300519673E+02  0.56352926027E+02  0.10566000000E+00 0. -1.
         23    2    1    0    0    0  0.96753496337E+01  0.22031514156E+02 -0.39448738123E+01  0.10061635721E+03  0.97617054357E+02 0.  0.
         13    1    3    3    0    0 -0.85293039001E+01 -0.26036748259E+01  0.43355645861E+02  0.44263431178E+02  0.10566000000E+00 0.  1.
         22    1    1    0    0    0 -0.96753496337E+01 -0.22031514156E+02  0.39448738123E+01  0.24383642795E+02  0.00000000000E+00 0. -1.
</event>
<event>
 5    1  0.1691066E-003  0.9118800E+02  0.7818608E-02  0.1130116E+00
         25   -1    0    0    0    0  0.00000000000E+00  0.00000000000E+00  0.99999998245E-14  0.12500000000E+03  0.12500000000E+03 0.  0.
        -13    1    3    3    0    0  0.11880185951E+02 -0.68719722101E+01 -0.38527750894E+02  0.40899407982E+02  0.10566000000E+00 0.  1.
         23    2    1    0    0    0 -0.18817476739E+02  0.22863605585E+02 -0.55708736543E+01  0.94869010563E+02  0.89956948819E+02 0.  0.
         13    1    3    3    0    0 -0.30697662690E+02  0.29735577795E+02  0.32956877240E+02  0.53969602582E+02  0.10566000000E+00 0. -1.
         22    1    1    0    0    0  0.18817476739E+02 -0.22863605585E+02  0.55708736543E+01  0.30130989437E+02  0.00000000000E+00 0. -1.
</event>
<event>
 5    1  0.1691066E-003  0.9118800E+02  0.7818608E-02  0.1130116E+00
         25   -1    0    0    0    0  0.00000000000E+00  0.00000000000E+00  0.99999998245E-14  0.12500000000E+03  0.12500000000E+03 0.  0.
        -13    1    3    3    0    0 -0.11218274471E+02  0.69290192322E+01  0.32457870518E+02  0.35034062171E+02  0.10566000000E+00 0.  1.
         23    2    1    0    0    0  0.19725030433E+02 -0.97219823146E+01 -0.18041198138E+02  0.96555693083E+02  0.92270923215E+02 0.  0.
         13    1    3    3    0    0  0.30943304904E+02 -0.16651001547E+02 -0.50499068656E+02  0.61521630912E+02  0.10566000000E+00 0. -1.
         22    1    1    0    0    0 -0.19725030433E+02  0.97219823146E+01  0.18041198138E+02  0.28444306917E+02  0.00000000000E+00 0. -1.
</event>
<event>
 5    1  0.1691066E-003  0.9118800E+02  0.7818608E-02  0.1130116E+00
         25   -1    0    0    0    0  0.00000000000E+00  0.00000000000E+00  0.99999998245E-14  0.12500000000E+03  0.12500000000E+03 0.  0.
        -13    1    3    3    0    0  0.33360401544E+02  0.26698343684E+02 -0.29247674105E+02  0.51779875929E+02  0.10566000000E+00 0. -1.
         23    2    1    0    0    0  0.88018009761E+01  0.37506847432E+02 -0.88869142898E+01  0.85462517147E+02  0.75766940593E+02 0.  0.
         13    1    3    3    0    0 -0.24558600568E+02  0.10808503748E+02  0.20360759815E+02  0.33682641218E+02  0.10566000000E+00 0.  1.
         22    1    1    0    0    0 -0.88018009761E+01 -0.37506847432E+02  0.88869142898E+01  0.39537482853E+02  0.00000000000E+00 0. -1.
</event>
<event>
 5    1  0.1691066E-003  0.9118800E+02  0.7818608E-02  0.1130116E+00
         25   -1    0    0    0    0  0.00000000000E+00  0.00000000000E+00  0.99999998245E-14  0.12500000000E+03  0.12500000000E+03 0.  0.
        -13    1    3    3    0    0  0.47390328411E+02 -0.75690335579E+01 -0.41384269652E+00  0.47992873698E+02  0.10566000000E+00 0.  1.
         23    2    1    0    0    0  0.77921828943E+01  0.34222511501E+01  0.26533226339E+02  0.97135290830E+02  0.93052795269E+02 0.  0.
         13    1    3    3    0    0 -0.39598145517E+02  0.10991284708E+02  0.26947069036E+02  0.49142417132E+02  0.10566000000E+00 0. -1.
         22    1    1    0    0    0 -0.77921828943E+01 -0.34222511501E+01 -0.26533226339E+02  0.27864709170E+02  0.00000000000E+00 0. -1.
</event>
<event>
 5    1  0.1691066E-003  0.9118800E+02  0.7818608E-02  0.1130116E+00
         25   -1    0    0    0    0  0.00000000000E+00  0.00000000000E+00  0.99999998245E-14  0.12500000000E+03  0.12500000000E+03 0.  0.
        -13    1    3    3    0    0 -0.14292813504E+02  0.24526860346E+02 -0.28405386159E+02  0.40158791356E+02  0.10566000000E+00 0.  1.
         23    2    1    0    0    0 -0.30773927245E+01 -0.11220211317E+02  0.20297241552E+02  0.10160466921E+03  0.98874502797E+02 0.  0.
         13    1    3    3    0    0  0.11215420780E+02 -0.35747071662E+02  0.48702627712E+02  0.61445877858E+02  0.10566000000E+00 0. -1.
         22    1    1    0    0    0  0.30773927245E+01  0.11220211317E+02 -0.20297241552E+02  0.23395330786E+02  0.00000000000E+00 0. -1.
</event>
<event>
 5    1  0.1691066E-003  0.9118800E+02  0.7818608E-02  0.1130116E+00
         25   -1    0    0    0    0  0.00000000000E+00  0.00000000000E+00  0.99999998245E-14  0.12500000000E+03  0.12500000000E+03 0.  0.
        -13    1    3    3    0    0  0.39498999835E+02  0.16804926864E+02 -0.25916804912E+02  0.50142481946E+02  0.10566000000E+00 0. -1.
         23    2    1    0    0    0  0.17036518508E+02  0.19157098942E+02  0.13839516359E+02  0.95866349082E+02  0.91332290404E+02 0.  0.
         13    1    3    3    0    0 -0.22462481326E+02  0.23521720785E+01  0.39756321271E+02  0.45723867136E+02  0.10566000000E+00 0.  1.
         22    1    1    0    0    0 -0.17036518508E+02 -0.19157098942E+02 -0.13839516359E+02  0.29133650918E+02  0.00000000000E+00 0.  1.
</event>
<event>
 5    1  0.1691066E-003  0.9118800E+02  0.7818608E-02  0.1130116E+00
         25   -1    0    0    0    0  0.00000000000E+00  0.00000000000E+00  0.99999998245E-14  0.12500000000E+03  0.12500000000E+03 0.  0.
        -13    1    3    3    0    0 -0.15644075945E+02 -0.11670220141E+02  0.30093797426E+02  0.35868913531E+02  0.10566000000E+00 0.  1.
         23    2    1    0    0    0  0.16595637269E+02 -0.21792294702E+02 -0.16194259647E+02  0.93179042594E+02  0.87577169676E+02 0.  0.
         13    1    3    3    0    0  0.32239713214E+02 -0.10122074561E+02 -0.46288057074E+02  0.57310129063E+02  0.10566000000E+00 0. -1.
         22    1    1    0    0    0 -0.16595637269E+02  0.21792294702E+02  0.16194259647E+02  0.31820957406E+02  0.00000000000E+00 0. -1.
</event>
<event>
 5    1  0.1691066E-003  0.9118800E+02  0.7818608E-02  0.1130116E+00
         25   -1    0    0    0    0  0.00000000000E+00  0.00000000000E+00  0.99999998245E-14  0.12500000000E+03  0.12500000000E+03 0.  0.
        -13    1    3    3    0    0 -0.13358254001E+02 -0.12981048363E+01 -0.38794089418E+02  0.41050220023E+02  0.10566000000E+00 0. -1.
         23    2    1    0    0    0  0.28878421471E+02 -0.40148580437E+01 -0.45537664558E+01  0.95490355802E+02  0.90816237262E+02 0.  0.
         13    1    3    3    0    0  0.42236675472E+02 -0.27167532074E+01  0.34240322963E+02  0.54440135778E+02  0.10566000000E+00 0.  1.
         22    1    1    0    0    0 -0.28878421471E+02  0.40148580437E+01  0.45537664558E+01  0.29509644198E+02  0.00000000000E+00 0.  1.
</event>
<event>
 5    1  0.1691066E-003  0.9118800E+02  0.7818608E-02  0.1130116E+00
         25   -1    0    0    0    0  0.00000000000E+00  0.00000000000E+00  0.99999998245E-14  0.12500000000E+03  0.12500000000E+03 0.  0.
        -13    1    3    3    0    0 -0.15845687873E+02 -0.49144587357E+02  0.18323044940E+02  0.54790705696E+02  0.10566000000E+00 0.  1.
         23    2    1    0    0    0  0.49866377547E+01 -0.26634336298E+02 -0.95842142856E+01  0.96257842989E+02  0.91866537691E+02 0.  0.
         13    1    3    3    0    0  0.20832325628E+02  0.22510251059E+02 -0.27907259226E+02  0.41467137294E+02  0.10566000000E+00 0. -1.
         22    1    1    0    0    0 -0.49866377547E+01  0.26634336298E+02  0.95842142856E+01  0.28742157011E+02  0.00000000000E+00 0. -1.
</event>
<event>
 5    1  0.1691066E-003  0.9118800E+02  0.7818608E-02  0.1130116E+00
         25   -1    0    0    0    0  0.00000000000E+00  0.00000000000E+00  0.99999998245E-14  0.12500000000E+03  0.12500000000E+03 0.  0.
        -13    1    3    3    0    0 -0.54675895747E+01  0.46304712244E+02  0.69332516059E+01  0.47139177482E+02  0.10566000000E+00 0. -1.
         23    2    1    0    0    0  0.24804637720E+02  0.53341519284E+01  0.88844357260E+01  0.98117730242E+02  0.94363300919E+02 0.  0.
         13    1    3    3    0    0  0.30272227294E+02 -0.40970560316E+02  0.19511841201E+01  0.50978552760E+02  0.10566000000E+00 0.  1.
         22    1    1    0    0    0 -0.24804637720E+02 -0.53341519284E+01 -0.88844357260E+01  0.26882269758E+02  0.00000000000E+00 0. -1.
</event>
<event>
 5    1  0.1691066E-003  0.9118800E+02  0.7818608E-02  0.1130116E+00
         25   -1    0    0    0    0  0.00000000000E+00  0.00000000000E+00  0.99999998245E-14  0.12500000000E+03  0.12500000000E+03 0.  0.
        -13    1    3    3    0    0  0.31155938470E+02 -0.34845656506E+02 -0.40845265795E+02  0.62074625904E+02  0.10566000000E+00 0. -1.
         23    2    1    0    0    0  0.11677839136E+02 -0.20741013594E+02 -0.19510543679E+02  0.94223013688E+02  0.89054777648E+02 0.  0.
         13    1    3    3    0    0 -0.19478099334E+02  0.14104642911E+02  0.21334722115E+02  0.32148387784E+02  0.10566000000E+00 0.  1.
         22    1    1    0    0    0 -0.11677839136E+02  0.20741013594E+02  0.19510543679E+02  0.30776986312E+02  0.00000000000E+00 0. -1.
</event>
<event>
 5    1  0.1691066E-003  0.9118800E+02  0.7818608E-02  0.1130116E+00
         25   -1    0    0    0    0  0.00000000000E+00  0.00000000000E+00  0.99999998245E-14  0.12500000000E+03  0.12500000000E+03 0.  0.
        -13    1    3    3    0    0  0.21856773628E+02  0.34592936393E+02 -0.28880016408E+02  0.50084491747E+02  0.10566000000E+00 0.  1.
         23    2    1    0    0    0  0.25447962219E+02 -0.65958641423E+01 -0.38104278100E+01  0.98436424092E+02  0.94784524175E+02 0.  0.
         13    1    3    3    0    0  0.35911885913E+01 -0.41188800536E+02  0.25069588598E+02  0.48351932346E+02  0.10566000000E+00 0. -1.
         22    1    1    0    0    0 -0.25447962219E+02  0.65958641423E+01  0.38104278100E+01  0.26563575908E+02  0.00000000000E+00 0.  1.
</event>
<event>
 5    1  0.1691066E-003  0.9118800E+02  0.7818608E-02  0.1130116E+00
         25   -1    0    0    0    0  0.00000000000E+00  0.00000000000E+00  0.99999998245E-14  0.12500000000E+03  0.12500000000E+03 0.  0.
        -13    1    3    3    0    0  0.66024391384E+01 -0.55289277874E+02  0.23058289836E+02  0.60267672467E+02  0.10566000000E+00 0. -1.
         23    2    1    0    0    0  0.13444643923E+02 -0.21872646139E+02  0.14808141135E+02  0.95361306655E+02  0.90638439217E+02 0.  0.
         13    1    3    3    0    0  0.68422047850E+01  0.33416631735E+02 -0.82501487015E+01  0.35093634188E+02  0.10566000000E+00 0.  1.
         22    1    1    0    0    0 -0.13444643923E+02  0.21872646139E+02 -0.14808141135E+02  0.29638693345E+02  0.00000000000E+00 0. -1.
</event>
<event>
 5    1  0.1691066E-003  0.9118800E+02  0.7818608E-02  0.1130116E+00
         25   -1    0    0    0    0  0.00000000000E+00  0.00000000000E+00  0.99999998245E-14  0.12500000000E+03  0.12500000000E+03 0.  0.
        -13    1    3    3    0    0 -0.36495218044E+02  0.12898053757E+02 -0.48452537224E+02  0.62015484020E+02  0.10566000000E+00 0. -1.
         23    2    1    0    0    0 -0.11712717855E+02  0.84159197528E+01 -0.23215840794E+02  0.97668868874E+02  0.93766823656E+02 0.  0.
         13    1    3    3    0    0  0.24782500188E+02 -0.44821340038E+01  0.25236696430E+02  0.35653384854E+02  0.10566000000E+00 0.  1.
         22    1    1    0    0    0  0.11712717855E+02 -0.84159197528E+01  0.23215840794E+02  0.27331131126E+02  0.00000000000E+00 0. -1.
</event>
<event>
 5    1  0.1691066E-003  0.9118800E+02  0.7818608E-02  0.1130116E+00
         25   -1    0    0    0    0  0.00000000000E+00  0.00000000000E+00  0.99999998245E-14  0.12500000000E+03  0.12500000000E+03 0.  0.
        -13    1    3    3    0    0 -0.21135073432E+02 -0.20493044574E+02  0.45877113188E+02  0.54510337399E+02  0.10566000000E+00 0.  1.
         23    2    1    0    0    0  0.12281142376E+02 -0.81361247793E+01  0.25490769096E+02  0.95558493693E+02  0.90909974279E+02 0.  0.
         13    1    3    3    0    0  0.33416215808E+02  0.12356919794E+02 -0.20386344092E+02  0.41048156294E+02  0.10566000000E+00 0. -1.
         22    1    1    0    0    0 -0.12281142376E+02  0.81361247793E+01 -0.25490769096E+02  0.29441506307E+02  0.00000000000E+00 0.  1.
</event>
<event>
 5    1  0.1691066E-003  0.9118800E+02  0.7818608E-02  0.1130116E+00
         25   -1    0    0    0    0  0.00000000000E+00  0.00000000000E+00  0.99999998245E-14  0.12500000000E+03  0.12500000000E+03 0.  0.
        -13    1    3    3    0    0  0.34799518533E+02  0.36100314220E+02 -0.66113618349E+01  0.50576283436E+02  0.10566000000E+00 0. -1.
         23    2    1    0    0    0  0.15274830791E+02  0.20405592310E+02  0.23902970965E+02  0.90056321399E+02  0.83000484033E+02 0.  0.
         13    1    3    3    0    0 -0.19524687742E+02 -0.15694721910E+02  0.30514332800E+02  0.39480037962E+02  0.10566000000E+00 0.  1.
         22    1    1    0    0    0 -0.15274830791E+02 -0.20405592310E+02 -0.23902970965E+02  0.34943678601E+02  0.00000000000E+00 0. -1.
</event>
<event>
 5    1  0.1691066E-003  0.9118800E+02  0.7818608E-02  0.1130116E+00
         25   -1    0    0    0    0  0.00000000000E+00  0.00000000000E+00  0.99999998245E-14  0.12500000000E+03  0.12500000000E+03 0.  0.
        -13    1    3    3    0    0  0.32083476923E+02 -0.21060176833E+02 -0.40200562166E+00  0.38380376656E+02  0.10566000000E+00 0. -1.
         23    2    1    0    0    0 -0.40089155653E+01  0.18884133245E+02 -0.21412214467E+02  0.96170070746E+02  0.91747030941E+02 0.  0.
         13    1    3    3    0    0 -0.36092392488E+02  0.39944310079E+02 -0.21010208845E+02  0.57789694089E+02  0.10566000000E+00 0.  1.
         22    1    1    0    0    0  0.40089155653E+01 -0.18884133245E+02  0.21412214467E+02  0.28829929254E+02  0.00000000000E+00 0.  1.
</event>
<event>
 5    1  0.1691066E-003  0.9118800E+02  0.7818608E-02  0.1130116E+00
         25   -1    0    0    0    0  0.00000000000E+00  0.00000000000E+00  0.99999998245E-14  0.12500000000E+03  0.12500000000E+03 0.  0.
        -13    1    3    3    0    0  0.26049527092E+02 -0.34686200310E+02  0.23094296367E+02  0.49143341791E+02  0.10566000000E+00 0.  1.
         23    2    1    0    0    0  0.15399636517E+02 -0.17499614011E+02 -0.18400537023E+02  0.95302103473E+02  0.90556754956E+02 0.  0.
         13    1    3    3    0    0 -0.10649890575E+02  0.17186586299E+02 -0.41494833390E+02  0.46158761682E+02  0.10566000000E+00 0. -1.
         22    1    1    0    0    0 -0.15399636517E+02  0.17499614011E+02  0.18400537023E+02  0.29697896527E+02  0.00000000000E+00 0.  1.
</event>
<event>
 5    1  0.1691066E-003  0.9118800E+02  0.7818608E-02  0.1130116E+00
         25   -1    0    0    0    0  0.00000000000E+00  0.00000000000E+00  0.99999998245E-14  0.12500000000E+03  0.12500000000E+03 0.  0.
        -13    1    3    3    0    0  0.17897481770E+02 -0.31421426331E+02  0.92683449637E+01  0.37330138880E+02  0.10566000000E+00 0. -1.
         23    2    1    0    0    0  0.89293989641E+01  0.26283594005E+02  0.92892334748E+01  0.95727976868E+02  0.91142713461E+02 0.  0.
         13    1    3    3    0    0 -0.89680828055E+01  0.57705020337E+02  0.20888511143E-01  0.58397837988E+02  0.10566000000E+00 0.  1.
         22    1    1    0    0    0 -0.89293989641E+01 -0.26283594005E+02 -0.92892334748E+01  0.29272023132E+02  0.00000000000E+00 0.  1.
</event>
<event>
 5    1  0.1691066E-003  0.9118800E+02  0.7818608E-02  0.1130116E+00
         25   -1    0    0    0    0  0.00000000000E+00  0.00000000000E+00  0.99999998245E-14  0.12500000000E+03  0.12500000000E+03 0.  0.
        -13    1    3    3    0    0 -0.57025331476E+02 -0.11871309756E+02  0.13853439032E+02  0.59872743067E+02  0.10566000000E+00 0.  1.
         23    2    1    0    0    0 -0.21583288713E+02 -0.69449402902E+01  0.18209469317E+02  0.95919846629E+02  0.91405479361E+02 0.  0.
         13    1    3    3    0    0  0.35442042763E+02  0.49263694655E+01  0.43560302852E+01  0.36047103562E+02  0.10566000000E+00 0. -1.
         22    1    1    0    0    0  0.21583288713E+02  0.69449402902E+01 -0.18209469317E+02  0.29080153371E+02  0.00000000000E+00 0.  1.
</event>
<event>
 5    1  0.1691066E-003  0.9118800E+02  0.7818608E-02  0.1130116E+00
         25   -1    0    0    0    0  0.00000000000E+00  0.00000000000E+00  0.99999998245E-14  0.12500000000E+03  0.12500000000E+03 0.  0.
        -13    1    3    3    0    0 -0.30447998442E+02  0.48287303233E+02 -0.18732445384E+01  0.57116236498E+02  0.10566000000E+00 0. -1.
         23    2    1    0    0    0  0.30120586943E+01  0.28585519879E+02  0.22719299260E+01  0.96166579982E+02  0.91742274855E+02 0.  0.
         13    1    3    3    0    0  0.33460057136E+02 -0.19701783354E+02  0.41451744644E+01  0.39050343484E+02  0.10566000000E+00 0.  1.
         22    1    1    0    0    0 -0.30120586943E+01 -0.28585519879E+02 -0.22719299260E+01  0.28833420018E+02  0.00000000000E+00 0. -1.
</event>
<event>
 5    1  0.1691066E-003  0.9118800E+02  0.7818608E-02  0.1130116E+00
         25   -1    0    0    0    0  0.00000000000E+00  0.00000000000E+00  0.99999998245E-14  0.12500000000E+03  0.12500000000E+03 0.  0.
        -13    1    3    3    0    0  0.13703371370E+02 -0.37931686408E+02 -0.13574181973E+02  0.42554257142E+02  0.10566000000E+00 0. -1.
         23    2    1    0    0    0  0.26439734917E+02  0.79335465169E+01  0.99582287110E+01  0.95654351909E+02  0.91041682637E+02 0.  0.
         13    1    3    3    0    0  0.12736363547E+02  0.45865232925E+02  0.23532410684E+02  0.53100094767E+02  0.10566000000E+00 0.  1.
         22    1    1    0    0    0 -0.26439734917E+02 -0.79335465169E+01 -0.99582287110E+01  0.29345648091E+02  0.00000000000E+00 0.  1.
</event>
<event>
 5    1  0.1691066E-003  0.9118800E+02  0.7818608E-02  0.1130116E+00
         25   -1    0    0    0    0  0.00000000000E+00  0.00000000000E+00  0.99999998245E-14  0.12500000000E+03  0.12500000000E+03 0.  0.
        -13    1    3    3    0    0  0.59025308951E+02  0.46626890815E+00 -0.11510106837E+02  0.60138990904E+02  0.10566000000E+00 0.  1.
         23    2    1    0    0    0  0.23950501108E+02  0.73267702423E+01 -0.14595336208E+02  0.96011521176E+02  0.91530761463E+02 0.  0.
         13    1    3    3    0    0 -0.35074807843E+02  0.68605013342E+01 -0.30852293718E+01  0.35872530272E+02  0.10566000000E+00 0. -1.
         22    1    1    0    0    0 -0.23950501108E+02 -0.73267702423E+01  0.14595336208E+02  0.28988478824E+02  0.00000000000E+00 0.  1.
</event>
<event>
 5    1  0.1691066E-003  0.9118800E+02  0.7818608E-02  0.1130116E+00
         25   -1    0    0    0    0  0.00000000000E+00  0.00000000000E+00  0.99999998245E-14  0.12500000000E+03  0.12500000000E+03 0.  0.
        -13    1    3    3    0    0 -0.11558535907E+02 -0.23757875881E+02  0.41339526583E+02  0.49061227470E+02  0.10566000000E+00 0. -1.
         23    2    1    0    0    0  0.23490611568E+02 -0.52760914854E+01  0.15423444807E+02  0.96407542552E+02  0.92070004007E+02 0.  0.
         13    1    3    3    0    0  0.35049147476E+02  0.18481784395E+02 -0.25916081776E+02  0.47346315082E+02  0.10566000000E+00 0.  1.
         22    1    1    0    0    0 -0.23490611568E+02  0.52760914854E+01 -0.15423444807E+02  0.28592457448E+02  0.00000000000E+00 0. -1.
</event>
<event>
 5    1  0.1691066E-003  0.9118800E+02  0.7818608E-02  0.1130116E+00
         25   -1    0    0    0    0  0.00000000000E+00  0.00000000000E+00  0.99999998245E-14  0.12500000000E+03  0.12500000000E+03 0.  0.
        -13    1    3    3    0    0 -0.42351700774E+02 -0.27707727100E+02  0.22885965040E+02  0.55544245960E+02  0.10566000000E+00 0. -1.
         23    2    1    0    0    0 -0.33109317960E+01 -0.16972923129E+02  0.23235600643E+02  0.96035616248E+02  0.91563661253E+02 0.  0.
         13    1    3    3    0    0  0.39040768978E+02  0.10734803971E+02  0.34963560305E+00  0.40491370287E+02  0.10566000000E+00 0.  1.
         22    1    1    0    0    0  0.33109317960E+01  0.16972923129E+02 -0.23235600643E+02  0.28964383752E+02  0.00000000000E+00 0. -1.
</event>
<event>
 5    1  0.1691066E-003  0.9118800E+02  0.7818608E-02  0.1130116E+00
         25   -1    0    0    0    0  0.00000000000E+00  0.00000000000E+00  0.99999998245E-14  0.12500000000E+03  0.12500000000E+03 0.  0.
        -13    1    3    3    0    0 -0.26962303083E+01 -0.33382912541E+02 -0.21804273047E+02  0.39964058788E+02  0.10566000000E+00 0.  1.
         23    2    1    0    0    0  0.11999460196E+02  0.21656549743E+02 -0.10816327969E+02  0.97981744273E+02  0.94182992458E+02 0.  0.
         13    1    3    3    0    0  0.14695690505E+02  0.55039462285E+02  0.10987945078E+02  0.58017685485E+02  0.10566000000E+00 0. -1.
         22    1    1    0    0    0 -0.11999460196E+02 -0.21656549743E+02  0.10816327969E+02  0.27018255727E+02  0.00000000000E+00 0. -1.
</event>
<event>
 5    1  0.1691066E-003  0.9118800E+02  0.7818608E-02  0.1130116E+00
         25   -1    0    0    0    0  0.00000000000E+00  0.00000000000E+00  0.99999998245E-14  0.12500000000E+03  0.12500000000E+03 0.  0.
        -13    1    3    3    0    0 -0.27913431959E+02 -0.35920310608E+02 -0.35586211669E+02  0.57756540953E+02  0.10566000000E+00 0.  1.
         23    2    1    0    0    0 -0.11313315486E+02 -0.25432386405E+01 -0.26424436728E+02  0.96143284551E+02  0.91710529046E+02 0.  0.
         13    1    3    3    0    0  0.16600116473E+02  0.33377071967E+02  0.91617749404E+01  0.38386743599E+02  0.10566000000E+00 0. -1.
         22    1    1    0    0    0  0.11313315486E+02  0.25432386405E+01  0.26424436728E+02  0.28856715449E+02  0.00000000000E+00 0.  1.
</event>
<event>
 5    1  0.1691066E-003  0.9118800E+02  0.7818608E-02  0.1130116E+00
         25   -1    0    0    0    0  0.00000000000E+00  0.00000000000E+00  0.99999998245E-14  0.12500000000E+03  0.12500000000E+03 0.  0.
        -13    1    3    3    0    0 -0.84616274505E+01 -0.17984854380E+02 -0.27315459383E+02  0.33781646074E+02  0.10566000000E+00 0. -1.
         23    2    1    0    0    0  0.13341284627E+02  0.62191205627E+01  0.25337436867E+02  0.95697217828E+02  0.91100518423E+02 0.  0.
         13    1    3    3    0    0  0.21802912077E+02  0.24203974942E+02  0.52652896249E+02  0.61915571753E+02  0.10566000000E+00 0.  1.
         22    1    1    0    0    0 -0.13341284627E+02 -0.62191205627E+01 -0.25337436867E+02  0.29302782172E+02  0.00000000000E+00 0.  1.
</event>
<event>
 5    1  0.1691066E-003  0.9118800E+02  0.7818608E-02  0.1130116E+00
         25   -1    0    0    0    0  0.00000000000E+00  0.00000000000E+00  0.99999998245E-14  0.12500000000E+03  0.12500000000E+03 0.  0.
        -13    1    3    3    0    0 -0.22399332078E+02  0.51663310621E+02 -0.37725005814E+01  0.56436430314E+02  0.10566000000E+00 0.  1.
         23    2    1    0    0    0  0.82123608837E+01  0.28461219636E+02  0.21417288610E+01  0.95300321601E+02  0.90554295317E+02 0.  0.
         13    1    3    3    0    0  0.30611692962E+02 -0.23202090985E+02  0.59142294424E+01  0.38863891287E+02  0.10566000000E+00 0. -1.
         22    1    1    0    0    0 -0.82123608837E+01 -0.28461219636E+02 -0.21417288610E+01  0.29699678399E+02  0.00000000000E+00 0.  1.
</event>
<event>
 5    1  0.1691066E-003  0.9118800E+02  0.7818608E-02  0.1130116E+00
         25   -1    0    0    0    0  0.00000000000E+00  0.00000000000E+00  0.99999998245E-14  0.12500000000E+03  0.12500000000E+03 0.  0.
        -13    1    3    3    0    0  0.21835364369E+02 -0.29597283009E+02  0.16681679620E+02  0.40386531141E+02  0.10566000000E+00 0. -1.
         23    2    1    0    0    0  0.11042541557E+02  0.16856414755E+01 -0.27343823900E+02  0.95462501516E+02  0.90777890365E+02 0.  0.
         13    1    3    3    0    0 -0.10792822812E+02  0.31282924485E+02 -0.44025503520E+02  0.55075970375E+02  0.10566000000E+00 0.  1.
         22    1    1    0    0    0 -0.11042541557E+02 -0.16856414755E+01  0.27343823900E+02  0.29537498484E+02  0.00000000000E+00 0.  1.
</event>
<event>
 5    1  0.1691066E-003  0.9118800E+02  0.7818608E-02  0.1130116E+00
         25   -1    0    0    0    0  0.00000000000E+00  0.00000000000E+00  0.99999998245E-14  0.12500000000E+03  0.12500000000E+03 0.  0.
        -13    1    3    3    0    0 -0.33156248262E+02 -0.53933405190E+00 -0.32029528139E+02  0.46103465346E+02  0.10566000000E+00 0. -1.
         23    2    1    0    0    0 -0.31030457012E+01 -0.22031570031E+02  0.87144391345E+01  0.10110522191E+03  0.98241057999E+02 0.  0.
         13    1    3    3    0    0  0.30053202561E+02 -0.21492235980E+02  0.40743967274E+02  0.55001756561E+02  0.10566000000E+00 0.  1.
         22    1    1    0    0    0  0.31030457012E+01  0.22031570031E+02 -0.87144391345E+01  0.23894778093E+02  0.00000000000E+00 0.  1.
</event>
<event>
 5    1  0.1691066E-003  0.9118800E+02  0.7818608E-02  0.1130116E+00
         25   -1    0    0    0    0  0.00000000000E+00  0.00000000000E+00  0.99999998245E-14  0.12500000000E+03  0.12500000000E+03 0.  0.
        -13    1    3    3    0    0  0.88371738296E+01  0.22904061079E+02  0.27409872546E+01  0.24702547042E+02  0.10566000000E+00 0.  1.
         23    2    1    0    0    0  0.92370691339E+01 -0.37390131687E+02  0.93725906349E+01  0.85361750178E+02  0.75600512858E+02 0.  0.
         13    1    3    3    0    0  0.39989530437E+00 -0.60294192766E+02  0.66316033803E+01  0.60659203135E+02  0.10566000000E+00 0. -1.
         22    1    1    0    0    0 -0.92370691339E+01  0.37390131687E+02 -0.93725906349E+01  0.39638249822E+02  0.00000000000E+00 0. -1.
</event>
<event>
 5    1  0.1691066E-003  0.9118800E+02  0.7818608E-02  0.1130116E+00
         25   -1    0    0    0    0  0.00000000000E+00  0.00000000000E+00  0.99999998245E-14  0.12500000000E+03  0.12500000000E+03 0.  0.
        -13    1    3    3    0    0 -0.36370887223E+01 -0.28663883914E+02  0.27918139844E+02  0.40178107867E+02  0.10566000000E+00 0.  1.
         23    2    1    0    0    0 -0.16646799979E+02 -0.70044683226E+01 -0.22245866399E+02  0.96345906089E+02  0.91986284425E+02 0.  0.
         13    1    3    3    0    0 -0.13009711256E+02  0.21659415591E+02 -0.50164006243E+02  0.56167798222E+02  0.10566000000E+00 0. -1.
         22    1    1    0    0    0  0.16646799979E+02  0.70044683226E+01  0.22245866399E+02  0.28654093911E+02  0.00000000000E+00 0. -1.
</event>
<event>
 5    1  0.1691066E-003  0.9118800E+02  0.7818608E-02  0.1130116E+00
         25   -1    0    0    0    0  0.00000000000E+00  0.00000000000E+00  0.99999998245E-14  0.12500000000E+03  0.12500000000E+03 0.  0.
        -13    1    3    3    0    0 -0.38087817215E+02  0.24317009713E+02 -0.34381178519E+02  0.56780942067E+02  0.10566000000E+00 0.  1.
         23    2    1    0    0    0 -0.33383357517E+01  0.94302104129E+01 -0.28188625423E+02  0.95088932528E+02  0.90262024862E+02 0.  0.
         13    1    3    3    0    0  0.34749481463E+02 -0.14886799300E+02  0.61925530956E+01  0.38307990462E+02  0.10566000000E+00 0. -1.
         22    1    1    0    0    0  0.33383357517E+01 -0.94302104129E+01  0.28188625423E+02  0.29911067472E+02  0.00000000000E+00 0.  1.
</event>
<event>
 5    1  0.1691066E-003  0.9118800E+02  0.7818608E-02  0.1130116E+00
         25   -1    0    0    0    0  0.00000000000E+00  0.00000000000E+00  0.99999998245E-14  0.12500000000E+03  0.12500000000E+03 0.  0.
        -13    1    3    3    0    0  0.28468267077E+02  0.60657727622E+00 -0.93238549258E+00  0.28490185557E+02  0.10566000000E+00 0. -1.
         23    2    1    0    0    0 -0.30256528940E+02 -0.17584727314E+02  0.85554236030E+00  0.89994112910E+02  0.82906744162E+02 0.  0.
         13    1    3    3    0    0 -0.58724796016E+02 -0.18191304590E+02  0.17879278529E+01  0.61503927353E+02  0.10566000000E+00 0.  1.
         22    1    1    0    0    0  0.30256528940E+02  0.17584727314E+02 -0.85554236030E+00  0.35005887090E+02  0.00000000000E+00 0.  1.
</event>
<event>
 5    1  0.1691066E-003  0.9118800E+02  0.7818608E-02  0.1130116E+00
         25   -1    0    0    0    0  0.00000000000E+00  0.00000000000E+00  0.99999998245E-14  0.12500000000E+03  0.12500000000E+03 0.  0.
        -13    1    3    3    0    0  0.95691694203E+01 -0.33296835949E+02 -0.25199409248E+01  0.34736285839E+02  0.10566000000E+00 0. -1.
         23    2    1    0    0    0 -0.55056449323E+01  0.27257145860E+02  0.69654672708E-01  0.97192285632E+02  0.93129326252E+02 0.  0.
         13    1    3    3    0    0 -0.15074814353E+02  0.60553981810E+02  0.25895955975E+01  0.62455999793E+02  0.10566000000E+00 0.  1.
         22    1    1    0    0    0  0.55056449323E+01 -0.27257145860E+02 -0.69654672708E-01  0.27807714368E+02  0.00000000000E+00 0.  1.
</event>
<event>
 5    1  0.1691066E-003  0.9118800E+02  0.7818608E-02  0.1130116E+00
         25   -1    0    0    0    0  0.00000000000E+00  0.00000000000E+00  0.99999998245E-14  0.12500000000E+03  0.12500000000E+03 0.  0.
        -13    1    3    3    0    0 -0.24129195901E+02  0.10718689397E+00  0.40732217080E+02  0.47342943045E+02  0.10566000000E+00 0.  1.
         23    2    1    0    0    0 -0.26326357656E+02  0.14794435624E+02 -0.40570459546E+01  0.94530145147E+02  0.89484838307E+02 0.  0.
         13    1    3    3    0    0 -0.21971617550E+01  0.14687248730E+02 -0.44789263035E+02  0.47187202102E+02  0.10566000000E+00 0. -1.
         22    1    1    0    0    0  0.26326357656E+02 -0.14794435624E+02  0.40570459546E+01  0.30469854853E+02  0.00000000000E+00 0.  1.
</event>
<event>
 5    1  0.1691066E-003  0.9118800E+02  0.7818608E-02  0.1130116E+00
         25   -1    0    0    0    0  0.00000000000E+00  0.00000000000E+00  0.99999998245E-14  0.12500000000E+03  0.12500000000E+03 0.  0.
        -13    1    3    3    0    0 -0.35852593801E+02  0.23783660955E+02  0.23499450789E+02  0.49023528658E+02  0.10566000000E+00 0. -1.
         23    2    1    0    0    0 -0.19511792812E+02 -0.18280974535E+02  0.12567679246E+02  0.95455954063E+02  0.90768874158E+02 0.  0.
         13    1    3    3    0    0  0.16340800990E+02 -0.42064635490E+02 -0.10931771543E+02  0.46432425405E+02  0.10566000000E+00 0.  1.
         22    1    1    0    0    0  0.19511792812E+02  0.18280974535E+02 -0.12567679246E+02  0.29544045937E+02  0.00000000000E+00 0.  1.
</event>
<event>
 5    1  0.1691066E-003  0.9118800E+02  0.7818608E-02  0.1130116E+00
         25   -1    0    0    0    0  0.00000000000E+00  0.00000000000E+00  0.99999998245E-14  0.12500000000E+03  0.12500000000E+03 0.  0.
        -13    1    3    3    0    0 -0.18872894442E+02 -0.39445765445E+02 -0.24348166159E+02  0.50049964191E+02  0.10566000000E+00 0.  1.
         23    2    1    0    0    0  0.95096225483E+01 -0.24567425076E+02  0.98117132172E+01  0.96888418541E+02  0.92720572881E+02 0.  0.
         13    1    3    3    0    0  0.28382516990E+02  0.14878340369E+02  0.34159879376E+02  0.46838454350E+02  0.10566000000E+00 0. -1.
         22    1    1    0    0    0 -0.95096225483E+01  0.24567425076E+02 -0.98117132172E+01  0.28111581459E+02  0.00000000000E+00 0.  1.
</event>
<event>
 5    1  0.1691066E-003  0.9118800E+02  0.7818608E-02  0.1130116E+00
         25   -1    0    0    0    0  0.00000000000E+00  0.00000000000E+00  0.99999998245E-14  0.12500000000E+03  0.12500000000E+03 0.  0.
        -13    1    3    3    0    0  0.13797275187E+01 -0.86968065699E+01 -0.33563308097E+02  0.34699350238E+02  0.10566000000E+00 0. -1.
         23    2    1    0    0    0 -0.12077131834E+02  0.95022278308E+01  0.23971262299E+02  0.96525961592E+02  0.92230636981E+02 0.  0.
         13    1    3    3    0    0 -0.13456859352E+02  0.18199034401E+02  0.57534570396E+02  0.61826611353E+02  0.10566000000E+00 0.  1.
         22    1    1    0    0    0  0.12077131834E+02 -0.95022278308E+01 -0.23971262299E+02  0.28474038408E+02  0.00000000000E+00 0.  1.
</event>
<event>
 5    1  0.1691066E-003  0.9118800E+02  0.7818608E-02  0.1130116E+00
         25   -1    0    0    0    0  0.00000000000E+00  0.00000000000E+00  0.99999998245E-14  0.12500000000E+03  0.12500000000E+03 0.  0.
        -13    1    3    3    0    0 -0.27939548827E+02 -0.13430246521E+02 -0.26825389570E+02  0.40995153371E+02  0.10566000000E+00 0. -1.
         23    2    1    0    0    0  0.24104653614E+02 -0.11071290252E+01 -0.17272878068E+02  0.95324886230E+02  0.90588197672E+02 0.  0.
         13    1    3    3    0    0  0.52044202441E+02  0.12323117496E+02  0.95525115020E+01  0.54329732859E+02  0.10566000000E+00 0.  1.
         22    1    1    0    0    0 -0.24104653614E+02  0.11071290252E+01  0.17272878068E+02  0.29675113770E+02  0.00000000000E+00 0.  1.
</event>
<event>
 5    1  0.1691066E-003  0.9118800E+02  0.7818608E-02  0.1130116E+00
         25   -1    0    0    0    0  0.00000000000E+00  0.00000000000E+00  0.99999998245E-14  0.12500000000E+03  0.12500000000E+03 0.  0.
        -13    1    3    3    0    0  0.73388831579E+01 -0.14214914952E+02 -0.27314744134E+02  0.31654848353E+02  0.10566000000E+00 0. -1.
         23    2    1    0    0    0 -0.99207848102E+01  0.85376042426E+01  0.28103105396E+02  0.93998432454E+02  0.88738988688E+02 0.  0.
         13    1    3    3    0    0 -0.17259667968E+02  0.22752519195E+02  0.55417849529E+02  0.62343584101E+02  0.10566000000E+00 0.  1.
         22    1    1    0    0    0  0.99207848102E+01 -0.85376042426E+01 -0.28103105396E+02  0.31001567546E+02  0.00000000000E+00 0.  1.
</event>
<event>
 5    1  0.1691066E-003  0.9118800E+02  0.7818608E-02  0.1130116E+00
         25   -1    0    0    0    0  0.00000000000E+00  0.00000000000E+00  0.99999998245E-14  0.12500000000E+03  0.12500000000E+03 0.  0.
        -13    1    3    3    0    0  0.21679925042E+02  0.22578336147E+02 -0.43256351746E+02  0.53394040336E+02  0.10566000000E+00 0. -1.
         23    2    1    0    0    0  0.29560418499E+02  0.11732221020E+02 -0.64732134881E+01  0.92544401951E+02  0.86666605378E+02 0.  0.
         13    1    3    3    0    0  0.78804934569E+01 -0.10846115128E+02  0.36783138258E+02  0.39150361615E+02  0.10566000000E+00 0.  1.
         22    1    1    0    0    0 -0.29560418499E+02 -0.11732221020E+02  0.64732134881E+01  0.32455598049E+02  0.00000000000E+00 0. -1.
</event>
<event>
 5    1  0.1691066E-003  0.9118800E+02  0.7818608E-02  0.1130116E+00
         25   -1    0    0    0    0  0.00000000000E+00  0.00000000000E+00  0.99999998245E-14  0.12500000000E+03  0.12500000000E+03 0.  0.
        -13    1    3    3    0    0  0.90100156489E+01 -0.20593576010E+02 -0.29352168644E+02  0.36970754969E+02  0.10566000000E+00 0.  1.
         23    2    1    0    0    0 -0.14290709920E+02  0.26062555148E+02 -0.38337641783E+01  0.95030366725E+02  0.90180883125E+02 0.  0.
         13    1    3    3    0    0 -0.23300725569E+02  0.46656131158E+02  0.25518404465E+02  0.58059611755E+02  0.10566000000E+00 0. -1.
         22    1    1    0    0    0  0.14290709920E+02 -0.26062555148E+02  0.38337641783E+01  0.29969633275E+02  0.00000000000E+00 0. -1.
</event>
<event>
 5    1  0.1691066E-003  0.9118800E+02  0.7818608E-02  0.1130116E+00
         25   -1    0    0    0    0  0.00000000000E+00  0.00000000000E+00  0.99999998245E-14  0.12500000000E+03  0.12500000000E+03 0.  0.
        -13    1    3    3    0    0  0.17849080256E+02  0.21599333204E+02  0.19697265592E+02  0.34250756148E+02  0.10566000000E+00 0.  1.
         23    2    1    0    0    0 -0.24273612360E+02 -0.18012521068E+02  0.20607355875E+01  0.94703039701E+02  0.89726027022E+02 0.  0.
         13    1    3    3    0    0 -0.42122692616E+02 -0.39611854272E+02 -0.17636530005E+02  0.60452283553E+02  0.10566000000E+00 0. -1.
         22    1    1    0    0    0  0.24273612360E+02  0.18012521068E+02 -0.20607355875E+01  0.30296960299E+02  0.00000000000E+00 0. -1.
</event>
<event>
 5    1  0.1691066E-003  0.9118800E+02  0.7818608E-02  0.1130116E+00
         25   -1    0    0    0    0  0.00000000000E+00  0.00000000000E+00  0.99999998245E-14  0.12500000000E+03  0.12500000000E+03 0.  0.
        -13    1    3    3    0    0 -0.29665022149E+02 -0.14079684156E+02 -0.97105820441E+01  0.34242628589E+02  0.10566000000E+00 0.  1.
         23    2    1    0    0    0  0.28200174631E+02  0.54500023019E+01 -0.73123858905E+01  0.95361792198E+02  0.90639108830E+02 0.  0.
         13    1    3    3    0    0  0.57865196779E+02  0.19529686458E+02  0.23981961536E+01  0.61119163609E+02  0.10566000000E+00 0. -1.
         22    1    1    0    0    0 -0.28200174631E+02 -0.54500023019E+01  0.73123858905E+01  0.29638207802E+02  0.00000000000E+00 0. -1.
</event>
<event>
 5    1  0.1691066E-003  0.9118800E+02  0.7818608E-02  0.1130116E+00
         25   -1    0    0    0    0  0.00000000000E+00  0.00000000000E+00  0.99999998245E-14  0.12500000000E+03  0.12500000000E+03 0.  0.
        -13    1    3    3    0    0 -0.55207054214E+01  0.49435075429E+02  0.35654694065E+02  0.61201088585E+02  0.10566000000E+00 0. -1.
         23    2    1    0    0    0 -0.52583031670E+01  0.29812889798E+02  0.10824517533E+02  0.92849909330E+02  0.87106126836E+02 0.  0.
         13    1    3    3    0    0  0.26240225439E+00 -0.19622185631E+02 -0.24830176532E+02  0.31648820745E+02  0.10566000000E+00 0.  1.
         22    1    1    0    0    0  0.52583031670E+01 -0.29812889798E+02 -0.10824517533E+02  0.32150090670E+02  0.00000000000E+00 0. -1.
</event>
<event>
 5    1  0.1691066E-003  0.9118800E+02  0.7818608E-02  0.1130116E+00
         25   -1    0    0    0    0  0.00000000000E+00  0.00000000000E+00  0.99999998245E-14  0.12500000000E+03  0.12500000000E+03 0.  0.
        -13    1    3    3    0    0 -0.44154259992E+02  0.17168878290E+02 -0.22811359339E+02  0.52580779150E+02  0.10566000000E+00 0.  1.
         23    2    1    0    0    0 -0.24777595088E+02 -0.10008143432E+02  0.70464205686E+01  0.97364077795E+02  0.93359624296E+02 0.  0.
         13    1    3    3    0    0  0.19376664903E+02 -0.27177021722E+02  0.29857779907E+02  0.44783298644E+02  0.10566000000E+00 0. -1.
         22    1    1    0    0    0  0.24777595088E+02  0.10008143432E+02 -0.70464205686E+01  0.27635922205E+02  0.00000000000E+00 0.  1.
</event>
<event>
 5    1  0.1691066E-003  0.9118800E+02  0.7818608E-02  0.1130116E+00
         25   -1    0    0    0    0  0.00000000000E+00  0.00000000000E+00  0.99999998245E-14  0.12500000000E+03  0.12500000000E+03 0.  0.
        -13    1    3    3    0    0  0.57576278799E+02  0.52551741251E+01 -0.86849853486E-01  0.57815771571E+02  0.10566000000E+00 0. -1.
         23    2    1    0    0    0  0.21380842866E+02  0.10218209789E+02 -0.14643812786E+02  0.97143340009E+02  0.93063607292E+02 0.  0.
         13    1    3    3    0    0 -0.36195435933E+02  0.49630356638E+01 -0.14556962932E+02  0.39327568438E+02  0.10566000000E+00 0.  1.
         22    1    1    0    0    0 -0.21380842866E+02 -0.10218209789E+02  0.14643812786E+02  0.27856659991E+02  0.00000000000E+00 0. -1.
</event>
<event>
 5    1  0.1691066E-003  0.9118800E+02  0.7818608E-02  0.1130116E+00
         25   -1    0    0    0    0  0.00000000000E+00  0.00000000000E+00  0.99999998245E-14  0.12500000000E+03  0.12500000000E+03 0.  0.
        -13    1    3    3    0    0  0.41449167112E+02  0.60902690009E+01 -0.92993974183E+01  0.42914039511E+02  0.10566000000E+00 0. -1.
         23    2    1    0    0    0  0.32411066518E+01 -0.28559567942E+02  0.34628249372E+01  0.96049268577E+02  0.91582297112E+02 0.  0.
         13    1    3    3    0    0 -0.38208060461E+02 -0.34649836943E+02  0.12762222355E+02  0.53135229065E+02  0.10566000000E+00 0.  1.
         22    1    1    0    0    0 -0.32411066518E+01  0.28559567942E+02 -0.34628249372E+01  0.28950731423E+02  0.00000000000E+00 0.  1.
</event>
<event>
 5    1  0.1691066E-003  0.9118800E+02  0.7818608E-02  0.1130116E+00
         25   -1    0    0    0    0  0.00000000000E+00  0.00000000000E+00  0.99999998245E-14  0.12500000000E+03  0.12500000000E+03 0.  0.
        -13    1    3    3    0    0  0.39867107401E+01 -0.57621624734E+02  0.37309424170E+01  0.57879846189E+02  0.10566000000E+00 0.  1.
         23    2    1    0    0    0  0.13604656433E+02 -0.21146593010E+02  0.12956207645E+02  0.96713459223E+02  0.92484403040E+02 0.  0.
         13    1    3    3    0    0  0.96179456933E+01  0.36475031724E+02  0.92252652285E+01  0.38833613033E+02  0.10566000000E+00 0. -1.
         22    1    1    0    0    0 -0.13604656433E+02  0.21146593010E+02 -0.12956207645E+02  0.28286540777E+02  0.00000000000E+00 0.  1.
</event>
<event>
 5    1  0.1691066E-003  0.9118800E+02  0.7818608E-02  0.1130116E+00
         25   -1    0    0    0    0  0.00000000000E+00  0.00000000000E+00  0.99999998245E-14  0.12500000000E+03  0.12500000000E+03 0.  0.
        -13    1    3    3    0    0  0.18653334049E+02  0.97859581892E+01  0.29359480807E+02  0.36134500496E+02  0.10566000000E+00 0.  1.
         23    2    1    0    0    0 -0.16495008082E+02 -0.25949485234E+02 -0.54094459932E-01  0.94251601639E+02  0.89094895531E+02 0.  0.
         13    1    3    3    0    0 -0.35148342131E+02 -0.35735443424E+02 -0.29413575267E+02  0.58117101143E+02  0.10566000000E+00 0. -1.
         22    1    1    0    0    0  0.16495008082E+02  0.25949485234E+02  0.54094459932E-01  0.30748398361E+02  0.00000000000E+00 0. -1.
</event>
<event>
 5    1  0.1691066E-003  0.9118800E+02  0.7818608E-02  0.1130116E+00
         25   -1    0    0    0    0  0.00000000000E+00  0.00000000000E+00  0.99999998245E-14  0.12500000000E+03  0.12500000000E+03 0.  0.
        -13    1    3    3    0    0 -0.46961616998E+02  0.28258250206E+02  0.13814113422E+02  0.56522235177E+02  0.10566000000E+00 0. -1.
         23    2    1    0    0    0 -0.91095948206E+01  0.19323440974E+02  0.19799740458E+02  0.95872524808E+02  0.91340742290E+02 0.  0.
         13    1    3    3    0    0  0.37852022178E+02 -0.89348092322E+01  0.59856270363E+01  0.39350289631E+02  0.10566000000E+00 0.  1.
         22    1    1    0    0    0  0.91095948206E+01 -0.19323440974E+02 -0.19799740458E+02  0.29127475192E+02  0.00000000000E+00 0. -1.
</event>
<event>
 5    1  0.1691066E-003  0.9118800E+02  0.7818608E-02  0.1130116E+00
         25   -1    0    0    0    0  0.00000000000E+00  0.00000000000E+00  0.99999998245E-14  0.12500000000E+03  0.12500000000E+03 0.  0.
        -13    1    3    3    0    0  0.24978800327E+02  0.16145116184E+01 -0.23909774775E+02  0.34615539969E+02  0.10566000000E+00 0.  1.
         23    2    1    0    0    0 -0.21953051949E+02  0.58888828820E+01  0.16676020160E+02  0.96809485995E+02  0.92614099892E+02 0.  0.
         13    1    3    3    0    0 -0.46931852276E+02  0.42743712636E+01  0.40585794935E+02  0.62193946026E+02  0.10566000000E+00 0. -1.
         22    1    1    0    0    0  0.21953051949E+02 -0.58888828820E+01 -0.16676020160E+02  0.28190514005E+02  0.00000000000E+00 0. -1.
</event>
<event>
 5    1  0.1691066E-003  0.9118800E+02  0.7818608E-02  0.1130116E+00
         25   -1    0    0    0    0  0.00000000000E+00  0.00000000000E+00  0.99999998245E-14  0.12500000000E+03  0.12500000000E+03 0.  0.
        -13    1    3    3    0    0  0.43323956110E+02  0.10163653785E+02 -0.27755128737E+02  0.52446385638E+02  0.10566000000E+00 0. -1.
         23    2    1    0    0    0 -0.71765013059E+00  0.56174480414E+01 -0.27704965951E+02  0.96722166233E+02  0.92496170506E+02 0.  0.
         13    1    3    3    0    0 -0.44041606241E+02 -0.45462057433E+01  0.50162785941E-01  0.44275780595E+02  0.10566000000E+00 0.  1.
         22    1    1    0    0    0  0.71765013059E+00 -0.56174480414E+01  0.27704965951E+02  0.28277833767E+02  0.00000000000E+00 0.  1.
</event>
<event>
 5    1  0.1691066E-003  0.9118800E+02  0.7818608E-02  0.1130116E+00
         25   -1    0    0    0    0  0.00000000000E+00  0.00000000000E+00  0.99999998245E-14  0.12500000000E+03  0.12500000000E+03 0.  0.
        -13    1    3    3    0    0 -0.10307523221E+02 -0.58649952893E+02  0.10612594192E+01  0.59558370066E+02  0.10566000000E+00 0.  1.
         23    2    1    0    0    0  0.68028401151E+01 -0.28480516006E+02 -0.63795324051E+01  0.95031402113E+02  0.90182318268E+02 0.  0.
         13    1    3    3    0    0  0.17110363336E+02  0.30169436887E+02 -0.74407918243E+01  0.35473032047E+02  0.10566000000E+00 0. -1.
         22    1    1    0    0    0 -0.68028401151E+01  0.28480516006E+02  0.63795324051E+01  0.29968597887E+02  0.00000000000E+00 0.  1.
</event>
<event>
 5    1  0.1691066E-003  0.9118800E+02  0.7818608E-02  0.1130116E+00
         25   -1    0    0    0    0  0.00000000000E+00  0.00000000000E+00  0.99999998245E-14  0.12500000000E+03  0.12500000000E+03 0.  0.
        -13    1    3    3    0    0 -0.28301426888E+02  0.63884184835E+01  0.32289497536E+02  0.43409739342E+02  0.10566000000E+00 0.  1.
         23    2    1    0    0    0  0.21298248442E+02  0.71310942213E+01  0.20930406886E+02  0.94299025685E+02  0.89161406568E+02 0.  0.
         13    1    3    3    0    0  0.49599675330E+02  0.74267573773E+00 -0.11359090650E+02  0.50889286343E+02  0.10566000000E+00 0. -1.
         22    1    1    0    0    0 -0.21298248442E+02 -0.71310942213E+01 -0.20930406886E+02  0.30700974315E+02  0.00000000000E+00 0. -1.
</event>
<event>
 5    1  0.1691066E-003  0.9118800E+02  0.7818608E-02  0.1130116E+00
         25   -1    0    0    0    0  0.00000000000E+00  0.00000000000E+00  0.99999998245E-14  0.12500000000E+03  0.12500000000E+03 0.  0.
        -13    1    3    3    0    0 -0.82123340714E+01 -0.48149781597E+02 -0.30693840799E+02  0.57688533746E+02  0.10566000000E+00 0. -1.
         23    2    1    0    0    0 -0.16341861702E+02 -0.25014290925E+02 -0.25575701506E+01  0.95011462866E+02  0.90154676620E+02 0.  0.
         13    1    3    3    0    0 -0.81295276302E+01  0.23135490671E+02  0.28136270648E+02  0.37322929120E+02  0.10566000000E+00 0.  1.
         22    1    1    0    0    0  0.16341861702E+02  0.25014290925E+02  0.25575701506E+01  0.29988537134E+02  0.00000000000E+00 0. -1.
</event>
<event>
 5    1  0.1691066E-003  0.9118800E+02  0.7818608E-02  0.1130116E+00
         25   -1    0    0    0    0  0.00000000000E+00  0.00000000000E+00  0.99999998245E-14  0.12500000000E+03  0.12500000000E+03 0.  0.
        -13    1    3    3    0    0  0.76027671881E+01  0.25493838398E-02  0.39484259610E+02  0.40209700277E+02  0.10566000000E+00 0.  1.
         23    2    1    0    0    0 -0.21891404767E+02  0.15323360620E+02 -0.70217274186E+01  0.97371325777E+02  0.93369328178E+02 0.  0.
         13    1    3    3    0    0 -0.29494171955E+02  0.15320811236E+02 -0.46505987029E+02  0.57161625500E+02  0.10566000000E+00 0. -1.
         22    1    1    0    0    0  0.21891404767E+02 -0.15323360620E+02  0.70217274186E+01  0.27628674223E+02  0.00000000000E+00 0. -1.
</event>
<event>
 5    1  0.1691066E-003  0.9118800E+02  0.7818608E-02  0.1130116E+00
         25   -1    0    0    0    0  0.00000000000E+00  0.00000000000E+00  0.99999998245E-14  0.12500000000E+03  0.12500000000E+03 0.  0.
        -13    1    3    3    0    0 -0.95120672624E+01 -0.90151666148E+01  0.40650879018E+02  0.42711330835E+02  0.10566000000E+00 0.  1.
         23    2    1    0    0    0  0.29360811544E+02  0.22046739699E+01  0.86043760977E+01  0.94325040670E+02  0.89197870869E+02 0.  0.
         13    1    3    3    0    0  0.38872878807E+02  0.11219840585E+02 -0.32046502921E+02  0.51613709835E+02  0.10566000000E+00 0. -1.
         22    1    1    0    0    0 -0.29360811544E+02 -0.22046739699E+01 -0.86043760977E+01  0.30674959330E+02  0.00000000000E+00 0.  1.
</event>
<event>
 5    1  0.1691066E-003  0.9118800E+02  0.7818608E-02  0.1130116E+00
         25   -1    0    0    0    0  0.00000000000E+00  0.00000000000E+00  0.99999998245E-14  0.12500000000E+03  0.12500000000E+03 0.  0.
        -13    1    3    3    0    0 -0.30127344289E+02 -0.11381258246E+02  0.15656971969E+02  0.35809801011E+02  0.10566000000E+00 0. -1.
         23    2    1    0    0    0  0.18751459764E+02  0.21772394299E+02  0.57253223006E+01  0.95700960558E+02  0.91105653718E+02 0.  0.
         13    1    3    3    0    0  0.48878804053E+02  0.33153652545E+02 -0.99316496680E+01  0.59891159547E+02  0.10566000000E+00 0.  1.
         22    1    1    0    0    0 -0.18751459764E+02 -0.21772394299E+02 -0.57253223006E+01  0.29299039442E+02  0.00000000000E+00 0.  1.
</event>
<event>
 5    1  0.1691066E-003  0.9118800E+02  0.7818608E-02  0.1130116E+00
         25   -1    0    0    0    0  0.00000000000E+00  0.00000000000E+00  0.99999998245E-14  0.12500000000E+03  0.12500000000E+03 0.  0.
        -13    1    3    3    0    0  0.30904783136E+02 -0.22983898239E+02  0.32779031674E+02  0.50575105343E+02  0.10566000000E+00 0. -1.
         23    2    1    0    0    0  0.22147028747E+02  0.15643449543E+02  0.11379879524E+02  0.95594047305E+02  0.90958846883E+02 0.  0.
         13    1    3    3    0    0 -0.87577543888E+01  0.38627347782E+02 -0.21399152150E+02  0.45018941962E+02  0.10566000000E+00 0.  1.
         22    1    1    0    0    0 -0.22147028747E+02 -0.15643449543E+02 -0.11379879524E+02  0.29405952695E+02  0.00000000000E+00 0.  1.
</event>
<event>
 5    1  0.1691066E-003  0.9118800E+02  0.7818608E-02  0.1130116E+00
         25   -1    0    0    0    0  0.00000000000E+00  0.00000000000E+00  0.99999998245E-14  0.12500000000E+03  0.12500000000E+03 0.  0.
        -13    1    3    3    0    0  0.22011438453E+02 -0.13849696196E+02  0.44594589240E+02  0.51623696701E+02  0.10566000000E+00 0.  1.
         23    2    1    0    0    0 -0.10313736454E+01 -0.27947842052E+02  0.10490510407E+02  0.95130342895E+02  0.90319354093E+02 0.  0.
         13    1    3    3    0    0 -0.23042812099E+02 -0.14098145856E+02 -0.34104078833E+02  0.43506646194E+02  0.10566000000E+00 0. -1.
         22    1    1    0    0    0  0.10313736454E+01  0.27947842052E+02 -0.10490510407E+02  0.29869657105E+02  0.00000000000E+00 0.  1.
</event>
<event>
 5    1  0.1691066E-003  0.9118800E+02  0.7818608E-02  0.1130116E+00
         25   -1    0    0    0    0  0.00000000000E+00  0.00000000000E+00  0.99999998245E-14  0.12500000000E+03  0.12500000000E+03 0.  0.
        -13    1    3    3    0    0  0.10555045647E+02  0.37957004754E+02  0.35608751303E+02  0.53104967111E+02  0.10566000000E+00 0. -1.
         23    2    1    0    0    0 -0.28162662295E+01 -0.27950591170E+01  0.28068398443E+02  0.96652536232E+02  0.92402024101E+02 0.  0.
         13    1    3    3    0    0 -0.13371311877E+02 -0.40752063871E+02 -0.75403528598E+01  0.43547569121E+02  0.10566000000E+00 0.  1.
         22    1    1    0    0    0  0.28162662295E+01  0.27950591170E+01 -0.28068398443E+02  0.28347463768E+02  0.00000000000E+00 0. -1.
</event>
<event>
 5    1  0.1691066E-003  0.9118800E+02  0.7818608E-02  0.1130116E+00
         25   -1    0    0    0    0  0.00000000000E+00  0.00000000000E+00  0.99999998245E-14  0.12500000000E+03  0.12500000000E+03 0.  0.
        -13    1    3    3    0    0 -0.15249978412E+02 -0.54631433773E+02 -0.57618683896E+01  0.57011978469E+02  0.10566000000E+00 0.  1.
         23    2    1    0    0    0 -0.19276844447E+02 -0.15119298235E+02 -0.12817557843E+02  0.97350773970E+02  0.93341809992E+02 0.  0.
         13    1    3    3    0    0 -0.40268660358E+01  0.39512135537E+02 -0.70556894533E+01  0.40338795501E+02  0.10566000000E+00 0. -1.
         22    1    1    0    0    0  0.19276844447E+02  0.15119298235E+02  0.12817557843E+02  0.27649226030E+02  0.00000000000E+00 0.  1.
</event>
<event>
 5    1  0.1691066E-003  0.9118800E+02  0.7818608E-02  0.1130116E+00
         25   -1    0    0    0    0  0.00000000000E+00  0.00000000000E+00  0.99999998245E-14  0.12500000000E+03  0.12500000000E+03 0.  0.
        -13    1    3    3    0    0 -0.28408945849E+02 -0.16360906766E+02  0.11261986745E+02  0.34663972419E+02  0.10566000000E+00 0.  1.
         23    2    1    0    0    0  0.85801687824E+01  0.22152964218E+02 -0.17665199973E+02  0.95395398837E+02  0.90685443756E+02 0.  0.
         13    1    3    3    0    0  0.36989114631E+02  0.38513870983E+02 -0.28927186717E+02  0.60731426417E+02  0.10566000000E+00 0. -1.
         22    1    1    0    0    0 -0.85801687824E+01 -0.22152964218E+02  0.17665199973E+02  0.29604601163E+02  0.00000000000E+00 0. -1.
</event>
<event>
 5    1  0.1691066E-003  0.9118800E+02  0.7818608E-02  0.1130116E+00
         25   -1    0    0    0    0  0.00000000000E+00  0.00000000000E+00  0.99999998245E-14  0.12500000000E+03  0.12500000000E+03 0.  0.
        -13    1    3    3    0    0 -0.41773534337E+01  0.61047016968E+02  0.10549591053E+02  0.62092621122E+02  0.10566000000E+00 0. -1.
         23    2    1    0    0    0  0.29280470191E+01  0.28019085162E+02  0.61876975434E+01  0.96156799873E+02  0.91728948365E+02 0.  0.
         13    1    3    3    0    0  0.71054004528E+01 -0.33027931805E+02 -0.43618935100E+01  0.34064178751E+02  0.10566000000E+00 0.  1.
         22    1    1    0    0    0 -0.29280470191E+01 -0.28019085162E+02 -0.61876975434E+01  0.28843200127E+02  0.00000000000E+00 0. -1.
</event>
<event>
 5    1  0.1691066E-003  0.9118800E+02  0.7818608E-02  0.1130116E+00
         25   -1    0    0    0    0  0.00000000000E+00  0.00000000000E+00  0.99999998245E-14  0.12500000000E+03  0.12500000000E+03 0.  0.
        -13    1    3    3    0    0 -0.47066786127E+02 -0.84986391456E+01  0.29773583338E+02  0.56338145625E+02  0.10566000000E+00 0.  1.
         23    2    1    0    0    0 -0.23197117201E+02  0.15326533480E+02  0.98807642648E+01  0.95493418066E+02  0.90820452083E+02 0.  0.
         13    1    3    3    0    0  0.23869668926E+02  0.23825172625E+02 -0.19892819073E+02  0.39155272441E+02  0.10566000000E+00 0. -1.
         22    1    1    0    0    0  0.23197117201E+02 -0.15326533480E+02 -0.98807642648E+01  0.29506581934E+02  0.00000000000E+00 0.  1.
</event>
<event>
 5    1  0.1691066E-003  0.9118800E+02  0.7818608E-02  0.1130116E+00
         25   -1    0    0    0    0  0.00000000000E+00  0.00000000000E+00  0.99999998245E-14  0.12500000000E+03  0.12500000000E+03 0.  0.
        -13    1    3    3    0    0  0.24495688918E+02 -0.20029518006E+02  0.18838607261E+02  0.36825597819E+02  0.10566000000E+00 0.  1.
         23    2    1    0    0    0 -0.28225919188E+01  0.29466740391E+02  0.67643541417E+01  0.94635344537E+02  0.89631669260E+02 0.  0.
         13    1    3    3    0    0 -0.27318280837E+02  0.49496258397E+02 -0.12074253119E+02  0.57809746718E+02  0.10566000000E+00 0. -1.
         22    1    1    0    0    0  0.28225919188E+01 -0.29466740391E+02 -0.67643541417E+01  0.30364655463E+02  0.00000000000E+00 0. -1.
</event>
<event>
 5    1  0.1691066E-003  0.9118800E+02  0.7818608E-02  0.1130116E+00
         25   -1    0    0    0    0  0.00000000000E+00  0.00000000000E+00  0.99999998245E-14  0.12500000000E+03  0.12500000000E+03 0.  0.
        -13    1    3    3    0    0 -0.77412855183E+01  0.28864740878E+02 -0.26017962658E+02  0.39623809917E+02  0.10566000000E+00 0.  1.
         23    2    1    0    0    0  0.64521374909E+01 -0.18260670948E+02 -0.30313997464E+02  0.89027501840E+02  0.81436327643E+02 0.  0.
         13    1    3    3    0    0  0.14193423009E+02 -0.47125411826E+02 -0.42960348060E+01  0.49403691922E+02  0.10566000000E+00 0. -1.
         22    1    1    0    0    0 -0.64521374909E+01  0.18260670948E+02  0.30313997464E+02  0.35972498160E+02  0.00000000000E+00 0. -1.
</event>
<event>
 5    1  0.1691066E-003  0.9118800E+02  0.7818608E-02  0.1130116E+00
         25   -1    0    0    0    0  0.00000000000E+00  0.00000000000E+00  0.99999998245E-14  0.12500000000E+03  0.12500000000E+03 0.  0.
        -13    1    3    3    0    0  0.56185517302E+02  0.96433364989E+01  0.14084909530E+02  0.58721394175E+02  0.10566000000E+00 0.  1.
         23    2    1    0    0    0  0.25321985809E+02 -0.89876666403E+01 -0.16995464391E+01  0.98076598004E+02  0.94308798641E+02 0.  0.
         13    1    3    3    0    0 -0.30863531493E+02 -0.18631003139E+02 -0.15784455969E+02  0.39355203830E+02  0.10566000000E+00 0. -1.
         22    1    1    0    0    0 -0.25321985809E+02  0.89876666403E+01  0.16995464391E+01  0.26923401996E+02  0.00000000000E+00 0.  1.
</event>
<event>
 5    1  0.1691066E-003  0.9118800E+02  0.7818608E-02  0.1130116E+00
         25   -1    0    0    0    0  0.00000000000E+00  0.00000000000E+00  0.99999998245E-14  0.12500000000E+03  0.12500000000E+03 0.  0.
        -13    1    3    3    0    0 -0.32387608796E+02 -0.47944749024E+02 -0.38364527072E+01  0.57986081915E+02  0.10566000000E+00 0.  1.
         23    2    1    0    0    0 -0.24520406850E+02 -0.12265349300E+02 -0.11417153612E+02  0.95300832636E+02  0.90555000739E+02 0.  0.
         13    1    3    3    0    0  0.78672019466E+01  0.35679399723E+02 -0.75807009051E+01  0.37314750720E+02  0.10566000000E+00 0. -1.
         22    1    1    0    0    0  0.24520406850E+02  0.12265349300E+02  0.11417153612E+02  0.29699167364E+02  0.00000000000E+00 0.  1.
</event>
<event>
 5    1  0.1691066E-003  0.9118800E+02  0.7818608E-02  0.1130116E+00
         25   -1    0    0    0    0  0.00000000000E+00  0.00000000000E+00  0.99999998245E-14  0.12500000000E+03  0.12500000000E+03 0.  0.
        -13    1    3    3    0    0  0.48358584896E+02 -0.63925762005E+01 -0.10872032981E+02  0.49976294668E+02  0.10566000000E+00 0.  1.
         23    2    1    0    0    0  0.14267663858E+02  0.24041245270E+02 -0.86769778519E+01  0.95728210667E+02  0.91143034110E+02 0.  0.
         13    1    3    3    0    0 -0.34090921037E+02  0.30433821471E+02  0.21950551288E+01  0.45751915999E+02  0.10566000000E+00 0. -1.
         22    1    1    0    0    0 -0.14267663858E+02 -0.24041245270E+02  0.86769778519E+01  0.29271789333E+02  0.00000000000E+00 0. -1.
</event>
<event>
 5    1  0.1691066E-003  0.9118800E+02  0.7818608E-02  0.1130116E+00
         25   -1    0    0    0    0  0.00000000000E+00  0.00000000000E+00  0.99999998245E-14  0.12500000000E+03  0.12500000000E+03 0.  0.
        -13    1    3    3    0    0  0.39647109409E+01 -0.51614794008E+02 -0.18386660704E+02  0.54935292383E+02  0.10566000000E+00 0. -1.
         23    2    1    0    0    0 -0.19453437163E+02 -0.19259853860E+02 -0.42875523564E+01  0.97291494206E+02  0.93262390874E+02 0.  0.
         13    1    3    3    0    0 -0.23418148104E+02  0.32354940148E+02  0.14099108348E+02  0.42356201823E+02  0.10566000000E+00 0.  1.
         22    1    1    0    0    0  0.19453437163E+02  0.19259853860E+02  0.42875523564E+01  0.27708505794E+02  0.00000000000E+00 0. -1.
</event>
<event>
 5    1  0.1691066E-003  0.9118800E+02  0.7818608E-02  0.1130116E+00
         25   -1    0    0    0    0  0.00000000000E+00  0.00000000000E+00  0.99999998245E-14  0.12500000000E+03  0.12500000000E+03 0.  0.
        -13    1    3    3    0    0 -0.14169102861E+02  0.33700795130E+00  0.35311555057E+02  0.38049890076E+02  0.10566000000E+00 0. -1.
         23    2    1    0    0    0  0.29537413464E+02  0.96845354026E-01 -0.18284774315E+01  0.95405887361E+02  0.90699899891E+02 0.  0.
         13    1    3    3    0    0  0.43706516325E+02 -0.24016259727E+00 -0.37140032488E+02  0.57355997285E+02  0.10566000000E+00 0.  1.
         22    1    1    0    0    0 -0.29537413464E+02 -0.96845354026E-01  0.18284774315E+01  0.29594112639E+02  0.00000000000E+00 0.  1.
</event>
<event>
 5    1  0.1691066E-003  0.9118800E+02  0.7818608E-02  0.1130116E+00
         25   -1    0    0    0    0  0.00000000000E+00  0.00000000000E+00  0.99999998245E-14  0.12500000000E+03  0.12500000000E+03 0.  0.
        -13    1    3    3    0    0 -0.35331949696E+02 -0.13891626159E+02 -0.36722198070E+02  0.52819077442E+02  0.10566000000E+00 0.  1.
         23    2    1    0    0    0  0.27743692655E+01 -0.21041935982E+02 -0.22375209442E+02  0.94159925548E+02  0.88966181142E+02 0.  0.
         13    1    3    3    0    0  0.38106318962E+02 -0.71503098224E+01  0.14346988629E+02  0.41340848106E+02  0.10566000000E+00 0. -1.
         22    1    1    0    0    0 -0.27743692655E+01  0.21041935982E+02  0.22375209442E+02  0.30840074452E+02  0.00000000000E+00 0.  1.
</event>
<event>
 5    1  0.1691066E-003  0.9118800E+02  0.7818608E-02  0.1130116E+00
         25   -1    0    0    0    0  0.00000000000E+00  0.00000000000E+00  0.99999998245E-14  0.12500000000E+03  0.12500000000E+03 0.  0.
        -13    1    3    3    0    0  0.22020973347E+02 -0.27844492304E+02 -0.46798483444E+02  0.58739664925E+02  0.10566000000E+00 0. -1.
         23    2    1    0    0    0  0.21363283548E+02 -0.25761129744E+01 -0.19242635611E+02  0.96132972664E+02  0.91696473029E+02 0.  0.
         13    1    3    3    0    0 -0.65768979953E+00  0.25268379329E+02  0.27555847833E+02  0.37393307739E+02  0.10566000000E+00 0.  1.
         22    1    1    0    0    0 -0.21363283548E+02  0.25761129744E+01  0.19242635611E+02  0.28867027336E+02  0.00000000000E+00 0. -1.
</event>
<event>
 5    1  0.1691066E-003  0.9118800E+02  0.7818608E-02  0.1130116E+00
         25   -1    0    0    0    0  0.00000000000E+00  0.00000000000E+00  0.99999998245E-14  0.12500000000E+03  0.12500000000E+03 0.  0.
        -13    1    3    3    0    0  0.46716604590E+02  0.23625672773E+02 -0.23720440105E+02  0.57474202919E+02  0.10566000000E+00 0.  1.
         23    2    1    0    0    0  0.27683160727E+02  0.37418070200E+01  0.42808601280E+01  0.96738997346E+02  0.92518913398E+02 0.  0.
         13    1    3    3    0    0 -0.19033443863E+02 -0.19883865753E+02  0.28001300233E+02  0.39264794427E+02  0.10566000000E+00 0. -1.
         22    1    1    0    0    0 -0.27683160727E+02 -0.37418070200E+01 -0.42808601280E+01  0.28261002654E+02  0.00000000000E+00 0.  1.
</event>
<event>
 5    1  0.1691066E-003  0.9118800E+02  0.7818608E-02  0.1130116E+00
         25   -1    0    0    0    0  0.00000000000E+00  0.00000000000E+00  0.99999998245E-14  0.12500000000E+03  0.12500000000E+03 0.  0.
        -13    1    3    3    0    0  0.18260535453E+02 -0.29977533121E+02  0.23970954811E+02  0.42505499475E+02  0.10566000000E+00 0. -1.
         23    2    1    0    0    0 -0.25736127730E+02 -0.79692935106E+01 -0.17184921414E+01  0.98003497915E+02  0.94211859543E+02 0.  0.
         13    1    3    3    0    0 -0.43996663183E+02  0.22008239610E+02 -0.25689446952E+02  0.55497998439E+02  0.10566000000E+00 0.  1.
         22    1    1    0    0    0  0.25736127730E+02  0.79692935106E+01  0.17184921414E+01  0.26996502085E+02  0.00000000000E+00 0.  1.
</event>
<event>
 5    1  0.1691066E-003  0.9118800E+02  0.7818608E-02  0.1130116E+00
         25   -1    0    0    0    0  0.00000000000E+00  0.00000000000E+00  0.99999998245E-14  0.12500000000E+03  0.12500000000E+03 0.  0.
        -13    1    3    3    0    0  0.83353184656E+01 -0.57090340834E+02  0.50325811516E+01  0.57914787296E+02  0.10566000000E+00 0.  1.
         23    2    1    0    0    0 -0.35454350498E+01 -0.25979278177E+02 -0.12943424445E+02  0.95759185362E+02  0.91185505101E+02 0.  0.
         13    1    3    3    0    0 -0.11880753515E+02  0.31111062657E+02 -0.17976005596E+02  0.37844398066E+02  0.10566000000E+00 0. -1.
         22    1    1    0    0    0  0.35454350498E+01  0.25979278177E+02  0.12943424445E+02  0.29240814638E+02  0.00000000000E+00 0.  1.
</event>
<event>
 5    1  0.1691066E-003  0.9118800E+02  0.7818608E-02  0.1130116E+00
         25   -1    0    0    0    0  0.00000000000E+00  0.00000000000E+00  0.99999998245E-14  0.12500000000E+03  0.12500000000E+03 0.  0.
        -13    1    3    3    0    0 -0.37233850971E+02  0.22678756297E+02 -0.99075121320E+01  0.44708563005E+02  0.10566000000E+00 0.  1.
         23    2    1    0    0    0 -0.81672297957E+01 -0.17453478210E+02 -0.22038941541E+02  0.95724711984E+02  0.91138235643E+02 0.  0.
         13    1    3    3    0    0  0.29066621176E+02 -0.40132234507E+02 -0.12131429409E+02  0.51016148979E+02  0.10566000000E+00 0. -1.
         22    1    1    0    0    0  0.81672297957E+01  0.17453478210E+02  0.22038941541E+02  0.29275288016E+02  0.00000000000E+00 0. -1.
</event>
<event>
 5    1  0.1691066E-003  0.9118800E+02  0.7818608E-02  0.1130116E+00
         25   -1    0    0    0    0  0.00000000000E+00  0.00000000000E+00  0.99999998245E-14  0.12500000000E+03  0.12500000000E+03 0.  0.
        -13    1    3    3    0    0 -0.39022867860E+00 -0.29604864399E+02  0.47746783698E+02  0.56181552061E+02  0.10566000000E+00 0. -1.
         23    2    1    0    0    0  0.23358224852E+01  0.52948716088E+01  0.28071566129E+02  0.96338099208E+02  0.91975675057E+02 0.  0.
         13    1    3    3    0    0  0.27260511638E+01  0.34899736008E+02 -0.19675217569E+02  0.40156547147E+02  0.10566000000E+00 0.  1.
         22    1    1    0    0    0 -0.23358224852E+01 -0.52948716088E+01 -0.28071566129E+02  0.28661900792E+02  0.00000000000E+00 0. -1.
</event>
<event>
 5    1  0.1691066E-003  0.9118800E+02  0.7818608E-02  0.1130116E+00
         25   -1    0    0    0    0  0.00000000000E+00  0.00000000000E+00  0.99999998245E-14  0.12500000000E+03  0.12500000000E+03 0.  0.
        -13    1    3    3    0    0 -0.30746601587E+02  0.58612782106E+01  0.13875923117E+02  0.34238289937E+02  0.10566000000E+00 0.  1.
         23    2    1    0    0    0  0.21335326900E+02 -0.17795176949E+02 -0.89268960895E+01  0.95818602323E+02  0.91266919422E+02 0.  0.
         13    1    3    3    0    0  0.52081928488E+02 -0.23656455160E+02 -0.22802819207E+02  0.61580312386E+02  0.10566000000E+00 0. -1.
         22    1    1    0    0    0 -0.21335326900E+02  0.17795176949E+02  0.89268960895E+01  0.29181397677E+02  0.00000000000E+00 0. -1.
</event>
<event>
 5    1  0.1691066E-003  0.9118800E+02  0.7818608E-02  0.1130116E+00
         25   -1    0    0    0    0  0.00000000000E+00  0.00000000000E+00  0.99999998245E-14  0.12500000000E+03  0.12500000000E+03 0.  0.
        -13    1    3    3    0    0 -0.10555077117E+02  0.29118181980E+01  0.22778995716E+02  0.25274139907E+02  0.10566000000E+00 0.  1.
         23    2    1    0    0    0  0.38178185435E+02 -0.87415252671E+01 -0.92667912473E+01  0.84752496635E+02  0.74586353704E+02 0.  0.
         13    1    3    3    0    0  0.48733262552E+02 -0.11653343465E+02 -0.32045786964E+02  0.59478356728E+02  0.10566000000E+00 0. -1.
         22    1    1    0    0    0 -0.38178185435E+02  0.87415252671E+01  0.92667912473E+01  0.40247503365E+02  0.00000000000E+00 0. -1.
</event>
<event>
 5    1  0.1691066E-003  0.9118800E+02  0.7818608E-02  0.1130116E+00
         25   -1    0    0    0    0  0.00000000000E+00  0.00000000000E+00  0.99999998245E-14  0.12500000000E+03  0.12500000000E+03 0.  0.
        -13    1    3    3    0    0  0.19717877156E+02 -0.35206436775E+02 -0.91159753852E+01  0.41369071070E+02  0.10566000000E+00 0.  1.
         23    2    1    0    0    0 -0.26852916053E+02 -0.20521463493E+02 -0.82634725868E+01  0.90207837900E+02  0.83228357396E+02 0.  0.
         13    1    3    3    0    0 -0.46570793209E+02  0.14684973282E+02  0.85250279834E+00  0.48838766830E+02  0.10566000000E+00 0. -1.
         22    1    1    0    0    0  0.26852916053E+02  0.20521463493E+02  0.82634725868E+01  0.34792162100E+02  0.00000000000E+00 0. -1.
</event>
<event>
 5    1  0.1691066E-003  0.9118800E+02  0.7818608E-02  0.1130116E+00
         25   -1    0    0    0    0  0.00000000000E+00  0.00000000000E+00  0.99999998245E-14  0.12500000000E+03  0.12500000000E+03 0.  0.
        -13    1    3    3    0    0  0.71781657907E+01  0.14488802919E+02 -0.36663126938E+02  0.40070531754E+02  0.10566000000E+00 0.  1.
         23    2    1    0    0    0 -0.23730552407E+02  0.13675465374E+02  0.98249688299E+01  0.95902105175E+02  0.91381214119E+02 0.  0.
         13    1    3    3    0    0 -0.30908718197E+02 -0.81333754559E+00  0.46488095768E+02  0.55831573421E+02  0.10566000000E+00 0. -1.
         22    1    1    0    0    0  0.23730552407E+02 -0.13675465374E+02 -0.98249688299E+01  0.29097894825E+02  0.00000000000E+00 0. -1.
</event>
<event>
 5    1  0.1691066E-003  0.9118800E+02  0.7818608E-02  0.1130116E+00
         25   -1    0    0    0    0  0.00000000000E+00  0.00000000000E+00  0.99999998245E-14  0.12500000000E+03  0.12500000000E+03 0.  0.
        -13    1    3    3    0    0  0.42626659488E+02 -0.41616887335E+02 -0.14711609988E+02  0.61363181493E+02  0.10566000000E+00 0. -1.
         23    2    1    0    0    0  0.14748977037E+02 -0.25497726437E+02 -0.99085281255E+01  0.93921948151E+02  0.88631185470E+02 0.  0.
         13    1    3    3    0    0 -0.27877682450E+02  0.16119160898E+02  0.48030818624E+01  0.32558766658E+02  0.10566000000E+00 0.  1.
         22    1    1    0    0    0 -0.14748977037E+02  0.25497726437E+02  0.99085281255E+01  0.31078051849E+02  0.00000000000E+00 0. -1.
</event>
<event>
 5    1  0.1691066E-003  0.9118800E+02  0.7818608E-02  0.1130116E+00
         25   -1    0    0    0    0  0.00000000000E+00  0.00000000000E+00  0.99999998245E-14  0.12500000000E+03  0.12500000000E+03 0.  0.
        -13    1    3    3    0    0 -0.18270194558E+02 -0.46679631068E+02  0.13237568867E+02  0.51846237658E+02  0.10566000000E+00 0. -1.
         23    2    1    0    0    0  0.34761183582E+01 -0.23115570879E+02 -0.17138314696E+02  0.96014920277E+02  0.91535403365E+02 0.  0.
         13    1    3    3    0    0  0.21746312916E+02  0.23564060188E+02 -0.30375883563E+02  0.44168682619E+02  0.10566000000E+00 0.  1.
         22    1    1    0    0    0 -0.34761183582E+01  0.23115570879E+02  0.17138314696E+02  0.28985079723E+02  0.00000000000E+00 0. -1.
</event>
<event>
 5    1  0.1691066E-003  0.9118800E+02  0.7818608E-02  0.1130116E+00
         25   -1    0    0    0    0  0.00000000000E+00  0.00000000000E+00  0.99999998245E-14  0.12500000000E+03  0.12500000000E+03 0.  0.
        -13    1    3    3    0    0  0.36283211745E+02 -0.18805866635E+02 -0.23985044728E+02  0.47385922055E+02  0.10566000000E+00 0.  1.
         23    2    1    0    0    0  0.20543370231E+02  0.21986245592E+02 -0.99959890821E+01  0.93292826467E+02  0.87739424530E+02 0.  0.
         13    1    3    3    0    0 -0.15739841514E+02  0.40792112227E+02  0.13989055645E+02  0.45906904412E+02  0.10566000000E+00 0. -1.
         22    1    1    0    0    0 -0.20543370231E+02 -0.21986245592E+02  0.99959890821E+01  0.31707173533E+02  0.00000000000E+00 0.  1.
</event>
<event>
 5    1  0.1691066E-003  0.9118800E+02  0.7818608E-02  0.1130116E+00
         25   -1    0    0    0    0  0.00000000000E+00  0.00000000000E+00  0.99999998245E-14  0.12500000000E+03  0.12500000000E+03 0.  0.
        -13    1    3    3    0    0  0.41147326059E+01  0.24329518588E+02 -0.54389100692E+02  0.59724717976E+02  0.10566000000E+00 0. -1.
         23    2    1    0    0    0  0.13837592494E+02  0.15128657325E+02 -0.21219780321E+02  0.95493486899E+02  0.90820546821E+02 0.  0.
         13    1    3    3    0    0  0.97228598878E+01 -0.92008612630E+01  0.33169320371E+02  0.35768768924E+02  0.10566000000E+00 0.  1.
         22    1    1    0    0    0 -0.13837592494E+02 -0.15128657325E+02  0.21219780321E+02  0.29506513101E+02  0.00000000000E+00 0. -1.
</event>
<event>
 5    1  0.1691066E-003  0.9118800E+02  0.7818608E-02  0.1130116E+00
         25   -1    0    0    0    0  0.00000000000E+00  0.00000000000E+00  0.99999998245E-14  0.12500000000E+03  0.12500000000E+03 0.  0.
        -13    1    3    3    0    0 -0.32540743207E+02  0.17756578849E+02 -0.28414661531E+02  0.46707603395E+02  0.10566000000E+00 0. -1.
         23    2    1    0    0    0 -0.10012764383E+02 -0.23655799916E+02 -0.12208465508E+02  0.96558851107E+02  0.92275201310E+02 0.  0.
         13    1    3    3    0    0  0.22527978824E+02 -0.41412378766E+02  0.16206196024E+02  0.49851247713E+02  0.10566000000E+00 0.  1.
         22    1    1    0    0    0  0.10012764383E+02  0.23655799916E+02  0.12208465508E+02  0.28441148893E+02  0.00000000000E+00 0. -1.
</event>
<event>
 5    1  0.1691066E-003  0.9118800E+02  0.7818608E-02  0.1130116E+00
         25   -1    0    0    0    0  0.00000000000E+00  0.00000000000E+00  0.99999998245E-14  0.12500000000E+03  0.12500000000E+03 0.  0.
        -13    1    3    3    0    0 -0.26936147766E+02  0.31104673198E+02 -0.26804223744E+02  0.49107375472E+02  0.10566000000E+00 0.  1.
         23    2    1    0    0    0 -0.51318187239E+01  0.25330694040E+02  0.13907748935E+02  0.95650296349E+02  0.91036114192E+02 0.  0.
         13    1    3    3    0    0  0.21804329042E+02 -0.57739791576E+01  0.40711972679E+02  0.46542920877E+02  0.10566000000E+00 0. -1.
         22    1    1    0    0    0  0.51318187239E+01 -0.25330694040E+02 -0.13907748935E+02  0.29349703651E+02  0.00000000000E+00 0.  1.
</event>
<event>
 5    1  0.1691066E-003  0.9118800E+02  0.7818608E-02  0.1130116E+00
         25   -1    0    0    0    0  0.00000000000E+00  0.00000000000E+00  0.99999998245E-14  0.12500000000E+03  0.12500000000E+03 0.  0.
        -13    1    3    3    0    0  0.37039685281E+02  0.44531265659E+02  0.76145220620E+01  0.58420578713E+02  0.10566000000E+00 0. -1.
         23    2    1    0    0    0  0.27045734574E+02  0.87763422654E+01 -0.10604864378E+01  0.96546167680E+02  0.92258018189E+02 0.  0.
         13    1    3    3    0    0 -0.99939507075E+01 -0.35754923393E+02 -0.86750084999E+01  0.38125588967E+02  0.10566000000E+00 0.  1.
         22    1    1    0    0    0 -0.27045734574E+02 -0.87763422654E+01  0.10604864378E+01  0.28453832320E+02  0.00000000000E+00 0. -1.
</event>
<event>
 5    1  0.1691066E-003  0.9118800E+02  0.7818608E-02  0.1130116E+00
         25   -1    0    0    0    0  0.00000000000E+00  0.00000000000E+00  0.99999998245E-14  0.12500000000E+03  0.12500000000E+03 0.  0.
        -13    1    3    3    0    0 -0.31469306777E+02 -0.25436391205E+02 -0.12998789594E+02  0.42500670130E+02  0.10566000000E+00 0.  1.
         23    2    1    0    0    0 -0.36965384460E+02  0.81323712041E+01 -0.26177297457E+02  0.78980156326E+02  0.64187530576E+02 0.  0.
         13    1    3    3    0    0 -0.54960776830E+01  0.33568762409E+02 -0.13178507863E+02  0.36479486196E+02  0.10566000000E+00 0. -1.
         22    1    1    0    0    0  0.36965384460E+02 -0.81323712041E+01  0.26177297457E+02  0.46019843674E+02  0.00000000000E+00 0. -1.
</event>
<event>
 5    1  0.1691066E-003  0.9118800E+02  0.7818608E-02  0.1130116E+00
         25   -1    0    0    0    0  0.00000000000E+00  0.00000000000E+00  0.99999998245E-14  0.12500000000E+03  0.12500000000E+03 0.  0.
        -13    1    3    3    0    0 -0.17073573150E+01 -0.47276915780E+02  0.31787988825E+02  0.56995694857E+02  0.10566000000E+00 0.  1.
         23    2    1    0    0    0  0.13670926738E+02 -0.25490338911E+02  0.35130566166E+01  0.95862512421E+02  0.91327039288E+02 0.  0.
         13    1    3    3    0    0  0.15378284053E+02  0.21786576869E+02 -0.28274932208E+02  0.38866817563E+02  0.10566000000E+00 0. -1.
         22    1    1    0    0    0 -0.13670926738E+02  0.25490338911E+02 -0.35130566166E+01  0.29137487579E+02  0.00000000000E+00 0.  1.
</event>
<event>
 5    1  0.1691066E-003  0.9118800E+02  0.7818608E-02  0.1130116E+00
         25   -1    0    0    0    0  0.00000000000E+00  0.00000000000E+00  0.99999998245E-14  0.12500000000E+03  0.12500000000E+03 0.  0.
        -13    1    3    3    0    0 -0.90764522731E+01 -0.28102221180E+02  0.44647020381E+02  0.53530219634E+02  0.10566000000E+00 0.  1.
         23    2    1    0    0    0  0.18593577802E+02 -0.39100647561E+01  0.13745687751E+02  0.10154890890E+03  0.98803983856E+02 0.  0.
         13    1    3    3    0    0  0.27670030075E+02  0.24192156424E+02 -0.30901332631E+02  0.48018689270E+02  0.10566000000E+00 0. -1.
         22    1    1    0    0    0 -0.18593577802E+02  0.39100647561E+01 -0.13745687751E+02  0.23451091096E+02  0.00000000000E+00 0.  1.
</event>
<event>
 5    1  0.1691066E-003  0.9118800E+02  0.7818608E-02  0.1130116E+00
         25   -1    0    0    0    0  0.00000000000E+00  0.00000000000E+00  0.99999998245E-14  0.12500000000E+03  0.12500000000E+03 0.  0.
        -13    1    3    3    0    0  0.23002443854E+02 -0.43619524613E+02  0.34777117846E+02  0.60342641974E+02  0.10566000000E+00 0. -1.
         23    2    1    0    0    0  0.36133748696E+01 -0.27014061126E+02  0.98567819910E+01  0.96017727354E+02  0.91539236607E+02 0.  0.
         13    1    3    3    0    0 -0.19389068985E+02  0.16605463487E+02 -0.24920335855E+02  0.35675085380E+02  0.10566000000E+00 0.  1.
         22    1    1    0    0    0 -0.36133748696E+01  0.27014061126E+02 -0.98567819910E+01  0.28982272646E+02  0.00000000000E+00 0. -1.
</event>
<event>
 5    1  0.1691066E-003  0.9118800E+02  0.7818608E-02  0.1130116E+00
         25   -1    0    0    0    0  0.00000000000E+00  0.00000000000E+00  0.99999998245E-14  0.12500000000E+03  0.12500000000E+03 0.  0.
        -13    1    3    3    0    0 -0.14672445901E+02  0.39506299993E+01  0.34634935995E+02  0.37821661802E+02  0.10566000000E+00 0.  1.
         23    2    1    0    0    0 -0.11694789888E+02 -0.17684840721E+02 -0.19498908775E+02  0.96194980555E+02  0.91780962833E+02 0.  0.
         13    1    3    3    0    0  0.29776560126E+01 -0.21635470720E+02 -0.54133844769E+02  0.58373318752E+02  0.10566000000E+00 0. -1.
         22    1    1    0    0    0  0.11694789888E+02  0.17684840721E+02  0.19498908775E+02  0.28805019445E+02  0.00000000000E+00 0. -1.
</event>
<event>
 5    1  0.1691066E-003  0.9118800E+02  0.7818608E-02  0.1130116E+00
         25   -1    0    0    0    0  0.00000000000E+00  0.00000000000E+00  0.99999998245E-14  0.12500000000E+03  0.12500000000E+03 0.  0.
        -13    1    3    3    0    0  0.48190586258E+01 -0.56339718608E+02 -0.18054736353E+02  0.59357997672E+02  0.10566000000E+00 0.  1.
         23    2    1    0    0    0  0.25650837218E+01 -0.28749090309E+02  0.53938220488E+01  0.95637044352E+02  0.91017916302E+02 0.  0.
         13    1    3    3    0    0 -0.22539749041E+01  0.27590628299E+02  0.23448558402E+02  0.36279046679E+02  0.10566000000E+00 0. -1.
         22    1    1    0    0    0 -0.25650837218E+01  0.28749090309E+02 -0.53938220488E+01  0.29362955648E+02  0.00000000000E+00 0.  1.
</event>
<event>
 5    1  0.1691066E-003  0.9118800E+02  0.7818608E-02  0.1130116E+00
         25   -1    0    0    0    0  0.00000000000E+00  0.00000000000E+00  0.99999998245E-14  0.12500000000E+03  0.12500000000E+03 0.  0.
        -13    1    3    3    0    0 -0.16819964093E+02 -0.48935580771E+02  0.14494536181E+02  0.53737370615E+02  0.10566000000E+00 0.  1.
         23    2    1    0    0    0 -0.14562298042E+02 -0.16939608885E+02  0.28543136477E+02  0.88754703569E+02  0.81016516170E+02 0.  0.
         13    1    3    3    0    0  0.22576660510E+01  0.31995971886E+02  0.14048600296E+02  0.35017332954E+02  0.10566000000E+00 0. -1.
         22    1    1    0    0    0  0.14562298042E+02  0.16939608885E+02 -0.28543136477E+02  0.36245296431E+02  0.00000000000E+00 0.  1.
</event>
<event>
 5    1  0.1691066E-003  0.9118800E+02  0.7818608E-02  0.1130116E+00
         25   -1    0    0    0    0  0.00000000000E+00  0.00000000000E+00  0.99999998245E-14  0.12500000000E+03  0.12500000000E+03 0.  0.
        -13    1    3    3    0    0  0.27109249164E+01 -0.17291188099E+02  0.30288502547E+02  0.34981978937E+02  0.10566000000E+00 0.  1.
         23    2    1    0    0    0  0.14092652005E+02  0.18750730810E+02 -0.17372657303E+02  0.95810927247E+02  0.91256406962E+02 0.  0.
         13    1    3    3    0    0  0.11381727088E+02  0.36041918909E+02 -0.47661159850E+02  0.60828948309E+02  0.10566000000E+00 0. -1.
         22    1    1    0    0    0 -0.14092652005E+02 -0.18750730810E+02  0.17372657303E+02  0.29189072753E+02  0.00000000000E+00 0. -1.
</event>
<event>
 5    1  0.1691066E-003  0.9118800E+02  0.7818608E-02  0.1130116E+00
         25   -1    0    0    0    0  0.00000000000E+00  0.00000000000E+00  0.99999998245E-14  0.12500000000E+03  0.12500000000E+03 0.  0.
        -13    1    3    3    0    0 -0.51831278005E+02  0.21569283545E+02  0.27436236281E+02  0.62485787164E+02  0.10566000000E+00 0. -1.
         23    2    1    0    0    0 -0.30054945236E+02  0.12162739389E+02  0.14870512390E+02  0.89329786918E+02  0.81899003226E+02 0.  0.
         13    1    3    3    0    0  0.21776332768E+02 -0.94065441569E+01 -0.12565723891E+02  0.26843999753E+02  0.10566000000E+00 0.  1.
         22    1    1    0    0    0  0.30054945236E+02 -0.12162739389E+02 -0.14870512390E+02  0.35670213082E+02  0.00000000000E+00 0. -1.
</event>
<event>
 5    1  0.1691066E-003  0.9118800E+02  0.7818608E-02  0.1130116E+00
         25   -1    0    0    0    0  0.00000000000E+00  0.00000000000E+00  0.99999998245E-14  0.12500000000E+03  0.12500000000E+03 0.  0.
        -13    1    3    3    0    0  0.37271599847E+02 -0.11432456119E+02  0.35655071016E+00  0.38987324870E+02  0.10566000000E+00 0.  1.
         23    2    1    0    0    0 -0.11293972534E+02  0.17140893977E+02 -0.17425194264E+02  0.98074148907E+02  0.94305552471E+02 0.  0.
         13    1    3    3    0    0 -0.48565572381E+02  0.28573350096E+02 -0.17781744974E+02  0.59086824037E+02  0.10566000000E+00 0. -1.
         22    1    1    0    0    0  0.11293972534E+02 -0.17140893977E+02  0.17425194264E+02  0.26925851093E+02  0.00000000000E+00 0. -1.
</event>
<event>
 5    1  0.1691066E-003  0.9118800E+02  0.7818608E-02  0.1130116E+00
         25   -1    0    0    0    0  0.00000000000E+00  0.00000000000E+00  0.99999998245E-14  0.12500000000E+03  0.12500000000E+03 0.  0.
        -13    1    3    3    0    0  0.38265089721E+02 -0.16793086011E+02  0.11519898865E+01  0.41803864342E+02  0.10566000000E+00 0.  1.
         23    2    1    0    0    0  0.90875974464E+01  0.25612645647E+02  0.13376073688E+02  0.94709549497E+02  0.89735095555E+02 0.  0.
         13    1    3    3    0    0 -0.29177492275E+02  0.42405731658E+02  0.12224083801E+02  0.52905685155E+02  0.10566000000E+00 0. -1.
         22    1    1    0    0    0 -0.90875974464E+01 -0.25612645647E+02 -0.13376073688E+02  0.30290450503E+02  0.00000000000E+00 0. -1.
</event>
<event>
 5    1  0.1691066E-003  0.9118800E+02  0.7818608E-02  0.1130116E+00
         25   -1    0    0    0    0  0.00000000000E+00  0.00000000000E+00  0.99999998245E-14  0.12500000000E+03  0.12500000000E+03 0.  0.
        -13    1    3    3    0    0  0.37222823441E+02 -0.28975715993E+02  0.14550071744E+02  0.49364424984E+02  0.10566000000E+00 0.  1.
         23    2    1    0    0    0 -0.21095624556E+01 -0.28918410946E+02 -0.82839797655E+01  0.94844584796E+02  0.89923001501E+02 0.  0.
         13    1    3    3    0    0 -0.39332385896E+02  0.57305047319E-01 -0.22834051509E+02  0.45480159812E+02  0.10566000000E+00 0. -1.
         22    1    1    0    0    0  0.21095624556E+01  0.28918410946E+02  0.82839797655E+01  0.30155415204E+02  0.00000000000E+00 0.  1.
</event>
<event>
 5    1  0.1691066E-003  0.9118800E+02  0.7818608E-02  0.1130116E+00
         25   -1    0    0    0    0  0.00000000000E+00  0.00000000000E+00  0.99999998245E-14  0.12500000000E+03  0.12500000000E+03 0.  0.
        -13    1    3    3    0    0 -0.60791925527E+01 -0.13142933169E+02  0.37389278693E+02  0.40095668090E+02  0.10566000000E+00 0.  1.
         23    2    1    0    0    0  0.14768817591E+02  0.24044420455E+02  0.28933336173E-01  0.96782045340E+02  0.92577056202E+02 0.  0.
         13    1    3    3    0    0  0.20848010143E+02  0.37187353624E+02 -0.37360345357E+02  0.56686377250E+02  0.10566000000E+00 0. -1.
         22    1    1    0    0    0 -0.14768817591E+02 -0.24044420455E+02 -0.28933336173E-01  0.28217954660E+02  0.00000000000E+00 0. -1.
</event>
<event>
 5    1  0.1691066E-003  0.9118800E+02  0.7818608E-02  0.1130116E+00
         25   -1    0    0    0    0  0.00000000000E+00  0.00000000000E+00  0.99999998245E-14  0.12500000000E+03  0.12500000000E+03 0.  0.
        -13    1    3    3    0    0 -0.35941170363E+02 -0.13551982782E+02 -0.19836525320E+02  0.43231040529E+02  0.10566000000E+00 0.  1.
         23    2    1    0    0    0  0.20299277470E+02 -0.80047338575E+01  0.16267255091E+00  0.10317884301E+03  0.10084498378E+03 0.  0.
         13    1    3    3    0    0  0.56240447833E+02  0.55472489245E+01  0.19999197871E+02  0.59947802483E+02  0.10566000000E+00 0. -1.
         22    1    1    0    0    0 -0.20299277470E+02  0.80047338575E+01 -0.16267255091E+00  0.21821156988E+02  0.00000000000E+00 0. -1.
</event>
<event>
 5    1  0.1691066E-003  0.9118800E+02  0.7818608E-02  0.1130116E+00
         25   -1    0    0    0    0  0.00000000000E+00  0.00000000000E+00  0.99999998245E-14  0.12500000000E+03  0.12500000000E+03 0.  0.
        -13    1    3    3    0    0 -0.79771496090E+00  0.54980335945E+02 -0.42325464267E+01  0.55148883063E+02  0.10566000000E+00 0.  1.
         23    2    1    0    0    0  0.78767243496E+01  0.20678482274E+02  0.17601538739E+02  0.96725336755E+02  0.92500455074E+02 0.  0.
         13    1    3    3    0    0  0.86744393105E+01 -0.34301853671E+02  0.21834085165E+02  0.41576453693E+02  0.10566000000E+00 0. -1.
         22    1    1    0    0    0 -0.78767243496E+01 -0.20678482274E+02 -0.17601538739E+02  0.28274663245E+02  0.00000000000E+00 0.  1.
</event>
<event>
 5    1  0.1691066E-003  0.9118800E+02  0.7818608E-02  0.1130116E+00
         25   -1    0    0    0    0  0.00000000000E+00  0.00000000000E+00  0.99999998245E-14  0.12500000000E+03  0.12500000000E+03 0.  0.
        -13    1    3    3    0    0  0.31260983307E+02 -0.10895250086E+01  0.51942188155E+02  0.60633639313E+02  0.10566000000E+00 0. -1.
         23    2    1    0    0    0  0.11664303076E+02 -0.10839595298E+02  0.25188397085E+02  0.95200534566E+02  0.90416445636E+02 0.  0.
         13    1    3    3    0    0 -0.19596680231E+02 -0.97500702895E+01 -0.26753791070E+02  0.34566895252E+02  0.10566000000E+00 0.  1.
         22    1    1    0    0    0 -0.11664303076E+02  0.10839595298E+02 -0.25188397085E+02  0.29799465434E+02  0.00000000000E+00 0. -1.
</event>
<event>
 5    1  0.1691066E-003  0.9118800E+02  0.7818608E-02  0.1130116E+00
         25   -1    0    0    0    0  0.00000000000E+00  0.00000000000E+00  0.99999998245E-14  0.12500000000E+03  0.12500000000E+03 0.  0.
        -13    1    3    3    0    0  0.22708611913E+02  0.28856020030E+02 -0.25116781508E+01  0.36805850597E+02  0.10566000000E+00 0.  1.
         23    2    1    0    0    0 -0.28066870242E+02 -0.19338072396E+01 -0.57864444184E+01  0.96277678461E+02  0.91893523249E+02 0.  0.
         13    1    3    3    0    0 -0.50775482154E+02 -0.30789827270E+02 -0.32747662676E+01  0.59471827864E+02  0.10566000000E+00 0. -1.
         22    1    1    0    0    0  0.28066870242E+02  0.19338072396E+01  0.57864444184E+01  0.28722321539E+02  0.00000000000E+00 0. -1.
</event>
<event>
 4    1  0.1691066E-003  0.9118800E+02  0.7818608E-02  0.1130116E+00
         25   -1    0    0    0    0  0.00000000000E+00  0.00000000000E+00  0.99999998245E-14  0.12500000000E+03  0.12500000000E+03 0.  0.
        -13    1    1    0    0    0  0.28484045480E+02  0.36003527861E+02  0.19720395827E+01  0.45951006186E+02  0.10566000000E+00 0. -1.
         13    1    1    0    0    0 -0.11956439977E+02  0.16599740136E+02  0.97747577313E+01  0.22672998969E+02  0.10566000000E+00 0.  1.
         22    1    1    0    0    0 -0.16527605503E+02 -0.52603267997E+02 -0.11746797314E+02  0.56375994845E+02  0.00000000000E+00 0. -1.
</event>
<event>
 5    1  0.1691066E-003  0.9118800E+02  0.7818608E-02  0.1130116E+00
         25   -1    0    0    0    0  0.00000000000E+00  0.00000000000E+00  0.99999998245E-14  0.12500000000E+03  0.12500000000E+03 0.  0.
        -13    1    3    3    0    0  0.33631717025E+02 -0.19105634183E+02 -0.31869880695E+02  0.50118041733E+02  0.10566000000E+00 0.  1.
         23    2    1    0    0    0  0.24877800017E+02 -0.64331961451E+01  0.12019591107E+02  0.96631681109E+02  0.92373807311E+02 0.  0.
         13    1    3    3    0    0 -0.87539170083E+01  0.12672438038E+02  0.43889471803E+02  0.46513639375E+02  0.10566000000E+00 0. -1.
         22    1    1    0    0    0 -0.24877800017E+02  0.64331961451E+01 -0.12019591107E+02  0.28368318891E+02  0.00000000000E+00 0.  1.
</event>
<event>
 5    1  0.1691066E-003  0.9118800E+02  0.7818608E-02  0.1130116E+00
         25   -1    0    0    0    0  0.00000000000E+00  0.00000000000E+00  0.99999998245E-14  0.12500000000E+03  0.12500000000E+03 0.  0.
        -13    1    3    3    0    0  0.16083394054E+02  0.52206606528E+02  0.17358524795E+02  0.57319585453E+02  0.10566000000E+00 0.  1.
         23    2    1    0    0    0  0.15258262504E+02  0.13023045880E+02  0.20093116910E+02  0.96607260685E+02  0.92340755744E+02 0.  0.
         13    1    3    3    0    0 -0.82513155033E+00 -0.39183560647E+02  0.27345921154E+01  0.39287675232E+02  0.10566000000E+00 0. -1.
         22    1    1    0    0    0 -0.15258262504E+02 -0.13023045880E+02 -0.20093116910E+02  0.28392739315E+02  0.00000000000E+00 0.  1.
</event>
<event>
 5    1  0.1691066E-003  0.9118800E+02  0.7818608E-02  0.1130116E+00
         25   -1    0    0    0    0  0.00000000000E+00  0.00000000000E+00  0.99999998245E-14  0.12500000000E+03  0.12500000000E+03 0.  0.
        -13    1    3    3    0    0 -0.25189635010E+02  0.13997412180E+01  0.30508841469E+02  0.39588856503E+02  0.10566000000E+00 0. -1.
         23    2    1    0    0    0  0.55149447201E+00  0.19319992167E+02 -0.18805912818E+02  0.98032823648E+02  0.94250760803E+02 0.  0.
         13    1    3    3    0    0  0.25741129482E+02  0.17920250949E+02 -0.49314754287E+02  0.58443967144E+02  0.10566000000E+00 0.  1.
         22    1    1    0    0    0 -0.55149447201E+00 -0.19319992167E+02  0.18805912818E+02  0.26967176352E+02  0.00000000000E+00 0.  1.
</event>
<event>
 5    1  0.1691066E-003  0.9118800E+02  0.7818608E-02  0.1130116E+00
         25   -1    0    0    0    0  0.00000000000E+00  0.00000000000E+00  0.99999998245E-14  0.12500000000E+03  0.12500000000E+03 0.  0.
        -13    1    3    3    0    0 -0.22541341108E+02  0.18560149377E+02 -0.28972246534E+02  0.41133847827E+02  0.10566000000E+00 0.  1.
         23    2    1    0    0    0 -0.16992554346E+02  0.66820891524E+01  0.23511918668E+02  0.95230761882E+02  0.90458225002E+02 0.  0.
         13    1    3    3    0    0  0.55487867616E+01 -0.11878060224E+02  0.52484165203E+02  0.54096914055E+02  0.10566000000E+00 0. -1.
         22    1    1    0    0    0  0.16992554346E+02 -0.66820891524E+01 -0.23511918668E+02  0.29769238118E+02  0.00000000000E+00 0. -1.
</event>
<event>
 5    1  0.1691066E-003  0.9118800E+02  0.7818608E-02  0.1130116E+00
         25   -1    0    0    0    0  0.00000000000E+00  0.00000000000E+00  0.99999998245E-14  0.12500000000E+03  0.12500000000E+03 0.  0.
        -13    1    3    3    0    0  0.33649868389E+01  0.40611700986E+02 -0.15320459430E+01  0.40779795515E+02  0.10566000000E+00 0.  1.
         23    2    1    0    0    0 -0.22734733496E+02 -0.31681120138E+01 -0.19558564438E+02  0.94843035900E+02  0.89920848389E+02 0.  0.
         13    1    3    3    0    0 -0.26099720335E+02 -0.43779813000E+02 -0.18026518495E+02  0.54063240385E+02  0.10566000000E+00 0. -1.
         22    1    1    0    0    0  0.22734733496E+02  0.31681120138E+01  0.19558564438E+02  0.30156964100E+02  0.00000000000E+00 0.  1.
</event>
<event>
 5    1  0.1691066E-003  0.9118800E+02  0.7818608E-02  0.1130116E+00
         25   -1    0    0    0    0  0.00000000000E+00  0.00000000000E+00  0.99999998245E-14  0.12500000000E+03  0.12500000000E+03 0.  0.
        -13    1    3    3    0    0  0.36330209748E+02  0.47264341024E+02  0.18126245883E+02  0.62308699446E+02  0.10566000000E+00 0. -1.
         23    2    1    0    0    0  0.14062095500E+02  0.23572859938E+02  0.95864012493E+01  0.95925589526E+02  0.91413332624E+02 0.  0.
         13    1    3    3    0    0 -0.22268114248E+02 -0.23691481086E+02 -0.85398446336E+01  0.33616890079E+02  0.10566000000E+00 0.  1.
         22    1    1    0    0    0 -0.14062095500E+02 -0.23572859938E+02 -0.95864012493E+01  0.29074410474E+02  0.00000000000E+00 0. -1.
</event>
<event>
 5    1  0.1691066E-003  0.9118800E+02  0.7818608E-02  0.1130116E+00
         25   -1    0    0    0    0  0.00000000000E+00  0.00000000000E+00  0.99999998245E-14  0.12500000000E+03  0.12500000000E+03 0.  0.
        -13    1    3    3    0    0 -0.14848781539E+02 -0.11218883296E+02 -0.49992264067E+02  0.53344046398E+02  0.10566000000E+00 0. -1.
         23    2    1    0    0    0 -0.23840419386E+02 -0.13763602992E+02 -0.80441586444E+01  0.96320550003E+02  0.91951821628E+02 0.  0.
         13    1    3    3    0    0 -0.89916378475E+01 -0.25447196955E+01  0.41948105422E+02  0.42976503605E+02  0.10566000000E+00 0.  1.
         22    1    1    0    0    0  0.23840419386E+02  0.13763602992E+02  0.80441586444E+01  0.28679449997E+02  0.00000000000E+00 0. -1.
</event>
<event>
 5    1  0.1691066E-003  0.9118800E+02  0.7818608E-02  0.1130116E+00
         25   -1    0    0    0    0  0.00000000000E+00  0.00000000000E+00  0.99999998245E-14  0.12500000000E+03  0.12500000000E+03 0.  0.
        -13    1    3    3    0    0 -0.31044251472E+02  0.22970415739E+02  0.27822668753E+02  0.47597243715E+02  0.10566000000E+00 0.  1.
         23    2    1    0    0    0 -0.16471336524E+02  0.16247221420E+02 -0.17702313240E+02  0.95868418773E+02  0.91335122999E+02 0.  0.
         13    1    3    3    0    0  0.14572914948E+02 -0.67231943191E+01 -0.45524981993E+02  0.48271175058E+02  0.10566000000E+00 0. -1.
         22    1    1    0    0    0  0.16471336524E+02 -0.16247221420E+02  0.17702313240E+02  0.29131581227E+02  0.00000000000E+00 0. -1.
</event>
<event>
 5    1  0.1691066E-003  0.9118800E+02  0.7818608E-02  0.1130116E+00
         25   -1    0    0    0    0  0.00000000000E+00  0.00000000000E+00  0.99999998245E-14  0.12500000000E+03  0.12500000000E+03 0.  0.
        -13    1    3    3    0    0 -0.22525183461E+02  0.49492644653E+02  0.12447439027E+01  0.54391785374E+02  0.10566000000E+00 0. -1.
         23    2    1    0    0    0 -0.24764452584E+02  0.65295945407E+01  0.84890343280E+01  0.98018943303E+02  0.94232350208E+02 0.  0.
         13    1    3    3    0    0 -0.22392691235E+01 -0.42963050113E+02  0.72442904253E+01  0.43627157929E+02  0.10566000000E+00 0.  1.
         22    1    1    0    0    0  0.24764452584E+02 -0.65295945407E+01 -0.84890343280E+01  0.26981056697E+02  0.00000000000E+00 0.  1.
</event>
<event>
 5    1  0.1691066E-003  0.9118800E+02  0.7818608E-02  0.1130116E+00
         25   -1    0    0    0    0  0.00000000000E+00  0.00000000000E+00  0.99999998245E-14  0.12500000000E+03  0.12500000000E+03 0.  0.
        -13    1    3    3    0    0 -0.22583893239E+02 -0.13373054623E+02  0.46843497859E+02  0.53695393466E+02  0.10566000000E+00 0.  1.
         23    2    1    0    0    0 -0.25375379019E+02 -0.13252488231E+02  0.46311505133E+01  0.96000243798E+02  0.91515359091E+02 0.  0.
         13    1    3    3    0    0 -0.27914857808E+01  0.12056639169E+00 -0.42212347346E+02  0.42304850332E+02  0.10566000000E+00 0. -1.
         22    1    1    0    0    0  0.25375379019E+02  0.13252488231E+02 -0.46311505133E+01  0.28999756202E+02  0.00000000000E+00 0.  1.
</event>
<event>
 5    1  0.1691066E-003  0.9118800E+02  0.7818608E-02  0.1130116E+00
         25   -1    0    0    0    0  0.00000000000E+00  0.00000000000E+00  0.99999998245E-14  0.12500000000E+03  0.12500000000E+03 0.  0.
        -13    1    3    3    0    0  0.17793109808E+02  0.52217113222E+02  0.18177062165E+01  0.55195442654E+02  0.10566000000E+00 0. -1.
         23    2    1    0    0    0  0.26006895904E+02  0.11959838341E+02 -0.77986842603E+00  0.96364278209E+02  0.92011246879E+02 0.  0.
         13    1    3    3    0    0  0.82137860964E+01 -0.40257274881E+02 -0.25975746425E+01  0.41168835555E+02  0.10566000000E+00 0.  1.
         22    1    1    0    0    0 -0.26006895904E+02 -0.11959838341E+02  0.77986842603E+00  0.28635721791E+02  0.00000000000E+00 0. -1.
</event>
<event>
 5    1  0.1691066E-003  0.9118800E+02  0.7818608E-02  0.1130116E+00
         25   -1    0    0    0    0  0.00000000000E+00  0.00000000000E+00  0.99999998245E-14  0.12500000000E+03  0.12500000000E+03 0.  0.
        -13    1    3    3    0    0  0.26869007764E+02 -0.40296642322E+02 -0.11732859449E+02  0.49834065814E+02  0.10566000000E+00 0. -1.
         23    2    1    0    0    0  0.17714795837E+02 -0.97239483684E+01  0.21212671748E+02  0.95702447097E+02  0.91107693276E+02 0.  0.
         13    1    3    3    0    0 -0.91542119266E+01  0.30572693954E+02  0.32945531197E+02  0.45868381283E+02  0.10566000000E+00 0.  1.
         22    1    1    0    0    0 -0.17714795837E+02  0.97239483684E+01 -0.21212671748E+02  0.29297552903E+02  0.00000000000E+00 0. -1.
</event>
<event>
 5    1  0.1691066E-003  0.9118800E+02  0.7818608E-02  0.1130116E+00
         25   -1    0    0    0    0  0.00000000000E+00  0.00000000000E+00  0.99999998245E-14  0.12500000000E+03  0.12500000000E+03 0.  0.
        -13    1    3    3    0    0 -0.96414679392E+01  0.34632243481E+02  0.17120412351E+02  0.39817959210E+02  0.10566000000E+00 0.  1.
         23    2    1    0    0    0 -0.22664989071E+02 -0.15028489598E+02  0.20005956655E+02  0.91239142030E+02  0.84763114074E+02 0.  0.
         13    1    3    3    0    0 -0.13023521132E+02 -0.49660733079E+02  0.28855443034E+01  0.51421182820E+02  0.10566000000E+00 0. -1.
         22    1    1    0    0    0  0.22664989071E+02  0.15028489598E+02 -0.20005956655E+02  0.33760857970E+02  0.00000000000E+00 0. -1.
</event>
<event>
 5    1  0.1691066E-003  0.9118800E+02  0.7818608E-02  0.1130116E+00
         25   -1    0    0    0    0  0.00000000000E+00  0.00000000000E+00  0.99999998245E-14  0.12500000000E+03  0.12500000000E+03 0.  0.
        -13    1    3    3    0    0 -0.65510868632E+01  0.54380349879E+02  0.21298292350E+02  0.58768763924E+02  0.10566000000E+00 0.  1.
         23    2    1    0    0    0  0.12165454397E+02  0.23886049209E+02  0.70395420670E+01  0.97285441010E+02  0.93254277395E+02 0.  0.
         13    1    3    3    0    0  0.18716541260E+02 -0.30494300670E+02 -0.14258750283E+02  0.38516677086E+02  0.10566000000E+00 0. -1.
         22    1    1    0    0    0 -0.12165454397E+02 -0.23886049209E+02 -0.70395420670E+01  0.27714558990E+02  0.00000000000E+00 0.  1.
</event>
<event>
 5    1  0.1691066E-003  0.9118800E+02  0.7818608E-02  0.1130116E+00
         25   -1    0    0    0    0  0.00000000000E+00  0.00000000000E+00  0.99999998245E-14  0.12500000000E+03  0.12500000000E+03 0.  0.
        -13    1    3    3    0    0 -0.67511748070E+01  0.35040617422E+02 -0.44105543347E+02  0.56733881839E+02  0.10566000000E+00 0.  1.
         23    2    1    0    0    0 -0.97557396233E+01 -0.73718588880E+00 -0.26559636171E+02  0.96695721663E+02  0.92460426215E+02 0.  0.
         13    1    3    3    0    0 -0.30045648163E+01 -0.35777803311E+02  0.17545907176E+02  0.39961839824E+02  0.10566000000E+00 0. -1.
         22    1    1    0    0    0  0.97557396233E+01  0.73718588880E+00  0.26559636171E+02  0.28304278337E+02  0.00000000000E+00 0.  1.
</event>
<event>
 5    1  0.1691066E-003  0.9118800E+02  0.7818608E-02  0.1130116E+00
         25   -1    0    0    0    0  0.00000000000E+00  0.00000000000E+00  0.99999998245E-14  0.12500000000E+03  0.12500000000E+03 0.  0.
        -13    1    3    3    0    0 -0.24553714355E+02  0.17913049365E+02  0.33313868300E+02  0.45095312521E+02  0.10566000000E+00 0.  1.
         23    2    1    0    0    0 -0.25387655416E+02 -0.91196470221E+01 -0.10058967945E+02  0.96209657080E+02  0.91800949178E+02 0.  0.
         13    1    3    3    0    0 -0.83394106020E+00 -0.27032696387E+02 -0.43372836246E+02  0.51114344559E+02  0.10566000000E+00 0. -1.
         22    1    1    0    0    0  0.25387655416E+02  0.91196470221E+01  0.10058967945E+02  0.28790342920E+02  0.00000000000E+00 0.  1.
</event>
<event>
 5    1  0.1691066E-003  0.9118800E+02  0.7818608E-02  0.1130116E+00
         25   -1    0    0    0    0  0.00000000000E+00  0.00000000000E+00  0.99999998245E-14  0.12500000000E+03  0.12500000000E+03 0.  0.
        -13    1    3    3    0    0 -0.51037296064E+02 -0.17015547488E+02 -0.31293759351E+02  0.62238613289E+02  0.10566000000E+00 0. -1.
         23    2    1    0    0    0 -0.24231480564E+02 -0.75266915415E+01 -0.19391450332E+02  0.93065002241E+02  0.87414246895E+02 0.  0.
         13    1    3    3    0    0  0.26805815500E+02  0.94888559461E+01  0.11902309019E+02  0.30826388952E+02  0.10566000000E+00 0.  1.
         22    1    1    0    0    0  0.24231480564E+02  0.75266915415E+01  0.19391450332E+02  0.31934997759E+02  0.00000000000E+00 0. -1.
</event>
<event>
 5    1  0.1691066E-003  0.9118800E+02  0.7818608E-02  0.1130116E+00
         25   -1    0    0    0    0  0.00000000000E+00  0.00000000000E+00  0.99999998245E-14  0.12500000000E+03  0.12500000000E+03 0.  0.
        -13    1    3    3    0    0  0.10518901671E+02  0.18834352427E+02  0.21801210640E+02  0.30670573408E+02  0.10566000000E+00 0.  1.
         23    2    1    0    0    0 -0.74243004098E+01 -0.22069689780E+02 -0.21809312188E+02  0.93096433716E+02  0.87459181502E+02 0.  0.
         13    1    3    3    0    0 -0.17943202081E+02 -0.40904042207E+02 -0.43610522828E+02  0.62425860308E+02  0.10566000000E+00 0. -1.
         22    1    1    0    0    0  0.74243004098E+01  0.22069689780E+02  0.21809312188E+02  0.31903566284E+02  0.00000000000E+00 0. -1.
</event>
<event>
 5    1  0.1691066E-003  0.9118800E+02  0.7818608E-02  0.1130116E+00
         25   -1    0    0    0    0  0.00000000000E+00  0.00000000000E+00  0.99999998245E-14  0.12500000000E+03  0.12500000000E+03 0.  0.
        -13    1    3    3    0    0 -0.44039828891E+02 -0.25846475224E+02  0.76628047086E+01  0.51636000526E+02  0.10566000000E+00 0.  1.
         23    2    1    0    0    0 -0.18446438020E+02 -0.65399088427E+01 -0.22169176221E+02  0.95427819533E+02  0.90730121146E+02 0.  0.
         13    1    3    3    0    0  0.25593390871E+02  0.19306566382E+02 -0.29831980930E+02  0.43791819007E+02  0.10566000000E+00 0. -1.
         22    1    1    0    0    0  0.18446438020E+02  0.65399088427E+01  0.22169176221E+02  0.29572180467E+02  0.00000000000E+00 0.  1.
</event>
<event>
 5    1  0.1691066E-003  0.9118800E+02  0.7818608E-02  0.1130116E+00
         25   -1    0    0    0    0  0.00000000000E+00  0.00000000000E+00  0.99999998245E-14  0.12500000000E+03  0.12500000000E+03 0.  0.
        -13    1    3    3    0    0  0.55459931482E+01  0.11067743024E+02 -0.34476547947E+02  0.36631905465E+02  0.10566000000E+00 0.  1.
         23    2    1    0    0    0  0.14345886708E+02 -0.22725161751E+02  0.12658932214E+02  0.95293333966E+02  0.90544649161E+02 0.  0.
         13    1    3    3    0    0  0.87998935594E+01 -0.33792904774E+02  0.47135480161E+02  0.58661428501E+02  0.10566000000E+00 0. -1.
         22    1    1    0    0    0 -0.14345886708E+02  0.22725161751E+02 -0.12658932214E+02  0.29706666034E+02  0.00000000000E+00 0. -1.
</event>
<event>
 5    1  0.1691066E-003  0.9118800E+02  0.7818608E-02  0.1130116E+00
         25   -1    0    0    0    0  0.00000000000E+00  0.00000000000E+00  0.99999998245E-14  0.12500000000E+03  0.12500000000E+03 0.  0.
        -13    1    3    3    0    0  0.12336151011E+02 -0.35559464451E+02 -0.18428109043E+02  0.41907785681E+02  0.10566000000E+00 0.  1.
         23    2    1    0    0    0  0.23969689402E+02  0.45382721228E+00  0.18448816866E+02  0.94749201450E+02  0.89790313299E+02 0.  0.
         13    1    3    3    0    0  0.11633538391E+02  0.36013291663E+02  0.36876925909E+02  0.52841415769E+02  0.10566000000E+00 0. -1.
         22    1    1    0    0    0 -0.23969689402E+02 -0.45382721228E+00 -0.18448816866E+02  0.30250798550E+02  0.00000000000E+00 0. -1.
</event>
<event>
 5    1  0.1691066E-003  0.9118800E+02  0.7818608E-02  0.1130116E+00
         25   -1    0    0    0    0  0.00000000000E+00  0.00000000000E+00  0.99999998245E-14  0.12500000000E+03  0.12500000000E+03 0.  0.
        -13    1    3    3    0    0 -0.39245563456E+02 -0.11647608114E+02 -0.87991997631E+01  0.41872641501E+02  0.10566000000E+00 0.  1.
         23    2    1    0    0    0 -0.29064633995E+02  0.28214480355E+02 -0.10848728909E+02  0.83065470434E+02  0.71703330526E+02 0.  0.
         13    1    3    3    0    0  0.10180929460E+02  0.39862088469E+02 -0.20495291456E+01  0.41192828933E+02  0.10566000000E+00 0. -1.
         22    1    1    0    0    0  0.29064633995E+02 -0.28214480355E+02  0.10848728909E+02  0.41934529566E+02  0.00000000000E+00 0.  1.
</event>
<event>
 5    1  0.1691066E-003  0.9118800E+02  0.7818608E-02  0.1130116E+00
         25   -1    0    0    0    0  0.00000000000E+00  0.00000000000E+00  0.99999998245E-14  0.12500000000E+03  0.12500000000E+03 0.  0.
        -13    1    3    3    0    0 -0.56256848808E+01 -0.13363918719E+02  0.33311396446E+02  0.36330468633E+02  0.10566000000E+00 0.  1.
         23    2    1    0    0    0  0.16702615080E+02 -0.54170401870E+01 -0.22203250561E+02  0.96692650948E+02  0.92456274730E+02 0.  0.
         13    1    3    3    0    0  0.22328299961E+02  0.79468785324E+01 -0.55514647006E+02  0.60362182315E+02  0.10566000000E+00 0. -1.
         22    1    1    0    0    0 -0.16702615080E+02  0.54170401870E+01  0.22203250561E+02  0.28307349052E+02  0.00000000000E+00 0. -1.
</event>
<event>
 5    1  0.1691066E-003  0.9118800E+02  0.7818608E-02  0.1130116E+00
         25   -1    0    0    0    0  0.00000000000E+00  0.00000000000E+00  0.99999998245E-14  0.12500000000E+03  0.12500000000E+03 0.  0.
        -13    1    3    3    0    0  0.21770473579E+02  0.14003031890E+02 -0.32389064263E+02  0.41462043725E+02  0.10566000000E+00 0. -1.
         23    2    1    0    0    0  0.78278139446E+01  0.18782790963E+02  0.20349761157E+02  0.96221871384E+02  0.91817579177E+02 0.  0.
         13    1    3    3    0    0 -0.13942659634E+02  0.47797590726E+01  0.52738825420E+02  0.54759827659E+02  0.10566000000E+00 0.  1.
         22    1    1    0    0    0 -0.78278139446E+01 -0.18782790963E+02 -0.20349761157E+02  0.28778128616E+02  0.00000000000E+00 0.  1.
</event>
<event>
 5    1  0.1691066E-003  0.9118800E+02  0.7818608E-02  0.1130116E+00
         25   -1    0    0    0    0  0.00000000000E+00  0.00000000000E+00  0.99999998245E-14  0.12500000000E+03  0.12500000000E+03 0.  0.
        -13    1    3    3    0    0 -0.26188137881E+02 -0.72364527203E+01  0.19529202282E+02  0.33460210989E+02  0.10566000000E+00 0.  1.
         23    2    1    0    0    0  0.16195495377E+02  0.16236457731E+02 -0.18886089766E+02  0.95291398269E+02  0.90541976824E+02 0.  0.
         13    1    3    3    0    0  0.42383633259E+02  0.23472910452E+02 -0.38415292048E+02  0.61831187280E+02  0.10566000000E+00 0. -1.
         22    1    1    0    0    0 -0.16195495377E+02 -0.16236457731E+02  0.18886089766E+02  0.29708601731E+02  0.00000000000E+00 0. -1.
</event>
<event>
 5    1  0.1691066E-003  0.9118800E+02  0.7818608E-02  0.1130116E+00
         25   -1    0    0    0    0  0.00000000000E+00  0.00000000000E+00  0.99999998245E-14  0.12500000000E+03  0.12500000000E+03 0.  0.
        -13    1    3    3    0    0  0.38693073908E+02 -0.19111650042E+02 -0.17799250182E+02  0.46682262229E+02  0.10566000000E+00 0. -1.
         23    2    1    0    0    0 -0.32091603489E+01 -0.31299625906E+02 -0.76791186692E+00  0.93526916569E+02  0.88072294976E+02 0.  0.
         13    1    3    3    0    0 -0.41902234257E+02 -0.12187975864E+02  0.17031338315E+02  0.46844654340E+02  0.10566000000E+00 0.  1.
         22    1    1    0    0    0  0.32091603489E+01  0.31299625906E+02  0.76791186692E+00  0.31473083431E+02  0.00000000000E+00 0. -1.
</event>
<event>
 5    1  0.1691066E-003  0.9118800E+02  0.7818608E-02  0.1130116E+00
         25   -1    0    0    0    0  0.00000000000E+00  0.00000000000E+00  0.99999998245E-14  0.12500000000E+03  0.12500000000E+03 0.  0.
        -13    1    3    3    0    0  0.28508335870E+02 -0.88692496657E+01 -0.14293321481E+02  0.33101344485E+02  0.10566000000E+00 0. -1.
         23    2    1    0    0    0 -0.11360050806E+02  0.13030438148E+02  0.25939153460E+02  0.93828173700E+02  0.88498832902E+02 0.  0.
         13    1    3    3    0    0 -0.39868386677E+02  0.21899687814E+02  0.40232474941E+02  0.60726829215E+02  0.10566000000E+00 0.  1.
         22    1    1    0    0    0  0.11360050806E+02 -0.13030438148E+02 -0.25939153460E+02  0.31171826300E+02  0.00000000000E+00 0.  1.
</event>
<event>
 5    1  0.1691066E-003  0.9118800E+02  0.7818608E-02  0.1130116E+00
         25   -1    0    0    0    0  0.00000000000E+00  0.00000000000E+00  0.99999998245E-14  0.12500000000E+03  0.12500000000E+03 0.  0.
        -13    1    3    3    0    0 -0.32527132215E+02  0.16032327646E+02  0.25104498770E+02  0.44105519863E+02  0.10566000000E+00 0.  1.
         23    2    1    0    0    0  0.10807931333E+02  0.28442063991E+02  0.26700756715E+01  0.94456724343E+02  0.89382219070E+02 0.  0.
         13    1    3    3    0    0  0.43335063548E+02  0.12409736344E+02 -0.22434423098E+02  0.50351204480E+02  0.10566000000E+00 0. -1.
         22    1    1    0    0    0 -0.10807931333E+02 -0.28442063991E+02 -0.26700756715E+01  0.30543275657E+02  0.00000000000E+00 0. -1.
</event>
<event>
 5    1  0.1691066E-003  0.9118800E+02  0.7818608E-02  0.1130116E+00
         25   -1    0    0    0    0  0.00000000000E+00  0.00000000000E+00  0.99999998245E-14  0.12500000000E+03  0.12500000000E+03 0.  0.
        -13    1    3    3    0    0 -0.26565410302E+02  0.26552650696E+02  0.24373618207E+02  0.44775536982E+02  0.10566000000E+00 0.  1.
         23    2    1    0    0    0 -0.54554249801E+01 -0.22180660226E+02  0.11518848243E+02  0.99418224952E+02  0.96070579461E+02 0.  0.
         13    1    3    3    0    0  0.21109985322E+02 -0.48733310921E+02 -0.12854769964E+02  0.54642687969E+02  0.10566000000E+00 0. -1.
         22    1    1    0    0    0  0.54554249801E+01  0.22180660226E+02 -0.11518848243E+02  0.25581775048E+02  0.00000000000E+00 0. -1.
</event>
<event>
 5    1  0.1691066E-003  0.9118800E+02  0.7818608E-02  0.1130116E+00
         25   -1    0    0    0    0  0.00000000000E+00  0.00000000000E+00  0.99999998245E-14  0.12500000000E+03  0.12500000000E+03 0.  0.
        -13    1    3    3    0    0  0.32390441465E+02  0.42369865415E+01 -0.41710497789E+01  0.32931771491E+02  0.10566000000E+00 0. -1.
         23    2    1    0    0    0 -0.28956996733E+02  0.31573374865E+01 -0.90908879706E+01  0.94485729832E+02  0.89422773710E+02 0.  0.
         13    1    3    3    0    0 -0.61347438198E+02 -0.10796490550E+01 -0.49198381917E+01  0.61553958341E+02  0.10566000000E+00 0.  1.
         22    1    1    0    0    0  0.28956996733E+02 -0.31573374865E+01  0.90908879706E+01  0.30514270168E+02  0.00000000000E+00 0.  1.
</event>
<event>
 5    1  0.1691066E-003  0.9118800E+02  0.7818608E-02  0.1130116E+00
         25   -1    0    0    0    0  0.00000000000E+00  0.00000000000E+00  0.99999998245E-14  0.12500000000E+03  0.12500000000E+03 0.  0.
        -13    1    3    3    0    0 -0.20734414549E+02 -0.60616253799E+01  0.25131406190E+02  0.33139975710E+02  0.10566000000E+00 0.  1.
         23    2    1    0    0    0  0.18628032942E+02  0.24392606138E+02 -0.84352077693E+01  0.93169895137E+02  0.87564112422E+02 0.  0.
         13    1    3    3    0    0  0.39362447491E+02  0.30454231517E+02 -0.33566613959E+02  0.60029919428E+02  0.10566000000E+00 0. -1.
         22    1    1    0    0    0 -0.18628032942E+02 -0.24392606138E+02  0.84352077693E+01  0.31830104863E+02  0.00000000000E+00 0. -1.
</event>
<event>
 5    1  0.1691066E-003  0.9118800E+02  0.7818608E-02  0.1130116E+00
         25   -1    0    0    0    0  0.00000000000E+00  0.00000000000E+00  0.99999998245E-14  0.12500000000E+03  0.12500000000E+03 0.  0.
        -13    1    3    3    0    0  0.36492233328E+02  0.91507373415E+01  0.10859429660E+02  0.39158108531E+02  0.10566000000E+00 0. -1.
         23    2    1    0    0    0 -0.10621117698E+01  0.86757151507E+01 -0.29466331103E+02  0.94264665555E+02  0.89113222300E+02 0.  0.
         13    1    3    3    0    0 -0.37554345098E+02 -0.47502219079E+00 -0.40325760763E+02  0.55106557023E+02  0.10566000000E+00 0.  1.
         22    1    1    0    0    0  0.10621117698E+01 -0.86757151507E+01  0.29466331103E+02  0.30735334445E+02  0.00000000000E+00 0. -1.
</event>
<event>
 5    1  0.1691066E-003  0.9118800E+02  0.7818608E-02  0.1130116E+00
         25   -1    0    0    0    0  0.00000000000E+00  0.00000000000E+00  0.99999998245E-14  0.12500000000E+03  0.12500000000E+03 0.  0.
        -13    1    3    3    0    0  0.17961052634E+02 -0.21469071646E+02  0.51980293044E+02  0.59037974881E+02  0.10566000000E+00 0. -1.
         23    2    1    0    0    0 -0.27135215051E+01 -0.19581034393E+01  0.29582163860E+02  0.95229178939E+02  0.90456037580E+02 0.  0.
         13    1    3    3    0    0 -0.20674574139E+02  0.19510968207E+02 -0.22398129184E+02  0.36191204058E+02  0.10566000000E+00 0.  1.
         22    1    1    0    0    0  0.27135215051E+01  0.19581034393E+01 -0.29582163860E+02  0.29770821061E+02  0.00000000000E+00 0. -1.
</event>
<event>
 5    1  0.1691066E-003  0.9118800E+02  0.7818608E-02  0.1130116E+00
         25   -1    0    0    0    0  0.00000000000E+00  0.00000000000E+00  0.99999998245E-14  0.12500000000E+03  0.12500000000E+03 0.  0.
        -13    1    3    3    0    0 -0.50777183143E+02  0.95723482023E+01 -0.27074836135E+02  0.58335324579E+02  0.10566000000E+00 0.  1.
         23    2    1    0    0    0 -0.22798616852E+02  0.18560493008E+02 -0.47956317581E+01  0.95212974049E+02  0.90433641485E+02 0.  0.
         13    1    3    3    0    0  0.27978566291E+02  0.89881448052E+01  0.22279204377E+02  0.36877649470E+02  0.10566000000E+00 0. -1.
         22    1    1    0    0    0  0.22798616852E+02 -0.18560493008E+02  0.47956317581E+01  0.29787025951E+02  0.00000000000E+00 0.  1.
</event>
<event>
 5    1  0.1691066E-003  0.9118800E+02  0.7818608E-02  0.1130116E+00
         25   -1    0    0    0    0  0.00000000000E+00  0.00000000000E+00  0.99999998245E-14  0.12500000000E+03  0.12500000000E+03 0.  0.
        -13    1    3    3    0    0 -0.31478706461E+02 -0.49856656149E+02  0.19026144150E+02  0.61956439924E+02  0.10566000000E+00 0.  1.
         23    2    1    0    0    0 -0.15735179899E+02 -0.16436163100E+02  0.10840568743E+02  0.99795610013E+02  0.96560356789E+02 0.  0.
         13    1    3    3    0    0  0.15743526562E+02  0.33420493049E+02 -0.81855754066E+01  0.37839170089E+02  0.10566000000E+00 0. -1.
         22    1    1    0    0    0  0.15735179899E+02  0.16436163100E+02 -0.10840568743E+02  0.25204389987E+02  0.00000000000E+00 0.  1.
</event>
<event>
 5    1  0.1691066E-003  0.9118800E+02  0.7818608E-02  0.1130116E+00
         25   -1    0    0    0    0  0.00000000000E+00  0.00000000000E+00  0.99999998245E-14  0.12500000000E+03  0.12500000000E+03 0.  0.
        -13    1    3    3    0    0 -0.13404349943E+02 -0.72594116170E+00 -0.58012472968E+02  0.59545459708E+02  0.10566000000E+00 0. -1.
         23    2    1    0    0    0  0.39242920917E+01  0.86622243991E+01 -0.27804851059E+02  0.95613881808E+02  0.90986100323E+02 0.  0.
         13    1    3    3    0    0  0.17328642034E+02  0.93881655608E+01  0.30207621909E+02  0.36068422100E+02  0.10566000000E+00 0.  1.
         22    1    1    0    0    0 -0.39242920917E+01 -0.86622243991E+01  0.27804851059E+02  0.29386118192E+02  0.00000000000E+00 0. -1.
</event>
<event>
 5    1  0.1691066E-003  0.9118800E+02  0.7818608E-02  0.1130116E+00
         25   -1    0    0    0    0  0.00000000000E+00  0.00000000000E+00  0.99999998245E-14  0.12500000000E+03  0.12500000000E+03 0.  0.
        -13    1    3    3    0    0 -0.77104322282E+00 -0.25454581478E+01 -0.47754226449E+02  0.47828351138E+02  0.10566000000E+00 0.  1.
         23    2    1    0    0    0  0.27377560664E+02 -0.48200998106E+01 -0.89997070198E+01  0.95780846752E+02  0.91215194393E+02 0.  0.
         13    1    3    3    0    0  0.28148603886E+02 -0.22746416628E+01  0.38754519429E+02  0.47952495614E+02  0.10566000000E+00 0. -1.
         22    1    1    0    0    0 -0.27377560664E+02  0.48200998106E+01  0.89997070198E+01  0.29219153248E+02  0.00000000000E+00 0. -1.
</event>
<event>
 5    1  0.1691066E-003  0.9118800E+02  0.7818608E-02  0.1130116E+00
         25   -1    0    0    0    0  0.00000000000E+00  0.00000000000E+00  0.99999998245E-14  0.12500000000E+03  0.12500000000E+03 0.  0.
        -13    1    3    3    0    0  0.18393666689E+02  0.98366230463E+01  0.31799772421E+02  0.38030551104E+02  0.10566000000E+00 0.  1.
         23    2    1    0    0    0  0.13934841138E+02 -0.17736724933E+02 -0.18673724651E+02  0.95717254206E+02  0.91128006406E+02 0.  0.
         13    1    3    3    0    0 -0.44588255504E+01 -0.27573347979E+02 -0.50473497072E+02  0.57686703102E+02  0.10566000000E+00 0. -1.
         22    1    1    0    0    0 -0.13934841138E+02  0.17736724933E+02  0.18673724651E+02  0.29282745794E+02  0.00000000000E+00 0. -1.
</event>
<event>
 5    1  0.1691066E-003  0.9118800E+02  0.7818608E-02  0.1130116E+00
         25   -1    0    0    0    0  0.00000000000E+00  0.00000000000E+00  0.99999998245E-14  0.12500000000E+03  0.12500000000E+03 0.  0.
        -13    1    3    3    0    0 -0.15231353714E+02  0.29430069019E+01  0.30459589369E+02  0.34182644341E+02  0.10566000000E+00 0. -1.
         23    2    1    0    0    0  0.13241585774E+02 -0.81680319580E+01 -0.23862891591E+02  0.96513267387E+02  0.92213430946E+02 0.  0.
         13    1    3    3    0    0  0.28472939488E+02 -0.11111038860E+02 -0.54322480960E+02  0.62330623046E+02  0.10566000000E+00 0.  1.
         22    1    1    0    0    0 -0.13241585774E+02  0.81680319580E+01  0.23862891591E+02  0.28486732613E+02  0.00000000000E+00 0.  1.
</event>
<event>
 5    1  0.1691066E-003  0.9118800E+02  0.7818608E-02  0.1130116E+00
         25   -1    0    0    0    0  0.00000000000E+00  0.00000000000E+00  0.99999998245E-14  0.12500000000E+03  0.12500000000E+03 0.  0.
        -13    1    3    3    0    0  0.51352989378E+02 -0.26301395502E+02  0.22863606067E+02  0.62061651362E+02  0.10566000000E+00 0.  1.
         23    2    1    0    0    0  0.39259499688E+02 -0.22242052688E+02  0.21869279112E+02  0.74857377488E+02  0.55581870892E+02 0.  0.
         13    1    3    3    0    0 -0.12093489689E+02  0.40593428139E+01 -0.99432695540E+00  0.12795726125E+02  0.10566000000E+00 0. -1.
         22    1    1    0    0    0 -0.39259499688E+02  0.22242052688E+02 -0.21869279112E+02  0.50142622512E+02  0.00000000000E+00 0.  1.
</event>
<event>
 5    1  0.1691066E-003  0.9118800E+02  0.7818608E-02  0.1130116E+00
         25   -1    0    0    0    0  0.00000000000E+00  0.00000000000E+00  0.99999998245E-14  0.12500000000E+03  0.12500000000E+03 0.  0.
        -13    1    3    3    0    0  0.61129374470E+01 -0.56764496371E+02  0.16083193790E+02  0.59314891377E+02  0.10566000000E+00 0.  1.
         23    2    1    0    0    0 -0.64074972680E+01 -0.35051089045E+02  0.19118794288E+02  0.84562849266E+02  0.74267841738E+02 0.  0.
         13    1    3    3    0    0 -0.12520434715E+02  0.21713407326E+02  0.30356004979E+01  0.25247957889E+02  0.10566000000E+00 0. -1.
         22    1    1    0    0    0  0.64074972680E+01  0.35051089045E+02 -0.19118794288E+02  0.40437150734E+02  0.00000000000E+00 0.  1.
</event>
<event>
 5    1  0.1691066E-003  0.9118800E+02  0.7818608E-02  0.1130116E+00
         25   -1    0    0    0    0  0.00000000000E+00  0.00000000000E+00  0.99999998245E-14  0.12500000000E+03  0.12500000000E+03 0.  0.
        -13    1    3    3    0    0 -0.26024243389E+02  0.55918601248E+02  0.44596633908E+01  0.61838911464E+02  0.10566000000E+00 0. -1.
         23    2    1    0    0    0 -0.92154425101E+01  0.27836704062E+02 -0.33521347962E+01  0.95486557615E+02  0.90811009265E+02 0.  0.
         13    1    3    3    0    0  0.16808800879E+02 -0.28081897186E+02 -0.78117981871E+01  0.33647646151E+02  0.10566000000E+00 0.  1.
         22    1    1    0    0    0  0.92154425101E+01 -0.27836704062E+02  0.33521347962E+01  0.29513442385E+02  0.00000000000E+00 0. -1.
</event>
<event>
 5    1  0.1691066E-003  0.9118800E+02  0.7818608E-02  0.1130116E+00
         25   -1    0    0    0    0  0.00000000000E+00  0.00000000000E+00  0.99999998245E-14  0.12500000000E+03  0.12500000000E+03 0.  0.
        -13    1    3    3    0    0 -0.23572601225E+02  0.17120889496E+02 -0.29659091799E+02  0.41574815406E+02  0.10566000000E+00 0.  1.
         23    2    1    0    0    0 -0.21811143358E+02 -0.18644802348E+02  0.96287617806E+01  0.94733389972E+02  0.89768298931E+02 0.  0.
         13    1    3    3    0    0  0.17614578668E+01 -0.35765691844E+02  0.39287853580E+02  0.53158574566E+02  0.10566000000E+00 0. -1.
         22    1    1    0    0    0  0.21811143358E+02  0.18644802348E+02 -0.96287617806E+01  0.30266610028E+02  0.00000000000E+00 0. -1.
</event>
<event>
 5    1  0.1691066E-003  0.9118800E+02  0.7818608E-02  0.1130116E+00
         25   -1    0    0    0    0  0.00000000000E+00  0.00000000000E+00  0.99999998245E-14  0.12500000000E+03  0.12500000000E+03 0.  0.
        -13    1    3    3    0    0 -0.22099142445E+01  0.13265133840E+01  0.47134887700E+02  0.47205425125E+02  0.10566000000E+00 0.  1.
         23    2    1    0    0    0  0.27235398864E+02 -0.36582182267E+01  0.81061743044E+01  0.96349352997E+02  0.91990968302E+02 0.  0.
         13    1    3    3    0    0  0.29445313108E+02 -0.49847316108E+01 -0.39028713396E+02  0.49143927871E+02  0.10566000000E+00 0. -1.
         22    1    1    0    0    0 -0.27235398864E+02  0.36582182267E+01 -0.81061743044E+01  0.28650647003E+02  0.00000000000E+00 0.  1.
</event>
<event>
 5    1  0.1691066E-003  0.9118800E+02  0.7818608E-02  0.1130116E+00
         25   -1    0    0    0    0  0.00000000000E+00  0.00000000000E+00  0.99999998245E-14  0.12500000000E+03  0.12500000000E+03 0.  0.
        -13    1    3    3    0    0  0.52275893758E+02 -0.85967994741E+01  0.32386765943E+02  0.62093379693E+02  0.10566000000E+00 0.  1.
         23    2    1    0    0    0  0.26417492768E+02 -0.94370917205E+01  0.17243290173E+02  0.92071688773E+02  0.85982103913E+02 0.  0.
         13    1    3    3    0    0 -0.25858400990E+02 -0.84029224638E+00 -0.15143475771E+02  0.29978309080E+02  0.10566000000E+00 0. -1.
         22    1    1    0    0    0 -0.26417492768E+02  0.94370917205E+01 -0.17243290173E+02  0.32928311227E+02  0.00000000000E+00 0.  1.
</event>
<event>
 5    1  0.1691066E-003  0.9118800E+02  0.7818608E-02  0.1130116E+00
         25   -1    0    0    0    0  0.00000000000E+00  0.00000000000E+00  0.99999998245E-14  0.12500000000E+03  0.12500000000E+03 0.  0.
        -13    1    3    3    0    0 -0.16471201510E+02  0.32973238136E+02 -0.58151124223E+01  0.37314361965E+02  0.10566000000E+00 0. -1.
         23    2    1    0    0    0  0.32026807216E+02  0.85104994336E+01 -0.34222262266E+01  0.91685489447E+02  0.85418805667E+02 0.  0.
         13    1    3    3    0    0  0.48498008726E+02 -0.24462738702E+02  0.23928861957E+01  0.54371127481E+02  0.10566000000E+00 0.  1.
         22    1    1    0    0    0 -0.32026807216E+02 -0.85104994336E+01  0.34222262266E+01  0.33314510553E+02  0.00000000000E+00 0.  1.
</event>
<event>
 5    1  0.1691066E-003  0.9118800E+02  0.7818608E-02  0.1130116E+00
         25   -1    0    0    0    0  0.00000000000E+00  0.00000000000E+00  0.99999998245E-14  0.12500000000E+03  0.12500000000E+03 0.  0.
        -13    1    3    3    0    0 -0.54829817096E+02 -0.28070907146E+02 -0.57503358079E+00  0.61600539758E+02  0.10566000000E+00 0.  1.
         23    2    1    0    0    0 -0.23919650235E+02 -0.88785880453E+01  0.65107851015E+01  0.98668093201E+02  0.95089554107E+02 0.  0.
         13    1    3    3    0    0  0.30910166861E+02  0.19192319100E+02  0.70858186823E+01  0.37067553443E+02  0.10566000000E+00 0. -1.
         22    1    1    0    0    0  0.23919650235E+02  0.88785880453E+01 -0.65107851015E+01  0.26331906799E+02  0.00000000000E+00 0.  1.
</event>
<event>
 5    1  0.1691066E-003  0.9118800E+02  0.7818608E-02  0.1130116E+00
         25   -1    0    0    0    0  0.00000000000E+00  0.00000000000E+00  0.99999998245E-14  0.12500000000E+03  0.12500000000E+03 0.  0.
        -13    1    3    3    0    0  0.31448418477E+02  0.11429102751E+02  0.34756436460E+02  0.48245709175E+02  0.10566000000E+00 0. -1.
         23    2    1    0    0    0 -0.65343718526E+01 -0.16422271249E+02  0.21484136379E+02  0.97179915089E+02  0.93112720786E+02 0.  0.
         13    1    3    3    0    0 -0.37982790330E+02 -0.27851374001E+02 -0.13272300080E+02  0.48934205914E+02  0.10566000000E+00 0.  1.
         22    1    1    0    0    0  0.65343718526E+01  0.16422271249E+02 -0.21484136379E+02  0.27820084911E+02  0.00000000000E+00 0.  1.
</event>
<event>
 5    1  0.1691066E-003  0.9118800E+02  0.7818608E-02  0.1130116E+00
         25   -1    0    0    0    0  0.00000000000E+00  0.00000000000E+00  0.99999998245E-14  0.12500000000E+03  0.12500000000E+03 0.  0.
        -13    1    3    3    0    0  0.80663117801E+01 -0.31220268925E+02  0.65507341398E+00  0.32252300115E+02  0.10566000000E+00 0. -1.
         23    2    1    0    0    0 -0.15980101044E+02  0.26078192481E+02 -0.70496639392E+00  0.94406982332E+02  0.89312628351E+02 0.  0.
         13    1    3    3    0    0 -0.24046412824E+02  0.57298461406E+02 -0.13600398079E+01  0.62154682217E+02  0.10566000000E+00 0.  1.
         22    1    1    0    0    0  0.15980101044E+02 -0.26078192481E+02  0.70496639392E+00  0.30593017668E+02  0.00000000000E+00 0.  1.
</event>
<event>
 4    1  0.1691066E-003  0.9118800E+02  0.7818608E-02  0.1130116E+00
         25   -1    0    0    0    0  0.00000000000E+00  0.00000000000E+00  0.99999998245E-14  0.12500000000E+03  0.12500000000E+03 0.  0.
        -13    1    1    0    0    0  0.14936899119E+02 -0.40440660484E+01 -0.22464064477E+02  0.27278394057E+02  0.10566000000E+00 0. -1.
         13    1    1    0    0    0 -0.55749852007E+01 -0.42109438187E+02 -0.56864185546E+01  0.42855941996E+02  0.10566000000E+00 0.  1.
         22    1    1    0    0    0 -0.93619139179E+01  0.46153504235E+02  0.28150483031E+02  0.54865663946E+02  0.00000000000E+00 0. -1.
</event>
<event>
 5    1  0.1691066E-003  0.9118800E+02  0.7818608E-02  0.1130116E+00
         25   -1    0    0    0    0  0.00000000000E+00  0.00000000000E+00  0.99999998245E-14  0.12500000000E+03  0.12500000000E+03 0.  0.
        -13    1    3    3    0    0 -0.39363173126E+02  0.42914933658E+02  0.12132238296E+02  0.59484059206E+02  0.10566000000E+00 0.  1.
         23    2    1    0    0    0 -0.71824272192E+01  0.26475168647E+02  0.10400460996E+02  0.95662457421E+02  0.91052810803E+02 0.  0.
         13    1    3    3    0    0  0.32180745907E+02 -0.16439765011E+02 -0.17317772995E+01  0.36178398215E+02  0.10566000000E+00 0. -1.
         22    1    1    0    0    0  0.71824272192E+01 -0.26475168647E+02 -0.10400460996E+02  0.29337542579E+02  0.00000000000E+00 0.  1.
</event>
<event>
 5    1  0.1691066E-003  0.9118800E+02  0.7818608E-02  0.1130116E+00
         25   -1    0    0    0    0  0.00000000000E+00  0.00000000000E+00  0.99999998245E-14  0.12500000000E+03  0.12500000000E+03 0.  0.
        -13    1    3    3    0    0 -0.80412884981E+01 -0.36521714789E+02 -0.49386263907E+02  0.61947656926E+02  0.10566000000E+00 0.  1.
         23    2    1    0    0    0  0.21453668368E+01 -0.16745904782E+02 -0.23202067859E+02  0.96305682117E+02  0.91931607890E+02 0.  0.
         13    1    3    3    0    0  0.10186655335E+02  0.19775810006E+02  0.26184196048E+02  0.34358025191E+02  0.10566000000E+00 0. -1.
         22    1    1    0    0    0 -0.21453668368E+01  0.16745904782E+02  0.23202067859E+02  0.28694317883E+02  0.00000000000E+00 0.  1.
</event>
<event>
 5    1  0.1691066E-003  0.9118800E+02  0.7818608E-02  0.1130116E+00
         25   -1    0    0    0    0  0.00000000000E+00  0.00000000000E+00  0.99999998245E-14  0.12500000000E+03  0.12500000000E+03 0.  0.
        -13    1    3    3    0    0 -0.24144584755E+02 -0.24890527710E+02  0.33446667950E+02  0.48178730823E+02  0.10566000000E+00 0. -1.
         23    2    1    0    0    0  0.13409633613E+02 -0.26586236969E+02  0.62583196650E+01  0.94572827361E+02  0.89544440588E+02 0.  0.
         13    1    3    3    0    0  0.37554218367E+02 -0.16957092586E+01 -0.27188348285E+02  0.46394096538E+02  0.10566000000E+00 0.  1.
         22    1    1    0    0    0 -0.13409633613E+02  0.26586236969E+02 -0.62583196650E+01  0.30427172639E+02  0.00000000000E+00 0. -1.
</event>
<event>
 5    1  0.1691066E-003  0.9118800E+02  0.7818608E-02  0.1130116E+00
         25   -1    0    0    0    0  0.00000000000E+00  0.00000000000E+00  0.99999998245E-14  0.12500000000E+03  0.12500000000E+03 0.  0.
        -13    1    3    3    0    0  0.28347171334E+01  0.51647777628E+02 -0.34559116725E+02  0.62208297421E+02  0.10566000000E+00 0.  1.
         23    2    1    0    0    0 -0.58344421554E+00  0.26516632841E+02 -0.13164557936E+02  0.95389565859E+02  0.90677403276E+02 0.  0.
         13    1    3    3    0    0 -0.34181613490E+01 -0.25131144788E+02  0.21394558789E+02  0.33181268438E+02  0.10566000000E+00 0. -1.
         22    1    1    0    0    0  0.58344421554E+00 -0.26516632841E+02  0.13164557936E+02  0.29610434141E+02  0.00000000000E+00 0.  1.
</event>
<event>
 5    1  0.1691066E-003  0.9118800E+02  0.7818608E-02  0.1130116E+00
         25   -1    0    0    0    0  0.00000000000E+00  0.00000000000E+00  0.99999998245E-14  0.12500000000E+03  0.12500000000E+03 0.  0.
        -13    1    3    3    0    0 -0.15866817693E+02 -0.26508590918E+00  0.43937233744E+02  0.46715284943E+02  0.10566000000E+00 0. -1.
         23    2    1    0    0    0 -0.17574597939E+02 -0.23219171323E+02  0.49883755531E+00  0.95875349813E+02  0.91344608232E+02 0.  0.
         13    1    3    3    0    0 -0.17077802465E+01 -0.22954085414E+02 -0.43438396188E+02  0.49160064870E+02  0.10566000000E+00 0.  1.
         22    1    1    0    0    0  0.17574597939E+02  0.23219171323E+02 -0.49883755531E+00  0.29124650187E+02  0.00000000000E+00 0.  1.
</event>
<event>
 5    1  0.1691066E-003  0.9118800E+02  0.7818608E-02  0.1130116E+00
         25   -1    0    0    0    0  0.00000000000E+00  0.00000000000E+00  0.99999998245E-14  0.12500000000E+03  0.12500000000E+03 0.  0.
        -13    1    3    3    0    0  0.33022175282E+02  0.15712978697E+02  0.50465887724E+02  0.62323179859E+02  0.10566000000E+00 0. -1.
         23    2    1    0    0    0  0.10719311797E+02  0.43861575552E+01  0.21366175701E+02  0.10069659514E+03  0.97719746142E+02 0.  0.
         13    1    3    3    0    0 -0.22302863485E+02 -0.11326821141E+02 -0.29099712023E+02  0.38373415285E+02  0.10566000000E+00 0.  1.
         22    1    1    0    0    0 -0.10719311797E+02 -0.43861575552E+01 -0.21366175701E+02  0.24303404856E+02  0.00000000000E+00 0. -1.
</event>
<event>
 5    1  0.1691066E-003  0.9118800E+02  0.7818608E-02  0.1130116E+00
         25   -1    0    0    0    0  0.00000000000E+00  0.00000000000E+00  0.99999998245E-14  0.12500000000E+03  0.12500000000E+03 0.  0.
        -13    1    3    3    0    0  0.23001534817E+02  0.83540653979E+01  0.77012734277E+01  0.25655053870E+02  0.10566000000E+00 0.  1.
         23    2    1    0    0    0 -0.25536978789E+02 -0.25662689690E+02  0.15839548425E+02  0.85482886972E+02  0.75800539200E+02 0.  0.
         13    1    3    3    0    0 -0.48538513606E+02 -0.34016755087E+02  0.81382749972E+01  0.59827833102E+02  0.10566000000E+00 0. -1.
         22    1    1    0    0    0  0.25536978789E+02  0.25662689690E+02 -0.15839548425E+02  0.39517113028E+02  0.00000000000E+00 0. -1.
</event>
<event>
 5    1  0.1691066E-003  0.9118800E+02  0.7818608E-02  0.1130116E+00
         25   -1    0    0    0    0  0.00000000000E+00  0.00000000000E+00  0.99999998245E-14  0.12500000000E+03  0.12500000000E+03 0.  0.
        -13    1    3    3    0    0 -0.23184014992E+02  0.11033218117E+02  0.25194489222E+02  0.35972265766E+02  0.10566000000E+00 0.  1.
         23    2    1    0    0    0  0.50433515338E+01 -0.13544087088E+02 -0.23513765852E+02  0.97399730540E+02  0.93407347864E+02 0.  0.
         13    1    3    3    0    0  0.28227366526E+02 -0.24577305205E+02 -0.48708255074E+02  0.61427464773E+02  0.10566000000E+00 0. -1.
         22    1    1    0    0    0 -0.50433515338E+01  0.13544087088E+02  0.23513765852E+02  0.27600269460E+02  0.00000000000E+00 0. -1.
</event>
<event>
 5    1  0.1691066E-003  0.9118800E+02  0.7818608E-02  0.1130116E+00
         25   -1    0    0    0    0  0.00000000000E+00  0.00000000000E+00  0.99999998245E-14  0.12500000000E+03  0.12500000000E+03 0.  0.
        -13    1    3    3    0    0  0.30374812024E+02  0.18998604458E+02 -0.52419328626E+00  0.35831021747E+02  0.10566000000E+00 0.  1.
         23    2    1    0    0    0 -0.27121583566E+02  0.13065340365E+01 -0.85769717699E+01  0.96524540898E+02  0.92228711498E+02 0.  0.
         13    1    3    3    0    0 -0.57496395589E+02 -0.17692070422E+02 -0.80527784836E+01  0.60693519151E+02  0.10566000000E+00 0. -1.
         22    1    1    0    0    0  0.27121583566E+02 -0.13065340365E+01  0.85769717699E+01  0.28475459102E+02  0.00000000000E+00 0. -1.
</event>
<event>
 5    1  0.1691066E-003  0.9118800E+02  0.7818608E-02  0.1130116E+00
         25   -1    0    0    0    0  0.00000000000E+00  0.00000000000E+00  0.99999998245E-14  0.12500000000E+03  0.12500000000E+03 0.  0.
        -13    1    3    3    0    0 -0.35684560455E+02  0.47417348260E+02 -0.85563504757E+01  0.59958444513E+02  0.10566000000E+00 0.  1.
         23    2    1    0    0    0 -0.10346432515E+02  0.25236974931E+02  0.66777412195E+01  0.96918942377E+02  0.92761714054E+02 0.  0.
         13    1    3    3    0    0  0.25338127940E+02 -0.22180373329E+02  0.15234091695E+02  0.36960497864E+02  0.10566000000E+00 0. -1.
         22    1    1    0    0    0  0.10346432515E+02 -0.25236974931E+02 -0.66777412195E+01  0.28081057623E+02  0.00000000000E+00 0.  1.
</event>
<event>
 5    1  0.1691066E-003  0.9118800E+02  0.7818608E-02  0.1130116E+00
         25   -1    0    0    0    0  0.00000000000E+00  0.00000000000E+00  0.99999998245E-14  0.12500000000E+03  0.12500000000E+03 0.  0.
        -13    1    3    3    0    0  0.16996132762E+02  0.36545715650E+01 -0.28920019360E+02  0.33743193477E+02  0.10566000000E+00 0.  1.
         23    2    1    0    0    0 -0.12222289916E+02 -0.71128956491E+01  0.25154575168E+02  0.96142933150E+02  0.91710050090E+02 0.  0.
         13    1    3    3    0    0 -0.29218422678E+02 -0.10767467214E+02  0.54074594527E+02  0.62399739674E+02  0.10566000000E+00 0. -1.
         22    1    1    0    0    0  0.12222289916E+02  0.71128956491E+01 -0.25154575168E+02  0.28857066850E+02  0.00000000000E+00 0. -1.
</event>
<event>
 5    1  0.1691066E-003  0.9118800E+02  0.7818608E-02  0.1130116E+00
         25   -1    0    0    0    0  0.00000000000E+00  0.00000000000E+00  0.99999998245E-14  0.12500000000E+03  0.12500000000E+03 0.  0.
        -13    1    3    3    0    0 -0.17688585341E+02 -0.40375184935E+01  0.47571776218E+02  0.50914365983E+02  0.10566000000E+00 0. -1.
         23    2    1    0    0    0  0.15822984073E+02 -0.14567244565E+02  0.20794425518E+02  0.95083790818E+02  0.90254904047E+02 0.  0.
         13    1    3    3    0    0  0.33511569414E+02 -0.10529726072E+02 -0.26777350700E+02  0.44169424835E+02  0.10566000000E+00 0.  1.
         22    1    1    0    0    0 -0.15822984073E+02  0.14567244565E+02 -0.20794425518E+02  0.29916209182E+02  0.00000000000E+00 0. -1.
</event>
<event>
 5    1  0.1691066E-003  0.9118800E+02  0.7818608E-02  0.1130116E+00
         25   -1    0    0    0    0  0.00000000000E+00  0.00000000000E+00  0.99999998245E-14  0.12500000000E+03  0.12500000000E+03 0.  0.
        -13    1    3    3    0    0  0.40111649279E+02  0.24710107470E+02 -0.29487104910E+02  0.55579081848E+02  0.10566000000E+00 0. -1.
         23    2    1    0    0    0  0.29122539474E+02 -0.46483955581E+01 -0.56214921291E+01  0.94977823856E+02  0.90108023860E+02 0.  0.
         13    1    3    3    0    0 -0.10989109805E+02 -0.29358503028E+02  0.23865612781E+02  0.39398742008E+02  0.10566000000E+00 0.  1.
         22    1    1    0    0    0 -0.29122539474E+02  0.46483955581E+01  0.56214921291E+01  0.30022176144E+02  0.00000000000E+00 0. -1.
</event>
<event>
 5    1  0.1691066E-003  0.9118800E+02  0.7818608E-02  0.1130116E+00
         25   -1    0    0    0    0  0.00000000000E+00  0.00000000000E+00  0.99999998245E-14  0.12500000000E+03  0.12500000000E+03 0.  0.
        -13    1    3    3    0    0 -0.67913478538E+00  0.29159100075E+02 -0.17455599685E+02  0.33991520496E+02  0.10566000000E+00 0.  1.
         23    2    1    0    0    0  0.50191002682E+01 -0.20793937379E+02  0.19234760230E+02  0.96232740827E+02  0.91832375592E+02 0.  0.
         13    1    3    3    0    0  0.56982350536E+01 -0.49953037454E+02  0.36690359915E+02  0.62241220331E+02  0.10566000000E+00 0. -1.
         22    1    1    0    0    0 -0.50191002682E+01  0.20793937379E+02 -0.19234760230E+02  0.28767259173E+02  0.00000000000E+00 0. -1.
</event>
<event>
 5    1  0.1691066E-003  0.9118800E+02  0.7818608E-02  0.1130116E+00
         25   -1    0    0    0    0  0.00000000000E+00  0.00000000000E+00  0.99999998245E-14  0.12500000000E+03  0.12500000000E+03 0.  0.
        -13    1    3    3    0    0  0.47353952933E+02  0.83331279499E+01 -0.89600496837E+01  0.48909421732E+02  0.10566000000E+00 0.  1.
         23    2    1    0    0    0  0.11949472414E+02 -0.24510041311E+02 -0.30509459195E+01  0.97562064819E+02  0.93624335536E+02 0.  0.
         13    1    3    3    0    0 -0.35404480519E+02 -0.32843169261E+02  0.59091037642E+01  0.48652643086E+02  0.10566000000E+00 0. -1.
         22    1    1    0    0    0 -0.11949472414E+02  0.24510041311E+02  0.30509459195E+01  0.27437935181E+02  0.00000000000E+00 0. -1.
</event>
<event>
 5    1  0.1691066E-003  0.9118800E+02  0.7818608E-02  0.1130116E+00
         25   -1    0    0    0    0  0.00000000000E+00  0.00000000000E+00  0.99999998245E-14  0.12500000000E+03  0.12500000000E+03 0.  0.
        -13    1    3    3    0    0  0.22836825776E+02 -0.35609269396E+02  0.30211524602E+02  0.51983536444E+02  0.10566000000E+00 0.  1.
         23    2    1    0    0    0 -0.48907739225E+01 -0.51867580795E+01  0.31037371646E+02  0.93154426248E+02  0.87542027404E+02 0.  0.
         13    1    3    3    0    0 -0.27727599699E+02  0.30422511317E+02  0.82584704382E+00  0.41170889804E+02  0.10566000000E+00 0. -1.
         22    1    1    0    0    0  0.48907739225E+01  0.51867580795E+01 -0.31037371646E+02  0.31845573752E+02  0.00000000000E+00 0.  1.
</event>
<event>
 5    1  0.1691066E-003  0.9118800E+02  0.7818608E-02  0.1130116E+00
         25   -1    0    0    0    0  0.00000000000E+00  0.00000000000E+00  0.99999998245E-14  0.12500000000E+03  0.12500000000E+03 0.  0.
        -13    1    3    3    0    0 -0.53527283040E+01 -0.24332831513E+02 -0.36407484758E+02  0.44116374513E+02  0.10566000000E+00 0. -1.
         23    2    1    0    0    0  0.19266244748E+02 -0.20489351073E+02  0.86246239116E+01  0.95582559056E+02  0.90943057811E+02 0.  0.
         13    1    3    3    0    0  0.24618973052E+02  0.38434804406E+01  0.45032108670E+02  0.51466184542E+02  0.10566000000E+00 0.  1.
         22    1    1    0    0    0 -0.19266244748E+02  0.20489351073E+02 -0.86246239116E+01  0.29417440944E+02  0.00000000000E+00 0.  1.
</event>
<event>
 5    1  0.1691066E-003  0.9118800E+02  0.7818608E-02  0.1130116E+00
         25   -1    0    0    0    0  0.00000000000E+00  0.00000000000E+00  0.99999998245E-14  0.12500000000E+03  0.12500000000E+03 0.  0.
        -13    1    3    3    0    0  0.13628346594E+02 -0.22213097592E+02  0.38605433363E+02  0.46578366059E+02  0.10566000000E+00 0. -1.
         23    2    1    0    0    0  0.27941769435E+02  0.24023121355E+01 -0.27846716152E+01  0.96817239689E+02  0.92624564356E+02 0.  0.
         13    1    3    3    0    0  0.14313422841E+02  0.24615409728E+02 -0.41390104978E+02  0.50238873630E+02  0.10566000000E+00 0.  1.
         22    1    1    0    0    0 -0.27941769435E+02 -0.24023121355E+01  0.27846716152E+01  0.28182760311E+02  0.00000000000E+00 0.  1.
</event>
<event>
 5    1  0.1691066E-003  0.9118800E+02  0.7818608E-02  0.1130116E+00
         25   -1    0    0    0    0  0.00000000000E+00  0.00000000000E+00  0.99999998245E-14  0.12500000000E+03  0.12500000000E+03 0.  0.
        -13    1    3    3    0    0 -0.81072343980E+01 -0.33213630661E+02 -0.27770228605E+02  0.44046217454E+02  0.10566000000E+00 0. -1.
         23    2    1    0    0    0  0.28489952928E+02 -0.15430809390E+02 -0.13279494929E+01  0.92572376804E+02  0.86706944364E+02 0.  0.
         13    1    3    3    0    0  0.36597187326E+02  0.17782821271E+02  0.26442279112E+02  0.48526159349E+02  0.10566000000E+00 0.  1.
         22    1    1    0    0    0 -0.28489952928E+02  0.15430809390E+02  0.13279494929E+01  0.32427623196E+02  0.00000000000E+00 0. -1.
</event>
<event>
 5    1  0.1691066E-003  0.9118800E+02  0.7818608E-02  0.1130116E+00
         25   -1    0    0    0    0  0.00000000000E+00  0.00000000000E+00  0.99999998245E-14  0.12500000000E+03  0.12500000000E+03 0.  0.
        -13    1    3    3    0    0  0.33064957048E+02 -0.11806896670E+02 -0.23121125250E+02  0.42039169717E+02  0.10566000000E+00 0. -1.
         23    2    1    0    0    0 -0.20277959084E+02 -0.13834528428E+02 -0.15516047354E+02  0.95959725777E+02  0.91459999149E+02 0.  0.
         13    1    3    3    0    0 -0.53342916133E+02 -0.20276317579E+01  0.76050778964E+01  0.53920556061E+02  0.10566000000E+00 0.  1.
         22    1    1    0    0    0  0.20277959084E+02  0.13834528428E+02  0.15516047354E+02  0.29040274223E+02  0.00000000000E+00 0.  1.
</event>
<event>
 5    1  0.1691066E-003  0.9118800E+02  0.7818608E-02  0.1130116E+00
         25   -1    0    0    0    0  0.00000000000E+00  0.00000000000E+00  0.99999998245E-14  0.12500000000E+03  0.12500000000E+03 0.  0.
        -13    1    3    3    0    0  0.12218536153E+02  0.17888405061E+02 -0.23428612278E+02  0.31909225917E+02  0.10566000000E+00 0. -1.
         23    2    1    0    0    0 -0.26814027977E+02 -0.21699374578E+02 -0.84658492396E+01  0.89482038955E+02  0.82131052220E+02 0.  0.
         13    1    3    3    0    0 -0.39032564130E+02 -0.39587779639E+02  0.14962763038E+02  0.57572813038E+02  0.10566000000E+00 0.  1.
         22    1    1    0    0    0  0.26814027977E+02  0.21699374578E+02  0.84658492396E+01  0.35517961045E+02  0.00000000000E+00 0.  1.
</event>
<event>
 5    1  0.1691066E-003  0.9118800E+02  0.7818608E-02  0.1130116E+00
         25   -1    0    0    0    0  0.00000000000E+00  0.00000000000E+00  0.99999998245E-14  0.12500000000E+03  0.12500000000E+03 0.  0.
        -13    1    3    3    0    0  0.24049003515E+02  0.15882073862E+02 -0.38559868004E+02  0.48140102044E+02  0.10566000000E+00 0. -1.
         23    2    1    0    0    0  0.65319756827E+01 -0.22115612720E+02 -0.21968258155E+02  0.93150802228E+02  0.87536852566E+02 0.  0.
         13    1    3    3    0    0 -0.17517027832E+02 -0.37997686583E+02  0.16591609849E+02  0.45010700185E+02  0.10566000000E+00 0.  1.
         22    1    1    0    0    0 -0.65319756827E+01  0.22115612720E+02  0.21968258155E+02  0.31849197772E+02  0.00000000000E+00 0. -1.
</event>
<event>
 5    1  0.1691066E-003  0.9118800E+02  0.7818608E-02  0.1130116E+00
         25   -1    0    0    0    0  0.00000000000E+00  0.00000000000E+00  0.99999998245E-14  0.12500000000E+03  0.12500000000E+03 0.  0.
        -13    1    3    3    0    0  0.22461347806E+02 -0.12762615328E+01 -0.26046130069E+02  0.34417336393E+02  0.10566000000E+00 0.  1.
         23    2    1    0    0    0 -0.28663026104E+02 -0.11037563293E+01  0.72311279084E+01  0.95418307109E+02  0.90717014817E+02 0.  0.
         13    1    3    3    0    0 -0.51124373910E+02  0.17250520353E+00  0.33277257977E+02  0.61000970716E+02  0.10566000000E+00 0. -1.
         22    1    1    0    0    0  0.28663026104E+02  0.11037563293E+01 -0.72311279084E+01  0.29581692891E+02  0.00000000000E+00 0. -1.
</event>
<event>
 5    1  0.1691066E-003  0.9118800E+02  0.7818608E-02  0.1130116E+00
         25   -1    0    0    0    0  0.00000000000E+00  0.00000000000E+00  0.99999998245E-14  0.12500000000E+03  0.12500000000E+03 0.  0.
        -13    1    3    3    0    0 -0.12551041279E+02  0.30833577710E+02  0.21687103231E+02  0.39731344832E+02  0.10566000000E+00 0.  1.
         23    2    1    0    0    0  0.25695285228E+02 -0.68557629122E+01  0.16559157002E+02  0.93671820214E+02  0.88277715498E+02 0.  0.
         13    1    3    3    0    0  0.38246326508E+02 -0.37689340622E+02 -0.51279462288E+01  0.53940475382E+02  0.10566000000E+00 0. -1.
         22    1    1    0    0    0 -0.25695285228E+02  0.68557629122E+01 -0.16559157002E+02  0.31328179786E+02  0.00000000000E+00 0. -1.
</event>
<event>
 5    1  0.1691066E-003  0.9118800E+02  0.7818608E-02  0.1130116E+00
         25   -1    0    0    0    0  0.00000000000E+00  0.00000000000E+00  0.99999998245E-14  0.12500000000E+03  0.12500000000E+03 0.  0.
        -13    1    3    3    0    0  0.47981887832E+02  0.26831507120E+02  0.22187734286E+02  0.59283202098E+02  0.10566000000E+00 0.  1.
         23    2    1    0    0    0  0.13065393717E+02  0.13634440355E+02  0.21179770170E+02  0.96624215584E+02  0.92363704429E+02 0.  0.
         13    1    3    3    0    0 -0.34916494115E+02 -0.13197066764E+02 -0.10079641159E+01  0.37341013486E+02  0.10566000000E+00 0. -1.
         22    1    1    0    0    0 -0.13065393717E+02 -0.13634440355E+02 -0.21179770170E+02  0.28375784416E+02  0.00000000000E+00 0.  1.
</event>
<event>
 5    1  0.1691066E-003  0.9118800E+02  0.7818608E-02  0.1130116E+00
         25   -1    0    0    0    0  0.00000000000E+00  0.00000000000E+00  0.99999998245E-14  0.12500000000E+03  0.12500000000E+03 0.  0.
        -13    1    3    3    0    0 -0.80641807813E+01  0.23305837186E+02 -0.47113063327E+02  0.53177485450E+02  0.10566000000E+00 0. -1.
         23    2    1    0    0    0  0.17788983603E+02 -0.11701344757E+00 -0.24391952935E+02  0.94810117626E+02  0.89875076670E+02 0.  0.
         13    1    3    3    0    0  0.25853164384E+02 -0.23422850634E+02  0.22721110392E+02  0.41632632177E+02  0.10566000000E+00 0.  1.
         22    1    1    0    0    0 -0.17788983603E+02  0.11701344757E+00  0.24391952935E+02  0.30189882374E+02  0.00000000000E+00 0. -1.
</event>
<event>
 5    1  0.1691066E-003  0.9118800E+02  0.7818608E-02  0.1130116E+00
         25   -1    0    0    0    0  0.00000000000E+00  0.00000000000E+00  0.99999998245E-14  0.12500000000E+03  0.12500000000E+03 0.  0.
        -13    1    3    3    0    0  0.39115435069E+02 -0.12325390467E+02 -0.16724414841E+01  0.41045593373E+02  0.10566000000E+00 0.  1.
         23    2    1    0    0    0 -0.13115326247E+02 -0.26167614073E+02  0.43266003904E+01  0.95411568481E+02  0.90707729109E+02 0.  0.
         13    1    3    3    0    0 -0.52230761316E+02 -0.13842223606E+02  0.59990418745E+01  0.54365975108E+02  0.10566000000E+00 0. -1.
         22    1    1    0    0    0  0.13115326247E+02  0.26167614073E+02 -0.43266003904E+01  0.29588431519E+02  0.00000000000E+00 0.  1.
</event>
<event>
 5    1  0.1691066E-003  0.9118800E+02  0.7818608E-02  0.1130116E+00
         25   -1    0    0    0    0  0.00000000000E+00  0.00000000000E+00  0.99999998245E-14  0.12500000000E+03  0.12500000000E+03 0.  0.
        -13    1    3    3    0    0 -0.28620336910E+02 -0.46463271714E+01 -0.19665934037E+02  0.35035298866E+02  0.10566000000E+00 0.  1.
         23    2    1    0    0    0  0.13309770756E+02 -0.18916724552E+02  0.19946769578E+02  0.94457143520E+02  0.89382805281E+02 0.  0.
         13    1    3    3    0    0  0.41930107666E+02 -0.14270397381E+02  0.39612703615E+02  0.59421844654E+02  0.10566000000E+00 0. -1.
         22    1    1    0    0    0 -0.13309770756E+02  0.18916724552E+02 -0.19946769578E+02  0.30542856480E+02  0.00000000000E+00 0. -1.
</event>
<event>
 5    1  0.1691066E-003  0.9118800E+02  0.7818608E-02  0.1130116E+00
         25   -1    0    0    0    0  0.00000000000E+00  0.00000000000E+00  0.99999998245E-14  0.12500000000E+03  0.12500000000E+03 0.  0.
        -13    1    3    3    0    0 -0.14794928111E+02 -0.26919918641E+02 -0.46685258877E+02  0.55884671224E+02  0.10566000000E+00 0. -1.
         23    2    1    0    0    0  0.21678907213E+01 -0.28425730724E+02 -0.12921628125E+02  0.93699993758E+02  0.88317599828E+02 0.  0.
         13    1    3    3    0    0  0.16962818832E+02 -0.15058120831E+01  0.33763630751E+02  0.37815322533E+02  0.10566000000E+00 0.  1.
         22    1    1    0    0    0 -0.21678907213E+01  0.28425730724E+02  0.12921628125E+02  0.31300006242E+02  0.00000000000E+00 0. -1.
</event>
<event>
 5    1  0.1691066E-003  0.9118800E+02  0.7818608E-02  0.1130116E+00
         25   -1    0    0    0    0  0.00000000000E+00  0.00000000000E+00  0.99999998245E-14  0.12500000000E+03  0.12500000000E+03 0.  0.
        -13    1    3    3    0    0 -0.20033046022E+02 -0.13700000777E+02 -0.54653746368E+02  0.59800134701E+02  0.10566000000E+00 0.  1.
         23    2    1    0    0    0  0.56784953938E+00 -0.53476354290E+01 -0.35354835817E+02  0.89238511308E+02  0.81759573305E+02 0.  0.
         13    1    3    3    0    0  0.20600895561E+02  0.83523653476E+01  0.19298910550E+02  0.29438376607E+02  0.10566000000E+00 0. -1.
         22    1    1    0    0    0 -0.56784953938E+00  0.53476354290E+01  0.35354835817E+02  0.35761488692E+02  0.00000000000E+00 0.  1.
</event>
<event>
 5    1  0.1691066E-003  0.9118800E+02  0.7818608E-02  0.1130116E+00
         25   -1    0    0    0    0  0.00000000000E+00  0.00000000000E+00  0.99999998245E-14  0.12500000000E+03  0.12500000000E+03 0.  0.
        -13    1    3    3    0    0  0.32453570223E+01  0.22985156968E+02 -0.53372395820E+02  0.58202006689E+02  0.10566000000E+00 0.  1.
         23    2    1    0    0    0  0.16378246360E+02  0.36468405642E+01 -0.23073104640E+02  0.96470812180E+02  0.92155862782E+02 0.  0.
         13    1    3    3    0    0  0.13132889338E+02 -0.19338316404E+02  0.30299291180E+02  0.38268805491E+02  0.10566000000E+00 0. -1.
         22    1    1    0    0    0 -0.16378246360E+02 -0.36468405642E+01  0.23073104640E+02  0.28529187820E+02  0.00000000000E+00 0.  1.
</event>
<event>
 5    1  0.1691066E-003  0.9118800E+02  0.7818608E-02  0.1130116E+00
         25   -1    0    0    0    0  0.00000000000E+00  0.00000000000E+00  0.99999998245E-14  0.12500000000E+03  0.12500000000E+03 0.  0.
        -13    1    3    3    0    0  0.10189162821E+02 -0.18422978066E+02  0.58573845942E+02  0.62242523666E+02  0.10566000000E+00 0.  1.
         23    2    1    0    0    0  0.79893211118E+00 -0.72103879407E+01  0.27052291200E+02  0.96991886070E+02  0.92859956480E+02 0.  0.
         13    1    3    3    0    0 -0.93902307101E+01  0.11212590125E+02 -0.31521554742E+02  0.34749362404E+02  0.10566000000E+00 0. -1.
         22    1    1    0    0    0 -0.79893211118E+00  0.72103879407E+01 -0.27052291200E+02  0.28008113930E+02  0.00000000000E+00 0.  1.
</event>
<event>
 5    1  0.1691066E-003  0.9118800E+02  0.7818608E-02  0.1130116E+00
         25   -1    0    0    0    0  0.00000000000E+00  0.00000000000E+00  0.99999998245E-14  0.12500000000E+03  0.12500000000E+03 0.  0.
        -13    1    3    3    0    0 -0.12758450409E+02  0.37318081676E+02 -0.35861536504E+01  0.39601627982E+02  0.10566000000E+00 0. -1.
         23    2    1    0    0    0  0.28898961811E+02  0.91028882703E-02 -0.56141819894E+01  0.95560755512E+02  0.90913084196E+02 0.  0.
         13    1    3    3    0    0  0.41657412220E+02 -0.37308978787E+02 -0.20280283390E+01  0.55959127530E+02  0.10566000000E+00 0.  1.
         22    1    1    0    0    0 -0.28898961811E+02 -0.91028882703E-02  0.56141819894E+01  0.29439244488E+02  0.00000000000E+00 0.  1.
</event>
<event>
 5    1  0.1691066E-003  0.9118800E+02  0.7818608E-02  0.1130116E+00
         25   -1    0    0    0    0  0.00000000000E+00  0.00000000000E+00  0.99999998245E-14  0.12500000000E+03  0.12500000000E+03 0.  0.
        -13    1    3    3    0    0 -0.14167857012E+02 -0.90859305190E+01 -0.36242209677E+02  0.39959870270E+02  0.10566000000E+00 0.  1.
         23    2    1    0    0    0  0.28642303232E+02 -0.20313338898E+01 -0.32692951388E+00  0.96283894158E+02  0.91901977887E+02 0.  0.
         13    1    3    3    0    0  0.42810160244E+02  0.70545966293E+01  0.35915280163E+02  0.56324023888E+02  0.10566000000E+00 0. -1.
         22    1    1    0    0    0 -0.28642303232E+02  0.20313338898E+01  0.32692951388E+00  0.28716105842E+02  0.00000000000E+00 0. -1.
</event>
<event>
 5    1  0.1691066E-003  0.9118800E+02  0.7818608E-02  0.1130116E+00
         25   -1    0    0    0    0  0.00000000000E+00  0.00000000000E+00  0.99999998245E-14  0.12500000000E+03  0.12500000000E+03 0.  0.
        -13    1    3    3    0    0  0.21216425602E+02 -0.25385019654E+02  0.37485500950E+02  0.49997098753E+02  0.10566000000E+00 0.  1.
         23    2    1    0    0    0  0.19597351115E+02 -0.21827295293E+02 -0.71529036017E+01  0.94806440745E+02  0.89869962648E+02 0.  0.
         13    1    3    3    0    0 -0.16190744879E+01  0.35577243609E+01 -0.44638404552E+02  0.44809341992E+02  0.10566000000E+00 0. -1.
         22    1    1    0    0    0 -0.19597351115E+02  0.21827295293E+02  0.71529036017E+01  0.30193559255E+02  0.00000000000E+00 0.  1.
</event>
<event>
 5    1  0.1691066E-003  0.9118800E+02  0.7818608E-02  0.1130116E+00
         25   -1    0    0    0    0  0.00000000000E+00  0.00000000000E+00  0.99999998245E-14  0.12500000000E+03  0.12500000000E+03 0.  0.
        -13    1    3    3    0    0 -0.31464684041E+00  0.70099390951E+01 -0.56491580053E+02  0.56925811629E+02  0.10566000000E+00 0.  1.
         23    2    1    0    0    0 -0.16338156869E+02  0.10860050041E+02 -0.19907883185E+02  0.97050047054E+02  0.92938214764E+02 0.  0.
         13    1    3    3    0    0 -0.16023510028E+02  0.38501109457E+01  0.36583696868E+02  0.40124235425E+02  0.10566000000E+00 0. -1.
         22    1    1    0    0    0  0.16338156869E+02 -0.10860050041E+02  0.19907883185E+02  0.27949952946E+02  0.00000000000E+00 0.  1.
</event>
<event>
 5    1  0.1691066E-003  0.9118800E+02  0.7818608E-02  0.1130116E+00
         25   -1    0    0    0    0  0.00000000000E+00  0.00000000000E+00  0.99999998245E-14  0.12500000000E+03  0.12500000000E+03 0.  0.
        -13    1    3    3    0    0  0.49341058886E+02 -0.15046468726E+02  0.17015373253E+02  0.54318232704E+02  0.10566000000E+00 0.  1.
         23    2    1    0    0    0  0.12770514782E+02 -0.26547747404E+02  0.20607534214E+01  0.95468395833E+02  0.90786006401E+02 0.  0.
         13    1    3    3    0    0 -0.36570544104E+02 -0.11501278677E+02 -0.14954619831E+02  0.41150163129E+02  0.10566000000E+00 0. -1.
         22    1    1    0    0    0 -0.12770514782E+02  0.26547747404E+02 -0.20607534214E+01  0.29531604167E+02  0.00000000000E+00 0.  1.
</event>
<event>
 5    1  0.1691066E-003  0.9118800E+02  0.7818608E-02  0.1130116E+00
         25   -1    0    0    0    0  0.00000000000E+00  0.00000000000E+00  0.99999998245E-14  0.12500000000E+03  0.12500000000E+03 0.  0.
        -13    1    3    3    0    0  0.13071366764E+02  0.48210016828E+01 -0.36292250454E+02  0.38874687051E+02  0.10566000000E+00 0. -1.
         23    2    1    0    0    0 -0.87460060739E+01 -0.26467968125E+02  0.66808205355E+01  0.96335050638E+02  0.91971531788E+02 0.  0.
         13    1    3    3    0    0 -0.21817372838E+02 -0.31288969808E+02  0.42973070989E+02  0.57460363586E+02  0.10566000000E+00 0.  1.
         22    1    1    0    0    0  0.87460060739E+01  0.26467968125E+02 -0.66808205355E+01  0.28664949362E+02  0.00000000000E+00 0.  1.
</event>
<event>
 5    1  0.1691066E-003  0.9118800E+02  0.7818608E-02  0.1130116E+00
         25   -1    0    0    0    0  0.00000000000E+00  0.00000000000E+00  0.99999998245E-14  0.12500000000E+03  0.12500000000E+03 0.  0.
        -13    1    3    3    0    0 -0.35802198596E+02 -0.11522560273E+02  0.18859326921E+02  0.42074365064E+02  0.10566000000E+00 0.  1.
         23    2    1    0    0    0  0.79648550854E+01  0.20198193472E+02  0.19031106489E+02  0.96128059465E+02  0.91689775145E+02 0.  0.
         13    1    3    3    0    0  0.43767053682E+02  0.31720753745E+02  0.17177956765E+00  0.54053694401E+02  0.10566000000E+00 0. -1.
         22    1    1    0    0    0 -0.79648550854E+01 -0.20198193472E+02 -0.19031106489E+02  0.28871940535E+02  0.00000000000E+00 0.  1.
</event>
<event>
 5    1  0.1691066E-003  0.9118800E+02  0.7818608E-02  0.1130116E+00
         25   -1    0    0    0    0  0.00000000000E+00  0.00000000000E+00  0.99999998245E-14  0.12500000000E+03  0.12500000000E+03 0.  0.
        -13    1    3    3    0    0 -0.30881244143E+02  0.47263695413E+02 -0.15916265372E+02  0.58658731757E+02  0.10566000000E+00 0.  1.
         23    2    1    0    0    0  0.39020009285E+01  0.19371120330E+02 -0.35965429590E+01  0.10491515409E+03  0.10297469845E+03 0.  0.
         13    1    3    3    0    0  0.34783245072E+02 -0.27892575083E+02  0.12319722413E+02  0.46256422331E+02  0.10566000000E+00 0. -1.
         22    1    1    0    0    0 -0.39020009285E+01 -0.19371120330E+02  0.35965429590E+01  0.20084845913E+02  0.00000000000E+00 0.  1.
</event>
<event>
 5    1  0.1691066E-003  0.9118800E+02  0.7818608E-02  0.1130116E+00
         25   -1    0    0    0    0  0.00000000000E+00  0.00000000000E+00  0.99999998245E-14  0.12500000000E+03  0.12500000000E+03 0.  0.
        -13    1    3    3    0    0  0.18391063019E+02  0.35801123316E+02 -0.31029754229E+02  0.50821338444E+02  0.10566000000E+00 0.  1.
         23    2    1    0    0    0 -0.14338482006E+02  0.25817054978E+02 -0.25185687456E+01  0.95361248635E+02  0.90638359201E+02 0.  0.
         13    1    3    3    0    0 -0.32729545025E+02 -0.99840683384E+01  0.28511185484E+02  0.44539910191E+02  0.10566000000E+00 0. -1.
         22    1    1    0    0    0  0.14338482006E+02 -0.25817054978E+02  0.25185687456E+01  0.29638751365E+02  0.00000000000E+00 0. -1.
</event>
<event>
 5    1  0.1691066E-003  0.9118800E+02  0.7818608E-02  0.1130116E+00
         25   -1    0    0    0    0  0.00000000000E+00  0.00000000000E+00  0.99999998245E-14  0.12500000000E+03  0.12500000000E+03 0.  0.
        -13    1    3    3    0    0  0.40364251812E+02 -0.31999632258E+01  0.23924778336E+01  0.40561653112E+02  0.10566000000E+00 0.  1.
         23    2    1    0    0    0 -0.10353727139E+02 -0.22376414041E+02 -0.13269057774E+02  0.97000509554E+02  0.92871563939E+02 0.  0.
         13    1    3    3    0    0 -0.50717978951E+02 -0.19176450815E+02 -0.15661535608E+02  0.56438856441E+02  0.10566000000E+00 0. -1.
         22    1    1    0    0    0  0.10353727139E+02  0.22376414041E+02  0.13269057774E+02  0.27999490446E+02  0.00000000000E+00 0. -1.
</event>
<event>
 5    1  0.1691066E-003  0.9118800E+02  0.7818608E-02  0.1130116E+00
         25   -1    0    0    0    0  0.00000000000E+00  0.00000000000E+00  0.99999998245E-14  0.12500000000E+03  0.12500000000E+03 0.  0.
        -13    1    3    3    0    0 -0.17749604876E+02  0.33442878295E+02 -0.23133773441E+02  0.44369552844E+02  0.10566000000E+00 0.  1.
         23    2    1    0    0    0  0.24867945523E+02  0.12349873384E+02 -0.17319070115E+02  0.92275631759E+02  0.86278084933E+02 0.  0.
         13    1    3    3    0    0  0.42617550399E+02 -0.21093004911E+02  0.58147033259E+01  0.47906078915E+02  0.10566000000E+00 0. -1.
         22    1    1    0    0    0 -0.24867945523E+02 -0.12349873384E+02  0.17319070115E+02  0.32724368241E+02  0.00000000000E+00 0.  1.
</event>
<event>
 5    1  0.1691066E-003  0.9118800E+02  0.7818608E-02  0.1130116E+00
         25   -1    0    0    0    0  0.00000000000E+00  0.00000000000E+00  0.99999998245E-14  0.12500000000E+03  0.12500000000E+03 0.  0.
        -13    1    3    3    0    0  0.57986989340E+01 -0.20419590921E+02 -0.25047137047E+02  0.32832222603E+02  0.10566000000E+00 0. -1.
         23    2    1    0    0    0 -0.52292582948E+00  0.17563715368E+02  0.24041692591E+02  0.95221475328E+02  0.90445391437E+02 0.  0.
         13    1    3    3    0    0 -0.63216247634E+01  0.37983306290E+02  0.49088829639E+02  0.62389252726E+02  0.10566000000E+00 0.  1.
         22    1    1    0    0    0  0.52292582948E+00 -0.17563715368E+02 -0.24041692591E+02  0.29778524672E+02  0.00000000000E+00 0.  1.
</event>
<event>
 5    1  0.1691066E-003  0.9118800E+02  0.7818608E-02  0.1130116E+00
         25   -1    0    0    0    0  0.00000000000E+00  0.00000000000E+00  0.99999998245E-14  0.12500000000E+03  0.12500000000E+03 0.  0.
        -13    1    3    3    0    0 -0.26476075745E+02  0.32974290895E+02  0.15200053637E+02  0.44937058666E+02  0.10566000000E+00 0. -1.
         23    2    1    0    0    0 -0.86513154636E+00 -0.79535860773E+01  0.28810352534E+02  0.95099424802E+02  0.90276553991E+02 0.  0.
         13    1    3    3    0    0  0.25610944199E+02 -0.40927876973E+02  0.13610298897E+02  0.50162366136E+02  0.10566000000E+00 0.  1.
         22    1    1    0    0    0  0.86513154636E+00  0.79535860773E+01 -0.28810352534E+02  0.29900575198E+02  0.00000000000E+00 0. -1.
</event>
<event>
 5    1  0.1691066E-003  0.9118800E+02  0.7818608E-02  0.1130116E+00
         25   -1    0    0    0    0  0.00000000000E+00  0.00000000000E+00  0.99999998245E-14  0.12500000000E+03  0.12500000000E+03 0.  0.
        -13    1    3    3    0    0 -0.24072908943E+02 -0.10771595014E+02 -0.23020251624E+02  0.35006790099E+02  0.10566000000E+00 0.  1.
         23    2    1    0    0    0  0.27368299177E+02  0.20253864845E+00  0.85177792430E+01  0.96336131018E+02  0.91973000139E+02 0.  0.
         13    1    3    3    0    0  0.51441208121E+02  0.10974133663E+02  0.31538030867E+02  0.61329340919E+02  0.10566000000E+00 0. -1.
         22    1    1    0    0    0 -0.27368299177E+02 -0.20253864845E+00 -0.85177792430E+01  0.28663868982E+02  0.00000000000E+00 0. -1.
</event>
<event>
 5    1  0.1691066E-003  0.9118800E+02  0.7818608E-02  0.1130116E+00
         25   -1    0    0    0    0  0.00000000000E+00  0.00000000000E+00  0.99999998245E-14  0.12500000000E+03  0.12500000000E+03 0.  0.
        -13    1    3    3    0    0 -0.39721815651E+02  0.48922909569E+01  0.14264555868E+02  0.42488185035E+02  0.10566000000E+00 0.  1.
         23    2    1    0    0    0  0.26956665263E+01  0.30768667135E+02  0.25671900838E+00  0.94112407023E+02  0.88899391200E+02 0.  0.
         13    1    3    3    0    0  0.42417482177E+02  0.25876376178E+02 -0.14007836859E+02  0.51624221988E+02  0.10566000000E+00 0. -1.
         22    1    1    0    0    0 -0.26956665263E+01 -0.30768667135E+02 -0.25671900838E+00  0.30887592977E+02  0.00000000000E+00 0.  1.
</event>
<event>
 5    1  0.1691066E-003  0.9118800E+02  0.7818608E-02  0.1130116E+00
         25   -1    0    0    0    0  0.00000000000E+00  0.00000000000E+00  0.99999998245E-14  0.12500000000E+03  0.12500000000E+03 0.  0.
        -13    1    3    3    0    0 -0.27271408474E+02  0.25468856816E+02 -0.49374906459E+02  0.61889295840E+02  0.10566000000E+00 0.  1.
         23    2    1    0    0    0 -0.16736153633E+02  0.15166036997E+02 -0.19664667594E+02  0.95053269491E+02  0.90212623134E+02 0.  0.
         13    1    3    3    0    0  0.10535254840E+02 -0.10302819819E+02  0.29710238866E+02  0.33163973650E+02  0.10566000000E+00 0. -1.
         22    1    1    0    0    0  0.16736153633E+02 -0.15166036997E+02  0.19664667594E+02  0.29946730509E+02  0.00000000000E+00 0.  1.
</event>
<event>
 5    1  0.1691066E-003  0.9118800E+02  0.7818608E-02  0.1130116E+00
         25   -1    0    0    0    0  0.00000000000E+00  0.00000000000E+00  0.99999998245E-14  0.12500000000E+03  0.12500000000E+03 0.  0.
        -13    1    3    3    0    0  0.35063791717E+02 -0.35874210762E+02  0.14014002934E+02  0.52084853170E+02  0.10566000000E+00 0. -1.
         23    2    1    0    0    0 -0.85637325605E+01 -0.24147752264E+02  0.10204560283E+02  0.97421303415E+02  0.93436212754E+02 0.  0.
         13    1    3    3    0    0 -0.43627524278E+02  0.11726458499E+02 -0.38094426510E+01  0.45336450246E+02  0.10566000000E+00 0.  1.
         22    1    1    0    0    0  0.85637325605E+01  0.24147752264E+02 -0.10204560283E+02  0.27578696585E+02  0.00000000000E+00 0. -1.
</event>
<event>
 5    1  0.1691066E-003  0.9118800E+02  0.7818608E-02  0.1130116E+00
         25   -1    0    0    0    0  0.00000000000E+00  0.00000000000E+00  0.99999998245E-14  0.12500000000E+03  0.12500000000E+03 0.  0.
        -13    1    3    3    0    0 -0.37293343200E+02 -0.81756957255E+01 -0.15979886449E+02  0.41388445037E+02  0.10566000000E+00 0.  1.
         23    2    1    0    0    0 -0.22941283920E+02 -0.39058452131E+02  0.15207702200E+01  0.79676960243E+02  0.65530451400E+02 0.  0.
         13    1    3    3    0    0  0.14352059280E+02 -0.30882756405E+02  0.17500656669E+02  0.38288515206E+02  0.10566000000E+00 0. -1.
         22    1    1    0    0    0  0.22941283920E+02  0.39058452131E+02 -0.15207702200E+01  0.45323039757E+02  0.00000000000E+00 0. -1.
</event>
<event>
 5    1  0.1691066E-003  0.9118800E+02  0.7818608E-02  0.1130116E+00
         25   -1    0    0    0    0  0.00000000000E+00  0.00000000000E+00  0.99999998245E-14  0.12500000000E+03  0.12500000000E+03 0.  0.
        -13    1    3    3    0    0  0.49935709364E+01 -0.59490296181E+02  0.16670112785E+02  0.61983343849E+02  0.10566000000E+00 0. -1.
         23    2    1    0    0    0 -0.16318529613E+01 -0.26928741008E+02  0.11748251845E+02  0.95574815926E+02  0.90932414360E+02 0.  0.
         13    1    3    3    0    0 -0.66254238976E+01  0.32561555173E+02 -0.49218609399E+01  0.33591472076E+02  0.10566000000E+00 0.  1.
         22    1    1    0    0    0  0.16318529613E+01  0.26928741008E+02 -0.11748251845E+02  0.29425184074E+02  0.00000000000E+00 0. -1.
</event>
<event>
 5    1  0.1691066E-003  0.9118800E+02  0.7818608E-02  0.1130116E+00
         25   -1    0    0    0    0  0.00000000000E+00  0.00000000000E+00  0.99999998245E-14  0.12500000000E+03  0.12500000000E+03 0.  0.
        -13    1    3    3    0    0 -0.23627175250E+02  0.37933817270E+02 -0.13059339082E+01  0.44709445651E+02  0.10566000000E+00 0. -1.
         23    2    1    0    0    0  0.23369683812E+02  0.16583718710E+02 -0.45401657518E-01  0.96344042346E+02  0.91983751753E+02 0.  0.
         13    1    3    3    0    0  0.46996859063E+02 -0.21350098560E+02  0.12605322506E+01  0.51634596695E+02  0.10566000000E+00 0.  1.
         22    1    1    0    0    0 -0.23369683812E+02 -0.16583718710E+02  0.45401657518E-01  0.28655957654E+02  0.00000000000E+00 0. -1.
</event>
<event>
 5    1  0.1691066E-003  0.9118800E+02  0.7818608E-02  0.1130116E+00
         25   -1    0    0    0    0  0.00000000000E+00  0.00000000000E+00  0.99999998245E-14  0.12500000000E+03  0.12500000000E+03 0.  0.
        -13    1    3    3    0    0  0.33976473283E+02  0.18594365750E+00  0.19138093944E+02  0.38996321822E+02  0.10566000000E+00 0. -1.
         23    2    1    0    0    0  0.45686537967E+00  0.19167615440E+02 -0.22311554749E+02  0.95582119673E+02  0.90942453883E+02 0.  0.
         13    1    3    3    0    0 -0.33519607903E+02  0.18981671782E+02 -0.41449648693E+02  0.56585797851E+02  0.10566000000E+00 0.  1.
         22    1    1    0    0    0 -0.45686537967E+00 -0.19167615440E+02  0.22311554749E+02  0.29417880327E+02  0.00000000000E+00 0.  1.
</event>
<event>
 5    1  0.1691066E-003  0.9118800E+02  0.7818608E-02  0.1130116E+00
         25   -1    0    0    0    0  0.00000000000E+00  0.00000000000E+00  0.99999998245E-14  0.12500000000E+03  0.12500000000E+03 0.  0.
        -13    1    3    3    0    0  0.13564989306E+02  0.39623398410E+02 -0.42422586899E+02  0.59612999250E+02  0.10566000000E+00 0.  1.
         23    2    1    0    0    0  0.58290325076E+01  0.89458512658E+01 -0.29210944063E+02  0.93898792180E+02  0.88598521686E+02 0.  0.
         13    1    3    3    0    0 -0.77359567982E+01 -0.30677547144E+02  0.13211642836E+02  0.34285792930E+02  0.10566000000E+00 0. -1.
         22    1    1    0    0    0 -0.58290325076E+01 -0.89458512658E+01  0.29210944063E+02  0.31101207820E+02  0.00000000000E+00 0.  1.
</event>
<event>
 5    1  0.1691066E-003  0.9118800E+02  0.7818608E-02  0.1130116E+00
         25   -1    0    0    0    0  0.00000000000E+00  0.00000000000E+00  0.99999998245E-14  0.12500000000E+03  0.12500000000E+03 0.  0.
        -13    1    3    3    0    0 -0.28675267156E+02  0.11921928245E+02  0.19999864331E+02  0.36937908127E+02  0.10566000000E+00 0. -1.
         23    2    1    0    0    0 -0.25803264209E+01  0.60026415549E+00 -0.30225297410E+02  0.94658823276E+02  0.89664406645E+02 0.  0.
         13    1    3    3    0    0  0.26094940735E+02 -0.11321664089E+02 -0.50225161741E+02  0.57720915149E+02  0.10566000000E+00 0.  1.
         22    1    1    0    0    0  0.25803264209E+01 -0.60026415549E+00  0.30225297410E+02  0.30341176724E+02  0.00000000000E+00 0.  1.
</event>
<event>
 5    1  0.1691066E-003  0.9118800E+02  0.7818608E-02  0.1130116E+00
         25   -1    0    0    0    0  0.00000000000E+00  0.00000000000E+00  0.99999998245E-14  0.12500000000E+03  0.12500000000E+03 0.  0.
        -13    1    3    3    0    0  0.12050557122E+02 -0.43827003930E+02 -0.95935366768E+01  0.46455024599E+02  0.10566000000E+00 0. -1.
         23    2    1    0    0    0  0.11983296191E+02  0.55586557860E+01  0.17725691932E+02  0.10289348069E+03  0.10049064718E+03 0.  0.
         13    1    3    3    0    0 -0.67260931453E-01  0.49385659716E+02  0.27319228609E+02  0.56438456087E+02  0.10566000000E+00 0.  1.
         22    1    1    0    0    0 -0.11983296191E+02 -0.55586557860E+01 -0.17725691932E+02  0.22106519315E+02  0.00000000000E+00 0.  1.
</event>
<event>
 5    1  0.1691066E-003  0.9118800E+02  0.7818608E-02  0.1130116E+00
         25   -1    0    0    0    0  0.00000000000E+00  0.00000000000E+00  0.99999998245E-14  0.12500000000E+03  0.12500000000E+03 0.  0.
        -13    1    3    3    0    0  0.42357682914E+01 -0.23666455523E+02  0.42454203643E+02  0.48789480639E+02  0.10566000000E+00 0.  1.
         23    2    1    0    0    0 -0.24380431077E+02  0.18789333527E+01  0.12037604825E+02  0.97744913503E+02  0.93868143561E+02 0.  0.
         13    1    3    3    0    0 -0.28616199369E+02  0.25545388876E+02 -0.30416598818E+02  0.48955432863E+02  0.10566000000E+00 0. -1.
         22    1    1    0    0    0  0.24380431077E+02 -0.18789333527E+01 -0.12037604825E+02  0.27255086497E+02  0.00000000000E+00 0. -1.
</event>
<event>
 5    1  0.1691066E-003  0.9118800E+02  0.7818608E-02  0.1130116E+00
         25   -1    0    0    0    0  0.00000000000E+00  0.00000000000E+00  0.99999998245E-14  0.12500000000E+03  0.12500000000E+03 0.  0.
        -13    1    3    3    0    0 -0.45691472492E+02 -0.12322465441E+02  0.83128203035E+01  0.48048599964E+02  0.10566000000E+00 0.  1.
         23    2    1    0    0    0 -0.14765144593E+02 -0.30019345972E+02 -0.12468780040E+02  0.89297883772E+02  0.81850295925E+02 0.  0.
         13    1    3    3    0    0  0.30926327899E+02 -0.17696880531E+02 -0.20781600344E+02  0.41249283809E+02  0.10566000000E+00 0. -1.
         22    1    1    0    0    0  0.14765144593E+02  0.30019345972E+02  0.12468780040E+02  0.35702116228E+02  0.00000000000E+00 0. -1.
</event>
<event>
 5    1  0.1691066E-003  0.9118800E+02  0.7818608E-02  0.1130116E+00
         25   -1    0    0    0    0  0.00000000000E+00  0.00000000000E+00  0.99999998245E-14  0.12500000000E+03  0.12500000000E+03 0.  0.
        -13    1    3    3    0    0  0.25342236185E+02  0.25318697736E+02  0.78248896928E+01  0.36667498587E+02  0.10566000000E+00 0.  1.
         23    2    1    0    0    0 -0.12162238966E+02 -0.20454048254E+02  0.15883597086E+02  0.96389218762E+02  0.92045123122E+02 0.  0.
         13    1    3    3    0    0 -0.37504475150E+02 -0.45772745990E+02  0.80587073930E+01  0.59721720175E+02  0.10566000000E+00 0. -1.
         22    1    1    0    0    0  0.12162238966E+02  0.20454048254E+02 -0.15883597086E+02  0.28610781238E+02  0.00000000000E+00 0. -1.
</event>
<event>
 5    1  0.1691066E-003  0.9118800E+02  0.7818608E-02  0.1130116E+00
         25   -1    0    0    0    0  0.00000000000E+00  0.00000000000E+00  0.99999998245E-14  0.12500000000E+03  0.12500000000E+03 0.  0.
        -13    1    3    3    0    0  0.42031253188E+01 -0.40912367366E+01 -0.46941890089E+02  0.47307046935E+02  0.10566000000E+00 0.  1.
         23    2    1    0    0    0 -0.19776442153E+02  0.18370600656E+02 -0.11430171467E+02  0.95687281729E+02  0.91086883974E+02 0.  0.
         13    1    3    3    0    0 -0.23979567471E+02  0.22461837393E+02  0.35511718622E+02  0.48380234794E+02  0.10566000000E+00 0. -1.
         22    1    1    0    0    0  0.19776442153E+02 -0.18370600656E+02  0.11430171467E+02  0.29312718271E+02  0.00000000000E+00 0.  1.
</event>
<event>
 5    1  0.1691066E-003  0.9118800E+02  0.7818608E-02  0.1130116E+00
         25   -1    0    0    0    0  0.00000000000E+00  0.00000000000E+00  0.99999998245E-14  0.12500000000E+03  0.12500000000E+03 0.  0.
        -13    1    3    3    0    0 -0.38420522784E+02 -0.12963529655E+02  0.56563911631E+01  0.40941367798E+02  0.10566000000E+00 0.  1.
         23    2    1    0    0    0  0.23077194581E+01  0.21976870519E+02  0.18570103948E+02  0.96135537982E+02  0.91699969987E+02 0.  0.
         13    1    3    3    0    0  0.40728242242E+02  0.34940400174E+02  0.12913712785E+02  0.55194170185E+02  0.10566000000E+00 0. -1.
         22    1    1    0    0    0 -0.23077194581E+01 -0.21976870519E+02 -0.18570103948E+02  0.28864462018E+02  0.00000000000E+00 0. -1.
</event>
<event>
 5    1  0.1691066E-003  0.9118800E+02  0.7818608E-02  0.1130116E+00
         25   -1    0    0    0    0  0.00000000000E+00  0.00000000000E+00  0.99999998245E-14  0.12500000000E+03  0.12500000000E+03 0.  0.
        -13    1    3    3    0    0 -0.16626382336E+02  0.50046602459E+02 -0.48210965873E-02  0.52736232274E+02  0.10566000000E+00 0.  1.
         23    2    1    0    0    0 -0.19665828185E+02  0.95233668247E+01 -0.17525548818E+02  0.96989570242E+02  0.92856839061E+02 0.  0.
         13    1    3    3    0    0 -0.30394458492E+01 -0.40523235634E+02 -0.17520727721E+02  0.44253337967E+02  0.10566000000E+00 0. -1.
         22    1    1    0    0    0  0.19665828185E+02 -0.95233668247E+01  0.17525548818E+02  0.28010429758E+02  0.00000000000E+00 0.  1.
</event>
<event>
 5    1  0.1691066E-003  0.9118800E+02  0.7818608E-02  0.1130116E+00
         25   -1    0    0    0    0  0.00000000000E+00  0.00000000000E+00  0.99999998245E-14  0.12500000000E+03  0.12500000000E+03 0.  0.
        -13    1    3    3    0    0 -0.16246897174E+02 -0.29498063416E+02 -0.77412965295E+01  0.34554829606E+02  0.10566000000E+00 0. -1.
         23    2    1    0    0    0  0.26891457335E+02  0.34670374746E+01  0.15674628924E+02  0.93681238557E+02  0.88291050731E+02 0.  0.
         13    1    3    3    0    0  0.43138354509E+02  0.32965100891E+02  0.23415925453E+02  0.59126408951E+02  0.10566000000E+00 0.  1.
         22    1    1    0    0    0 -0.26891457335E+02 -0.34670374746E+01 -0.15674628924E+02  0.31318761443E+02  0.00000000000E+00 0.  1.
</event>
<event>
 5    1  0.1691066E-003  0.9118800E+02  0.7818608E-02  0.1130116E+00
         25   -1    0    0    0    0  0.00000000000E+00  0.00000000000E+00  0.99999998245E-14  0.12500000000E+03  0.12500000000E+03 0.  0.
        -13    1    3    3    0    0 -0.42186527050E+02 -0.37850352059E+02 -0.46850497315E+01  0.56871021360E+02  0.10566000000E+00 0.  1.
         23    2    1    0    0    0 -0.26739985161E+02 -0.38350235060E+01 -0.12810415340E+02  0.95102827008E+02  0.90281264679E+02 0.  0.
         13    1    3    3    0    0  0.15446541889E+02  0.34015328553E+02 -0.81253656085E+01  0.38231805649E+02  0.10566000000E+00 0. -1.
         22    1    1    0    0    0  0.26739985161E+02  0.38350235060E+01  0.12810415340E+02  0.29897172992E+02  0.00000000000E+00 0.  1.
</event>
<event>
 5    1  0.1691066E-003  0.9118800E+02  0.7818608E-02  0.1130116E+00
         25   -1    0    0    0    0  0.00000000000E+00  0.00000000000E+00  0.99999998245E-14  0.12500000000E+03  0.12500000000E+03 0.  0.
        -13    1    3    3    0    0 -0.56429078682E+02 -0.14458248310E+02 -0.63936011234E+01  0.58601801717E+02  0.10566000000E+00 0. -1.
         23    2    1    0    0    0 -0.28861394576E+02  0.78073004580E+01  0.20524881477E+01  0.95030903502E+02  0.90181627151E+02 0.  0.
         13    1    3    3    0    0  0.27567684106E+02  0.22265548768E+02  0.84460892711E+01  0.36429101786E+02  0.10566000000E+00 0.  1.
         22    1    1    0    0    0  0.28861394576E+02 -0.78073004580E+01 -0.20524881477E+01  0.29969096498E+02  0.00000000000E+00 0. -1.
</event>
<event>
 5    1  0.1691066E-003  0.9118800E+02  0.7818608E-02  0.1130116E+00
         25   -1    0    0    0    0  0.00000000000E+00  0.00000000000E+00  0.99999998245E-14  0.12500000000E+03  0.12500000000E+03 0.  0.
        -13    1    3    3    0    0 -0.44547687355E+02  0.40513761276E+02 -0.36476254053E+01  0.60325596861E+02  0.10566000000E+00 0. -1.
         23    2    1    0    0    0 -0.16322820777E+02  0.19497016184E+02  0.94482181882E+01  0.97873685375E+02  0.94039466947E+02 0.  0.
         13    1    3    3    0    0  0.28224866578E+02 -0.21016745092E+02  0.13095843594E+02  0.37548088514E+02  0.10566000000E+00 0.  1.
         22    1    1    0    0    0  0.16322820777E+02 -0.19497016184E+02 -0.94482181882E+01  0.27126314625E+02  0.00000000000E+00 0. -1.
</event>
<event>
 5    1  0.1691066E-003  0.9118800E+02  0.7818608E-02  0.1130116E+00
         25   -1    0    0    0    0  0.00000000000E+00  0.00000000000E+00  0.99999998245E-14  0.12500000000E+03  0.12500000000E+03 0.  0.
        -13    1    3    3    0    0 -0.24840470927E+02 -0.35221380764E+02  0.20067763535E+02  0.47542832857E+02  0.10566000000E+00 0.  1.
         23    2    1    0    0    0 -0.26029539607E+02  0.11227777700E+02  0.75483504615E+01  0.95664398440E+02  0.91055475452E+02 0.  0.
         13    1    3    3    0    0 -0.11890686802E+01  0.46449158464E+02 -0.12519413073E+02  0.48121565582E+02  0.10566000000E+00 0. -1.
         22    1    1    0    0    0  0.26029539607E+02 -0.11227777700E+02 -0.75483504615E+01  0.29335601560E+02  0.00000000000E+00 0. -1.
</event>
<event>
 5    1  0.1691066E-003  0.9118800E+02  0.7818608E-02  0.1130116E+00
         25   -1    0    0    0    0  0.00000000000E+00  0.00000000000E+00  0.99999998245E-14  0.12500000000E+03  0.12500000000E+03 0.  0.
        -13    1    3    3    0    0 -0.27569860119E+02 -0.21322822475E+02  0.13704026614E+02  0.37450920613E+02  0.10566000000E+00 0.  1.
         23    2    1    0    0    0  0.77981018319E+01  0.59945682061E+01 -0.25982229085E+02  0.97218324954E+02  0.93164270181E+02 0.  0.
         13    1    3    3    0    0  0.35367961951E+02  0.27317390681E+02 -0.39686255699E+02  0.59767404341E+02  0.10566000000E+00 0. -1.
         22    1    1    0    0    0 -0.77981018319E+01 -0.59945682061E+01  0.25982229085E+02  0.27781675046E+02  0.00000000000E+00 0. -1.
</event>
<event>
 5    1  0.1691066E-003  0.9118800E+02  0.7818608E-02  0.1130116E+00
         25   -1    0    0    0    0  0.00000000000E+00  0.00000000000E+00  0.99999998245E-14  0.12500000000E+03  0.12500000000E+03 0.  0.
        -13    1    3    3    0    0  0.15105853402E+02  0.39157954432E+02  0.20292459786E+02  0.46618958488E+02  0.10566000000E+00 0.  1.
         23    2    1    0    0    0 -0.54796644369E+01 -0.43372362365E+01  0.28693662599E+02  0.95467566747E+02  0.90784864854E+02 0.  0.
         13    1    3    3    0    0 -0.20585517839E+02 -0.43495190669E+02  0.84012028134E+01  0.48848608258E+02  0.10566000000E+00 0. -1.
         22    1    1    0    0    0  0.54796644369E+01  0.43372362365E+01 -0.28693662599E+02  0.29532433253E+02  0.00000000000E+00 0. -1.
</event>
<event>
 5    1  0.1691066E-003  0.9118800E+02  0.7818608E-02  0.1130116E+00
         25   -1    0    0    0    0  0.00000000000E+00  0.00000000000E+00  0.99999998245E-14  0.12500000000E+03  0.12500000000E+03 0.  0.
        -13    1    3    3    0    0  0.92093157689E+01 -0.33841471835E+02  0.21287491226E+01  0.35136867387E+02  0.10566000000E+00 0.  1.
         23    2    1    0    0    0  0.13022476735E+02  0.25501996533E+02 -0.75536425113E+01  0.95385911416E+02  0.90672365437E+02 0.  0.
         13    1    3    3    0    0  0.38131609665E+01  0.59343468368E+02 -0.96823916339E+01  0.60249044028E+02  0.10566000000E+00 0. -1.
         22    1    1    0    0    0 -0.13022476735E+02 -0.25501996533E+02  0.75536425113E+01  0.29614088584E+02  0.00000000000E+00 0. -1.
</event>
<event>
 5    1  0.1691066E-003  0.9118800E+02  0.7818608E-02  0.1130116E+00
         25   -1    0    0    0    0  0.00000000000E+00  0.00000000000E+00  0.99999998245E-14  0.12500000000E+03  0.12500000000E+03 0.  0.
        -13    1    3    3    0    0 -0.35096712147E+02  0.31756413477E+02  0.13034954446E+02  0.49093484312E+02  0.10566000000E+00 0.  1.
         23    2    1    0    0    0  0.13061496676E+02  0.20183658539E+02  0.10720322648E+02  0.98676852675E+02  0.95101068179E+02 0.  0.
         13    1    3    3    0    0  0.48158208823E+02 -0.11572754938E+02 -0.23146317979E+01  0.49583368363E+02  0.10566000000E+00 0. -1.
         22    1    1    0    0    0 -0.13061496676E+02 -0.20183658539E+02 -0.10720322648E+02  0.26323147325E+02  0.00000000000E+00 0. -1.
</event>
<event>
 5    1  0.1691066E-003  0.9118800E+02  0.7818608E-02  0.1130116E+00
         25   -1    0    0    0    0  0.00000000000E+00  0.00000000000E+00  0.99999998245E-14  0.12500000000E+03  0.12500000000E+03 0.  0.
        -13    1    3    3    0    0 -0.42202936096E+02  0.83264495738E+01 -0.52794624516E+01  0.43339375462E+02  0.10566000000E+00 0. -1.
         23    2    1    0    0    0  0.64751234894E+01  0.12051777020E+02 -0.25404990588E+02  0.96145431898E+02  0.91713455798E+02 0.  0.
         13    1    3    3    0    0  0.48678059585E+02  0.37253274465E+01 -0.20125528137E+02  0.52806056436E+02  0.10566000000E+00 0.  1.
         22    1    1    0    0    0 -0.64751234894E+01 -0.12051777020E+02  0.25404990588E+02  0.28854568102E+02  0.00000000000E+00 0. -1.
</event>
<event>
 5    1  0.1691066E-003  0.9118800E+02  0.7818608E-02  0.1130116E+00
         25   -1    0    0    0    0  0.00000000000E+00  0.00000000000E+00  0.99999998245E-14  0.12500000000E+03  0.12500000000E+03 0.  0.
        -13    1    3    3    0    0  0.14328336193E+02  0.54728254555E+02 -0.14041467821E+02  0.58289424832E+02  0.10566000000E+00 0.  1.
         23    2    1    0    0    0 -0.31747326362E+01  0.23306641057E+02 -0.19214943534E+02  0.94627438374E+02  0.89620642676E+02 0.  0.
         13    1    3    3    0    0 -0.17503068829E+02 -0.31421613497E+02 -0.51734757127E+01  0.36338013542E+02  0.10566000000E+00 0. -1.
         22    1    1    0    0    0  0.31747326362E+01 -0.23306641057E+02  0.19214943534E+02  0.30372561626E+02  0.00000000000E+00 0.  1.
</event>
<event>
 5    1  0.1691066E-003  0.9118800E+02  0.7818608E-02  0.1130116E+00
         25   -1    0    0    0    0  0.00000000000E+00  0.00000000000E+00  0.99999998245E-14  0.12500000000E+03  0.12500000000E+03 0.  0.
        -13    1    3    3    0    0 -0.47257117869E+02 -0.24828018680E+02  0.10507977308E+02  0.54406750059E+02  0.10566000000E+00 0. -1.
         23    2    1    0    0    0 -0.96336456241E+01 -0.22281966835E+02  0.20286933481E+02  0.93363741623E+02  0.87840397344E+02 0.  0.
         13    1    3    3    0    0  0.37623472245E+02  0.25460518448E+01  0.97789561733E+01  0.38956991563E+02  0.10566000000E+00 0.  1.
         22    1    1    0    0    0  0.96336456241E+01  0.22281966835E+02 -0.20286933481E+02  0.31636258377E+02  0.00000000000E+00 0. -1.
</event>
<event>
 5    1  0.1691066E-003  0.9118800E+02  0.7818608E-02  0.1130116E+00
         25   -1    0    0    0    0  0.00000000000E+00  0.00000000000E+00  0.99999998245E-14  0.12500000000E+03  0.12500000000E+03 0.  0.
        -13    1    3    3    0    0  0.14347125518E+02 -0.42272294131E+02 -0.20571889430E+01  0.44688142187E+02  0.10566000000E+00 0.  1.
         23    2    1    0    0    0 -0.26467200290E+02 -0.17396423075E+02  0.47674231844E+01  0.92970692314E+02  0.87279282069E+02 0.  0.
         13    1    3    3    0    0 -0.40814325809E+02  0.24875871056E+02  0.68246121274E+01  0.48282550127E+02  0.10566000000E+00 0. -1.
         22    1    1    0    0    0  0.26467200290E+02  0.17396423075E+02 -0.47674231844E+01  0.32029307686E+02  0.00000000000E+00 0.  1.
</event>
<event>
 5    1  0.1691066E-003  0.9118800E+02  0.7818608E-02  0.1130116E+00
         25   -1    0    0    0    0  0.00000000000E+00  0.00000000000E+00  0.99999998245E-14  0.12500000000E+03  0.12500000000E+03 0.  0.
        -13    1    3    3    0    0  0.22203221590E+01 -0.28127034626E+02  0.17941489797E+02  0.33436030379E+02  0.10566000000E+00 0.  1.
         23    2    1    0    0    0 -0.17332935697E+02  0.22634455532E+02 -0.10250067701E+02  0.94704569239E+02  0.89728157842E+02 0.  0.
         13    1    3    3    0    0 -0.19553257856E+02  0.50761490158E+02 -0.28191557498E+02  0.61268538860E+02  0.10566000000E+00 0. -1.
         22    1    1    0    0    0  0.17332935697E+02 -0.22634455532E+02  0.10250067701E+02  0.30295430761E+02  0.00000000000E+00 0. -1.
</event>
<event>
 5    1  0.1691066E-003  0.9118800E+02  0.7818608E-02  0.1130116E+00
         25   -1    0    0    0    0  0.00000000000E+00  0.00000000000E+00  0.99999998245E-14  0.12500000000E+03  0.12500000000E+03 0.  0.
        -13    1    3    3    0    0 -0.38066120213E+02  0.47175996513E+02  0.10767035486E+02  0.61567396992E+02  0.10566000000E+00 0. -1.
         23    2    1    0    0    0 -0.13686238562E+02  0.26328512610E+02  0.24974619380E+00  0.95325666387E+02  0.90589274181E+02 0.  0.
         13    1    3    3    0    0  0.24379881652E+02 -0.20847483903E+02 -0.10517289293E+02  0.33758269395E+02  0.10566000000E+00 0.  1.
         22    1    1    0    0    0  0.13686238562E+02 -0.26328512610E+02 -0.24974619380E+00  0.29674333613E+02  0.00000000000E+00 0. -1.
</event>
<event>
 5    1  0.1691066E-003  0.9118800E+02  0.7818608E-02  0.1130116E+00
         25   -1    0    0    0    0  0.00000000000E+00  0.00000000000E+00  0.99999998245E-14  0.12500000000E+03  0.12500000000E+03 0.  0.
        -13    1    3    3    0    0  0.27149345306E+02  0.15600911771E+01 -0.21061425782E+02  0.34396448291E+02  0.10566000000E+00 0. -1.
         23    2    1    0    0    0 -0.15135740221E+02  0.20586132660E+02  0.16936256866E+02  0.94345207772E+02  0.89226128140E+02 0.  0.
         13    1    3    3    0    0 -0.42285085527E+02  0.19026041483E+02  0.37997682648E+02  0.59948759480E+02  0.10566000000E+00 0.  1.
         22    1    1    0    0    0  0.15135740221E+02 -0.20586132660E+02 -0.16936256866E+02  0.30654792228E+02  0.00000000000E+00 0.  1.
</event>
<event>
 5    1  0.1691066E-003  0.9118800E+02  0.7818608E-02  0.1130116E+00
         25   -1    0    0    0    0  0.00000000000E+00  0.00000000000E+00  0.99999998245E-14  0.12500000000E+03  0.12500000000E+03 0.  0.
        -13    1    3    3    0    0 -0.79559355284E+01 -0.12349482554E+02  0.21421384116E+02  0.25974862675E+02  0.10566000000E+00 0.  1.
         23    2    1    0    0    0  0.32339605734E+02  0.25294814629E+02  0.42845734854E+01  0.83720037353E+02  0.72835495044E+02 0.  0.
         13    1    3    3    0    0  0.40295541262E+02  0.37644297183E+02 -0.17136810631E+02  0.57745174679E+02  0.10566000000E+00 0. -1.
         22    1    1    0    0    0 -0.32339605734E+02 -0.25294814629E+02 -0.42845734854E+01  0.41279962647E+02  0.00000000000E+00 0. -1.
</event>
<event>
 5    1  0.1691066E-003  0.9118800E+02  0.7818608E-02  0.1130116E+00
         25   -1    0    0    0    0  0.00000000000E+00  0.00000000000E+00  0.99999998245E-14  0.12500000000E+03  0.12500000000E+03 0.  0.
        -13    1    3    3    0    0  0.11621791881E+02 -0.17759549090E+02  0.19129269626E+02  0.28572849890E+02  0.10566000000E+00 0. -1.
         23    2    1    0    0    0 -0.38327631778E+01  0.22246521739E+02 -0.25822201944E+02  0.90701546444E+02  0.83966580323E+02 0.  0.
         13    1    3    3    0    0 -0.15454555059E+02  0.40006070829E+02 -0.44951471569E+02  0.62128696554E+02  0.10566000000E+00 0.  1.
         22    1    1    0    0    0  0.38327631778E+01 -0.22246521739E+02  0.25822201944E+02  0.34298453556E+02  0.00000000000E+00 0.  1.
</event>
<event>
 5    1  0.1691066E-003  0.9118800E+02  0.7818608E-02  0.1130116E+00
         25   -1    0    0    0    0  0.00000000000E+00  0.00000000000E+00  0.99999998245E-14  0.12500000000E+03  0.12500000000E+03 0.  0.
        -13    1    3    3    0    0 -0.86979763667E+01 -0.31026610468E+02  0.44278124301E+02  0.54761928433E+02  0.10566000000E+00 0.  1.
         23    2    1    0    0    0  0.11442701666E+02 -0.24486281951E+02  0.79233212421E+01  0.96834552290E+02  0.92647925355E+02 0.  0.
         13    1    3    3    0    0  0.20140678033E+02  0.65403285172E+01 -0.36354803059E+02  0.42072623857E+02  0.10566000000E+00 0. -1.
         22    1    1    0    0    0 -0.11442701666E+02  0.24486281951E+02 -0.79233212421E+01  0.28165447710E+02  0.00000000000E+00 0.  1.
</event>
<event>
 5    1  0.1691066E-003  0.9118800E+02  0.7818608E-02  0.1130116E+00
         25   -1    0    0    0    0  0.00000000000E+00  0.00000000000E+00  0.99999998245E-14  0.12500000000E+03  0.12500000000E+03 0.  0.
        -13    1    3    3    0    0 -0.63515449684E+01  0.23586112292E+02  0.27037243045E+02  0.36437213012E+02  0.10566000000E+00 0.  1.
         23    2    1    0    0    0  0.16408371583E+01 -0.28237330795E+02 -0.24730888427E+01  0.96607124742E+02  0.92340571719E+02 0.  0.
         13    1    3    3    0    0  0.79923821267E+01 -0.51823443087E+02 -0.29510331888E+02  0.60169911730E+02  0.10566000000E+00 0. -1.
         22    1    1    0    0    0 -0.16408371583E+01  0.28237330795E+02  0.24730888427E+01  0.28392875258E+02  0.00000000000E+00 0. -1.
</event>
<event>
 5    1  0.1691066E-003  0.9118800E+02  0.7818608E-02  0.1130116E+00
         25   -1    0    0    0    0  0.00000000000E+00  0.00000000000E+00  0.99999998245E-14  0.12500000000E+03  0.12500000000E+03 0.  0.
        -13    1    3    3    0    0  0.20197821098E+02  0.35808950234E+02 -0.18733099949E+02  0.45179343639E+02  0.10566000000E+00 0.  1.
         23    2    1    0    0    0 -0.66548826276E+01 -0.65765773780E+01 -0.27353799295E+02  0.96090327420E+02  0.91638320887E+02 0.  0.
         13    1    3    3    0    0 -0.26852703725E+02 -0.42385527612E+02 -0.86206993456E+01  0.50910983781E+02  0.10566000000E+00 0. -1.
         22    1    1    0    0    0  0.66548826276E+01  0.65765773780E+01  0.27353799295E+02  0.28909672580E+02  0.00000000000E+00 0.  1.
</event>
<event>
 5    1  0.1691066E-003  0.9118800E+02  0.7818608E-02  0.1130116E+00
         25   -1    0    0    0    0  0.00000000000E+00  0.00000000000E+00  0.99999998245E-14  0.12500000000E+03  0.12500000000E+03 0.  0.
        -13    1    3    3    0    0  0.31588918351E+02  0.37039754252E+01 -0.53185070220E+02  0.61969686580E+02  0.10566000000E+00 0.  1.
         23    2    1    0    0    0  0.19504955284E+02  0.29267571584E+01 -0.21841654804E+02  0.95570982472E+02  0.90927144561E+02 0.  0.
         13    1    3    3    0    0 -0.12083963067E+02 -0.77721826681E+00  0.31343415416E+02  0.33601295892E+02  0.10566000000E+00 0. -1.
         22    1    1    0    0    0 -0.19504955284E+02 -0.29267571584E+01  0.21841654804E+02  0.29429017528E+02  0.00000000000E+00 0.  1.
</event>
<event>
 5    1  0.1691066E-003  0.9118800E+02  0.7818608E-02  0.1130116E+00
         25   -1    0    0    0    0  0.00000000000E+00  0.00000000000E+00  0.99999998245E-14  0.12500000000E+03  0.12500000000E+03 0.  0.
        -13    1    3    3    0    0 -0.52769281892E+02  0.24394560892E+02  0.21555726725E+02  0.62002840510E+02  0.10566000000E+00 0. -1.
         23    2    1    0    0    0 -0.21126868776E+02  0.15655068065E+02  0.11136214012E+02  0.96444072368E+02  0.92119585822E+02 0.  0.
         13    1    3    3    0    0  0.31642413117E+02 -0.87394928270E+01 -0.10419512714E+02  0.34441231859E+02  0.10566000000E+00 0.  1.
         22    1    1    0    0    0  0.21126868776E+02 -0.15655068065E+02 -0.11136214012E+02  0.28555927632E+02  0.00000000000E+00 0. -1.
</event>
<event>
 5    1  0.1691066E-003  0.9118800E+02  0.7818608E-02  0.1130116E+00
         25   -1    0    0    0    0  0.00000000000E+00  0.00000000000E+00  0.99999998245E-14  0.12500000000E+03  0.12500000000E+03 0.  0.
        -13    1    3    3    0    0 -0.15119831472E+02 -0.27587633169E+01  0.34787545207E+02  0.38031625581E+02  0.10566000000E+00 0. -1.
         23    2    1    0    0    0 -0.93232332156E+01 -0.18322832003E+02 -0.20624496982E+02  0.95879238919E+02  0.91349930102E+02 0.  0.
         13    1    3    3    0    0  0.57965982560E+01 -0.15564068686E+02 -0.55412042188E+02  0.57847613338E+02  0.10566000000E+00 0.  1.
         22    1    1    0    0    0  0.93232332156E+01  0.18322832003E+02  0.20624496982E+02  0.29120761081E+02  0.00000000000E+00 0.  1.
</event>
<event>
 5    1  0.1691066E-003  0.9118800E+02  0.7818608E-02  0.1130116E+00
         25   -1    0    0    0    0  0.00000000000E+00  0.00000000000E+00  0.99999998245E-14  0.12500000000E+03  0.12500000000E+03 0.  0.
        -13    1    3    3    0    0 -0.19827235786E+02  0.29390678367E+02  0.66782106263E+01  0.36076875072E+02  0.10566000000E+00 0. -1.
         23    2    1    0    0    0 -0.82404286603E+01 -0.23659811352E+02 -0.16375589246E+02  0.95069225521E+02  0.90234729347E+02 0.  0.
         13    1    3    3    0    0  0.11586807126E+02 -0.53050489720E+02 -0.23053799873E+02  0.58992350449E+02  0.10566000000E+00 0.  1.
         22    1    1    0    0    0  0.82404286603E+01  0.23659811352E+02  0.16375589246E+02  0.29930774479E+02  0.00000000000E+00 0.  1.
</event>
<event>
 5    1  0.1691066E-003  0.9118800E+02  0.7818608E-02  0.1130116E+00
         25   -1    0    0    0    0  0.00000000000E+00  0.00000000000E+00  0.99999998245E-14  0.12500000000E+03  0.12500000000E+03 0.  0.
        -13    1    3    3    0    0  0.74988648075E+01  0.11104339846E+02 -0.41812438908E+02  0.43907067179E+02  0.10566000000E+00 0. -1.
         23    2    1    0    0    0 -0.42384964343E+00  0.14801848718E+02  0.16475907885E+02  0.10284757542E+03  0.10043352954E+03 0.  0.
         13    1    3    3    0    0 -0.79227144509E+01  0.36975088727E+01  0.58288346793E+02  0.58940508244E+02  0.10566000000E+00 0.  1.
         22    1    1    0    0    0  0.42384964343E+00 -0.14801848718E+02 -0.16475907885E+02  0.22152424577E+02  0.00000000000E+00 0.  1.
</event>
<event>
 5    1  0.1691066E-003  0.9118800E+02  0.7818608E-02  0.1130116E+00
         25   -1    0    0    0    0  0.00000000000E+00  0.00000000000E+00  0.99999998245E-14  0.12500000000E+03  0.12500000000E+03 0.  0.
        -13    1    3    3    0    0  0.53418085525E+02  0.17213931343E+01 -0.31063331409E+01  0.53536114214E+02  0.10566000000E+00 0.  1.
         23    2    1    0    0    0  0.16742849283E+02  0.15805904871E+02 -0.18228500227E+02  0.95632878053E+02  0.91012194311E+02 0.  0.
         13    1    3    3    0    0 -0.36675236242E+02  0.14084511737E+02 -0.15122167086E+02  0.42096763839E+02  0.10566000000E+00 0. -1.
         22    1    1    0    0    0 -0.16742849283E+02 -0.15805904871E+02  0.18228500227E+02  0.29367121947E+02  0.00000000000E+00 0.  1.
</event>
<event>
 5    1  0.1691066E-003  0.9118800E+02  0.7818608E-02  0.1130116E+00
         25   -1    0    0    0    0  0.00000000000E+00  0.00000000000E+00  0.99999998245E-14  0.12500000000E+03  0.12500000000E+03 0.  0.
        -13    1    3    3    0    0 -0.25383958120E+02 -0.53114355450E+02  0.15008564715E+02  0.60751528899E+02  0.10566000000E+00 0.  1.
         23    2    1    0    0    0 -0.16652439349E+01 -0.25640429963E+02  0.23222233539E+01  0.99200825452E+02  0.95787297504E+02 0.  0.
         13    1    3    3    0    0  0.23718714185E+02  0.27473925487E+02 -0.12686341361E+02  0.38449296553E+02  0.10566000000E+00 0. -1.
         22    1    1    0    0    0  0.16652439349E+01  0.25640429963E+02 -0.23222233539E+01  0.25799174548E+02  0.00000000000E+00 0.  1.
</event>
<event>
 5    1  0.1691066E-003  0.9118800E+02  0.7818608E-02  0.1130116E+00
         25   -1    0    0    0    0  0.00000000000E+00  0.00000000000E+00  0.99999998245E-14  0.12500000000E+03  0.12500000000E+03 0.  0.
        -13    1    3    3    0    0  0.33505121657E+02  0.26240515968E+02  0.39444185950E+02  0.58025966815E+02  0.10566000000E+00 0.  1.
         23    2    1    0    0    0  0.14941256841E+02  0.24400400526E+02  0.68520650972E+01  0.95579403508E+02  0.90938720450E+02 0.  0.
         13    1    3    3    0    0 -0.18563864817E+02 -0.18401154420E+01 -0.32592120853E+02  0.37553436693E+02  0.10566000000E+00 0. -1.
         22    1    1    0    0    0 -0.14941256841E+02 -0.24400400526E+02 -0.68520650972E+01  0.29420596492E+02  0.00000000000E+00 0.  1.
</event>
<event>
 5    1  0.1691066E-003  0.9118800E+02  0.7818608E-02  0.1130116E+00
         25   -1    0    0    0    0  0.00000000000E+00  0.00000000000E+00  0.99999998245E-14  0.12500000000E+03  0.12500000000E+03 0.  0.
        -13    1    3    3    0    0  0.35965455687E+02  0.11270313141E+02  0.18831473132E+02  0.42132760477E+02  0.10566000000E+00 0. -1.
         23    2    1    0    0    0  0.11916845490E+01 -0.28096148257E+02  0.79890428939E+01  0.95765799732E+02  0.91194571839E+02 0.  0.
         13    1    3    3    0    0 -0.34773771138E+02 -0.39366461398E+02 -0.10842430238E+02  0.53633039255E+02  0.10566000000E+00 0.  1.
         22    1    1    0    0    0 -0.11916845490E+01  0.28096148257E+02 -0.79890428939E+01  0.29234200268E+02  0.00000000000E+00 0.  1.
</event>
<event>
 5    1  0.1691066E-003  0.9118800E+02  0.7818608E-02  0.1130116E+00
         25   -1    0    0    0    0  0.00000000000E+00  0.00000000000E+00  0.99999998245E-14  0.12500000000E+03  0.12500000000E+03 0.  0.
        -13    1    3    3    0    0  0.16892912667E+02  0.51299839160E+02  0.21798264168E+02  0.58242763336E+02  0.10566000000E+00 0. -1.
         23    2    1    0    0    0 -0.35605643424E+01  0.30037980574E+02  0.29531544222E+00  0.94750287495E+02  0.89791825206E+02 0.  0.
         13    1    3    3    0    0 -0.20453477010E+02 -0.21261858586E+02 -0.21502948726E+02  0.36507524160E+02  0.10566000000E+00 0.  1.
         22    1    1    0    0    0  0.35605643424E+01 -0.30037980574E+02 -0.29531544222E+00  0.30249712505E+02  0.00000000000E+00 0.  1.
</event>
<event>
 5    1  0.1691066E-003  0.9118800E+02  0.7818608E-02  0.1130116E+00
         25   -1    0    0    0    0  0.00000000000E+00  0.00000000000E+00  0.99999998245E-14  0.12500000000E+03  0.12500000000E+03 0.  0.
        -13    1    3    3    0    0 -0.41590230277E+02 -0.49492457978E+00  0.20333214498E+02  0.46297332328E+02  0.10566000000E+00 0.  1.
         23    2    1    0    0    0  0.94162434689E+01  0.16094954805E+01  0.25655229208E+02  0.97623972120E+02  0.93706952944E+02 0.  0.
         13    1    3    3    0    0  0.51006473746E+02  0.21044200603E+01  0.53220147096E+01  0.51326639792E+02  0.10566000000E+00 0. -1.
         22    1    1    0    0    0 -0.94162434689E+01 -0.16094954805E+01 -0.25655229208E+02  0.27376027880E+02  0.00000000000E+00 0. -1.
</event>
<event>
 5    1  0.1691066E-003  0.9118800E+02  0.7818608E-02  0.1130116E+00
         25   -1    0    0    0    0  0.00000000000E+00  0.00000000000E+00  0.99999998245E-14  0.12500000000E+03  0.12500000000E+03 0.  0.
        -13    1    3    3    0    0  0.38052487470E+02 -0.23500448173E+02 -0.18483432136E+02  0.48393298033E+02  0.10566000000E+00 0.  1.
         23    2    1    0    0    0 -0.93240644818E+01 -0.24809725776E+02 -0.10675094702E+02  0.96426965187E+02  0.92096369617E+02 0.  0.
         13    1    3    3    0    0 -0.47376551952E+02 -0.13092776026E+01  0.78083374338E+01  0.48033667153E+02  0.10566000000E+00 0. -1.
         22    1    1    0    0    0  0.93240644818E+01  0.24809725776E+02  0.10675094702E+02  0.28573034813E+02  0.00000000000E+00 0.  1.
</event>
<event>
 5    1  0.1691066E-003  0.9118800E+02  0.7818608E-02  0.1130116E+00
         25   -1    0    0    0    0  0.00000000000E+00  0.00000000000E+00  0.99999998245E-14  0.12500000000E+03  0.12500000000E+03 0.  0.
        -13    1    3    3    0    0 -0.93166095796E+01 -0.50611540229E+02 -0.28905013119E+01  0.51543121561E+02  0.10566000000E+00 0.  1.
         23    2    1    0    0    0 -0.18595435804E+02 -0.11085552057E+02 -0.19929674782E+02  0.95574303168E+02  0.90931709497E+02 0.  0.
         13    1    3    3    0    0 -0.92788262248E+01  0.39525988172E+02 -0.17039173470E+02  0.44031181607E+02  0.10566000000E+00 0. -1.
         22    1    1    0    0    0  0.18595435804E+02  0.11085552057E+02  0.19929674782E+02  0.29425696832E+02  0.00000000000E+00 0.  1.
</event>
<event>
 5    1  0.1691066E-003  0.9118800E+02  0.7818608E-02  0.1130116E+00
         25   -1    0    0    0    0  0.00000000000E+00  0.00000000000E+00  0.99999998245E-14  0.12500000000E+03  0.12500000000E+03 0.  0.
        -13    1    3    3    0    0  0.50087555738E+02 -0.19015930985E+02  0.10539954608E+02  0.54602844965E+02  0.10566000000E+00 0.  1.
         23    2    1    0    0    0  0.30341993033E+02  0.11135599123E+02  0.11600789994E+02  0.90660279012E+02  0.83905123521E+02 0.  0.
         13    1    3    3    0    0 -0.19745562705E+02  0.30151530107E+02  0.10608353862E+01  0.36057434048E+02  0.10566000000E+00 0. -1.
         22    1    1    0    0    0 -0.30341993033E+02 -0.11135599123E+02 -0.11600789994E+02  0.34339720988E+02  0.00000000000E+00 0.  1.
</event>
<event>
 5    1  0.1691066E-003  0.9118800E+02  0.7818608E-02  0.1130116E+00
         25   -1    0    0    0    0  0.00000000000E+00  0.00000000000E+00  0.99999998245E-14  0.12500000000E+03  0.12500000000E+03 0.  0.
        -13    1    3    3    0    0 -0.14978563469E+02 -0.24911268131E+02  0.38269833155E+02  0.48057464948E+02  0.10566000000E+00 0.  1.
         23    2    1    0    0    0 -0.22813638773E+02  0.11946030126E+02  0.27669014109E+02  0.87201268651E+02  0.78583186260E+02 0.  0.
         13    1    3    3    0    0 -0.78350753037E+01  0.36857298257E+02 -0.10600819045E+02  0.39143803703E+02  0.10566000000E+00 0. -1.
         22    1    1    0    0    0  0.22813638773E+02 -0.11946030126E+02 -0.27669014109E+02  0.37798731349E+02  0.00000000000E+00 0. -1.
</event>
<event>
 5    1  0.1691066E-003  0.9118800E+02  0.7818608E-02  0.1130116E+00
         25   -1    0    0    0    0  0.00000000000E+00  0.00000000000E+00  0.99999998245E-14  0.12500000000E+03  0.12500000000E+03 0.  0.
        -13    1    3    3    0    0  0.58237478286E+01  0.51799822149E+01 -0.34217072641E+02  0.35093695711E+02  0.10566000000E+00 0. -1.
         23    2    1    0    0    0 -0.45041050628E+01 -0.82150785196E+01  0.25854061245E+02  0.97500782550E+02  0.93542480390E+02 0.  0.
         13    1    3    3    0    0 -0.10327852891E+02 -0.13395060734E+02  0.60071133886E+02  0.62407086839E+02  0.10566000000E+00 0.  1.
         22    1    1    0    0    0  0.45041050628E+01  0.82150785196E+01 -0.25854061245E+02  0.27499217450E+02  0.00000000000E+00 0.  1.
</event>
<event>
 5    1  0.1691066E-003  0.9118800E+02  0.7818608E-02  0.1130116E+00
         25   -1    0    0    0    0  0.00000000000E+00  0.00000000000E+00  0.99999998245E-14  0.12500000000E+03  0.12500000000E+03 0.  0.
        -13    1    3    3    0    0 -0.14190287888E+02  0.23035193012E+02  0.19283584463E+02  0.33224270966E+02  0.10566000000E+00 0. -1.
         23    2    1    0    0    0 -0.43895652888E+01 -0.12466875036E+02 -0.28517599400E+02  0.93568411874E+02  0.88131169109E+02 0.  0.
         13    1    3    3    0    0  0.98007225997E+01 -0.35502068048E+02 -0.47801183863E+02  0.60344140908E+02  0.10566000000E+00 0.  1.
         22    1    1    0    0    0  0.43895652888E+01  0.12466875036E+02  0.28517599400E+02  0.31431588126E+02  0.00000000000E+00 0.  1.
</event>
<event>
 5    1  0.1691066E-003  0.9118800E+02  0.7818608E-02  0.1130116E+00
         25   -1    0    0    0    0  0.00000000000E+00  0.00000000000E+00  0.99999998245E-14  0.12500000000E+03  0.12500000000E+03 0.  0.
        -13    1    3    3    0    0  0.51921757284E+02  0.18800571206E+02  0.14646479122E+01  0.55240263528E+02  0.10566000000E+00 0.  1.
         23    2    1    0    0    0  0.22198995090E+02 -0.79194428472E+00 -0.18532046277E+02  0.96071479506E+02  0.91612607629E+02 0.  0.
         13    1    3    3    0    0 -0.29722762195E+02 -0.19592515490E+02 -0.19996694189E+02  0.40831215978E+02  0.10566000000E+00 0. -1.
         22    1    1    0    0    0 -0.22198995090E+02  0.79194428472E+00  0.18532046277E+02  0.28928520494E+02  0.00000000000E+00 0.  1.
</event>
<event>
 5    1  0.1691066E-003  0.9118800E+02  0.7818608E-02  0.1130116E+00
         25   -1    0    0    0    0  0.00000000000E+00  0.00000000000E+00  0.99999998245E-14  0.12500000000E+03  0.12500000000E+03 0.  0.
        -13    1    3    3    0    0 -0.12131305736E+02 -0.36613597741E+02 -0.35470081450E+02  0.52400972896E+02  0.10566000000E+00 0.  1.
         23    2    1    0    0    0 -0.27632654464E+02 -0.53660655392E+01 -0.12270094784E+02  0.94293103737E+02  0.89153103896E+02 0.  0.
         13    1    3    3    0    0 -0.15501348728E+02  0.31247532202E+02  0.23199986666E+02  0.41892130841E+02  0.10566000000E+00 0. -1.
         22    1    1    0    0    0  0.27632654464E+02  0.53660655392E+01  0.12270094784E+02  0.30706896263E+02  0.00000000000E+00 0.  1.
</event>
<event>
 5    1  0.1691066E-003  0.9118800E+02  0.7818608E-02  0.1130116E+00
         25   -1    0    0    0    0  0.00000000000E+00  0.00000000000E+00  0.99999998245E-14  0.12500000000E+03  0.12500000000E+03 0.  0.
        -13    1    3    3    0    0  0.23890647429E+02  0.43397581637E+02  0.20521804257E+02  0.53621532433E+02  0.10566000000E+00 0.  1.
         23    2    1    0    0    0  0.22680834101E+02  0.26814751573E+02 -0.10091089220E+02  0.88458500043E+02  0.80558208836E+02 0.  0.
         13    1    3    3    0    0 -0.12098133276E+01 -0.16582830064E+02 -0.30612893477E+02  0.34836967610E+02  0.10566000000E+00 0. -1.
         22    1    1    0    0    0 -0.22680834101E+02 -0.26814751573E+02  0.10091089220E+02  0.36541499957E+02  0.00000000000E+00 0.  1.
</event>
<event>
 5    1  0.1691066E-003  0.9118800E+02  0.7818608E-02  0.1130116E+00
         25   -1    0    0    0    0  0.00000000000E+00  0.00000000000E+00  0.99999998245E-14  0.12500000000E+03  0.12500000000E+03 0.  0.
        -13    1    3    3    0    0  0.17403534081E+02 -0.51458036448E+02 -0.16094945175E+01  0.54345323168E+02  0.10566000000E+00 0.  1.
         23    2    1    0    0    0  0.83089796779E+01 -0.18662174102E+02 -0.22760852587E+02  0.94416143212E+02  0.89325448799E+02 0.  0.
         13    1    3    3    0    0 -0.90945544035E+01  0.32795862346E+02 -0.21151358070E+02  0.40070820045E+02  0.10566000000E+00 0. -1.
         22    1    1    0    0    0 -0.83089796779E+01  0.18662174102E+02  0.22760852587E+02  0.30583856788E+02  0.00000000000E+00 0.  1.
</event>
<event>
 5    1  0.1691066E-003  0.9118800E+02  0.7818608E-02  0.1130116E+00
         25   -1    0    0    0    0  0.00000000000E+00  0.00000000000E+00  0.99999998245E-14  0.12500000000E+03  0.12500000000E+03 0.  0.
        -13    1    3    3    0    0  0.10146808654E+01  0.52818547207E+02 -0.23415853775E+02  0.57785308499E+02  0.10566000000E+00 0.  1.
         23    2    1    0    0    0  0.91620725557E+01  0.13669490187E+02 -0.21641472715E+02  0.97812652267E+02  0.93958304938E+02 0.  0.
         13    1    3    3    0    0  0.81473916903E+01 -0.39149057020E+02  0.17743810606E+01  0.40027343768E+02  0.10566000000E+00 0. -1.
         22    1    1    0    0    0 -0.91620725557E+01 -0.13669490187E+02  0.21641472715E+02  0.27187347733E+02  0.00000000000E+00 0.  1.
</event>
<event>
 5    1  0.1691066E-003  0.9118800E+02  0.7818608E-02  0.1130116E+00
         25   -1    0    0    0    0  0.00000000000E+00  0.00000000000E+00  0.99999998245E-14  0.12500000000E+03  0.12500000000E+03 0.  0.
        -13    1    3    3    0    0 -0.22648919532E+02 -0.38599159817E+02  0.33715151100E+02  0.56032055756E+02  0.10566000000E+00 0. -1.
         23    2    1    0    0    0 -0.19950296062E+02  0.27368687617E+00  0.18265765319E+02  0.97949539742E+02  0.94140240788E+02 0.  0.
         13    1    3    3    0    0  0.26986234708E+01  0.38872846693E+02 -0.15449385781E+02  0.41917483986E+02  0.10566000000E+00 0.  1.
         22    1    1    0    0    0  0.19950296062E+02 -0.27368687617E+00 -0.18265765319E+02  0.27050460258E+02  0.00000000000E+00 0.  1.
</event>
<event>
 5    1  0.1691066E-003  0.9118800E+02  0.7818608E-02  0.1130116E+00
         25   -1    0    0    0    0  0.00000000000E+00  0.00000000000E+00  0.99999998245E-14  0.12500000000E+03  0.12500000000E+03 0.  0.
        -13    1    3    3    0    0  0.24963442074E+02  0.29818669253E+02  0.37269267237E+01  0.39066963320E+02  0.10566000000E+00 0.  1.
         23    2    1    0    0    0  0.10947095783E+02 -0.23419181197E+02  0.14785773856E+02  0.95218863981E+02  0.90441782354E+02 0.  0.
         13    1    3    3    0    0 -0.14016346291E+02 -0.53237850450E+02  0.11058847133E+02  0.56151900661E+02  0.10566000000E+00 0. -1.
         22    1    1    0    0    0 -0.10947095783E+02  0.23419181197E+02 -0.14785773856E+02  0.29781136019E+02  0.00000000000E+00 0. -1.
</event>
<event>
 5    1  0.1691066E-003  0.9118800E+02  0.7818608E-02  0.1130116E+00
         25   -1    0    0    0    0  0.00000000000E+00  0.00000000000E+00  0.99999998245E-14  0.12500000000E+03  0.12500000000E+03 0.  0.
        -13    1    3    3    0    0  0.56941561164E+02  0.98477313376E+01 -0.18048435550E+01  0.57815117613E+02  0.10566000000E+00 0.  1.
         23    2    1    0    0    0  0.21669371393E+02  0.18914726432E+02  0.72378035338E+01  0.95340021366E+02  0.90609079797E+02 0.  0.
         13    1    3    3    0    0 -0.35272189771E+02  0.90669950939E+01  0.90426470888E+01  0.37524903753E+02  0.10566000000E+00 0. -1.
         22    1    1    0    0    0 -0.21669371393E+02 -0.18914726432E+02 -0.72378035338E+01  0.29659978634E+02  0.00000000000E+00 0.  1.
</event>
<event>
 5    1  0.1691066E-003  0.9118800E+02  0.7818608E-02  0.1130116E+00
         25   -1    0    0    0    0  0.00000000000E+00  0.00000000000E+00  0.99999998245E-14  0.12500000000E+03  0.12500000000E+03 0.  0.
        -13    1    3    3    0    0 -0.49637538314E+02 -0.19592106147E+02  0.24693510653E+02  0.58800650214E+02  0.10566000000E+00 0.  1.
         23    2    1    0    0    0 -0.13832572723E+02 -0.20813602590E+02  0.14749899890E+02  0.95980943026E+02  0.91488992542E+02 0.  0.
         13    1    3    3    0    0  0.35804965591E+02 -0.12214964429E+01 -0.99436107630E+01  0.37180292812E+02  0.10566000000E+00 0. -1.
         22    1    1    0    0    0  0.13832572723E+02  0.20813602590E+02 -0.14749899890E+02  0.29019056974E+02  0.00000000000E+00 0.  1.
</event>
<event>
 5    1  0.1691066E-003  0.9118800E+02  0.7818608E-02  0.1130116E+00
         25   -1    0    0    0    0  0.00000000000E+00  0.00000000000E+00  0.99999998245E-14  0.12500000000E+03  0.12500000000E+03 0.  0.
        -13    1    3    3    0    0  0.24517137080E+02 -0.29645772079E+02  0.28340338601E+02  0.47782295558E+02  0.10566000000E+00 0. -1.
         23    2    1    0    0    0  0.18025930256E+02 -0.13376276496E+02 -0.17294418945E+02  0.96663524194E+02  0.92416887247E+02 0.  0.
         13    1    3    3    0    0 -0.64912068239E+01  0.16269495584E+02 -0.45634757546E+02  0.48881228635E+02  0.10566000000E+00 0.  1.
         22    1    1    0    0    0 -0.18025930256E+02  0.13376276496E+02  0.17294418945E+02  0.28336475806E+02  0.00000000000E+00 0.  1.
</event>
<event>
 5    1  0.1691066E-003  0.9118800E+02  0.7818608E-02  0.1130116E+00
         25   -1    0    0    0    0  0.00000000000E+00  0.00000000000E+00  0.99999998245E-14  0.12500000000E+03  0.12500000000E+03 0.  0.
        -13    1    3    3    0    0  0.29966484184E+02  0.24240473824E+02 -0.66770952843E+01  0.39117585701E+02  0.10566000000E+00 0.  1.
         23    2    1    0    0    0 -0.24685185966E+02  0.78789518833E+01 -0.12059122415E+02  0.96419259590E+02  0.92085910418E+02 0.  0.
         13    1    3    3    0    0 -0.54651670150E+02 -0.16361521941E+02 -0.53820271304E+01  0.57301673889E+02  0.10566000000E+00 0. -1.
         22    1    1    0    0    0  0.24685185966E+02 -0.78789518833E+01  0.12059122415E+02  0.28580740410E+02  0.00000000000E+00 0. -1.
</event>
<event>
 5    1  0.1691066E-003  0.9118800E+02  0.7818608E-02  0.1130116E+00
         25   -1    0    0    0    0  0.00000000000E+00  0.00000000000E+00  0.99999998245E-14  0.12500000000E+03  0.12500000000E+03 0.  0.
        -13    1    3    3    0    0  0.23002510036E+02 -0.56194960790E+02 -0.39819593066E+01  0.60851099005E+02  0.10566000000E+00 0.  1.
         23    2    1    0    0    0  0.31365531100E+01 -0.25169250564E+02 -0.91148980879E+01  0.98047996243E+02  0.94270881299E+02 0.  0.
         13    1    3    3    0    0 -0.19865956926E+02  0.31025710226E+02 -0.51329387813E+01  0.37196897239E+02  0.10566000000E+00 0. -1.
         22    1    1    0    0    0 -0.31365531100E+01  0.25169250564E+02  0.91148980879E+01  0.26952003757E+02  0.00000000000E+00 0.  1.
</event>
<event>
 5    1  0.1691066E-003  0.9118800E+02  0.7818608E-02  0.1130116E+00
         25   -1    0    0    0    0  0.00000000000E+00  0.00000000000E+00  0.99999998245E-14  0.12500000000E+03  0.12500000000E+03 0.  0.
        -13    1    3    3    0    0 -0.54684183547E+02 -0.67867607601E+01 -0.97208885764E+01  0.55954686047E+02  0.10566000000E+00 0. -1.
         23    2    1    0    0    0 -0.20090843981E+02 -0.22299626154E+02 -0.46304441987E+00  0.94981176762E+02  0.90112674971E+02 0.  0.
         13    1    3    3    0    0  0.34593339566E+02 -0.15512865394E+02  0.92578441565E+01  0.39026490715E+02  0.10566000000E+00 0.  1.
         22    1    1    0    0    0  0.20090843981E+02  0.22299626154E+02  0.46304441987E+00  0.30018823238E+02  0.00000000000E+00 0. -1.
</event>
<event>
 5    1  0.1691066E-003  0.9118800E+02  0.7818608E-02  0.1130116E+00
         25   -1    0    0    0    0  0.00000000000E+00  0.00000000000E+00  0.99999998245E-14  0.12500000000E+03  0.12500000000E+03 0.  0.
        -13    1    3    3    0    0  0.55367013413E+02 -0.14775932936E+02  0.16075408309E+02  0.59516924355E+02  0.10566000000E+00 0.  1.
         23    2    1    0    0    0  0.28460198797E+02  0.47755023352E+01  0.76523336387E+00  0.96131783563E+02  0.91694852041E+02 0.  0.
         13    1    3    3    0    0 -0.26906814615E+02  0.19551435272E+02 -0.15310174946E+02  0.36614859208E+02  0.10566000000E+00 0. -1.
         22    1    1    0    0    0 -0.28460198797E+02 -0.47755023352E+01 -0.76523336387E+00  0.28868216437E+02  0.00000000000E+00 0.  1.
</event>
<event>
 5    1  0.1691066E-003  0.9118800E+02  0.7818608E-02  0.1130116E+00
         25   -1    0    0    0    0  0.00000000000E+00  0.00000000000E+00  0.99999998245E-14  0.12500000000E+03  0.12500000000E+03 0.  0.
        -13    1    3    3    0    0 -0.83833457112E+00 -0.19471067833E+02  0.32898497756E+02  0.38238038731E+02  0.10566000000E+00 0. -1.
         23    2    1    0    0    0 -0.23966570247E+02  0.16909482355E+02 -0.45201537016E+01  0.95322418016E+02  0.90584791792E+02 0.  0.
         13    1    3    3    0    0 -0.23128235676E+02  0.36380550188E+02 -0.37418651457E+02  0.57084379285E+02  0.10566000000E+00 0.  1.
         22    1    1    0    0    0  0.23966570247E+02 -0.16909482355E+02  0.45201537016E+01  0.29677581984E+02  0.00000000000E+00 0.  1.
</event>
<event>
 5    1  0.1691066E-003  0.9118800E+02  0.7818608E-02  0.1130116E+00
         25   -1    0    0    0    0  0.00000000000E+00  0.00000000000E+00  0.99999998245E-14  0.12500000000E+03  0.12500000000E+03 0.  0.
        -13    1    3    3    0    0  0.19809567010E+02 -0.46064369218E+02  0.30490234794E+02  0.58685693644E+02  0.10566000000E+00 0.  1.
         23    2    1    0    0    0  0.30807214219E+01 -0.27926641652E+02  0.13470261142E+01  0.96871675525E+02  0.92697998259E+02 0.  0.
         13    1    3    3    0    0 -0.16728845588E+02  0.18137727566E+02 -0.29143208680E+02  0.38185981881E+02  0.10566000000E+00 0. -1.
         22    1    1    0    0    0 -0.30807214219E+01  0.27926641652E+02 -0.13470261142E+01  0.28128324475E+02  0.00000000000E+00 0.  1.
</event>
<event>
 5    1  0.1691066E-003  0.9118800E+02  0.7818608E-02  0.1130116E+00
         25   -1    0    0    0    0  0.00000000000E+00  0.00000000000E+00  0.99999998245E-14  0.12500000000E+03  0.12500000000E+03 0.  0.
        -13    1    3    3    0    0  0.28342709729E+02  0.52444237212E+01 -0.19641444741E+02  0.34879946825E+02  0.10566000000E+00 0.  1.
         23    2    1    0    0    0 -0.22536450176E+02  0.20705276637E+01  0.16175178407E+02  0.97182468336E+02  0.93116148353E+02 0.  0.
         13    1    3    3    0    0 -0.50879159906E+02 -0.31738960576E+01  0.35816623148E+02  0.62302521511E+02  0.10566000000E+00 0. -1.
         22    1    1    0    0    0  0.22536450176E+02 -0.20705276637E+01 -0.16175178407E+02  0.27817531664E+02  0.00000000000E+00 0. -1.
</event>
<event>
 5    1  0.1691066E-003  0.9118800E+02  0.7818608E-02  0.1130116E+00
         25   -1    0    0    0    0  0.00000000000E+00  0.00000000000E+00  0.99999998245E-14  0.12500000000E+03  0.12500000000E+03 0.  0.
        -13    1    3    3    0    0  0.31056963495E+02 -0.83048991970E-01 -0.17894906685E+02  0.35843838075E+02  0.10566000000E+00 0. -1.
         23    2    1    0    0    0 -0.22467909899E+02  0.15405825057E+02  0.69991777106E+01  0.96872879466E+02  0.92699621717E+02 0.  0.
         13    1    3    3    0    0 -0.53524873394E+02  0.15488874049E+02  0.24894084396E+02  0.61029041391E+02  0.10566000000E+00 0.  1.
         22    1    1    0    0    0  0.22467909899E+02 -0.15405825057E+02 -0.69991777106E+01  0.28127120534E+02  0.00000000000E+00 0.  1.
</event>
<event>
 5    1  0.1691066E-003  0.9118800E+02  0.7818608E-02  0.1130116E+00
         25   -1    0    0    0    0  0.00000000000E+00  0.00000000000E+00  0.99999998245E-14  0.12500000000E+03  0.12500000000E+03 0.  0.
        -13    1    3    3    0    0 -0.24776654919E+02  0.92345226844E+01 -0.22100839805E+02  0.34461824130E+02  0.10566000000E+00 0.  1.
         23    2    1    0    0    0  0.81784788264E+01 -0.20814058820E+02  0.19409387115E+02  0.95388568615E+02  0.90676028551E+02 0.  0.
         13    1    3    3    0    0  0.32955133746E+02 -0.30048581504E+02  0.41510226920E+02  0.60926744486E+02  0.10566000000E+00 0. -1.
         22    1    1    0    0    0 -0.81784788264E+01  0.20814058820E+02 -0.19409387115E+02  0.29611431385E+02  0.00000000000E+00 0. -1.
</event>
<event>
 5    1  0.1691066E-003  0.9118800E+02  0.7818608E-02  0.1130116E+00
         25   -1    0    0    0    0  0.00000000000E+00  0.00000000000E+00  0.99999998245E-14  0.12500000000E+03  0.12500000000E+03 0.  0.
        -13    1    3    3    0    0  0.50286738901E+02 -0.16167360463E+02  0.16615948972E+02  0.55373645157E+02  0.10566000000E+00 0. -1.
         23    2    1    0    0    0  0.27704178786E+02  0.72359284170E+01 -0.69483077333E+01  0.95535459233E+02  0.90878296684E+02 0.  0.
         13    1    3    3    0    0 -0.22582560115E+02  0.23403288880E+02 -0.23564256705E+02  0.40161814076E+02  0.10566000000E+00 0.  1.
         22    1    1    0    0    0 -0.27704178786E+02 -0.72359284170E+01  0.69483077333E+01  0.29464540767E+02  0.00000000000E+00 0. -1.
</event>
<event>
 5    1  0.1691066E-003  0.9118800E+02  0.7818608E-02  0.1130116E+00
         25   -1    0    0    0    0  0.00000000000E+00  0.00000000000E+00  0.99999998245E-14  0.12500000000E+03  0.12500000000E+03 0.  0.
        -13    1    3    3    0    0  0.36458857028E+02 -0.98326702290E+01  0.90719866640E+00  0.37772527491E+02  0.10566000000E+00 0.  1.
         23    2    1    0    0    0 -0.21468205466E+02 -0.18024106179E+02 -0.48263240037E+01  0.96556272170E+02  0.92271707703E+02 0.  0.
         13    1    3    3    0    0 -0.57927062495E+02 -0.81914359496E+01 -0.57335226701E+01  0.58783744678E+02  0.10566000000E+00 0. -1.
         22    1    1    0    0    0  0.21468205466E+02  0.18024106179E+02  0.48263240037E+01  0.28443727830E+02  0.00000000000E+00 0. -1.
</event>
<event>
 5    1  0.1691066E-003  0.9118800E+02  0.7818608E-02  0.1130116E+00
         25   -1    0    0    0    0  0.00000000000E+00  0.00000000000E+00  0.99999998245E-14  0.12500000000E+03  0.12500000000E+03 0.  0.
        -13    1    3    3    0    0  0.19995869522E+02 -0.12931303780E+02 -0.40698942083E+02  0.47153668638E+02  0.10566000000E+00 0.  1.
         23    2    1    0    0    0  0.18146447896E+02  0.11904134229E+02  0.80151333930E+01  0.10186465158E+03  0.99202635530E+02 0.  0.
         13    1    3    3    0    0 -0.18494216257E+01  0.24835438009E+02  0.48714075476E+02  0.54710982946E+02  0.10566000000E+00 0. -1.
         22    1    1    0    0    0 -0.18146447896E+02 -0.11904134229E+02 -0.80151333930E+01  0.23135348415E+02  0.00000000000E+00 0. -1.
</event>
<event>
 5    1  0.1691066E-003  0.9118800E+02  0.7818608E-02  0.1130116E+00
         25   -1    0    0    0    0  0.00000000000E+00  0.00000000000E+00  0.99999998245E-14  0.12500000000E+03  0.12500000000E+03 0.  0.
        -13    1    3    3    0    0 -0.14801099474E+02  0.28854244895E+02  0.43312214496E+02  0.54107292325E+02  0.10566000000E+00 0.  1.
         23    2    1    0    0    0  0.13103435056E+02  0.43228984086E+01  0.26986908645E+02  0.94690254057E+02  0.89708213193E+02 0.  0.
         13    1    3    3    0    0  0.27904534531E+02 -0.24531346486E+02 -0.16325305851E+02  0.40582961732E+02  0.10566000000E+00 0. -1.
         22    1    1    0    0    0 -0.13103435056E+02 -0.43228984086E+01 -0.26986908645E+02  0.30309745943E+02  0.00000000000E+00 0.  1.
</event>
<event>
 5    1  0.1691066E-003  0.9118800E+02  0.7818608E-02  0.1130116E+00
         25   -1    0    0    0    0  0.00000000000E+00  0.00000000000E+00  0.99999998245E-14  0.12500000000E+03  0.12500000000E+03 0.  0.
        -13    1    3    3    0    0  0.11114254370E+02  0.31415230956E+02 -0.22042657097E+02  0.39954139737E+02  0.10566000000E+00 0. -1.
         23    2    1    0    0    0 -0.97729542572E+01  0.93264773943E+01  0.25359237548E+02  0.96267009475E+02  0.91879009402E+02 0.  0.
         13    1    3    3    0    0 -0.20887208627E+02 -0.22088753562E+02  0.47401894645E+02  0.56312869738E+02  0.10566000000E+00 0.  1.
         22    1    1    0    0    0  0.97729542572E+01 -0.93264773943E+01 -0.25359237548E+02  0.28732990525E+02  0.00000000000E+00 0.  1.
</event>
<event>
 5    1  0.1691066E-003  0.9118800E+02  0.7818608E-02  0.1130116E+00
         25   -1    0    0    0    0  0.00000000000E+00  0.00000000000E+00  0.99999998245E-14  0.12500000000E+03  0.12500000000E+03 0.  0.
        -13    1    3    3    0    0 -0.58186346447E+02 -0.11181680427E+01 -0.18283429039E+02  0.61001607799E+02  0.10566000000E+00 0.  1.
         23    2    1    0    0    0 -0.24435512227E+02 -0.91270975151E+01 -0.12136876842E+02  0.96230190367E+02  0.91828903901E+02 0.  0.
         13    1    3    3    0    0  0.33750834220E+02 -0.80089294723E+01  0.61465521968E+01  0.35228582568E+02  0.10566000000E+00 0. -1.
         22    1    1    0    0    0  0.24435512227E+02  0.91270975151E+01  0.12136876842E+02  0.28769809633E+02  0.00000000000E+00 0.  1.
</event>
<event>
 5    1  0.1691066E-003  0.9118800E+02  0.7818608E-02  0.1130116E+00
         25   -1    0    0    0    0  0.00000000000E+00  0.00000000000E+00  0.99999998245E-14  0.12500000000E+03  0.12500000000E+03 0.  0.
        -13    1    3    3    0    0  0.15300711943E+02 -0.50824344096E+01  0.49188266250E+02  0.51763303857E+02  0.10566000000E+00 0.  1.
         23    2    1    0    0    0  0.29911506311E+02 -0.86021170970E-01  0.10702674902E+02  0.93231259712E+02  0.87651668142E+02 0.  0.
         13    1    3    3    0    0  0.14610794368E+02  0.49964132387E+01 -0.38485591348E+02  0.41467955855E+02  0.10566000000E+00 0. -1.
         22    1    1    0    0    0 -0.29911506311E+02  0.86021170970E-01 -0.10702674902E+02  0.31768740288E+02  0.00000000000E+00 0.  1.
</event>
<event>
 5    1  0.1691066E-003  0.9118800E+02  0.7818608E-02  0.1130116E+00
         25   -1    0    0    0    0  0.00000000000E+00  0.00000000000E+00  0.99999998245E-14  0.12500000000E+03  0.12500000000E+03 0.  0.
        -13    1    3    3    0    0  0.28027921141E+02 -0.29911935600E+02 -0.31768611190E+01  0.41114375410E+02  0.10566000000E+00 0. -1.
         23    2    1    0    0    0 -0.43593576512E+01  0.18647908484E+02 -0.15005879713E+02  0.10067049290E+03  0.97686351267E+02 0.  0.
         13    1    3    3    0    0 -0.32387278792E+02  0.48559844084E+02 -0.11829018594E+02  0.59556117485E+02  0.10566000000E+00 0.  1.
         22    1    1    0    0    0  0.43593576512E+01 -0.18647908484E+02  0.15005879713E+02  0.24329507104E+02  0.00000000000E+00 0.  1.
</event>
<event>
 5    1  0.1691066E-003  0.9118800E+02  0.7818608E-02  0.1130116E+00
         25   -1    0    0    0    0  0.00000000000E+00  0.00000000000E+00  0.99999998245E-14  0.12500000000E+03  0.12500000000E+03 0.  0.
        -13    1    3    3    0    0  0.77146456157E+01 -0.98781601401E+01  0.55512077676E+02  0.56909539945E+02  0.10566000000E+00 0. -1.
         23    2    1    0    0    0  0.13294493420E+02 -0.18972993729E+02  0.18728800127E+02  0.95209296743E+02  0.90428558464E+02 0.  0.
         13    1    3    3    0    0  0.55798478043E+01 -0.90948335887E+01 -0.36783277550E+02  0.38299756799E+02  0.10566000000E+00 0.  1.
         22    1    1    0    0    0 -0.13294493420E+02  0.18972993729E+02 -0.18728800127E+02  0.29790703257E+02  0.00000000000E+00 0. -1.
</event>
<event>
 5    1  0.1691066E-003  0.9118800E+02  0.7818608E-02  0.1130116E+00
         25   -1    0    0    0    0  0.00000000000E+00  0.00000000000E+00  0.99999998245E-14  0.12500000000E+03  0.12500000000E+03 0.  0.
        -13    1    3    3    0    0  0.35015515826E+02  0.61545142304E+01  0.72775993469E+01  0.36289654314E+02  0.10566000000E+00 0.  1.
         23    2    1    0    0    0  0.23257910661E+02  0.30185882691E+02 -0.25910847216E+02  0.78918659681E+02  0.64067658926E+02 0.  0.
         13    1    3    3    0    0 -0.11757605164E+02  0.24031368460E+02 -0.33188446563E+02  0.42629005367E+02  0.10566000000E+00 0. -1.
         22    1    1    0    0    0 -0.23257910661E+02 -0.30185882691E+02  0.25910847216E+02  0.46081340319E+02  0.00000000000E+00 0.  1.
</event>
<event>
 5    1  0.1691066E-003  0.9118800E+02  0.7818608E-02  0.1130116E+00
         25   -1    0    0    0    0  0.00000000000E+00  0.00000000000E+00  0.99999998245E-14  0.12500000000E+03  0.12500000000E+03 0.  0.
        -13    1    3    3    0    0  0.20424056135E+02 -0.47897102182E+02  0.28251190313E+02  0.59240318910E+02  0.10566000000E+00 0.  1.
         23    2    1    0    0    0  0.80313205251E+01 -0.14028507267E+02  0.24701474748E+02  0.95479431235E+02  0.90801199379E+02 0.  0.
         13    1    3    3    0    0 -0.12392735609E+02  0.33868594915E+02 -0.35497155654E+01  0.36239112324E+02  0.10566000000E+00 0. -1.
         22    1    1    0    0    0 -0.80313205251E+01  0.14028507267E+02 -0.24701474748E+02  0.29520568765E+02  0.00000000000E+00 0.  1.
</event>
<event>
 5    1  0.1691066E-003  0.9118800E+02  0.7818608E-02  0.1130116E+00
         25   -1    0    0    0    0  0.00000000000E+00  0.00000000000E+00  0.99999998245E-14  0.12500000000E+03  0.12500000000E+03 0.  0.
        -13    1    3    3    0    0  0.83677377816E+01 -0.36188482384E+02  0.45650216258E+02  0.58852176691E+02  0.10566000000E+00 0.  1.
         23    2    1    0    0    0 -0.29556812215E+01 -0.49770289272E+01  0.27908963777E+02  0.96497068089E+02  0.92191469358E+02 0.  0.
         13    1    3    3    0    0 -0.11323419003E+02  0.31211453456E+02 -0.17741252481E+02  0.37644891399E+02  0.10566000000E+00 0. -1.
         22    1    1    0    0    0  0.29556812215E+01  0.49770289272E+01 -0.27908963777E+02  0.28502931911E+02  0.00000000000E+00 0.  1.
</event>
<event>
 5    1  0.1691066E-003  0.9118800E+02  0.7818608E-02  0.1130116E+00
         25   -1    0    0    0    0  0.00000000000E+00  0.00000000000E+00  0.99999998245E-14  0.12500000000E+03  0.12500000000E+03 0.  0.
        -13    1    3    3    0    0 -0.13111336985E+02  0.17506999979E+02 -0.31260481436E+02  0.38152733447E+02  0.10566000000E+00 0.  1.
         23    2    1    0    0    0  0.16067420696E+02  0.79883931522E+01  0.20144084195E+02  0.98022962338E+02  0.94237681341E+02 0.  0.
         13    1    3    3    0    0  0.29178757681E+02 -0.95186068273E+01  0.51404565631E+02  0.59870228891E+02  0.10566000000E+00 0. -1.
         22    1    1    0    0    0 -0.16067420696E+02 -0.79883931522E+01 -0.20144084195E+02  0.26977037662E+02  0.00000000000E+00 0. -1.
</event>
<event>
 5    1  0.1691066E-003  0.9118800E+02  0.7818608E-02  0.1130116E+00
         25   -1    0    0    0    0  0.00000000000E+00  0.00000000000E+00  0.99999998245E-14  0.12500000000E+03  0.12500000000E+03 0.  0.
        -13    1    3    3    0    0 -0.27202058765E+02  0.24221635653E+02 -0.13722462616E+02  0.38922445697E+02  0.10566000000E+00 0. -1.
         23    2    1    0    0    0 -0.65831266632E+01 -0.28017675684E+02 -0.58150305003E+01  0.95637740429E+02  0.91018872259E+02 0.  0.
         13    1    3    3    0    0  0.20618932101E+02 -0.52239311336E+02  0.79074321160E+01  0.56715294733E+02  0.10566000000E+00 0.  1.
         22    1    1    0    0    0  0.65831266632E+01  0.28017675684E+02  0.58150305003E+01  0.29362259571E+02  0.00000000000E+00 0.  1.
</event>
<event>
 5    1  0.1691066E-003  0.9118800E+02  0.7818608E-02  0.1130116E+00
         25   -1    0    0    0    0  0.00000000000E+00  0.00000000000E+00  0.99999998245E-14  0.12500000000E+03  0.12500000000E+03 0.  0.
        -13    1    3    3    0    0  0.11507053866E+02  0.36739488012E+02  0.16368298317E+01  0.38534304769E+02  0.10566000000E+00 0.  1.
         23    2    1    0    0    0  0.74245498546E+01 -0.17490528167E+02  0.21385516983E+02  0.96392608425E+02  0.92049726269E+02 0.  0.
         13    1    3    3    0    0 -0.40825040119E+01 -0.54230016179E+02  0.19748687151E+02  0.57858303656E+02  0.10566000000E+00 0. -1.
         22    1    1    0    0    0 -0.74245498546E+01  0.17490528167E+02 -0.21385516983E+02  0.28607391575E+02  0.00000000000E+00 0. -1.
</event>
<event>
 5    1  0.1691066E-003  0.9118800E+02  0.7818608E-02  0.1130116E+00
         25   -1    0    0    0    0  0.00000000000E+00  0.00000000000E+00  0.99999998245E-14  0.12500000000E+03  0.12500000000E+03 0.  0.
        -13    1    3    3    0    0 -0.34151242364E+02 -0.85138520866E+00  0.12549358624E+02  0.36394089873E+02  0.10566000000E+00 0.  1.
         23    2    1    0    0    0  0.20208336592E+02 -0.98536829607E+01 -0.14975270900E+02  0.97986472385E+02  0.94189267415E+02 0.  0.
         13    1    3    3    0    0  0.54359578956E+02 -0.90022977520E+01 -0.27524629524E+02  0.61592382512E+02  0.10566000000E+00 0. -1.
         22    1    1    0    0    0 -0.20208336592E+02  0.98536829607E+01  0.14975270900E+02  0.27013527615E+02  0.00000000000E+00 0. -1.
</event>
<event>
 5    1  0.1691066E-003  0.9118800E+02  0.7818608E-02  0.1130116E+00
         25   -1    0    0    0    0  0.00000000000E+00  0.00000000000E+00  0.99999998245E-14  0.12500000000E+03  0.12500000000E+03 0.  0.
        -13    1    3    3    0    0  0.48868454247E+02 -0.27957693838E+02  0.82227617718E+01  0.56898009108E+02  0.10566000000E+00 0. -1.
         23    2    1    0    0    0  0.10209474898E+02 -0.25987815848E+02  0.91477896228E+01  0.95618338965E+02  0.90992223520E+02 0.  0.
         13    1    3    3    0    0 -0.38658979349E+02  0.19698779905E+01  0.92502785103E+00  0.38720329856E+02  0.10566000000E+00 0.  1.
         22    1    1    0    0    0 -0.10209474898E+02  0.25987815848E+02 -0.91477896228E+01  0.29381661035E+02  0.00000000000E+00 0. -1.
</event>
<event>
 5    1  0.1691066E-003  0.9118800E+02  0.7818608E-02  0.1130116E+00
         25   -1    0    0    0    0  0.00000000000E+00  0.00000000000E+00  0.99999998245E-14  0.12500000000E+03  0.12500000000E+03 0.  0.
        -13    1    3    3    0    0 -0.44576028720E+02  0.12986256303E+02 -0.28476864815E+02  0.54466578587E+02  0.10566000000E+00 0. -1.
         23    2    1    0    0    0 -0.29160964221E+02  0.27007453971E+01  0.73530295617E+01  0.94805250394E+02  0.89868306975E+02 0.  0.
         13    1    3    3    0    0  0.15415064499E+02 -0.10285510906E+02  0.35829894377E+02  0.40338671807E+02  0.10566000000E+00 0.  1.
         22    1    1    0    0    0  0.29160964221E+02 -0.27007453971E+01 -0.73530295617E+01  0.30194749606E+02  0.00000000000E+00 0. -1.
</event>
<event>
 5    1  0.1691066E-003  0.9118800E+02  0.7818608E-02  0.1130116E+00
         25   -1    0    0    0    0  0.00000000000E+00  0.00000000000E+00  0.99999998245E-14  0.12500000000E+03  0.12500000000E+03 0.  0.
        -13    1    3    3    0    0 -0.36471808258E+02 -0.79519227202E+01 -0.73965654584E+01  0.38054516383E+02  0.10566000000E+00 0. -1.
         23    2    1    0    0    0  0.18347648391E+02  0.59115962526E+01 -0.21288074487E+02  0.96281272885E+02  0.91898412507E+02 0.  0.
         13    1    3    3    0    0  0.54819456649E+02  0.13863518973E+02 -0.13891509028E+02  0.58226756502E+02  0.10566000000E+00 0.  1.
         22    1    1    0    0    0 -0.18347648391E+02 -0.59115962526E+01  0.21288074487E+02  0.28718727115E+02  0.00000000000E+00 0.  1.
</event>
<event>
 5    1  0.1691066E-003  0.9118800E+02  0.7818608E-02  0.1130116E+00
         25   -1    0    0    0    0  0.00000000000E+00  0.00000000000E+00  0.99999998245E-14  0.12500000000E+03  0.12500000000E+03 0.  0.
        -13    1    3    3    0    0 -0.17233667810E+02  0.51069142595E+01 -0.31595877969E+02  0.36350936001E+02  0.10566000000E+00 0. -1.
         23    2    1    0    0    0  0.20844502741E+02  0.13791687329E+02  0.13971745795E+02  0.96365866270E+02  0.92013404282E+02 0.  0.
         13    1    3    3    0    0  0.38078170550E+02  0.86847730693E+01  0.45567623764E+02  0.60014930270E+02  0.10566000000E+00 0.  1.
         22    1    1    0    0    0 -0.20844502741E+02 -0.13791687329E+02 -0.13971745795E+02  0.28634133730E+02  0.00000000000E+00 0.  1.
</event>
<event>
 5    1  0.1691066E-003  0.9118800E+02  0.7818608E-02  0.1130116E+00
         25   -1    0    0    0    0  0.00000000000E+00  0.00000000000E+00  0.99999998245E-14  0.12500000000E+03  0.12500000000E+03 0.  0.
        -13    1    3    3    0    0 -0.15355157371E+02  0.28281937526E+02  0.13882095935E+02  0.35048146880E+02  0.10566000000E+00 0.  1.
         23    2    1    0    0    0  0.26023533791E+02 -0.13718972270E+02  0.17186470877E+00  0.95581229655E+02  0.90941230549E+02 0.  0.
         13    1    3    3    0    0  0.41378691162E+02 -0.42000909796E+02 -0.13710231227E+02  0.60533082775E+02  0.10566000000E+00 0. -1.
         22    1    1    0    0    0 -0.26023533791E+02  0.13718972270E+02 -0.17186470877E+00  0.29418770345E+02  0.00000000000E+00 0. -1.
</event>
<event>
 5    1  0.1691066E-003  0.9118800E+02  0.7818608E-02  0.1130116E+00
         25   -1    0    0    0    0  0.00000000000E+00  0.00000000000E+00  0.99999998245E-14  0.12500000000E+03  0.12500000000E+03 0.  0.
        -13    1    3    3    0    0  0.34366995142E+02  0.36479698116E+02  0.25446988133E+02  0.56208710169E+02  0.10566000000E+00 0. -1.
         23    2    1    0    0    0  0.23990210031E+00  0.17427825510E+02  0.24023604249E+02  0.95319699865E+02  0.90581040876E+02 0.  0.
         13    1    3    3    0    0 -0.34127093042E+02 -0.19051872606E+02 -0.14233838842E+01  0.39110989696E+02  0.10566000000E+00 0.  1.
         22    1    1    0    0    0 -0.23990210031E+00 -0.17427825510E+02 -0.24023604249E+02  0.29680300135E+02  0.00000000000E+00 0. -1.
</event>
<event>
 5    1  0.1691066E-003  0.9118800E+02  0.7818608E-02  0.1130116E+00
         25   -1    0    0    0    0  0.00000000000E+00  0.00000000000E+00  0.99999998245E-14  0.12500000000E+03  0.12500000000E+03 0.  0.
        -13    1    3    3    0    0  0.20031116589E+02  0.19063806954E+02 -0.38154062598E+02  0.47121311783E+02  0.10566000000E+00 0.  1.
         23    2    1    0    0    0  0.14434378062E+02 -0.22050912412E+02 -0.13474056560E+02  0.95400266751E+02  0.90692153397E+02 0.  0.
         13    1    3    3    0    0 -0.55967385272E+01 -0.41114719366E+02  0.24680006038E+02  0.48278954968E+02  0.10566000000E+00 0. -1.
         22    1    1    0    0    0 -0.14434378062E+02  0.22050912412E+02  0.13474056560E+02  0.29599733249E+02  0.00000000000E+00 0.  1.
</event>
<event>
 5    1  0.1691066E-003  0.9118800E+02  0.7818608E-02  0.1130116E+00
         25   -1    0    0    0    0  0.00000000000E+00  0.00000000000E+00  0.99999998245E-14  0.12500000000E+03  0.12500000000E+03 0.  0.
        -13    1    3    3    0    0  0.17208764425E+02  0.64763668904E+01  0.16640476322E+02  0.24799224129E+02  0.10566000000E+00 0. -1.
         23    2    1    0    0    0 -0.58994309289E+01  0.47564748304E+02 -0.52678010689E+01  0.76782178662E+02  0.59754034721E+02 0.  0.
         13    1    3    3    0    0 -0.23108195354E+02  0.41088381414E+02 -0.21908277390E+02  0.51982954533E+02  0.10566000000E+00 0.  1.
         22    1    1    0    0    0  0.58994309289E+01 -0.47564748304E+02  0.52678010689E+01  0.48217821338E+02  0.00000000000E+00 0.  1.
</event>
<event>
 5    1  0.1691066E-003  0.9118800E+02  0.7818608E-02  0.1130116E+00
         25   -1    0    0    0    0  0.00000000000E+00  0.00000000000E+00  0.99999998245E-14  0.12500000000E+03  0.12500000000E+03 0.  0.
        -13    1    3    3    0    0 -0.58764335500E+02 -0.64910673804E+01  0.36038924661E+01  0.59231581842E+02  0.10566000000E+00 0.  1.
         23    2    1    0    0    0 -0.19190479252E+02 -0.66757811353E+01 -0.11573439210E+02  0.10161656478E+03  0.98889540368E+02 0.  0.
         13    1    3    3    0    0  0.39573856249E+02 -0.18471375495E+00 -0.15177331676E+02  0.42384982935E+02  0.10566000000E+00 0. -1.
         22    1    1    0    0    0  0.19190479252E+02  0.66757811353E+01  0.11573439210E+02  0.23383435223E+02  0.00000000000E+00 0.  1.
</event>
<event>
 5    1  0.1691066E-003  0.9118800E+02  0.7818608E-02  0.1130116E+00
         25   -1    0    0    0    0  0.00000000000E+00  0.00000000000E+00  0.99999998245E-14  0.12500000000E+03  0.12500000000E+03 0.  0.
        -13    1    3    3    0    0  0.50185860627E+02  0.15836971472E+02 -0.24772955231E+02  0.58164772390E+02  0.10566000000E+00 0. -1.
         23    2    1    0    0    0  0.24876058512E+02 -0.70086738060E+01 -0.19406948100E+02  0.92680200647E+02  0.86862248197E+02 0.  0.
         13    1    3    3    0    0 -0.25309802114E+02 -0.22845645278E+02  0.53660071308E+01  0.34515428258E+02  0.10566000000E+00 0.  1.
         22    1    1    0    0    0 -0.24876058512E+02  0.70086738060E+01  0.19406948100E+02  0.32319799353E+02  0.00000000000E+00 0. -1.
</event>
<event>
 5    1  0.1691066E-003  0.9118800E+02  0.7818608E-02  0.1130116E+00
         25   -1    0    0    0    0  0.00000000000E+00  0.00000000000E+00  0.99999998245E-14  0.12500000000E+03  0.12500000000E+03 0.  0.
        -13    1    3    3    0    0 -0.45926018377E+02  0.12852590956E+02  0.40640270583E+01  0.47863511553E+02  0.10566000000E+00 0.  1.
         23    2    1    0    0    0 -0.28619304801E+02  0.29463038214E+02 -0.17719059541E+02  0.80266340423E+02  0.66645218177E+02 0.  0.
         13    1    3    3    0    0  0.17306713576E+02  0.16610447258E+02 -0.21783086599E+02  0.32402828870E+02  0.10566000000E+00 0. -1.
         22    1    1    0    0    0  0.28619304801E+02 -0.29463038214E+02  0.17719059541E+02  0.44733659577E+02  0.00000000000E+00 0.  1.
</event>
<event>
 5    1  0.1691066E-003  0.9118800E+02  0.7818608E-02  0.1130116E+00
         25   -1    0    0    0    0  0.00000000000E+00  0.00000000000E+00  0.99999998245E-14  0.12500000000E+03  0.12500000000E+03 0.  0.
        -13    1    3    3    0    0 -0.18327582106E+02  0.30057486263E+02  0.46822640433E+01  0.35514609767E+02  0.10566000000E+00 0.  1.
         23    2    1    0    0    0  0.25755326072E+02 -0.54796734101E+01 -0.14047763008E+02  0.95155347426E+02  0.90353953186E+02 0.  0.
         13    1    3    3    0    0  0.44082908177E+02 -0.35537159673E+02 -0.18730027052E+02  0.59640737658E+02  0.10566000000E+00 0. -1.
         22    1    1    0    0    0 -0.25755326072E+02  0.54796734101E+01  0.14047763008E+02  0.29844652574E+02  0.00000000000E+00 0. -1.
</event>
<event>
 5    1  0.1691066E-003  0.9118800E+02  0.7818608E-02  0.1130116E+00
         25   -1    0    0    0    0  0.00000000000E+00  0.00000000000E+00  0.99999998245E-14  0.12500000000E+03  0.12500000000E+03 0.  0.
        -13    1    3    3    0    0 -0.23871958114E+02 -0.39096106106E+02  0.26042257025E+02  0.52693322270E+02  0.10566000000E+00 0.  1.
         23    2    1    0    0    0 -0.16650780833E+02 -0.20889572552E+02 -0.12179037879E+02  0.95640985926E+02  0.91023329325E+02 0.  0.
         13    1    3    3    0    0  0.72211772808E+01  0.18206533553E+02 -0.38221294904E+02  0.42947663656E+02  0.10566000000E+00 0. -1.
         22    1    1    0    0    0  0.16650780833E+02  0.20889572552E+02  0.12179037879E+02  0.29359014074E+02  0.00000000000E+00 0.  1.
</event>
<event>
 5    1  0.1691066E-003  0.9118800E+02  0.7818608E-02  0.1130116E+00
         25   -1    0    0    0    0  0.00000000000E+00  0.00000000000E+00  0.99999998245E-14  0.12500000000E+03  0.12500000000E+03 0.  0.
        -13    1    3    3    0    0 -0.15474776138E+02 -0.33239065350E+02 -0.23486864013E+01  0.36740055167E+02  0.10566000000E+00 0. -1.
         23    2    1    0    0    0 -0.68971716502E+01  0.23245695028E+02 -0.16589624535E+02  0.95620603200E+02  0.90995333947E+02 0.  0.
         13    1    3    3    0    0  0.85776044874E+01  0.56484760378E+02 -0.14240938134E+02  0.58880548033E+02  0.10566000000E+00 0.  1.
         22    1    1    0    0    0  0.68971716502E+01 -0.23245695028E+02  0.16589624535E+02  0.29379396800E+02  0.00000000000E+00 0.  1.
</event>
<event>
 5    1  0.1691066E-003  0.9118800E+02  0.7818608E-02  0.1130116E+00
         25   -1    0    0    0    0  0.00000000000E+00  0.00000000000E+00  0.99999998245E-14  0.12500000000E+03  0.12500000000E+03 0.  0.
        -13    1    3    3    0    0  0.18165891368E+02 -0.65693255820E+01  0.29696922403E+02  0.35427023754E+02  0.10566000000E+00 0. -1.
         23    2    1    0    0    0 -0.18919745513E+02  0.17051921727E+02 -0.12727869428E+02  0.96526793910E+02  0.92231765014E+02 0.  0.
         13    1    3    3    0    0 -0.37085636881E+02  0.23621247309E+02 -0.42424791831E+02  0.61099770157E+02  0.10566000000E+00 0.  1.
         22    1    1    0    0    0  0.18919745513E+02 -0.17051921727E+02  0.12727869428E+02  0.28473206090E+02  0.00000000000E+00 0.  1.
</event>
<event>
 5    1  0.1691066E-003  0.9118800E+02  0.7818608E-02  0.1130116E+00
         25   -1    0    0    0    0  0.00000000000E+00  0.00000000000E+00  0.99999998245E-14  0.12500000000E+03  0.12500000000E+03 0.  0.
        -13    1    3    3    0    0  0.13401319645E+02 -0.29598464921E+02  0.21812095139E+02  0.39133657538E+02  0.10566000000E+00 0.  1.
         23    2    1    0    0    0  0.15799476411E+02  0.32609908586E+01 -0.24315631560E+02  0.95819399348E+02  0.91268011027E+02 0.  0.
         13    1    3    3    0    0  0.23981567659E+01  0.32859455779E+02 -0.46127726700E+02  0.56685741810E+02  0.10566000000E+00 0. -1.
         22    1    1    0    0    0 -0.15799476411E+02 -0.32609908586E+01  0.24315631560E+02  0.29180600652E+02  0.00000000000E+00 0. -1.
</event>
<event>
 5    1  0.1691066E-003  0.9118800E+02  0.7818608E-02  0.1130116E+00
         25   -1    0    0    0    0  0.00000000000E+00  0.00000000000E+00  0.99999998245E-14  0.12500000000E+03  0.12500000000E+03 0.  0.
        -13    1    3    3    0    0  0.10109496308E+02  0.36610553037E+02 -0.13351858416E+02  0.40259381472E+02  0.10566000000E+00 0. -1.
         23    2    1    0    0    0 -0.19725231435E+01 -0.13784548549E+02 -0.27669487055E+02  0.94024120026E+02  0.88775165483E+02 0.  0.
         13    1    3    3    0    0 -0.12082019452E+02 -0.50395101586E+02 -0.14317628639E+02  0.53764738554E+02  0.10566000000E+00 0.  1.
         22    1    1    0    0    0  0.19725231435E+01  0.13784548549E+02  0.27669487055E+02  0.30975879974E+02  0.00000000000E+00 0.  1.
</event>
<event>
 5    1  0.1691066E-003  0.9118800E+02  0.7818608E-02  0.1130116E+00
         25   -1    0    0    0    0  0.00000000000E+00  0.00000000000E+00  0.99999998245E-14  0.12500000000E+03  0.12500000000E+03 0.  0.
        -13    1    3    3    0    0 -0.43575775558E+02 -0.15230581064E+02 -0.49636065548E+01  0.46427011201E+02  0.10566000000E+00 0.  1.
         23    2    1    0    0    0 -0.14709688732E+02  0.15090370826E+02  0.20641955713E+02  0.95501109005E+02  0.90831036829E+02 0.  0.
         13    1    3    3    0    0  0.28866086826E+02  0.30320951890E+02  0.25605562268E+02  0.49074097804E+02  0.10566000000E+00 0. -1.
         22    1    1    0    0    0  0.14709688732E+02 -0.15090370826E+02 -0.20641955713E+02  0.29498890995E+02  0.00000000000E+00 0. -1.
</event>
<event>
 5    1  0.1691066E-003  0.9118800E+02  0.7818608E-02  0.1130116E+00
         25   -1    0    0    0    0  0.00000000000E+00  0.00000000000E+00  0.99999998245E-14  0.12500000000E+03  0.12500000000E+03 0.  0.
        -13    1    3    3    0    0 -0.26359122462E+01  0.61973239370E+02  0.28219365440E+01  0.62093517546E+02  0.10566000000E+00 0. -1.
         23    2    1    0    0    0  0.35423276537E+01  0.28687540435E+02 -0.31441363639E+00  0.96092874281E+02  0.91641794888E+02 0.  0.
         13    1    3    3    0    0  0.61782398998E+01 -0.33285698935E+02 -0.31363501803E+01  0.33999356735E+02  0.10566000000E+00 0.  1.
         22    1    1    0    0    0 -0.35423276537E+01 -0.28687540435E+02  0.31441363639E+00  0.28907125719E+02  0.00000000000E+00 0. -1.
</event>
<event>
 5    1  0.1691066E-003  0.9118800E+02  0.7818608E-02  0.1130116E+00
         25   -1    0    0    0    0  0.00000000000E+00  0.00000000000E+00  0.99999998245E-14  0.12500000000E+03  0.12500000000E+03 0.  0.
        -13    1    3    3    0    0 -0.19519217876E+01  0.12562545993E+01 -0.42962176423E+02  0.43024968812E+02  0.10566000000E+00 0. -1.
         23    2    1    0    0    0 -0.16354305255E+02  0.24332963791E+02  0.20411515164E+01  0.95610839979E+02  0.90981921252E+02 0.  0.
         13    1    3    3    0    0 -0.14402383467E+02  0.23076709192E+02  0.45003327939E+02  0.52585871166E+02  0.10566000000E+00 0.  1.
         22    1    1    0    0    0  0.16354305255E+02 -0.24332963791E+02 -0.20411515164E+01  0.29389160021E+02  0.00000000000E+00 0.  1.
</event>
<event>
 5    1  0.1691066E-003  0.9118800E+02  0.7818608E-02  0.1130116E+00
         25   -1    0    0    0    0  0.00000000000E+00  0.00000000000E+00  0.99999998245E-14  0.12500000000E+03  0.12500000000E+03 0.  0.
        -13    1    3    3    0    0  0.21602068419E+02  0.34233116047E+02  0.26314491536E+02  0.48280629895E+02  0.10566000000E+00 0. -1.
         23    2    1    0    0    0  0.30505655166E+01  0.23908461983E+02 -0.16308427790E+02  0.95898705847E+02  0.91376564073E+02 0.  0.
         13    1    3    3    0    0 -0.18551502902E+02 -0.10324654064E+02 -0.42622919326E+02  0.47618075952E+02  0.10566000000E+00 0.  1.
         22    1    1    0    0    0 -0.30505655166E+01 -0.23908461983E+02  0.16308427790E+02  0.29101294153E+02  0.00000000000E+00 0.  1.
</event>
<event>
 5    1  0.1691066E-003  0.9118800E+02  0.7818608E-02  0.1130116E+00
         25   -1    0    0    0    0  0.00000000000E+00  0.00000000000E+00  0.99999998245E-14  0.12500000000E+03  0.12500000000E+03 0.  0.
        -13    1    3    3    0    0 -0.37111796366E+02 -0.46673779352E+02 -0.10918971452E+02  0.60621466578E+02  0.10566000000E+00 0.  1.
         23    2    1    0    0    0 -0.17194670435E+02 -0.18812095114E+02 -0.15492685050E+02  0.95174257695E+02  0.90380110776E+02 0.  0.
         13    1    3    3    0    0  0.19917125931E+02  0.27861684238E+02 -0.45737135978E+01  0.34552791117E+02  0.10566000000E+00 0. -1.
         22    1    1    0    0    0  0.17194670435E+02  0.18812095114E+02  0.15492685050E+02  0.29825742305E+02  0.00000000000E+00 0.  1.
</event>
<event>
 5    1  0.1691066E-003  0.9118800E+02  0.7818608E-02  0.1130116E+00
         25   -1    0    0    0    0  0.00000000000E+00  0.00000000000E+00  0.99999998245E-14  0.12500000000E+03  0.12500000000E+03 0.  0.
        -13    1    3    3    0    0  0.58343431132E+02 -0.12199288807E+02 -0.30512006828E+01  0.59683327599E+02  0.10566000000E+00 0.  1.
         23    2    1    0    0    0  0.22727163991E+02 -0.18064366326E+02 -0.33080012361E+01  0.95780345895E+02  0.91214508022E+02 0.  0.
         13    1    3    3    0    0 -0.35616267140E+02 -0.58650775189E+01 -0.25680055333E+00  0.36097018296E+02  0.10566000000E+00 0. -1.
         22    1    1    0    0    0 -0.22727163991E+02  0.18064366326E+02  0.33080012361E+01  0.29219654105E+02  0.00000000000E+00 0.  1.
</event>
<event>
 5    1  0.1691066E-003  0.9118800E+02  0.7818608E-02  0.1130116E+00
         25   -1    0    0    0    0  0.00000000000E+00  0.00000000000E+00  0.99999998245E-14  0.12500000000E+03  0.12500000000E+03 0.  0.
        -13    1    3    3    0    0 -0.15649307549E+02  0.53867333865E+02  0.26171032443E+02  0.61899310074E+02  0.10566000000E+00 0. -1.
         23    2    1    0    0    0 -0.38190668524E+01  0.29939674597E+02  0.95540604190E+01  0.93341676338E+02  0.87808992049E+02 0.  0.
         13    1    3    3    0    0  0.11830240697E+02 -0.23927659268E+02 -0.16616972024E+02  0.31442366264E+02  0.10566000000E+00 0.  1.
         22    1    1    0    0    0  0.38190668524E+01 -0.29939674597E+02 -0.95540604190E+01  0.31658323662E+02  0.00000000000E+00 0. -1.
</event>
<event>
 5    1  0.1691066E-003  0.9118800E+02  0.7818608E-02  0.1130116E+00
         25   -1    0    0    0    0  0.00000000000E+00  0.00000000000E+00  0.99999998245E-14  0.12500000000E+03  0.12500000000E+03 0.  0.
        -13    1    3    3    0    0  0.30319662066E+02 -0.46637113998E+02 -0.11204978861E+02  0.56743854515E+02  0.10566000000E+00 0. -1.
         23    2    1    0    0    0  0.16753279943E+02 -0.19653960790E+02  0.13587477149E+02  0.95818325976E+02  0.91266540934E+02 0.  0.
         13    1    3    3    0    0 -0.13566382123E+02  0.26983153208E+02  0.24792456009E+02  0.39074471461E+02  0.10566000000E+00 0.  1.
         22    1    1    0    0    0 -0.16753279943E+02  0.19653960790E+02 -0.13587477149E+02  0.29181674024E+02  0.00000000000E+00 0. -1.
</event>
<event>
 5    1  0.1691066E-003  0.9118800E+02  0.7818608E-02  0.1130116E+00
         25   -1    0    0    0    0  0.00000000000E+00  0.00000000000E+00  0.99999998245E-14  0.12500000000E+03  0.12500000000E+03 0.  0.
        -13    1    3    3    0    0  0.36606090162E+02  0.45497019844E+02  0.20019211178E+02  0.61731390976E+02  0.10566000000E+00 0. -1.
         23    2    1    0    0    0  0.20752192105E+02  0.15364136951E+02  0.10839689377E+02  0.96996267263E+02  0.92865853874E+02 0.  0.
         13    1    3    3    0    0 -0.15853898057E+02 -0.30132882892E+02 -0.91795218007E+01  0.35264876287E+02  0.10566000000E+00 0.  1.
         22    1    1    0    0    0 -0.20752192105E+02 -0.15364136951E+02 -0.10839689377E+02  0.28003732737E+02  0.00000000000E+00 0. -1.
</event>
<event>
 5    1  0.1691066E-003  0.9118800E+02  0.7818608E-02  0.1130116E+00
         25   -1    0    0    0    0  0.00000000000E+00  0.00000000000E+00  0.99999998245E-14  0.12500000000E+03  0.12500000000E+03 0.  0.
        -13    1    3    3    0    0 -0.18041518876E+02  0.19318761526E+02 -0.37470753334E+02  0.45856073423E+02  0.10566000000E+00 0. -1.
         23    2    1    0    0    0  0.90129976851E+01  0.27885601002E+02  0.32761332675E+01  0.95511461214E+02  0.90845282231E+02 0.  0.
         13    1    3    3    0    0  0.27054516561E+02  0.85668394757E+01  0.40746886602E+02  0.49655387792E+02  0.10566000000E+00 0.  1.
         22    1    1    0    0    0 -0.90129976851E+01 -0.27885601002E+02 -0.32761332675E+01  0.29488538786E+02  0.00000000000E+00 0. -1.
</event>
<event>
 5    1  0.1691066E-003  0.9118800E+02  0.7818608E-02  0.1130116E+00
         25   -1    0    0    0    0  0.00000000000E+00  0.00000000000E+00  0.99999998245E-14  0.12500000000E+03  0.12500000000E+03 0.  0.
        -13    1    3    3    0    0  0.22323252061E+01 -0.25691841551E+02 -0.56266160676E+02  0.61894636273E+02  0.10566000000E+00 0.  1.
         23    2    1    0    0    0  0.65995864770E+01 -0.15213665441E+02 -0.26655307404E+02  0.93607077699E+02  0.88185993359E+02 0.  0.
         13    1    3    3    0    0  0.43672612710E+01  0.10478176109E+02  0.29610853273E+02  0.31712441425E+02  0.10566000000E+00 0. -1.
         22    1    1    0    0    0 -0.65995864770E+01  0.15213665441E+02  0.26655307404E+02  0.31392922301E+02  0.00000000000E+00 0.  1.
</event>
<event>
 5    1  0.1691066E-003  0.9118800E+02  0.7818608E-02  0.1130116E+00
         25   -1    0    0    0    0  0.00000000000E+00  0.00000000000E+00  0.99999998245E-14  0.12500000000E+03  0.12500000000E+03 0.  0.
        -13    1    3    3    0    0  0.93579763074E+01  0.23978989127E+02 -0.29058046439E+01  0.25904024876E+02  0.10566000000E+00 0. -1.
         23    2    1    0    0    0 -0.41869741939E+02  0.64044598106E+01  0.97807396603E+01  0.81528684586E+02  0.68972249104E+02 0.  0.
         13    1    3    3    0    0 -0.51227718246E+02 -0.17574529316E+02  0.12686544304E+02  0.55624659710E+02  0.10566000000E+00 0.  1.
         22    1    1    0    0    0  0.41869741939E+02 -0.64044598106E+01 -0.97807396603E+01  0.43471315414E+02  0.00000000000E+00 0.  1.
</event>
<event>
 5    1  0.1691066E-003  0.9118800E+02  0.7818608E-02  0.1130116E+00
         25   -1    0    0    0    0  0.00000000000E+00  0.00000000000E+00  0.99999998245E-14  0.12500000000E+03  0.12500000000E+03 0.  0.
        -13    1    3    3    0    0 -0.36019461937E+02 -0.42792526818E+02  0.18363617702E+02  0.58871347945E+02  0.10566000000E+00 0.  1.
         23    2    1    0    0    0 -0.22185393191E+02 -0.94810740713E+01  0.17924250714E+02  0.94944032203E+02  0.90061135074E+02 0.  0.
         13    1    3    3    0    0  0.13834068746E+02  0.33311452747E+02 -0.43936698807E+00  0.36072684258E+02  0.10566000000E+00 0. -1.
         22    1    1    0    0    0  0.22185393191E+02  0.94810740713E+01 -0.17924250714E+02  0.30055967797E+02  0.00000000000E+00 0.  1.
</event>
<event>
 5    1  0.1691066E-003  0.9118800E+02  0.7818608E-02  0.1130116E+00
         25   -1    0    0    0    0  0.00000000000E+00  0.00000000000E+00  0.99999998245E-14  0.12500000000E+03  0.12500000000E+03 0.  0.
        -13    1    3    3    0    0  0.49447994793E+01 -0.17745487323E+02  0.40774298824E+02  0.44742686228E+02  0.10566000000E+00 0. -1.
         23    2    1    0    0    0  0.22715457277E+02  0.16533408867E+02  0.69893333850E+01  0.96048378470E+02  0.91581082203E+02 0.  0.
         13    1    3    3    0    0  0.17770657798E+02  0.34278896191E+02 -0.33784965439E+02  0.51305692242E+02  0.10566000000E+00 0.  1.
         22    1    1    0    0    0 -0.22715457277E+02 -0.16533408867E+02 -0.69893333850E+01  0.28951621530E+02  0.00000000000E+00 0.  1.
</event>
<event>
 5    1  0.1691066E-003  0.9118800E+02  0.7818608E-02  0.1130116E+00
         25   -1    0    0    0    0  0.00000000000E+00  0.00000000000E+00  0.99999998245E-14  0.12500000000E+03  0.12500000000E+03 0.  0.
        -13    1    3    3    0    0  0.10288210165E+02  0.39164639717E+02 -0.37130677976E+02  0.54940100870E+02  0.10566000000E+00 0.  1.
         23    2    1    0    0    0  0.24862262755E+02  0.11253412352E+02 -0.12178765008E+02  0.95115326403E+02  0.90298569207E+02 0.  0.
         13    1    3    3    0    0  0.14574052590E+02 -0.27911227365E+02  0.24951912967E+02  0.40175225534E+02  0.10566000000E+00 0. -1.
         22    1    1    0    0    0 -0.24862262755E+02 -0.11253412352E+02  0.12178765008E+02  0.29884673597E+02  0.00000000000E+00 0.  1.
</event>
<event>
 5    1  0.1691066E-003  0.9118800E+02  0.7818608E-02  0.1130116E+00
         25   -1    0    0    0    0  0.00000000000E+00  0.00000000000E+00  0.99999998245E-14  0.12500000000E+03  0.12500000000E+03 0.  0.
        -13    1    3    3    0    0 -0.14257054014E+02 -0.25031819856E+02  0.53487004361E+02  0.60751348907E+02  0.10566000000E+00 0.  1.
         23    2    1    0    0    0  0.37848788298E+01 -0.10625358176E+02  0.26067785961E+02  0.96596602157E+02  0.92326326361E+02 0.  0.
         13    1    3    3    0    0  0.18041932843E+02  0.14406461680E+02 -0.27419218400E+02  0.35845253250E+02  0.10566000000E+00 0. -1.
         22    1    1    0    0    0 -0.37848788298E+01  0.10625358176E+02 -0.26067785961E+02  0.28403397843E+02  0.00000000000E+00 0.  1.
</event>
<event>
 5    1  0.1691066E-003  0.9118800E+02  0.7818608E-02  0.1130116E+00
         25   -1    0    0    0    0  0.00000000000E+00  0.00000000000E+00  0.99999998245E-14  0.12500000000E+03  0.12500000000E+03 0.  0.
        -13    1    3    3    0    0  0.39434325756E+02 -0.38444808626E+02  0.13473235481E+02  0.56697518434E+02  0.10566000000E+00 0.  1.
         23    2    1    0    0    0  0.50245655939E+01 -0.31366409346E+02  0.78861353422E+01  0.92269448137E+02  0.86269125614E+02 0.  0.
         13    1    3    3    0    0 -0.34409760162E+02  0.70783992808E+01 -0.55871001385E+01  0.35571929703E+02  0.10566000000E+00 0. -1.
         22    1    1    0    0    0 -0.50245655939E+01  0.31366409346E+02 -0.78861353422E+01  0.32730551863E+02  0.00000000000E+00 0.  1.
</event>
<event>
 5    1  0.1691066E-003  0.9118800E+02  0.7818608E-02  0.1130116E+00
         25   -1    0    0    0    0  0.00000000000E+00  0.00000000000E+00  0.99999998245E-14  0.12500000000E+03  0.12500000000E+03 0.  0.
        -13    1    3    3    0    0 -0.41437631232E+02  0.31419438738E+02 -0.54794173000E+00  0.52005478720E+02  0.10566000000E+00 0. -1.
         23    2    1    0    0    0  0.12946993571E+01  0.27613899032E+02 -0.93819082844E+01  0.95807126397E+02  0.91251200535E+02 0.  0.
         13    1    3    3    0    0  0.42732330589E+02 -0.38055397058E+01 -0.88339665544E+01  0.43801647677E+02  0.10566000000E+00 0.  1.
         22    1    1    0    0    0 -0.12946993571E+01 -0.27613899032E+02  0.93819082844E+01  0.29192873603E+02  0.00000000000E+00 0. -1.
</event>
<event>
 5    1  0.1691066E-003  0.9118800E+02  0.7818608E-02  0.1130116E+00
         25   -1    0    0    0    0  0.00000000000E+00  0.00000000000E+00  0.99999998245E-14  0.12500000000E+03  0.12500000000E+03 0.  0.
        -13    1    3    3    0    0  0.11297514736E+02 -0.34542558398E+02  0.18327183463E+02  0.40702813141E+02  0.10566000000E+00 0.  1.
         23    2    1    0    0    0  0.34474971389E+02  0.63859684008E+01  0.50477826419E+01  0.89577064573E+02  0.82275550094E+02 0.  0.
         13    1    3    3    0    0  0.23177456653E+02  0.40928526799E+02 -0.13279400821E+02  0.48874251432E+02  0.10566000000E+00 0. -1.
         22    1    1    0    0    0 -0.34474971389E+02 -0.63859684008E+01 -0.50477826419E+01  0.35422935427E+02  0.00000000000E+00 0. -1.
</event>
<event>
 5    1  0.1691066E-003  0.9118800E+02  0.7818608E-02  0.1130116E+00
         25   -1    0    0    0    0  0.00000000000E+00  0.00000000000E+00  0.99999998245E-14  0.12500000000E+03  0.12500000000E+03 0.  0.
        -13    1    3    3    0    0  0.24570821943E+02  0.12917808371E+02  0.21899177345E+02  0.35357887330E+02  0.10566000000E+00 0.  1.
         23    2    1    0    0    0 -0.74493953284E+01 -0.12253194710E+02 -0.24198840928E+02  0.96871399366E+02  0.92697625867E+02 0.  0.
         13    1    3    3    0    0 -0.32020217272E+02 -0.25171003081E+02 -0.46098018273E+02  0.61513512035E+02  0.10566000000E+00 0. -1.
         22    1    1    0    0    0  0.74493953284E+01  0.12253194710E+02  0.24198840928E+02  0.28128600634E+02  0.00000000000E+00 0. -1.
</event>
<event>
 5    1  0.1691066E-003  0.9118800E+02  0.7818608E-02  0.1130116E+00
         25   -1    0    0    0    0  0.00000000000E+00  0.00000000000E+00  0.99999998245E-14  0.12500000000E+03  0.12500000000E+03 0.  0.
        -13    1    3    3    0    0  0.24989383876E+00 -0.23554970809E+02  0.51458935072E+02  0.56594454317E+02  0.10566000000E+00 0. -1.
         23    2    1    0    0    0 -0.31817456049E+00 -0.26096823983E+02  0.11768167006E+02  0.96370728061E+02  0.92020008777E+02 0.  0.
         13    1    3    3    0    0 -0.56806839925E+00 -0.25418531741E+01 -0.39690768066E+02  0.39776273744E+02  0.10566000000E+00 0.  1.
         22    1    1    0    0    0  0.31817456049E+00  0.26096823983E+02 -0.11768167006E+02  0.28629271939E+02  0.00000000000E+00 0.  1.
</event>
<event>
 5    1  0.1691066E-003  0.9118800E+02  0.7818608E-02  0.1130116E+00
         25   -1    0    0    0    0  0.00000000000E+00  0.00000000000E+00  0.99999998245E-14  0.12500000000E+03  0.12500000000E+03 0.  0.
        -13    1    3    3    0    0  0.18943934466E+02 -0.32668903797E+02  0.25824177750E+02  0.45749636598E+02  0.10566000000E+00 0.  1.
         23    2    1    0    0    0  0.32389759332E+02  0.65801962650E+01  0.74794158854E+01  0.91112876274E+02  0.84576705235E+02 0.  0.
         13    1    3    3    0    0  0.13445824866E+02  0.39249100062E+02 -0.18344761864E+02  0.45363239676E+02  0.10566000000E+00 0. -1.
         22    1    1    0    0    0 -0.32389759332E+02 -0.65801962650E+01 -0.74794158854E+01  0.33887123726E+02  0.00000000000E+00 0. -1.
</event>
<event>
 5    1  0.1691066E-003  0.9118800E+02  0.7818608E-02  0.1130116E+00
         25   -1    0    0    0    0  0.00000000000E+00  0.00000000000E+00  0.99999998245E-14  0.12500000000E+03  0.12500000000E+03 0.  0.
        -13    1    3    3    0    0  0.43840880566E-01  0.91216596693E+01  0.34293552479E+02  0.35486131134E+02  0.10566000000E+00 0.  1.
         23    2    1    0    0    0 -0.92893220578E+00 -0.28118924072E+02 -0.11575502919E+02  0.94577490672E+02  0.89550950123E+02 0.  0.
         13    1    3    3    0    0 -0.97277308635E+00 -0.37240583741E+02 -0.45869055399E+02  0.59091359538E+02  0.10566000000E+00 0. -1.
         22    1    1    0    0    0  0.92893220578E+00  0.28118924072E+02  0.11575502919E+02  0.30422509328E+02  0.00000000000E+00 0. -1.
</event>
<event>
 4    1  0.1691066E-003  0.9118800E+02  0.7818608E-02  0.1130116E+00
         25   -1    0    0    0    0  0.00000000000E+00  0.00000000000E+00  0.99999998245E-14  0.12500000000E+03  0.12500000000E+03 0.  0.
        -13    1    1    0    0    0 -0.16622712650E+02 -0.10022247909E+02 -0.25666527593E+02  0.32179835793E+02  0.10566000000E+00 0. -1.
         13    1    1    0    0    0  0.37104583963E+02 -0.45315934768E+01 -0.18727196992E+02  0.41809144475E+02  0.10566000000E+00 0.  1.
         22    1    1    0    0    0 -0.20481871313E+02  0.14553841386E+02  0.44393724585E+02  0.51011019732E+02  0.00000000000E+00 0.  1.
</event>
<event>
 5    1  0.1691066E-003  0.9118800E+02  0.7818608E-02  0.1130116E+00
         25   -1    0    0    0    0  0.00000000000E+00  0.00000000000E+00  0.99999998245E-14  0.12500000000E+03  0.12500000000E+03 0.  0.
        -13    1    3    3    0    0 -0.59253646895E+01 -0.55275533007E+01 -0.51531856500E+02  0.52165191369E+02  0.10566000000E+00 0. -1.
         23    2    1    0    0    0  0.22141615510E+02  0.15188148331E+01 -0.18267519906E+02  0.96255257535E+02  0.91863019674E+02 0.  0.
         13    1    3    3    0    0  0.28066980200E+02  0.70463681338E+01  0.33264336594E+02  0.44090066166E+02  0.10566000000E+00 0.  1.
         22    1    1    0    0    0 -0.22141615510E+02 -0.15188148331E+01  0.18267519906E+02  0.28744742465E+02  0.00000000000E+00 0.  1.
</event>
<event>
 5    1  0.1691066E-003  0.9118800E+02  0.7818608E-02  0.1130116E+00
         25   -1    0    0    0    0  0.00000000000E+00  0.00000000000E+00  0.99999998245E-14  0.12500000000E+03  0.12500000000E+03 0.  0.
        -13    1    3    3    0    0 -0.24804821852E+02 -0.38773228323E+02  0.37091835611E+02  0.59113939598E+02  0.10566000000E+00 0.  1.
         23    2    1    0    0    0 -0.16598683850E+02 -0.18347398253E+02  0.24777106243E+01  0.10013471540E+03  0.96998344577E+02 0.  0.
         13    1    3    3    0    0  0.82061380026E+01  0.20425830071E+02 -0.34614124987E+02  0.41020775805E+02  0.10566000000E+00 0. -1.
         22    1    1    0    0    0  0.16598683850E+02  0.18347398253E+02 -0.24777106243E+01  0.24865284598E+02  0.00000000000E+00 0.  1.
</event>
<event>
 5    1  0.1691066E-003  0.9118800E+02  0.7818608E-02  0.1130116E+00
         25   -1    0    0    0    0  0.00000000000E+00  0.00000000000E+00  0.99999998245E-14  0.12500000000E+03  0.12500000000E+03 0.  0.
        -13    1    3    3    0    0  0.27621093241E+02  0.37647698479E+02 -0.93525391461E+01  0.47620952796E+02  0.10566000000E+00 0. -1.
         23    2    1    0    0    0 -0.89417076264E+01  0.20418091752E+02  0.17936099883E+02  0.96389577334E+02  0.92045610072E+02 0.  0.
         13    1    3    3    0    0 -0.36562800868E+02 -0.17229606727E+02  0.27288639030E+02  0.48768624539E+02  0.10566000000E+00 0.  1.
         22    1    1    0    0    0  0.89417076264E+01 -0.20418091752E+02 -0.17936099883E+02  0.28610422666E+02  0.00000000000E+00 0. -1.
</event>
<event>
 5    1  0.1691066E-003  0.9118800E+02  0.7818608E-02  0.1130116E+00
         25   -1    0    0    0    0  0.00000000000E+00  0.00000000000E+00  0.99999998245E-14  0.12500000000E+03  0.12500000000E+03 0.  0.
        -13    1    3    3    0    0 -0.36423741425E+02 -0.49091812784E+02  0.82121740520E+01  0.61677759269E+02  0.10566000000E+00 0.  1.
         23    2    1    0    0    0 -0.12493497040E+02 -0.25957395281E+02  0.85032672084E+01  0.94963698775E+02  0.90088427080E+02 0.  0.
         13    1    3    3    0    0  0.23930244385E+02  0.23134417503E+02  0.29109315634E+00  0.33285939506E+02  0.10566000000E+00 0. -1.
         22    1    1    0    0    0  0.12493497040E+02  0.25957395281E+02 -0.85032672084E+01  0.30036301225E+02  0.00000000000E+00 0.  1.
</event>
<event>
 5    1  0.1691066E-003  0.9118800E+02  0.7818608E-02  0.1130116E+00
         25   -1    0    0    0    0  0.00000000000E+00  0.00000000000E+00  0.99999998245E-14  0.12500000000E+03  0.12500000000E+03 0.  0.
        -13    1    3    3    0    0 -0.40791480885E+02  0.36066145014E+00 -0.74718297716E+00  0.40800054362E+02  0.10566000000E+00 0.  1.
         23    2    1    0    0    0  0.56685652443E+01 -0.25450028068E+02 -0.13760100014E+02  0.95518193526E+02  0.90854545189E+02 0.  0.
         13    1    3    3    0    0  0.46460046129E+02 -0.25810689518E+02 -0.13012917036E+02  0.54718139164E+02  0.10566000000E+00 0. -1.
         22    1    1    0    0    0 -0.56685652443E+01  0.25450028068E+02  0.13760100014E+02  0.29481806474E+02  0.00000000000E+00 0. -1.
</event>
<event>
 5    1  0.1691066E-003  0.9118800E+02  0.7818608E-02  0.1130116E+00
         25   -1    0    0    0    0  0.00000000000E+00  0.00000000000E+00  0.99999998245E-14  0.12500000000E+03  0.12500000000E+03 0.  0.
        -13    1    3    3    0    0  0.14793733000E+02  0.71185052199E+01 -0.39179282380E+02  0.42480053961E+02  0.10566000000E+00 0. -1.
         23    2    1    0    0    0  0.50862766771E+01 -0.29212911590E+02 -0.21294217564E+01  0.95271245384E+02  0.90514149977E+02 0.  0.
         13    1    3    3    0    0 -0.97074563231E+01 -0.36331416809E+02  0.37049860624E+02  0.52791191424E+02  0.10566000000E+00 0.  1.
         22    1    1    0    0    0 -0.50862766771E+01  0.29212911590E+02  0.21294217564E+01  0.29728754616E+02  0.00000000000E+00 0.  1.
</event>
<event>
 5    1  0.1691066E-003  0.9118800E+02  0.7818608E-02  0.1130116E+00
         25   -1    0    0    0    0  0.00000000000E+00  0.00000000000E+00  0.99999998245E-14  0.12500000000E+03  0.12500000000E+03 0.  0.
        -13    1    3    3    0    0 -0.15385090981E+02  0.41212351958E+02 -0.32740081240E+01  0.44112234943E+02  0.10566000000E+00 0.  1.
         23    2    1    0    0    0  0.19890165412E+01  0.10207731379E+02  0.30276291472E+02  0.92987380738E+02  0.87303179693E+02 0.  0.
         13    1    3    3    0    0  0.17374107523E+02 -0.31004620579E+02  0.33550299596E+02  0.48875145795E+02  0.10566000000E+00 0. -1.
         22    1    1    0    0    0 -0.19890165412E+01 -0.10207731379E+02 -0.30276291472E+02  0.32012619262E+02  0.00000000000E+00 0.  1.
</event>
<event>
 5    1  0.1691066E-003  0.9118800E+02  0.7818608E-02  0.1130116E+00
         25   -1    0    0    0    0  0.00000000000E+00  0.00000000000E+00  0.99999998245E-14  0.12500000000E+03  0.12500000000E+03 0.  0.
        -13    1    3    3    0    0  0.19261115106E+01  0.39026453924E+02 -0.31722170137E+02  0.50329725348E+02  0.10566000000E+00 0. -1.
         23    2    1    0    0    0 -0.59900839580E+01 -0.60736548035E+01 -0.27376542264E+02  0.96325177336E+02  0.91958111844E+02 0.  0.
         13    1    3    3    0    0 -0.79161954686E+01 -0.45100108727E+02  0.43456278729E+01  0.45995451988E+02  0.10566000000E+00 0.  1.
         22    1    1    0    0    0  0.59900839580E+01  0.60736548035E+01  0.27376542264E+02  0.28674822664E+02  0.00000000000E+00 0.  1.
</event>
<event>
 5    1  0.1691066E-003  0.9118800E+02  0.7818608E-02  0.1130116E+00
         25   -1    0    0    0    0  0.00000000000E+00  0.00000000000E+00  0.99999998245E-14  0.12500000000E+03  0.12500000000E+03 0.  0.
        -13    1    3    3    0    0  0.21567371131E+02 -0.11161355832E+02 -0.45335858614E+02  0.51430327646E+02  0.10566000000E+00 0. -1.
         23    2    1    0    0    0  0.10503543375E+02  0.21196591920E+02 -0.20535929620E+02  0.93673584025E+02  0.88280212994E+02 0.  0.
         13    1    3    3    0    0 -0.11063827756E+02  0.32357947752E+02  0.24799928993E+02  0.42243256379E+02  0.10566000000E+00 0.  1.
         22    1    1    0    0    0 -0.10503543375E+02 -0.21196591920E+02  0.20535929620E+02  0.31326415975E+02  0.00000000000E+00 0. -1.
</event>
<event>
 5    1  0.1691066E-003  0.9118800E+02  0.7818608E-02  0.1130116E+00
         25   -1    0    0    0    0  0.00000000000E+00  0.00000000000E+00  0.99999998245E-14  0.12500000000E+03  0.12500000000E+03 0.  0.
        -13    1    3    3    0    0  0.55973239419E+02 -0.22839764199E+02 -0.72413650462E+01  0.60886015566E+02  0.10566000000E+00 0.  1.
         23    2    1    0    0    0  0.27478253345E+02 -0.83595748424E+01  0.62934618289E+01  0.95596861388E+02  0.90962714049E+02 0.  0.
         13    1    3    3    0    0 -0.28494986074E+02  0.14480189357E+02  0.13534826875E+02  0.34710845823E+02  0.10566000000E+00 0. -1.
         22    1    1    0    0    0 -0.27478253345E+02  0.83595748424E+01 -0.62934618289E+01  0.29403138612E+02  0.00000000000E+00 0.  1.
</event>
<event>
 4    1  0.1691066E-003  0.9118800E+02  0.7818608E-02  0.1130116E+00
         25   -1    0    0    0    0  0.00000000000E+00  0.00000000000E+00  0.99999998245E-14  0.12500000000E+03  0.12500000000E+03 0.  0.
        -13    1    1    0    0    0  0.12541595658E+02  0.47999283907E+02  0.82553506171E+01  0.50292990119E+02  0.10566000000E+00 0.  1.
         13    1    1    0    0    0 -0.10495448654E+02  0.46711085868E+01 -0.17755001884E+02  0.21147693818E+02  0.10566000000E+00 0. -1.
         22    1    1    0    0    0 -0.20461470041E+01 -0.52670392494E+02  0.94996512671E+01  0.53559316064E+02  0.00000000000E+00 0.  1.
</event>
<event>
 5    1  0.1691066E-003  0.9118800E+02  0.7818608E-02  0.1130116E+00
         25   -1    0    0    0    0  0.00000000000E+00  0.00000000000E+00  0.99999998245E-14  0.12500000000E+03  0.12500000000E+03 0.  0.
        -13    1    3    3    0    0 -0.14205308513E+02 -0.55923122585E+02 -0.16887919530E+02  0.60119875413E+02  0.10566000000E+00 0.  1.
         23    2    1    0    0    0 -0.21692732026E+01 -0.20661769731E+02 -0.18168433330E+02  0.97400970229E+02  0.93409006832E+02 0.  0.
         13    1    3    3    0    0  0.12036035311E+02  0.35261352854E+02 -0.12805137996E+01  0.37281094816E+02  0.10566000000E+00 0. -1.
         22    1    1    0    0    0  0.21692732026E+01  0.20661769731E+02  0.18168433330E+02  0.27599029771E+02  0.00000000000E+00 0.  1.
</event>
<event>
 5    1  0.1691066E-003  0.9118800E+02  0.7818608E-02  0.1130116E+00
         25   -1    0    0    0    0  0.00000000000E+00  0.00000000000E+00  0.99999998245E-14  0.12500000000E+03  0.12500000000E+03 0.  0.
        -13    1    3    3    0    0  0.11276996843E+02  0.33784795821E+02  0.18511985048E+02  0.40140850027E+02  0.10566000000E+00 0. -1.
         23    2    1    0    0    0  0.16304732206E+02 -0.21666232081E+02  0.69589778573E+01  0.97005406276E+02  0.92878154423E+02 0.  0.
         13    1    3    3    0    0  0.50277353639E+01 -0.55451027902E+02 -0.11553007190E+02  0.56864556250E+02  0.10566000000E+00 0.  1.
         22    1    1    0    0    0 -0.16304732206E+02  0.21666232081E+02 -0.69589778573E+01  0.27994593724E+02  0.00000000000E+00 0.  1.
</event>
<event>
 5    1  0.1691066E-003  0.9118800E+02  0.7818608E-02  0.1130116E+00
         25   -1    0    0    0    0  0.00000000000E+00  0.00000000000E+00  0.99999998245E-14  0.12500000000E+03  0.12500000000E+03 0.  0.
        -13    1    3    3    0    0 -0.11378949372E+02  0.10367951738E+01 -0.38240007082E+02  0.39910709574E+02  0.10566000000E+00 0.  1.
         23    2    1    0    0    0  0.26417416085E+02  0.13277178206E+02  0.53959527708E+00  0.95428823210E+02  0.90731503914E+02 0.  0.
         13    1    3    3    0    0  0.37796365456E+02  0.12240383032E+02  0.38779602359E+02  0.55518113636E+02  0.10566000000E+00 0. -1.
         22    1    1    0    0    0 -0.26417416085E+02 -0.13277178206E+02 -0.53959527708E+00  0.29571176790E+02  0.00000000000E+00 0. -1.
</event>
<event>
 5    1  0.1691066E-003  0.9118800E+02  0.7818608E-02  0.1130116E+00
         25   -1    0    0    0    0  0.00000000000E+00  0.00000000000E+00  0.99999998245E-14  0.12500000000E+03  0.12500000000E+03 0.  0.
        -13    1    3    3    0    0  0.10412157704E+02  0.35307346408E+02  0.43974097635E+02  0.57347660504E+02  0.10566000000E+00 0.  1.
         23    2    1    0    0    0 -0.10274249093E+02  0.23748784499E+02  0.13928693504E+02  0.95613379535E+02  0.90985410280E+02 0.  0.
         13    1    3    3    0    0 -0.20686406797E+02 -0.11558561909E+02 -0.30045404131E+02  0.38265719031E+02  0.10566000000E+00 0. -1.
         22    1    1    0    0    0  0.10274249093E+02 -0.23748784499E+02 -0.13928693504E+02  0.29386620465E+02  0.00000000000E+00 0.  1.
</event>
<event>
 5    1  0.1691066E-003  0.9118800E+02  0.7818608E-02  0.1130116E+00
         25   -1    0    0    0    0  0.00000000000E+00  0.00000000000E+00  0.99999998245E-14  0.12500000000E+03  0.12500000000E+03 0.  0.
        -13    1    3    3    0    0 -0.31304750295E+02  0.32272799095E+02  0.15671200936E+02  0.47614269450E+02  0.10566000000E+00 0. -1.
         23    2    1    0    0    0  0.14389904747E+02  0.18745595800E+02  0.17950333168E+02  0.95323726963E+02  0.90586598019E+02 0.  0.
         13    1    3    3    0    0  0.45694655042E+02 -0.13527203296E+02  0.22791322329E+01  0.47709457513E+02  0.10566000000E+00 0.  1.
         22    1    1    0    0    0 -0.14389904747E+02 -0.18745595800E+02 -0.17950333168E+02  0.29676273037E+02  0.00000000000E+00 0. -1.
</event>
<event>
 5    1  0.1691066E-003  0.9118800E+02  0.7818608E-02  0.1130116E+00
         25   -1    0    0    0    0  0.00000000000E+00  0.00000000000E+00  0.99999998245E-14  0.12500000000E+03  0.12500000000E+03 0.  0.
        -13    1    3    3    0    0  0.18488172996E+02  0.29696013800E+02 -0.39144524071E+02  0.52497339981E+02  0.10566000000E+00 0. -1.
         23    2    1    0    0    0  0.17225945185E+02  0.62670806877E-01 -0.39226423951E+02  0.82157854266E+02  0.70103235064E+02 0.  0.
         13    1    3    3    0    0 -0.12622278111E+01 -0.29633342993E+02 -0.81899879959E-01  0.29660514284E+02  0.10566000000E+00 0.  1.
         22    1    1    0    0    0 -0.17225945185E+02 -0.62670806877E-01  0.39226423951E+02  0.42842145734E+02  0.00000000000E+00 0. -1.
</event>
<event>
 5    1  0.1691066E-003  0.9118800E+02  0.7818608E-02  0.1130116E+00
         25   -1    0    0    0    0  0.00000000000E+00  0.00000000000E+00  0.99999998245E-14  0.12500000000E+03  0.12500000000E+03 0.  0.
        -13    1    3    3    0    0  0.16749499724E+02  0.53319352507E+02  0.29156401497E+01  0.55964374509E+02  0.10566000000E+00 0.  1.
         23    2    1    0    0    0  0.21779779303E+02  0.88511212971E+01  0.57214519852E+01  0.10080421219E+03  0.97857309633E+02 0.  0.
         13    1    3    3    0    0  0.50302795792E+01 -0.44468231209E+02  0.28058118355E+01  0.44839837685E+02  0.10566000000E+00 0. -1.
         22    1    1    0    0    0 -0.21779779303E+02 -0.88511212971E+01 -0.57214519852E+01  0.24195787805E+02  0.00000000000E+00 0.  1.
</event>
<event>
 5    1  0.1691066E-003  0.9118800E+02  0.7818608E-02  0.1130116E+00
         25   -1    0    0    0    0  0.00000000000E+00  0.00000000000E+00  0.99999998245E-14  0.12500000000E+03  0.12500000000E+03 0.  0.
        -13    1    3    3    0    0  0.13155718678E+01 -0.37750957755E+02 -0.37251570252E+02  0.53052391002E+02  0.10566000000E+00 0. -1.
         23    2    1    0    0    0  0.79658843290E+01 -0.32552667407E+02  0.24348707903E+00  0.91485961831E+02  0.85126320593E+02 0.  0.
         13    1    3    3    0    0  0.66503124612E+01  0.51982903480E+01  0.37495057331E+02  0.38433570829E+02  0.10566000000E+00 0.  1.
         22    1    1    0    0    0 -0.79658843290E+01  0.32552667407E+02 -0.24348707903E+00  0.33514038169E+02  0.00000000000E+00 0. -1.
</event>
<event>
 5    1  0.1691066E-003  0.9118800E+02  0.7818608E-02  0.1130116E+00
         25   -1    0    0    0    0  0.00000000000E+00  0.00000000000E+00  0.99999998245E-14  0.12500000000E+03  0.12500000000E+03 0.  0.
        -13    1    3    3    0    0 -0.13186004270E+02  0.36126178719E+02 -0.18207642533E+02  0.42549981294E+02  0.10566000000E+00 0. -1.
         23    2    1    0    0    0  0.23429404819E+01  0.12342286278E+02  0.26588705244E+02  0.95592847006E+02  0.90957197359E+02 0.  0.
         13    1    3    3    0    0  0.15528944752E+02 -0.23783892441E+02  0.44796347777E+02  0.53042865712E+02  0.10566000000E+00 0.  1.
         22    1    1    0    0    0 -0.23429404819E+01 -0.12342286278E+02 -0.26588705244E+02  0.29407152994E+02  0.00000000000E+00 0.  1.
</event>
<event>
 5    1  0.1691066E-003  0.9118800E+02  0.7818608E-02  0.1130116E+00
         25   -1    0    0    0    0  0.00000000000E+00  0.00000000000E+00  0.99999998245E-14  0.12500000000E+03  0.12500000000E+03 0.  0.
        -13    1    3    3    0    0 -0.57628517652E+01 -0.15848275374E+02  0.46384816639E+02  0.49355249685E+02  0.10566000000E+00 0. -1.
         23    2    1    0    0    0  0.24465464243E+02 -0.10322649286E+02  0.10901230448E+02  0.96295421024E+02  0.91917654757E+02 0.  0.
         13    1    3    3    0    0  0.30228316008E+02  0.55256260873E+01 -0.35483586191E+02  0.46940171339E+02  0.10566000000E+00 0.  1.
         22    1    1    0    0    0 -0.24465464243E+02  0.10322649286E+02 -0.10901230448E+02  0.28704578976E+02  0.00000000000E+00 0. -1.
</event>
<event>
 5    1  0.1691066E-003  0.9118800E+02  0.7818608E-02  0.1130116E+00
         25   -1    0    0    0    0  0.00000000000E+00  0.00000000000E+00  0.99999998245E-14  0.12500000000E+03  0.12500000000E+03 0.  0.
        -13    1    3    3    0    0 -0.29919419523E+02 -0.13547055056E+02 -0.12782647085E+02  0.35243461745E+02  0.10566000000E+00 0.  1.
         23    2    1    0    0    0  0.27151760056E+02  0.62810404548E+01 -0.87258541452E+01  0.95797087921E+02  0.91237448344E+02 0.  0.
         13    1    3    3    0    0  0.57071179578E+02  0.19828095511E+02  0.40567929394E+01  0.60553626176E+02  0.10566000000E+00 0. -1.
         22    1    1    0    0    0 -0.27151760056E+02 -0.62810404548E+01  0.87258541452E+01  0.29202912079E+02  0.00000000000E+00 0. -1.
</event>
<event>
 5    1  0.1691066E-003  0.9118800E+02  0.7818608E-02  0.1130116E+00
         25   -1    0    0    0    0  0.00000000000E+00  0.00000000000E+00  0.99999998245E-14  0.12500000000E+03  0.12500000000E+03 0.  0.
        -13    1    3    3    0    0 -0.36718188331E+00 -0.17582517676E+02 -0.38093025880E+02  0.41956757919E+02  0.10566000000E+00 0.  1.
         23    2    1    0    0    0 -0.11533145486E+02 -0.30258417020E+02  0.85029387628E+01  0.91520376153E+02  0.85176839799E+02 0.  0.
         13    1    3    3    0    0 -0.11165963603E+02 -0.12675899344E+02  0.46595964643E+02  0.49563618233E+02  0.10566000000E+00 0. -1.
         22    1    1    0    0    0  0.11533145486E+02  0.30258417020E+02 -0.85029387628E+01  0.33479623847E+02  0.00000000000E+00 0.  1.
</event>
<event>
 5    1  0.1691066E-003  0.9118800E+02  0.7818608E-02  0.1130116E+00
         25   -1    0    0    0    0  0.00000000000E+00  0.00000000000E+00  0.99999998245E-14  0.12500000000E+03  0.12500000000E+03 0.  0.
        -13    1    3    3    0    0 -0.48706811192E+00  0.26616868947E+02 -0.22550463708E+02  0.34888816623E+02  0.10566000000E+00 0.  1.
         23    2    1    0    0    0  0.19135706927E+02 -0.12368449973E+02  0.19137416128E+02  0.95244420181E+02  0.90477096799E+02 0.  0.
         13    1    3    3    0    0  0.19622775039E+02 -0.38985318920E+02  0.41687879836E+02  0.60355603557E+02  0.10566000000E+00 0. -1.
         22    1    1    0    0    0 -0.19135706927E+02  0.12368449973E+02 -0.19137416128E+02  0.29755579819E+02  0.00000000000E+00 0. -1.
</event>
<event>
 5    1  0.1691066E-003  0.9118800E+02  0.7818608E-02  0.1130116E+00
         25   -1    0    0    0    0  0.00000000000E+00  0.00000000000E+00  0.99999998245E-14  0.12500000000E+03  0.12500000000E+03 0.  0.
        -13    1    3    3    0    0 -0.62322728230E+00  0.20185497188E+02  0.92493729917E+01  0.22212716488E+02  0.10566000000E+00 0.  1.
         23    2    1    0    0    0  0.48021258021E+02 -0.35425161715E+01  0.21408957883E+01  0.76800683848E+02  0.59792733355E+02 0.  0.
         13    1    3    3    0    0  0.48644485303E+02 -0.23728013360E+02 -0.71084772035E+01  0.54587967361E+02  0.10566000000E+00 0. -1.
         22    1    1    0    0    0 -0.48021258021E+02  0.35425161715E+01 -0.21408957883E+01  0.48199316152E+02  0.00000000000E+00 0. -1.
</event>
<event>
 5    1  0.1691066E-003  0.9118800E+02  0.7818608E-02  0.1130116E+00
         25   -1    0    0    0    0  0.00000000000E+00  0.00000000000E+00  0.99999998245E-14  0.12500000000E+03  0.12500000000E+03 0.  0.
        -13    1    3    3    0    0 -0.12715101723E+02 -0.12776043265E+02 -0.30551695421E+02  0.35472783236E+02  0.10566000000E+00 0. -1.
         23    2    1    0    0    0  0.87140125225E+01 -0.17677048447E+02  0.23798623217E+02  0.94100379888E+02  0.88882478431E+02 0.  0.
         13    1    3    3    0    0  0.21429114245E+02 -0.49010051815E+01  0.54350318638E+02  0.58627596652E+02  0.10566000000E+00 0.  1.
         22    1    1    0    0    0 -0.87140125225E+01  0.17677048447E+02 -0.23798623217E+02  0.30899620112E+02  0.00000000000E+00 0.  1.
</event>
<event>
 5    1  0.1691066E-003  0.9118800E+02  0.7818608E-02  0.1130116E+00
         25   -1    0    0    0    0  0.00000000000E+00  0.00000000000E+00  0.99999998245E-14  0.12500000000E+03  0.12500000000E+03 0.  0.
        -13    1    3    3    0    0  0.27857205795E+02  0.12968173335E+02  0.15391940682E+02  0.34367432786E+02  0.10566000000E+00 0.  1.
         23    2    1    0    0    0 -0.28342344482E+02 -0.10988366941E+01 -0.57893856571E+01  0.96051547207E+02  0.91585407145E+02 0.  0.
         13    1    3    3    0    0 -0.56199550276E+02 -0.14067010029E+02 -0.21181326339E+02  0.61684114421E+02  0.10566000000E+00 0. -1.
         22    1    1    0    0    0  0.28342344482E+02  0.10988366941E+01  0.57893856571E+01  0.28948452793E+02  0.00000000000E+00 0. -1.
</event>
<event>
 5    1  0.1691066E-003  0.9118800E+02  0.7818608E-02  0.1130116E+00
         25   -1    0    0    0    0  0.00000000000E+00  0.00000000000E+00  0.99999998245E-14  0.12500000000E+03  0.12500000000E+03 0.  0.
        -13    1    3    3    0    0  0.11145146361E+02  0.37688593636E+02  0.36725606950E+02  0.53790573037E+02  0.10566000000E+00 0. -1.
         23    2    1    0    0    0  0.69723285839E+01 -0.24056515927E+01  0.29307839512E+02  0.94778319333E+02  0.89830840102E+02 0.  0.
         13    1    3    3    0    0 -0.41728177773E+01 -0.40094245229E+02 -0.74177674387E+01  0.40987746297E+02  0.10566000000E+00 0.  1.
         22    1    1    0    0    0 -0.69723285839E+01  0.24056515927E+01 -0.29307839512E+02  0.30221680667E+02  0.00000000000E+00 0. -1.
</event>
<event>
 5    1  0.1691066E-003  0.9118800E+02  0.7818608E-02  0.1130116E+00
         25   -1    0    0    0    0  0.00000000000E+00  0.00000000000E+00  0.99999998245E-14  0.12500000000E+03  0.12500000000E+03 0.  0.
        -13    1    3    3    0    0  0.12399119351E+02 -0.52206477342E+02  0.16305312346E+02  0.56081448019E+02  0.10566000000E+00 0.  1.
         23    2    1    0    0    0 -0.32940814646E+01 -0.16143886379E+02  0.23735217488E+02  0.96106461114E+02  0.91660325542E+02 0.  0.
         13    1    3    3    0    0 -0.15693200816E+02  0.36062590963E+02  0.74299051429E+01  0.40025013095E+02  0.10566000000E+00 0. -1.
         22    1    1    0    0    0  0.32940814646E+01  0.16143886379E+02 -0.23735217488E+02  0.28893538886E+02  0.00000000000E+00 0.  1.
</event>
<event>
 5    1  0.1691066E-003  0.9118800E+02  0.7818608E-02  0.1130116E+00
         25   -1    0    0    0    0  0.00000000000E+00  0.00000000000E+00  0.99999998245E-14  0.12500000000E+03  0.12500000000E+03 0.  0.
        -13    1    3    3    0    0 -0.29789853127E+02 -0.30635637303E+01  0.20620354560E+02  0.36359743650E+02  0.10566000000E+00 0. -1.
         23    2    1    0    0    0  0.10267141247E+02 -0.26656390509E+02 -0.12883876438E+02  0.93663573649E+02  0.88266037706E+02 0.  0.
         13    1    3    3    0    0  0.40056994374E+02 -0.23592826779E+02 -0.33504230998E+02  0.57303829999E+02  0.10566000000E+00 0.  1.
         22    1    1    0    0    0 -0.10267141247E+02  0.26656390509E+02  0.12883876438E+02  0.31336426351E+02  0.00000000000E+00 0.  1.
</event>
<event>
 5    1  0.1691066E-003  0.9118800E+02  0.7818608E-02  0.1130116E+00
         25   -1    0    0    0    0  0.00000000000E+00  0.00000000000E+00  0.99999998245E-14  0.12500000000E+03  0.12500000000E+03 0.  0.
        -13    1    3    3    0    0  0.46148434470E+02 -0.41779819525E+01 -0.38066102191E+02  0.59968098497E+02  0.10566000000E+00 0. -1.
         23    2    1    0    0    0  0.12851477585E+02 -0.29433965001E+01 -0.26785000010E+02  0.95146017274E+02  0.90341044485E+02 0.  0.
         13    1    3    3    0    0 -0.33296956885E+02  0.12345854524E+01  0.11281102182E+02  0.35177918778E+02  0.10566000000E+00 0.  1.
         22    1    1    0    0    0 -0.12851477585E+02  0.29433965001E+01  0.26785000010E+02  0.29853982726E+02  0.00000000000E+00 0. -1.
</event>
<event>
 5    1  0.1691066E-003  0.9118800E+02  0.7818608E-02  0.1130116E+00
         25   -1    0    0    0    0  0.00000000000E+00  0.00000000000E+00  0.99999998245E-14  0.12500000000E+03  0.12500000000E+03 0.  0.
        -13    1    3    3    0    0  0.22978737283E+02 -0.31200119112E+02  0.24978188631E+02  0.46101961683E+02  0.10566000000E+00 0. -1.
         23    2    1    0    0    0  0.24082364348E+02  0.15165839716E+02  0.93324620477E+01  0.95049076563E+02  0.90206813161E+02 0.  0.
         13    1    3    3    0    0  0.11036270652E+01  0.46365958827E+02 -0.15645726584E+02  0.48947114880E+02  0.10566000000E+00 0.  1.
         22    1    1    0    0    0 -0.24082364348E+02 -0.15165839716E+02 -0.93324620477E+01  0.29950923437E+02  0.00000000000E+00 0.  1.
</event>
<event>
 5    1  0.1691066E-003  0.9118800E+02  0.7818608E-02  0.1130116E+00
         25   -1    0    0    0    0  0.00000000000E+00  0.00000000000E+00  0.99999998245E-14  0.12500000000E+03  0.12500000000E+03 0.  0.
        -13    1    3    3    0    0  0.28658519448E+02 -0.37490775384E+02  0.93593224927E+01  0.48109012226E+02  0.10566000000E+00 0.  1.
         23    2    1    0    0    0 -0.12430391835E+02 -0.24135836869E+02 -0.10795347080E+02  0.95783689810E+02  0.91219090395E+02 0.  0.
         13    1    3    3    0    0 -0.41088911283E+02  0.13354938515E+02 -0.20154669572E+02  0.47674677584E+02  0.10566000000E+00 0. -1.
         22    1    1    0    0    0  0.12430391835E+02  0.24135836869E+02  0.10795347080E+02  0.29216310190E+02  0.00000000000E+00 0.  1.
</event>
<event>
 5    1  0.1691066E-003  0.9118800E+02  0.7818608E-02  0.1130116E+00
         25   -1    0    0    0    0  0.00000000000E+00  0.00000000000E+00  0.99999998245E-14  0.12500000000E+03  0.12500000000E+03 0.  0.
        -13    1    3    3    0    0 -0.52822544053E+02 -0.10006346234E+02  0.37099893274E+01  0.53889918445E+02  0.10566000000E+00 0.  1.
         23    2    1    0    0    0 -0.11739317316E+02 -0.22978467224E+02  0.97944340800E+01  0.97400136487E+02  0.93407891111E+02 0.  0.
         13    1    3    3    0    0  0.41083226737E+02 -0.12972120990E+02  0.60844447526E+01  0.43510218042E+02  0.10566000000E+00 0. -1.
         22    1    1    0    0    0  0.11739317316E+02  0.22978467224E+02 -0.97944340800E+01  0.27599863513E+02  0.00000000000E+00 0.  1.
</event>
<event>
 5    1  0.1691066E-003  0.9118800E+02  0.7818608E-02  0.1130116E+00
         25   -1    0    0    0    0  0.00000000000E+00  0.00000000000E+00  0.99999998245E-14  0.12500000000E+03  0.12500000000E+03 0.  0.
        -13    1    3    3    0    0  0.29773636620E+02  0.15957985446E+02  0.11823314873E+02  0.35790063924E+02  0.10566000000E+00 0. -1.
         23    2    1    0    0    0 -0.52569499450E+01 -0.28753112746E+02 -0.56753683449E+01  0.95224392178E+02  0.90449422577E+02 0.  0.
         13    1    3    3    0    0 -0.35030586565E+02 -0.44711098192E+02 -0.17498683218E+02  0.59434328254E+02  0.10566000000E+00 0.  1.
         22    1    1    0    0    0  0.52569499450E+01  0.28753112746E+02  0.56753683449E+01  0.29775607822E+02  0.00000000000E+00 0.  1.
</event>
<event>
 5    1  0.1691066E-003  0.9118800E+02  0.7818608E-02  0.1130116E+00
         25   -1    0    0    0    0  0.00000000000E+00  0.00000000000E+00  0.99999998245E-14  0.12500000000E+03  0.12500000000E+03 0.  0.
        -13    1    3    3    0    0  0.18627814292E+02  0.28520502862E+01  0.29309326408E+02  0.34845048926E+02  0.10566000000E+00 0. -1.
         23    2    1    0    0    0 -0.16075834734E+02 -0.25273525462E+02 -0.90337510378E+01  0.93714344989E+02  0.88337909457E+02 0.  0.
         13    1    3    3    0    0 -0.34703649026E+02 -0.28125575748E+02 -0.38343077446E+02  0.58869296063E+02  0.10566000000E+00 0.  1.
         22    1    1    0    0    0  0.16075834734E+02  0.25273525462E+02  0.90337510378E+01  0.31285655011E+02  0.00000000000E+00 0.  1.
</event>
<event>
 5    1  0.1691066E-003  0.9118800E+02  0.7818608E-02  0.1130116E+00
         25   -1    0    0    0    0  0.00000000000E+00  0.00000000000E+00  0.99999998245E-14  0.12500000000E+03  0.12500000000E+03 0.  0.
        -13    1    3    3    0    0 -0.16178604520E+02  0.63032905459E+00 -0.44251142342E+02  0.47120264447E+02  0.10566000000E+00 0.  1.
         23    2    1    0    0    0  0.12723940427E+02  0.23047103554E+02 -0.11299243262E+02  0.96351430393E+02  0.91993791085E+02 0.  0.
         13    1    3    3    0    0  0.28902544947E+02  0.22416774500E+02  0.32951899080E+02  0.49231165946E+02  0.10566000000E+00 0. -1.
         22    1    1    0    0    0 -0.12723940427E+02 -0.23047103554E+02  0.11299243262E+02  0.28648569607E+02  0.00000000000E+00 0.  1.
</event>
<event>
 5    1  0.1691066E-003  0.9118800E+02  0.7818608E-02  0.1130116E+00
         25   -1    0    0    0    0  0.00000000000E+00  0.00000000000E+00  0.99999998245E-14  0.12500000000E+03  0.12500000000E+03 0.  0.
        -13    1    3    3    0    0  0.15197512469E+02  0.36841359463E+02 -0.44557914532E+02  0.59780172832E+02  0.10566000000E+00 0. -1.
         23    2    1    0    0    0  0.19706502650E+02  0.14241919379E+02 -0.19425260813E+02  0.93878957731E+02  0.88570533659E+02 0.  0.
         13    1    3    3    0    0  0.45089901806E+01 -0.22599440084E+02  0.25132653719E+02  0.34098784899E+02  0.10566000000E+00 0.  1.
         22    1    1    0    0    0 -0.19706502650E+02 -0.14241919379E+02  0.19425260813E+02  0.31121042269E+02  0.00000000000E+00 0. -1.
</event>
<event>
 5    1  0.1691066E-003  0.9118800E+02  0.7818608E-02  0.1130116E+00
         25   -1    0    0    0    0  0.00000000000E+00  0.00000000000E+00  0.99999998245E-14  0.12500000000E+03  0.12500000000E+03 0.  0.
        -13    1    3    3    0    0 -0.22853905366E+02 -0.19685490835E+02  0.29262968956E+02  0.42025611906E+02  0.10566000000E+00 0.  1.
         23    2    1    0    0    0  0.23331578923E+02  0.56334142887E+01  0.15374040635E+02  0.96496332569E+02  0.92190472079E+02 0.  0.
         13    1    3    3    0    0  0.46185484289E+02  0.25318905124E+02 -0.13888928320E+02  0.54470720663E+02  0.10566000000E+00 0. -1.
         22    1    1    0    0    0 -0.23331578923E+02 -0.56334142887E+01 -0.15374040635E+02  0.28503667431E+02  0.00000000000E+00 0. -1.
</event>
<event>
 5    1  0.1691066E-003  0.9118800E+02  0.7818608E-02  0.1130116E+00
         25   -1    0    0    0    0  0.00000000000E+00  0.00000000000E+00  0.99999998245E-14  0.12500000000E+03  0.12500000000E+03 0.  0.
        -13    1    3    3    0    0  0.37739954890E+02 -0.41961821963E+01  0.12379097723E+02  0.39939521336E+02  0.10566000000E+00 0.  1.
         23    2    1    0    0    0 -0.51265002308E+01  0.26931529342E+02  0.16376000925E+02  0.93066292360E+02  0.87416091711E+02 0.  0.
         13    1    3    3    0    0 -0.42866455121E+02  0.31127711538E+02  0.39969032024E+01  0.53126771024E+02  0.10566000000E+00 0. -1.
         22    1    1    0    0    0  0.51265002308E+01 -0.26931529342E+02 -0.16376000925E+02  0.31933707640E+02  0.00000000000E+00 0. -1.
</event>
<event>
 5    1  0.1691066E-003  0.9118800E+02  0.7818608E-02  0.1130116E+00
         25   -1    0    0    0    0  0.00000000000E+00  0.00000000000E+00  0.99999998245E-14  0.12500000000E+03  0.12500000000E+03 0.  0.
        -13    1    3    3    0    0 -0.55242406335E+01 -0.48412534396E+02  0.27473888365E+02  0.55938505765E+02  0.10566000000E+00 0. -1.
         23    2    1    0    0    0 -0.17550333178E+02 -0.11098806197E+02  0.20617919543E+02  0.95737459099E+02  0.91155717181E+02 0.  0.
         13    1    3    3    0    0 -0.12026092545E+02  0.37313728199E+02 -0.68559688222E+01  0.39798953335E+02  0.10566000000E+00 0.  1.
         22    1    1    0    0    0  0.17550333178E+02  0.11098806197E+02 -0.20617919543E+02  0.29262540901E+02  0.00000000000E+00 0. -1.
</event>
<event>
 5    1  0.1691066E-003  0.9118800E+02  0.7818608E-02  0.1130116E+00
         25   -1    0    0    0    0  0.00000000000E+00  0.00000000000E+00  0.99999998245E-14  0.12500000000E+03  0.12500000000E+03 0.  0.
        -13    1    3    3    0    0 -0.20366020903E+02  0.81783951171E+01  0.54681388954E+01  0.22617972082E+02  0.10566000000E+00 0. -1.
         23    2    1    0    0    0  0.38605816230E+02 -0.94641816805E+01  0.88957628095E+01  0.84267772249E+02  0.73769526650E+02 0.  0.
         13    1    3    3    0    0  0.58971837132E+02 -0.17642576798E+02  0.34276239142E+01  0.61649800166E+02  0.10566000000E+00 0.  1.
         22    1    1    0    0    0 -0.38605816230E+02  0.94641816805E+01 -0.88957628095E+01  0.40732227751E+02  0.00000000000E+00 0.  1.
</event>
<event>
 5    1  0.1691066E-003  0.9118800E+02  0.7818608E-02  0.1130116E+00
         25   -1    0    0    0    0  0.00000000000E+00  0.00000000000E+00  0.99999998245E-14  0.12500000000E+03  0.12500000000E+03 0.  0.
        -13    1    3    3    0    0 -0.27178287482E+02  0.22553860624E+02 -0.21019662079E+02  0.41099553494E+02  0.10566000000E+00 0.  1.
         23    2    1    0    0    0 -0.19460551625E+02 -0.41496314175E+00  0.25123685441E+02  0.93218168176E+02  0.87632996319E+02 0.  0.
         13    1    3    3    0    0  0.77177358566E+01 -0.22968823766E+02  0.46143347520E+02  0.52118614682E+02  0.10566000000E+00 0. -1.
         22    1    1    0    0    0  0.19460551625E+02  0.41496314175E+00 -0.25123685441E+02  0.31781831824E+02  0.00000000000E+00 0. -1.
</event>
<event>
 5    1  0.1691066E-003  0.9118800E+02  0.7818608E-02  0.1130116E+00
         25   -1    0    0    0    0  0.00000000000E+00  0.00000000000E+00  0.99999998245E-14  0.12500000000E+03  0.12500000000E+03 0.  0.
        -13    1    3    3    0    0 -0.25424772042E+02 -0.17189923136E+02  0.13883409665E+02  0.33684903426E+02  0.10566000000E+00 0. -1.
         23    2    1    0    0    0  0.15471535820E+02  0.25768074315E+02 -0.13221782849E+01  0.94914950059E+02  0.90020761576E+02 0.  0.
         13    1    3    3    0    0  0.40896307862E+02  0.42957997451E+02 -0.15205587950E+02  0.61230046633E+02  0.10566000000E+00 0.  1.
         22    1    1    0    0    0 -0.15471535820E+02 -0.25768074315E+02  0.13221782849E+01  0.30085049941E+02  0.00000000000E+00 0.  1.
</event>
<event>
 5    1  0.1691066E-003  0.9118800E+02  0.7818608E-02  0.1130116E+00
         25   -1    0    0    0    0  0.00000000000E+00  0.00000000000E+00  0.99999998245E-14  0.12500000000E+03  0.12500000000E+03 0.  0.
        -13    1    3    3    0    0 -0.10970530177E+02  0.29731738503E+02  0.52125922068E+02  0.61003702529E+02  0.10566000000E+00 0.  1.
         23    2    1    0    0    0 -0.13006289533E+02  0.17299092525E+02  0.19923722012E+02  0.95582711402E+02  0.90943267209E+02 0.  0.
         13    1    3    3    0    0 -0.20357593563E+01 -0.12432645978E+02 -0.32202200056E+02  0.34579008873E+02  0.10566000000E+00 0. -1.
         22    1    1    0    0    0  0.13006289533E+02 -0.17299092525E+02 -0.19923722012E+02  0.29417288598E+02  0.00000000000E+00 0.  1.
</event>
<event>
 5    1  0.1691066E-003  0.9118800E+02  0.7818608E-02  0.1130116E+00
         25   -1    0    0    0    0  0.00000000000E+00  0.00000000000E+00  0.99999998245E-14  0.12500000000E+03  0.12500000000E+03 0.  0.
        -13    1    3    3    0    0 -0.54631670463E+02 -0.25854501274E+02 -0.15511784489E+02  0.62399529451E+02  0.10566000000E+00 0.  1.
         23    2    1    0    0    0 -0.25841790398E+02 -0.95748025286E+01 -0.63458788738E+01  0.96720234210E+02  0.92493559519E+02 0.  0.
         13    1    3    3    0    0  0.28789880065E+02  0.16279698745E+02  0.91659056148E+01  0.34320704759E+02  0.10566000000E+00 0. -1.
         22    1    1    0    0    0  0.25841790398E+02  0.95748025286E+01  0.63458788738E+01  0.28279765790E+02  0.00000000000E+00 0.  1.
</event>
<event>
 5    1  0.1691066E-003  0.9118800E+02  0.7818608E-02  0.1130116E+00
         25   -1    0    0    0    0  0.00000000000E+00  0.00000000000E+00  0.99999998245E-14  0.12500000000E+03  0.12500000000E+03 0.  0.
        -13    1    3    3    0    0 -0.33252584779E+02  0.41186673292E+02 -0.15446078394E+02  0.55142261045E+02  0.10566000000E+00 0.  1.
         23    2    1    0    0    0 -0.34311439804E+02  0.12998138431E+02 -0.19182347305E+02  0.83597234969E+02  0.72624436261E+02 0.  0.
         13    1    3    3    0    0 -0.10588550250E+01 -0.28188534861E+02 -0.37362689111E+01  0.28454973924E+02  0.10566000000E+00 0. -1.
         22    1    1    0    0    0  0.34311439804E+02 -0.12998138431E+02  0.19182347305E+02  0.41402765031E+02  0.00000000000E+00 0.  1.
</event>
<event>
 5    1  0.1691066E-003  0.9118800E+02  0.7818608E-02  0.1130116E+00
         25   -1    0    0    0    0  0.00000000000E+00  0.00000000000E+00  0.99999998245E-14  0.12500000000E+03  0.12500000000E+03 0.  0.
        -13    1    3    3    0    0  0.97143438570E+01  0.34244549169E+02  0.21401632061E+02  0.41534306824E+02  0.10566000000E+00 0. -1.
         23    2    1    0    0    0 -0.27584401772E+01 -0.22249394223E+02  0.97573475302E+01  0.10054902116E+03  0.97530791494E+02 0.  0.
         13    1    3    3    0    0 -0.12472784034E+02 -0.56493943393E+02 -0.11644284531E+02  0.59014714334E+02  0.10566000000E+00 0.  1.
         22    1    1    0    0    0  0.27584401772E+01  0.22249394223E+02 -0.97573475302E+01  0.24450978842E+02  0.00000000000E+00 0.  1.
</event>
<event>
 5    1  0.1691066E-003  0.9118800E+02  0.7818608E-02  0.1130116E+00
         25   -1    0    0    0    0  0.00000000000E+00  0.00000000000E+00  0.99999998245E-14  0.12500000000E+03  0.12500000000E+03 0.  0.
        -13    1    3    3    0    0  0.18373768336E+02 -0.30842106302E+02 -0.24766066072E+02  0.43614218744E+02  0.10566000000E+00 0.  1.
         23    2    1    0    0    0  0.45272392918E+01  0.18672483756E+02 -0.22961586978E+02  0.95060193358E+02  0.90222216441E+02 0.  0.
         13    1    3    3    0    0 -0.13846529044E+02  0.49514590057E+02  0.18044790940E+01  0.51445974614E+02  0.10566000000E+00 0. -1.
         22    1    1    0    0    0 -0.45272392918E+01 -0.18672483756E+02  0.22961586978E+02  0.29939806642E+02  0.00000000000E+00 0. -1.
</event>
<event>
 5    1  0.1691066E-003  0.9118800E+02  0.7818608E-02  0.1130116E+00
         25   -1    0    0    0    0  0.00000000000E+00  0.00000000000E+00  0.99999998245E-14  0.12500000000E+03  0.12500000000E+03 0.  0.
        -13    1    3    3    0    0 -0.24223207285E+02  0.52764198756E+02 -0.14273543460E+02  0.59787704827E+02  0.10566000000E+00 0. -1.
         23    2    1    0    0    0 -0.94082856614E+01  0.19019148204E+02 -0.18455088435E+02  0.96878226823E+02  0.92706832033E+02 0.  0.
         13    1    3    3    0    0  0.14814921624E+02 -0.33745050552E+02 -0.41815449751E+01  0.37090521995E+02  0.10566000000E+00 0.  1.
         22    1    1    0    0    0  0.94082856614E+01 -0.19019148204E+02  0.18455088435E+02  0.28121773177E+02  0.00000000000E+00 0. -1.
</event>
<event>
 5    1  0.1691066E-003  0.9118800E+02  0.7818608E-02  0.1130116E+00
         25   -1    0    0    0    0  0.00000000000E+00  0.00000000000E+00  0.99999998245E-14  0.12500000000E+03  0.12500000000E+03 0.  0.
        -13    1    3    3    0    0 -0.34513455637E+02  0.21364047548E+02  0.22374161459E+02  0.46348844783E+02  0.10566000000E+00 0.  1.
         23    2    1    0    0    0 -0.44509157403E+01 -0.77990038666E+01  0.34014560609E+02  0.89820098840E+02  0.82643963542E+02 0.  0.
         13    1    3    3    0    0  0.30062539897E+02 -0.29163051415E+02  0.11640399150E+02  0.43471254057E+02  0.10566000000E+00 0. -1.
         22    1    1    0    0    0  0.44509157403E+01  0.77990038666E+01 -0.34014560609E+02  0.35179901160E+02  0.00000000000E+00 0. -1.
</event>
<event>
 5    1  0.1691066E-003  0.9118800E+02  0.7818608E-02  0.1130116E+00
         25   -1    0    0    0    0  0.00000000000E+00  0.00000000000E+00  0.99999998245E-14  0.12500000000E+03  0.12500000000E+03 0.  0.
        -13    1    3    3    0    0 -0.37865016850E+02  0.27587492188E+02  0.26412553660E+02  0.53781626799E+02  0.10566000000E+00 0.  1.
         23    2    1    0    0    0 -0.21401938237E+02 -0.10177051701E+02  0.16406763967E+02  0.96176446341E+02  0.91755716908E+02 0.  0.
         13    1    3    3    0    0  0.16463078613E+02 -0.37764543890E+02 -0.10005789693E+02  0.42394819542E+02  0.10566000000E+00 0. -1.
         22    1    1    0    0    0  0.21401938237E+02  0.10177051701E+02 -0.16406763967E+02  0.28823553659E+02  0.00000000000E+00 0.  1.
</event>
<event>
 5    1  0.1691066E-003  0.9118800E+02  0.7818608E-02  0.1130116E+00
         25   -1    0    0    0    0  0.00000000000E+00  0.00000000000E+00  0.99999998245E-14  0.12500000000E+03  0.12500000000E+03 0.  0.
        -13    1    3    3    0    0 -0.33860261032E+02  0.33109167361E+02  0.21785769047E+02  0.52128352530E+02  0.10566000000E+00 0. -1.
         23    2    1    0    0    0 -0.28445006696E+02 -0.18552883232E+01 -0.44148108773E+01  0.96154704789E+02  0.91726093329E+02 0.  0.
         13    1    3    3    0    0  0.54152543358E+01 -0.34964455685E+02 -0.26200579924E+02  0.44026352259E+02  0.10566000000E+00 0.  1.
         22    1    1    0    0    0  0.28445006696E+02  0.18552883232E+01  0.44148108773E+01  0.28845295211E+02  0.00000000000E+00 0. -1.
</event>
<event>
 5    1  0.1691066E-003  0.9118800E+02  0.7818608E-02  0.1130116E+00
         25   -1    0    0    0    0  0.00000000000E+00  0.00000000000E+00  0.99999998245E-14  0.12500000000E+03  0.12500000000E+03 0.  0.
        -13    1    3    3    0    0 -0.11298208053E+02  0.30669961097E+02 -0.41271235293E+01  0.32944503815E+02  0.10566000000E+00 0.  1.
         23    2    1    0    0    0  0.26893148427E+02 -0.15964958276E+02  0.27055224722E+01  0.93608262601E+02  0.88187672893E+02 0.  0.
         13    1    3    3    0    0  0.38191356479E+02 -0.46634919374E+02  0.68326460015E+01  0.60663758787E+02  0.10566000000E+00 0. -1.
         22    1    1    0    0    0 -0.26893148427E+02  0.15964958276E+02 -0.27055224722E+01  0.31391737399E+02  0.00000000000E+00 0. -1.
</event>
<event>
 5    1  0.1691066E-003  0.9118800E+02  0.7818608E-02  0.1130116E+00
         25   -1    0    0    0    0  0.00000000000E+00  0.00000000000E+00  0.99999998245E-14  0.12500000000E+03  0.12500000000E+03 0.  0.
        -13    1    3    3    0    0  0.10154834676E+02  0.60620993916E+02 -0.46600040373E+01  0.61642131472E+02  0.10566000000E+00 0. -1.
         23    2    1    0    0    0  0.11516216775E+02  0.26125036118E+02 -0.39922581703E+01  0.96171561155E+02  0.91749061514E+02 0.  0.
         13    1    3    3    0    0  0.13613820996E+01 -0.34495957799E+02  0.66774586703E+00  0.34529429683E+02  0.10566000000E+00 0.  1.
         22    1    1    0    0    0 -0.11516216775E+02 -0.26125036118E+02  0.39922581703E+01  0.28828438845E+02  0.00000000000E+00 0. -1.
</event>
<event>
 5    1  0.1691066E-003  0.9118800E+02  0.7818608E-02  0.1130116E+00
         25   -1    0    0    0    0  0.00000000000E+00  0.00000000000E+00  0.99999998245E-14  0.12500000000E+03  0.12500000000E+03 0.  0.
        -13    1    3    3    0    0  0.70122158538E+01 -0.71697522110E+01 -0.45765555026E+02  0.46851613727E+02  0.10566000000E+00 0.  1.
         23    2    1    0    0    0 -0.26907133279E+02 -0.47809113009E+01 -0.10828901824E+02  0.95604149122E+02  0.90972728224E+02 0.  0.
         13    1    3    3    0    0 -0.33919349132E+02  0.23888409101E+01  0.34936653202E+02  0.48752535395E+02  0.10566000000E+00 0. -1.
         22    1    1    0    0    0  0.26907133279E+02  0.47809113009E+01  0.10828901824E+02  0.29395850878E+02  0.00000000000E+00 0. -1.
</event>
<event>
 5    1  0.1691066E-003  0.9118800E+02  0.7818608E-02  0.1130116E+00
         25   -1    0    0    0    0  0.00000000000E+00  0.00000000000E+00  0.99999998245E-14  0.12500000000E+03  0.12500000000E+03 0.  0.
        -13    1    3    3    0    0  0.24672760823E+02  0.53825173770E+02  0.26069087803E+01  0.59268048689E+02  0.10566000000E+00 0. -1.
         23    2    1    0    0    0  0.72459492755E+01  0.25471172427E+02 -0.12378949217E+02  0.95767778234E+02  0.91197283723E+02 0.  0.
         13    1    3    3    0    0 -0.17426811547E+02 -0.28354001343E+02 -0.14985857997E+02  0.36499729544E+02  0.10566000000E+00 0.  1.
         22    1    1    0    0    0 -0.72459492755E+01 -0.25471172427E+02  0.12378949217E+02  0.29232221766E+02  0.00000000000E+00 0. -1.
</event>
<event>
 5    1  0.1691066E-003  0.9118800E+02  0.7818608E-02  0.1130116E+00
         25   -1    0    0    0    0  0.00000000000E+00  0.00000000000E+00  0.99999998245E-14  0.12500000000E+03  0.12500000000E+03 0.  0.
        -13    1    3    3    0    0 -0.15756371385E+02  0.23356408686E+02  0.22477942037E+02  0.36042393208E+02  0.10566000000E+00 0. -1.
         23    2    1    0    0    0 -0.23341275583E+01 -0.23322598347E+02 -0.14808776273E+02  0.97274711907E+02  0.93239894771E+02 0.  0.
         13    1    3    3    0    0  0.13422243827E+02 -0.46679007033E+02 -0.37286718310E+02  0.61232318699E+02  0.10566000000E+00 0.  1.
         22    1    1    0    0    0  0.23341275583E+01  0.23322598347E+02  0.14808776273E+02  0.27725288093E+02  0.00000000000E+00 0.  1.
</event>
<event>
 5    1  0.1691066E-003  0.9118800E+02  0.7818608E-02  0.1130116E+00
         25   -1    0    0    0    0  0.00000000000E+00  0.00000000000E+00  0.99999998245E-14  0.12500000000E+03  0.12500000000E+03 0.  0.
        -13    1    3    3    0    0 -0.39921034922E+02 -0.39160871977E+02 -0.80653055266E+01  0.56500648142E+02  0.10566000000E+00 0.  1.
         23    2    1    0    0    0 -0.28215259258E+02 -0.64496801947E+01  0.82793853500E+01  0.94896055883E+02  0.89994521894E+02 0.  0.
         13    1    3    3    0    0  0.11705775664E+02  0.32711191782E+02  0.16344690877E+02  0.38395407741E+02  0.10566000000E+00 0. -1.
         22    1    1    0    0    0  0.28215259258E+02  0.64496801947E+01 -0.82793853500E+01  0.30103944117E+02  0.00000000000E+00 0.  1.
</event>
<event>
 5    1  0.1691066E-003  0.9118800E+02  0.7818608E-02  0.1130116E+00
         25   -1    0    0    0    0  0.00000000000E+00  0.00000000000E+00  0.99999998245E-14  0.12500000000E+03  0.12500000000E+03 0.  0.
        -13    1    3    3    0    0 -0.28859425136E+02  0.51599552766E+02  0.51198117898E+01  0.59343103235E+02  0.10566000000E+00 0. -1.
         23    2    1    0    0    0 -0.18351402418E+01  0.28046394862E+02 -0.46806061448E+01  0.96506560784E+02  0.92204339355E+02 0.  0.
         13    1    3    3    0    0  0.27024284894E+02 -0.23553157903E+02 -0.98004179347E+01  0.37163457549E+02  0.10566000000E+00 0.  1.
         22    1    1    0    0    0  0.18351402418E+01 -0.28046394862E+02  0.46806061448E+01  0.28493439216E+02  0.00000000000E+00 0. -1.
</event>
<event>
 5    1  0.1691066E-003  0.9118800E+02  0.7818608E-02  0.1130116E+00
         25   -1    0    0    0    0  0.00000000000E+00  0.00000000000E+00  0.99999998245E-14  0.12500000000E+03  0.12500000000E+03 0.  0.
        -13    1    3    3    0    0 -0.19446370253E+02 -0.29498108255E+02  0.17697526803E+02  0.39515988228E+02  0.10566000000E+00 0.  1.
         23    2    1    0    0    0  0.17129038020E+02 -0.10184245588E+02 -0.20923161522E+02  0.96105338041E+02  0.91658793960E+02 0.  0.
         13    1    3    3    0    0  0.36575408273E+02  0.19313862668E+02 -0.38620688325E+02  0.56589349813E+02  0.10566000000E+00 0. -1.
         22    1    1    0    0    0 -0.17129038020E+02  0.10184245588E+02  0.20923161522E+02  0.28894661959E+02  0.00000000000E+00 0. -1.
</event>
<event>
 5    1  0.1691066E-003  0.9118800E+02  0.7818608E-02  0.1130116E+00
         25   -1    0    0    0    0  0.00000000000E+00  0.00000000000E+00  0.99999998245E-14  0.12500000000E+03  0.12500000000E+03 0.  0.
        -13    1    3    3    0    0  0.12033689615E+02 -0.32175157359E+02  0.49769997584E+02  0.60474079243E+02  0.10566000000E+00 0.  1.
         23    2    1    0    0    0 -0.55628957771E+01 -0.14821572797E+02  0.24577230905E+02  0.95765344049E+02  0.91193947235E+02 0.  0.
         13    1    3    3    0    0 -0.17596585392E+02  0.17353584562E+02 -0.25192766678E+02  0.35291264805E+02  0.10566000000E+00 0. -1.
         22    1    1    0    0    0  0.55628957771E+01  0.14821572797E+02 -0.24577230905E+02  0.29234655951E+02  0.00000000000E+00 0.  1.
</event>
<event>
 5    1  0.1691066E-003  0.9118800E+02  0.7818608E-02  0.1130116E+00
         25   -1    0    0    0    0  0.00000000000E+00  0.00000000000E+00  0.99999998245E-14  0.12500000000E+03  0.12500000000E+03 0.  0.
        -13    1    3    3    0    0  0.28201118535E+02  0.54801326678E+01  0.47843147302E+02  0.55806028783E+02  0.10566000000E+00 0. -1.
         23    2    1    0    0    0  0.64478377879E+01 -0.17077505434E+02  0.21906312850E+02  0.96485050470E+02  0.92175173542E+02 0.  0.
         13    1    3    3    0    0 -0.21753280748E+02 -0.22557638102E+02 -0.25936834452E+02  0.40679021687E+02  0.10566000000E+00 0.  1.
         22    1    1    0    0    0 -0.64478377879E+01  0.17077505434E+02 -0.21906312850E+02  0.28514949530E+02  0.00000000000E+00 0. -1.
</event>
<event>
 5    1  0.1691066E-003  0.9118800E+02  0.7818608E-02  0.1130116E+00
         25   -1    0    0    0    0  0.00000000000E+00  0.00000000000E+00  0.99999998245E-14  0.12500000000E+03  0.12500000000E+03 0.  0.
        -13    1    3    3    0    0  0.34655617484E+02  0.15516050426E+02 -0.86068187140E+01  0.38933894442E+02  0.10566000000E+00 0. -1.
         23    2    1    0    0    0  0.24706038434E-01 -0.26805317613E+02  0.95350117993E+01  0.96549303827E+02  0.92262267243E+02 0.  0.
         13    1    3    3    0    0 -0.34630911445E+02 -0.42321368039E+02  0.18141830513E+02  0.57615409385E+02  0.10566000000E+00 0.  1.
         22    1    1    0    0    0 -0.24706038434E-01  0.26805317613E+02 -0.95350117993E+01  0.28450696173E+02  0.00000000000E+00 0.  1.
</event>
<event>
 5    1  0.1691066E-003  0.9118800E+02  0.7818608E-02  0.1130116E+00
         25   -1    0    0    0    0  0.00000000000E+00  0.00000000000E+00  0.99999998245E-14  0.12500000000E+03  0.12500000000E+03 0.  0.
        -13    1    3    3    0    0 -0.16942520765E+02 -0.73298602501E+01 -0.32779128957E+02  0.37619919196E+02  0.10566000000E+00 0. -1.
         23    2    1    0    0    0 -0.15617734881E+02 -0.59619019714E+01  0.24724089102E+02  0.95154757500E+02  0.90353137052E+02 0.  0.
         13    1    3    3    0    0  0.13247858841E+01  0.13679582787E+01  0.57503218059E+02  0.57534838304E+02  0.10566000000E+00 0.  1.
         22    1    1    0    0    0  0.15617734881E+02  0.59619019714E+01 -0.24724089102E+02  0.29845242500E+02  0.00000000000E+00 0.  1.
</event>
<event>
 5    1  0.1691066E-003  0.9118800E+02  0.7818608E-02  0.1130116E+00
         25   -1    0    0    0    0  0.00000000000E+00  0.00000000000E+00  0.99999998245E-14  0.12500000000E+03  0.12500000000E+03 0.  0.
        -13    1    3    3    0    0  0.30243057556E+01 -0.14732650896E+02  0.50460838182E+02  0.52654579875E+02  0.10566000000E+00 0.  1.
         23    2    1    0    0    0  0.24689190826E+02 -0.45862627875E+01  0.14039530579E+02  0.96230252541E+02  0.91828988534E+02 0.  0.
         13    1    3    3    0    0  0.21664885070E+02  0.10146388109E+02 -0.36421307603E+02  0.43575672666E+02  0.10566000000E+00 0. -1.
         22    1    1    0    0    0 -0.24689190826E+02  0.45862627875E+01 -0.14039530579E+02  0.28769747459E+02  0.00000000000E+00 0.  1.
</event>
<event>
 5    1  0.1691066E-003  0.9118800E+02  0.7818608E-02  0.1130116E+00
         25   -1    0    0    0    0  0.00000000000E+00  0.00000000000E+00  0.99999998245E-14  0.12500000000E+03  0.12500000000E+03 0.  0.
        -13    1    3    3    0    0 -0.10439104839E+02 -0.33632172707E+02 -0.10074686358E+02  0.36627973191E+02  0.10566000000E+00 0. -1.
         23    2    1    0    0    0 -0.11206623188E+02  0.25179702470E+02 -0.10663985955E+02  0.95447903354E+02  0.90757786654E+02 0.  0.
         13    1    3    3    0    0 -0.76751834884E+00  0.58811875177E+02 -0.58929959706E+00  0.58819930163E+02  0.10566000000E+00 0.  1.
         22    1    1    0    0    0  0.11206623188E+02 -0.25179702470E+02  0.10663985955E+02  0.29552096646E+02  0.00000000000E+00 0.  1.
</event>
<event>
 5    1  0.1691066E-003  0.9118800E+02  0.7818608E-02  0.1130116E+00
         25   -1    0    0    0    0  0.00000000000E+00  0.00000000000E+00  0.99999998245E-14  0.12500000000E+03  0.12500000000E+03 0.  0.
        -13    1    3    3    0    0  0.27950707207E+02 -0.15480359883E+02  0.24268087667E+02  0.40122746897E+02  0.10566000000E+00 0.  1.
         23    2    1    0    0    0  0.18593099250E+02  0.17744645105E+02 -0.17197631555E+02  0.94075344776E+02  0.88847263289E+02 0.  0.
         13    1    3    3    0    0 -0.93576079569E+01  0.33225004989E+02 -0.41465719223E+02  0.53952597879E+02  0.10566000000E+00 0. -1.
         22    1    1    0    0    0 -0.18593099250E+02 -0.17744645105E+02  0.17197631555E+02  0.30924655224E+02  0.00000000000E+00 0. -1.
</event>
<event>
 5    1  0.1691066E-003  0.9118800E+02  0.7818608E-02  0.1130116E+00
         25   -1    0    0    0    0  0.00000000000E+00  0.00000000000E+00  0.99999998245E-14  0.12500000000E+03  0.12500000000E+03 0.  0.
        -13    1    3    3    0    0  0.10201117607E+02 -0.12435684779E+02 -0.25390467675E+02  0.30056547858E+02  0.10566000000E+00 0.  1.
         23    2    1    0    0    0  0.27741850920E+01 -0.54203457807E+01  0.34070891208E+02  0.90389280865E+02  0.83500420456E+02 0.  0.
         13    1    3    3    0    0 -0.74269325155E+01  0.70153389986E+01  0.59461358883E+02  0.60332733007E+02  0.10566000000E+00 0. -1.
         22    1    1    0    0    0 -0.27741850920E+01  0.54203457807E+01 -0.34070891208E+02  0.34610719135E+02  0.00000000000E+00 0. -1.
</event>
<event>
 5    1  0.1691066E-003  0.9118800E+02  0.7818608E-02  0.1130116E+00
         25   -1    0    0    0    0  0.00000000000E+00  0.00000000000E+00  0.99999998245E-14  0.12500000000E+03  0.12500000000E+03 0.  0.
        -13    1    3    3    0    0 -0.47636251697E+02  0.27677020077E+02 -0.17651311124E+02  0.57851619377E+02  0.10566000000E+00 0.  1.
         23    2    1    0    0    0 -0.31070732717E+02  0.18660548022E+01  0.11972675023E+01  0.93850264181E+02  0.88530029059E+02 0.  0.
         13    1    3    3    0    0  0.16565518979E+02 -0.25810965275E+02  0.18848578626E+02  0.35998644804E+02  0.10566000000E+00 0. -1.
         22    1    1    0    0    0  0.31070732717E+02 -0.18660548022E+01 -0.11972675023E+01  0.31149735819E+02  0.00000000000E+00 0.  1.
</event>
<event>
 5    1  0.1691066E-003  0.9118800E+02  0.7818608E-02  0.1130116E+00
         25   -1    0    0    0    0  0.00000000000E+00  0.00000000000E+00  0.99999998245E-14  0.12500000000E+03  0.12500000000E+03 0.  0.
        -13    1    3    3    0    0  0.30078912824E+02 -0.10217856207E+02 -0.18264748141E+02  0.36643659354E+02  0.10566000000E+00 0.  1.
         23    2    1    0    0    0 -0.10777525710E+02  0.54644996902E+01  0.24406007006E+02  0.97766399517E+02  0.93896751164E+02 0.  0.
         13    1    3    3    0    0 -0.40856438534E+02  0.15682355897E+02  0.42670755147E+02  0.61122740163E+02  0.10566000000E+00 0. -1.
         22    1    1    0    0    0  0.10777525710E+02 -0.54644996902E+01 -0.24406007006E+02  0.27233600483E+02  0.00000000000E+00 0. -1.
</event>
<event>
 5    1  0.1691066E-003  0.9118800E+02  0.7818608E-02  0.1130116E+00
         25   -1    0    0    0    0  0.00000000000E+00  0.00000000000E+00  0.99999998245E-14  0.12500000000E+03  0.12500000000E+03 0.  0.
        -13    1    3    3    0    0 -0.25894017643E+02 -0.11312177528E+02  0.24070082185E+02  0.37119341731E+02  0.10566000000E+00 0. -1.
         23    2    1    0    0    0  0.26876730915E+02 -0.95902713605E+01 -0.27347727870E+01  0.96332754725E+02  0.91968411323E+02 0.  0.
         13    1    3    3    0    0  0.52770748559E+02  0.17219061672E+01 -0.26804854972E+02  0.59213412994E+02  0.10566000000E+00 0.  1.
         22    1    1    0    0    0 -0.26876730915E+02  0.95902713605E+01  0.27347727870E+01  0.28667245275E+02  0.00000000000E+00 0.  1.
</event>
<event>
 5    1  0.1691066E-003  0.9118800E+02  0.7818608E-02  0.1130116E+00
         25   -1    0    0    0    0  0.00000000000E+00  0.00000000000E+00  0.99999998245E-14  0.12500000000E+03  0.12500000000E+03 0.  0.
        -13    1    3    3    0    0 -0.21220889994E+02 -0.32362275063E+02 -0.33924524128E+02  0.51463846735E+02  0.10566000000E+00 0.  1.
         23    2    1    0    0    0  0.10637704468E+02 -0.26814456704E+02 -0.33651624734E+01  0.95956925729E+02  0.91456172193E+02 0.  0.
         13    1    3    3    0    0  0.31858594462E+02  0.55478183593E+01  0.30559361654E+02  0.44493078994E+02  0.10566000000E+00 0. -1.
         22    1    1    0    0    0 -0.10637704468E+02  0.26814456704E+02  0.33651624734E+01  0.29043074271E+02  0.00000000000E+00 0.  1.
</event>
<event>
 5    1  0.1691066E-003  0.9118800E+02  0.7818608E-02  0.1130116E+00
         25   -1    0    0    0    0  0.00000000000E+00  0.00000000000E+00  0.99999998245E-14  0.12500000000E+03  0.12500000000E+03 0.  0.
        -13    1    3    3    0    0  0.45329263442E+02 -0.39228770211E+02 -0.12466707489E+02  0.61229637400E+02  0.10566000000E+00 0.  1.
         23    2    1    0    0    0  0.14355518670E+02 -0.23019783924E+02 -0.92550022043E+01  0.96335624305E+02  0.91972311465E+02 0.  0.
         13    1    3    3    0    0 -0.30973744772E+02  0.16208986287E+02  0.32117052851E+01  0.35105986904E+02  0.10566000000E+00 0. -1.
         22    1    1    0    0    0 -0.14355518670E+02  0.23019783924E+02  0.92550022043E+01  0.28664375695E+02  0.00000000000E+00 0.  1.
</event>
<event>
 5    1  0.1691066E-003  0.9118800E+02  0.7818608E-02  0.1130116E+00
         25   -1    0    0    0    0  0.00000000000E+00  0.00000000000E+00  0.99999998245E-14  0.12500000000E+03  0.12500000000E+03 0.  0.
        -13    1    3    3    0    0  0.21898593784E+02 -0.43074662994E+02 -0.67909799049E+01  0.48796552889E+02  0.10566000000E+00 0. -1.
         23    2    1    0    0    0 -0.18026196545E+01 -0.97746110625E+01 -0.28315032926E+02  0.94991108841E+02  0.90126451224E+02 0.  0.
         13    1    3    3    0    0 -0.23701213439E+02  0.33300051931E+02 -0.21524053021E+02  0.46194555952E+02  0.10566000000E+00 0.  1.
         22    1    1    0    0    0  0.18026196545E+01  0.97746110625E+01  0.28315032926E+02  0.30008891159E+02  0.00000000000E+00 0.  1.
</event>
<event>
 5    1  0.1691066E-003  0.9118800E+02  0.7818608E-02  0.1130116E+00
         25   -1    0    0    0    0  0.00000000000E+00  0.00000000000E+00  0.99999998245E-14  0.12500000000E+03  0.12500000000E+03 0.  0.
        -13    1    3    3    0    0  0.49493237309E+01 -0.20139450648E+02  0.48321594968E+02  0.52584037331E+02  0.10566000000E+00 0.  1.
         23    2    1    0    0    0 -0.35368888225E+01 -0.29535418335E+02  0.89577134695E+01  0.93934083800E+02  0.88648299194E+02 0.  0.
         13    1    3    3    0    0 -0.84862125534E+01 -0.93959676867E+01 -0.39363881498E+02  0.41350046468E+02  0.10566000000E+00 0. -1.
         22    1    1    0    0    0  0.35368888225E+01  0.29535418335E+02 -0.89577134695E+01  0.31065916200E+02  0.00000000000E+00 0.  1.
</event>
<event>
 5    1  0.1691066E-003  0.9118800E+02  0.7818608E-02  0.1130116E+00
         25   -1    0    0    0    0  0.00000000000E+00  0.00000000000E+00  0.99999998245E-14  0.12500000000E+03  0.12500000000E+03 0.  0.
        -13    1    3    3    0    0  0.59900205599E+02  0.10661853566E+02 -0.13589228511E+02  0.62340901884E+02  0.10566000000E+00 0.  1.
         23    2    1    0    0    0  0.27011652861E+02  0.39345236239E+01 -0.91909521910E+01  0.96197509333E+02  0.91784406809E+02 0.  0.
         13    1    3    3    0    0 -0.32888552738E+02 -0.67273299420E+01  0.43982763197E+01  0.33856607449E+02  0.10566000000E+00 0. -1.
         22    1    1    0    0    0 -0.27011652861E+02 -0.39345236239E+01  0.91909521910E+01  0.28802490667E+02  0.00000000000E+00 0.  1.
</event>
<event>
 5    1  0.1691066E-003  0.9118800E+02  0.7818608E-02  0.1130116E+00
         25   -1    0    0    0    0  0.00000000000E+00  0.00000000000E+00  0.99999998245E-14  0.12500000000E+03  0.12500000000E+03 0.  0.
        -13    1    3    3    0    0 -0.14167610352E+02  0.36833727095E+02  0.22278856490E+02  0.45318906047E+02  0.10566000000E+00 0.  1.
         23    2    1    0    0    0  0.25280806360E+02  0.61620190747E+01  0.12049318546E+02  0.96324649493E+02  0.91957394337E+02 0.  0.
         13    1    3    3    0    0  0.39448416711E+02 -0.30671708020E+02 -0.10229537944E+02  0.51005743446E+02  0.10566000000E+00 0. -1.
         22    1    1    0    0    0 -0.25280806360E+02 -0.61620190747E+01 -0.12049318546E+02  0.28675350507E+02  0.00000000000E+00 0. -1.
</event>
<event>
 5    1  0.1691066E-003  0.9118800E+02  0.7818608E-02  0.1130116E+00
         25   -1    0    0    0    0  0.00000000000E+00  0.00000000000E+00  0.99999998245E-14  0.12500000000E+03  0.12500000000E+03 0.  0.
        -13    1    3    3    0    0  0.11492733848E+02 -0.39433866297E+02 -0.15763173279E+02  0.43995471792E+02  0.10566000000E+00 0. -1.
         23    2    1    0    0    0  0.19382866663E+02  0.13752481671E+02 -0.13175266785E+02  0.97826227221E+02  0.93976363014E+02 0.  0.
         13    1    3    3    0    0  0.78901328151E+01  0.53186347968E+02  0.25879064939E+01  0.53830755429E+02  0.10566000000E+00 0.  1.
         22    1    1    0    0    0 -0.19382866663E+02 -0.13752481671E+02  0.13175266785E+02  0.27173772779E+02  0.00000000000E+00 0.  1.
</event>
<event>
 5    1  0.1691066E-003  0.9118800E+02  0.7818608E-02  0.1130116E+00
         25   -1    0    0    0    0  0.00000000000E+00  0.00000000000E+00  0.99999998245E-14  0.12500000000E+03  0.12500000000E+03 0.  0.
        -13    1    3    3    0    0  0.23988791217E+02 -0.51209764852E+02 -0.26456886868E+02  0.62433005269E+02  0.10566000000E+00 0.  1.
         23    2    1    0    0    0  0.12968794868E+02 -0.22875415593E+02 -0.12257843760E+02  0.95987433541E+02  0.91497860004E+02 0.  0.
         13    1    3    3    0    0 -0.11019996349E+02  0.28334349258E+02  0.14199043108E+02  0.33554428272E+02  0.10566000000E+00 0. -1.
         22    1    1    0    0    0 -0.12968794868E+02  0.22875415593E+02  0.12257843760E+02  0.29012566459E+02  0.00000000000E+00 0.  1.
</event>
<event>
 5    1  0.1691066E-003  0.9118800E+02  0.7818608E-02  0.1130116E+00
         25   -1    0    0    0    0  0.00000000000E+00  0.00000000000E+00  0.99999998245E-14  0.12500000000E+03  0.12500000000E+03 0.  0.
        -13    1    3    3    0    0 -0.10849241874E+02 -0.46232185618E+02 -0.37648549740E+01  0.47637236835E+02  0.10566000000E+00 0.  1.
         23    2    1    0    0    0  0.22538527956E+02 -0.15570530609E+02 -0.14186404215E+02  0.94150676986E+02  0.88953185702E+02 0.  0.
         13    1    3    3    0    0  0.33387769830E+02  0.30661655009E+02 -0.10421549241E+02  0.46513440151E+02  0.10566000000E+00 0. -1.
         22    1    1    0    0    0 -0.22538527956E+02  0.15570530609E+02  0.14186404215E+02  0.30849323014E+02  0.00000000000E+00 0.  1.
</event>
<event>
 5    1  0.1691066E-003  0.9118800E+02  0.7818608E-02  0.1130116E+00
         25   -1    0    0    0    0  0.00000000000E+00  0.00000000000E+00  0.99999998245E-14  0.12500000000E+03  0.12500000000E+03 0.  0.
        -13    1    3    3    0    0 -0.32522445962E+02 -0.52690822194E+01 -0.10688343490E+02  0.34637040425E+02  0.10566000000E+00 0. -1.
         23    2    1    0    0    0  0.17370305826E+02 -0.18539117130E+01  0.23866410192E+02  0.95423488228E+02  0.90724153659E+02 0.  0.
         13    1    3    3    0    0  0.49892751788E+02  0.34151705064E+01  0.34554753682E+02  0.60786447804E+02  0.10566000000E+00 0.  1.
         22    1    1    0    0    0 -0.17370305826E+02  0.18539117130E+01 -0.23866410192E+02  0.29576511772E+02  0.00000000000E+00 0.  1.
</event>
<event>
 5    1  0.1691066E-003  0.9118800E+02  0.7818608E-02  0.1130116E+00
         25   -1    0    0    0    0  0.00000000000E+00  0.00000000000E+00  0.99999998245E-14  0.12500000000E+03  0.12500000000E+03 0.  0.
        -13    1    3    3    0    0 -0.11709408560E+01  0.77903935888E+01  0.43735224997E+02  0.44439198962E+02  0.10566000000E+00 0. -1.
         23    2    1    0    0    0  0.32502286821E+02  0.79511267579E+01  0.16809736471E+02  0.87554221793E+02  0.79142627251E+02 0.  0.
         13    1    3    3    0    0  0.33673227677E+02  0.16073316913E+00 -0.26925488526E+02  0.43115022831E+02  0.10566000000E+00 0.  1.
         22    1    1    0    0    0 -0.32502286821E+02 -0.79511267579E+01 -0.16809736471E+02  0.37445778207E+02  0.00000000000E+00 0. -1.
</event>
<event>
 5    1  0.1691066E-003  0.9118800E+02  0.7818608E-02  0.1130116E+00
         25   -1    0    0    0    0  0.00000000000E+00  0.00000000000E+00  0.99999998245E-14  0.12500000000E+03  0.12500000000E+03 0.  0.
        -13    1    3    3    0    0  0.54751977431E+02  0.12227851824E+01 -0.24504106483E+02  0.59997805250E+02  0.10566000000E+00 0. -1.
         23    2    1    0    0    0  0.19685155239E+02 -0.15101534075E+01 -0.22265085072E+02  0.95242313373E+02  0.90474186060E+02 0.  0.
         13    1    3    3    0    0 -0.35066822191E+02 -0.27329385899E+01  0.22390214105E+01  0.35244508123E+02  0.10566000000E+00 0.  1.
         22    1    1    0    0    0 -0.19685155239E+02  0.15101534075E+01  0.22265085072E+02  0.29757686627E+02  0.00000000000E+00 0. -1.
</event>
<event>
 5    1  0.1691066E-003  0.9118800E+02  0.7818608E-02  0.1130116E+00
         25   -1    0    0    0    0  0.00000000000E+00  0.00000000000E+00  0.99999998245E-14  0.12500000000E+03  0.12500000000E+03 0.  0.
        -13    1    3    3    0    0  0.34194052333E+01 -0.18301555578E+02 -0.11646328549E+02  0.21961042813E+02  0.10566000000E+00 0. -1.
         23    2    1    0    0    0 -0.13302852176E+02  0.37963497267E+02 -0.17860241180E+02  0.80986579140E+02  0.67982680038E+02 0.  0.
         13    1    3    3    0    0 -0.16722257409E+02  0.56265052845E+02 -0.62139126310E+01  0.59025536327E+02  0.10566000000E+00 0.  1.
         22    1    1    0    0    0  0.13302852176E+02 -0.37963497267E+02  0.17860241180E+02  0.44013420860E+02  0.00000000000E+00 0.  1.
</event>
<event>
 5    1  0.1691066E-003  0.9118800E+02  0.7818608E-02  0.1130116E+00
         25   -1    0    0    0    0  0.00000000000E+00  0.00000000000E+00  0.99999998245E-14  0.12500000000E+03  0.12500000000E+03 0.  0.
        -13    1    3    3    0    0 -0.30188434017E+02 -0.51157234688E+01  0.15568629382E+02  0.34349753418E+02  0.10566000000E+00 0.  1.
         23    2    1    0    0    0  0.17401995278E+02  0.20725178519E+01 -0.23040304238E+02  0.96052109070E+02  0.91586173998E+02 0.  0.
         13    1    3    3    0    0  0.47590429295E+02  0.71882413206E+01 -0.38608933619E+02  0.61702355652E+02  0.10566000000E+00 0. -1.
         22    1    1    0    0    0 -0.17401995278E+02 -0.20725178519E+01  0.23040304238E+02  0.28947890930E+02  0.00000000000E+00 0. -1.
</event>
<event>
 5    1  0.1691066E-003  0.9118800E+02  0.7818608E-02  0.1130116E+00
         25   -1    0    0    0    0  0.00000000000E+00  0.00000000000E+00  0.99999998245E-14  0.12500000000E+03  0.12500000000E+03 0.  0.
        -13    1    3    3    0    0  0.32488928261E+02 -0.45220557839E+01  0.27019335307E+02  0.42497471602E+02  0.10566000000E+00 0. -1.
         23    2    1    0    0    0  0.19073442021E+02  0.57159323424E+00 -0.23334734921E+02  0.94856463990E+02  0.89939512993E+02 0.  0.
         13    1    3    3    0    0 -0.13415486240E+02  0.50936490181E+01 -0.50354070228E+02  0.52358992388E+02  0.10566000000E+00 0.  1.
         22    1    1    0    0    0 -0.19073442021E+02 -0.57159323424E+00  0.23334734921E+02  0.30143536010E+02  0.00000000000E+00 0.  1.
</event>
<event>
 5    1  0.1691066E-003  0.9118800E+02  0.7818608E-02  0.1130116E+00
         25   -1    0    0    0    0  0.00000000000E+00  0.00000000000E+00  0.99999998245E-14  0.12500000000E+03  0.12500000000E+03 0.  0.
        -13    1    3    3    0    0  0.15989230458E+02 -0.25137152135E+02 -0.12791812568E+02  0.32421806565E+02  0.10566000000E+00 0. -1.
         23    2    1    0    0    0 -0.25011362609E+02  0.74860987146E+01  0.18086358192E+02  0.93239548395E+02  0.87663487831E+02 0.  0.
         13    1    3    3    0    0 -0.41000593066E+02  0.32623250850E+02  0.30878170760E+02  0.60817741830E+02  0.10566000000E+00 0.  1.
         22    1    1    0    0    0  0.25011362609E+02 -0.74860987146E+01 -0.18086358192E+02  0.31760451605E+02  0.00000000000E+00 0.  1.
</event>
<event>
 5    1  0.1691066E-003  0.9118800E+02  0.7818608E-02  0.1130116E+00
         25   -1    0    0    0    0  0.00000000000E+00  0.00000000000E+00  0.99999998245E-14  0.12500000000E+03  0.12500000000E+03 0.  0.
        -13    1    3    3    0    0 -0.74621644115E+01 -0.10007344537E+02  0.33867260898E+02  0.36094783102E+02  0.10566000000E+00 0. -1.
         23    2    1    0    0    0 -0.14300845998E+02  0.16839059740E+01 -0.24809416147E+02  0.96314518217E+02  0.91943621607E+02 0.  0.
         13    1    3    3    0    0 -0.68386815865E+01  0.11691250511E+02 -0.58676677044E+02  0.60219735115E+02  0.10566000000E+00 0.  1.
         22    1    1    0    0    0  0.14300845998E+02 -0.16839059740E+01  0.24809416147E+02  0.28685481783E+02  0.00000000000E+00 0.  1.
</event>
<event>
 5    1  0.1691066E-003  0.9118800E+02  0.7818608E-02  0.1130116E+00
         25   -1    0    0    0    0  0.00000000000E+00  0.00000000000E+00  0.99999998245E-14  0.12500000000E+03  0.12500000000E+03 0.  0.
        -13    1    3    3    0    0 -0.20698961071E+02 -0.41293119953E+02 -0.12855173327E+02  0.47946171799E+02  0.10566000000E+00 0. -1.
         23    2    1    0    0    0 -0.24475695606E+02  0.63542507538E+01 -0.14648006019E+02  0.95776717187E+02  0.91209535119E+02 0.  0.
         13    1    3    3    0    0 -0.37767345348E+01  0.47647370707E+02 -0.17928326925E+01  0.47830545388E+02  0.10566000000E+00 0.  1.
         22    1    1    0    0    0  0.24475695606E+02 -0.63542507538E+01  0.14648006019E+02  0.29223282813E+02  0.00000000000E+00 0. -1.
</event>
<event>
 5    1  0.1691066E-003  0.9118800E+02  0.7818608E-02  0.1130116E+00
         25   -1    0    0    0    0  0.00000000000E+00  0.00000000000E+00  0.99999998245E-14  0.12500000000E+03  0.12500000000E+03 0.  0.
        -13    1    3    3    0    0  0.12668658009E+02 -0.52381524161E+02  0.30735253232E+01  0.53979409881E+02  0.10566000000E+00 0. -1.
         23    2    1    0    0    0 -0.68517646947E+01 -0.21016787738E+02 -0.17984371921E+02  0.96502812776E+02  0.92199258099E+02 0.  0.
         13    1    3    3    0    0 -0.19520422704E+02  0.31364736422E+02 -0.21057897244E+02  0.42523402895E+02  0.10566000000E+00 0.  1.
         22    1    1    0    0    0  0.68517646947E+01  0.21016787738E+02  0.17984371921E+02  0.28497187224E+02  0.00000000000E+00 0. -1.
</event>
<event>
 5    1  0.1691066E-003  0.9118800E+02  0.7818608E-02  0.1130116E+00
         25   -1    0    0    0    0  0.00000000000E+00  0.00000000000E+00  0.99999998245E-14  0.12500000000E+03  0.12500000000E+03 0.  0.
        -13    1    3    3    0    0 -0.17919698837E+02  0.46616204814E+02 -0.20804398674E+02  0.54101943827E+02  0.10566000000E+00 0.  1.
         23    2    1    0    0    0  0.10507921848E+02  0.16614848741E+02 -0.22059813193E+02  0.95451650158E+02  0.90762946953E+02 0.  0.
         13    1    3    3    0    0  0.28427620685E+02 -0.30001356073E+02 -0.12554145195E+01  0.41349706331E+02  0.10566000000E+00 0. -1.
         22    1    1    0    0    0 -0.10507921848E+02 -0.16614848741E+02  0.22059813193E+02  0.29548349842E+02  0.00000000000E+00 0.  1.
</event>
<event>
 5    1  0.1691066E-003  0.9118800E+02  0.7818608E-02  0.1130116E+00
         25   -1    0    0    0    0  0.00000000000E+00  0.00000000000E+00  0.99999998245E-14  0.12500000000E+03  0.12500000000E+03 0.  0.
        -13    1    3    3    0    0  0.31951340600E+02 -0.11164646266E+02 -0.18737856888E+02  0.38686637708E+02  0.10566000000E+00 0.  1.
         23    2    1    0    0    0 -0.73869204626E+01  0.27781554254E+02 -0.39585472404E+01  0.95981877267E+02  0.91490268973E+02 0.  0.
         13    1    3    3    0    0 -0.39338261063E+02  0.38946200520E+02  0.14779309647E+02  0.57295239559E+02  0.10566000000E+00 0. -1.
         22    1    1    0    0    0  0.73869204626E+01 -0.27781554254E+02  0.39585472404E+01  0.29018122733E+02  0.00000000000E+00 0.  1.
</event>
<event>
 5    1  0.1691066E-003  0.9118800E+02  0.7818608E-02  0.1130116E+00
         25   -1    0    0    0    0  0.00000000000E+00  0.00000000000E+00  0.99999998245E-14  0.12500000000E+03  0.12500000000E+03 0.  0.
        -13    1    3    3    0    0  0.11839209508E+02 -0.11772565980E+01 -0.29163983345E+02  0.31497649174E+02  0.10566000000E+00 0. -1.
         23    2    1    0    0    0  0.20566138611E+02 -0.42117750213E+02 -0.13117725729E+02  0.76328184042E+02  0.58796649653E+02 0.  0.
         13    1    3    3    0    0  0.87269291037E+01 -0.40940493615E+02  0.16046257616E+02  0.44830534868E+02  0.10566000000E+00 0.  1.
         22    1    1    0    0    0 -0.20566138611E+02  0.42117750213E+02  0.13117725729E+02  0.48671815958E+02  0.00000000000E+00 0.  1.
</event>
<event>
 5    1  0.1691066E-003  0.9118800E+02  0.7818608E-02  0.1130116E+00
         25   -1    0    0    0    0  0.00000000000E+00  0.00000000000E+00  0.99999998245E-14  0.12500000000E+03  0.12500000000E+03 0.  0.
        -13    1    3    3    0    0 -0.18164905089E+02 -0.41103578518E+02 -0.36890226232E+02  0.58140931359E+02  0.10566000000E+00 0.  1.
         23    2    1    0    0    0  0.55534932502E+01 -0.25969497726E+02 -0.11422999801E+02  0.96090814195E+02  0.91638984874E+02 0.  0.
         13    1    3    3    0    0  0.23718398339E+02  0.15134080791E+02  0.25467226431E+02  0.37949882836E+02  0.10566000000E+00 0. -1.
         22    1    1    0    0    0 -0.55534932502E+01  0.25969497726E+02  0.11422999801E+02  0.28909185805E+02  0.00000000000E+00 0.  1.
</event>
<event>
 5    1  0.1691066E-003  0.9118800E+02  0.7818608E-02  0.1130116E+00
         25   -1    0    0    0    0  0.00000000000E+00  0.00000000000E+00  0.99999998245E-14  0.12500000000E+03  0.12500000000E+03 0.  0.
        -13    1    3    3    0    0 -0.14211949752E+02  0.21484068908E+02  0.19560524239E+02  0.32344551398E+02  0.10566000000E+00 0.  1.
         23    2    1    0    0    0  0.71043887372E+01 -0.31687990585E+02  0.13058577655E+02  0.89998178090E+02  0.82912873081E+02 0.  0.
         13    1    3    3    0    0  0.21316338489E+02 -0.53172059493E+02 -0.65019465838E+01  0.57653626692E+02  0.10566000000E+00 0. -1.
         22    1    1    0    0    0 -0.71043887372E+01  0.31687990585E+02 -0.13058577655E+02  0.35001821910E+02  0.00000000000E+00 0. -1.
</event>
<event>
 5    1  0.1691066E-003  0.9118800E+02  0.7818608E-02  0.1130116E+00
         25   -1    0    0    0    0  0.00000000000E+00  0.00000000000E+00  0.99999998245E-14  0.12500000000E+03  0.12500000000E+03 0.  0.
        -13    1    3    3    0    0 -0.84942285327E+00 -0.40455717013E+02  0.19723818864E+02  0.45015850018E+02  0.10566000000E+00 0.  1.
         23    2    1    0    0    0 -0.21686418033E+02 -0.12460617185E+02 -0.16279529261E+02  0.95157232355E+02  0.90356560851E+02 0.  0.
         13    1    3    3    0    0 -0.20836995180E+02  0.27995099828E+02 -0.36003348125E+02  0.50141382338E+02  0.10566000000E+00 0. -1.
         22    1    1    0    0    0  0.21686418033E+02  0.12460617185E+02  0.16279529261E+02  0.29842767645E+02  0.00000000000E+00 0. -1.
</event>
<event>
 5    1  0.1691066E-003  0.9118800E+02  0.7818608E-02  0.1130116E+00
         25   -1    0    0    0    0  0.00000000000E+00  0.00000000000E+00  0.99999998245E-14  0.12500000000E+03  0.12500000000E+03 0.  0.
        -13    1    3    3    0    0 -0.11705292467E+02 -0.27868437735E+02  0.16523794238E+02  0.34448666645E+02  0.10566000000E+00 0.  1.
         23    2    1    0    0    0  0.85912504517E+01  0.24381297018E+02 -0.11013446284E+02  0.96901010202E+02  0.92737546606E+02 0.  0.
         13    1    3    3    0    0  0.20296542919E+02  0.52249734753E+02 -0.27537240522E+02  0.62452343558E+02  0.10566000000E+00 0. -1.
         22    1    1    0    0    0 -0.85912504517E+01 -0.24381297018E+02  0.11013446284E+02  0.28098989798E+02  0.00000000000E+00 0. -1.
</event>
<event>
 5    1  0.1691066E-003  0.9118800E+02  0.7818608E-02  0.1130116E+00
         25   -1    0    0    0    0  0.00000000000E+00  0.00000000000E+00  0.99999998245E-14  0.12500000000E+03  0.12500000000E+03 0.  0.
        -13    1    3    3    0    0 -0.37413639751E+01 -0.50548438225E+02 -0.18477448384E+02  0.53949695775E+02  0.10566000000E+00 0.  1.
         23    2    1    0    0    0 -0.60627316483E+00 -0.23501949317E+02  0.15008297561E+02  0.97108098227E+02  0.93016259637E+02 0.  0.
         13    1    3    3    0    0  0.31350908103E+01  0.27046488909E+02  0.33485745945E+02  0.43158402452E+02  0.10566000000E+00 0. -1.
         22    1    1    0    0    0  0.60627316483E+00  0.23501949317E+02 -0.15008297561E+02  0.27891901773E+02  0.00000000000E+00 0. -1.
</event>
<event>
 5    1  0.1691066E-003  0.9118800E+02  0.7818608E-02  0.1130116E+00
         25   -1    0    0    0    0  0.00000000000E+00  0.00000000000E+00  0.99999998245E-14  0.12500000000E+03  0.12500000000E+03 0.  0.
        -13    1    3    3    0    0  0.94576222358E+01  0.49016625253E+02  0.35230710100E+02  0.61100656853E+02  0.10566000000E+00 0.  1.
         23    2    1    0    0    0  0.12202938421E+02  0.23725358720E+02  0.11304725772E+02  0.96024127670E+02  0.91547976043E+02 0.  0.
         13    1    3    3    0    0  0.27453161854E+01 -0.25291266534E+02 -0.23925984328E+02  0.34923470817E+02  0.10566000000E+00 0. -1.
         22    1    1    0    0    0 -0.12202938421E+02 -0.23725358720E+02 -0.11304725772E+02  0.28975872330E+02  0.00000000000E+00 0.  1.
</event>
<event>
 5    1  0.1691066E-003  0.9118800E+02  0.7818608E-02  0.1130116E+00
         25   -1    0    0    0    0  0.00000000000E+00  0.00000000000E+00  0.99999998245E-14  0.12500000000E+03  0.12500000000E+03 0.  0.
        -13    1    3    3    0    0 -0.38679049455E+02  0.36198025839E+02  0.26332360578E+02  0.59158856641E+02  0.10566000000E+00 0.  1.
         23    2    1    0    0    0 -0.30517767482E+02  0.29661018489E+02  0.60009510377E+01  0.82021847838E+02  0.69860303173E+02 0.  0.
         13    1    3    3    0    0  0.81612819728E+01 -0.65370073495E+01 -0.20331409541E+02  0.22862991197E+02  0.10566000000E+00 0. -1.
         22    1    1    0    0    0  0.30517767482E+02 -0.29661018489E+02 -0.60009510377E+01  0.42978152162E+02  0.00000000000E+00 0.  1.
</event>
<event>
 5    1  0.1691066E-003  0.9118800E+02  0.7818608E-02  0.1130116E+00
         25   -1    0    0    0    0  0.00000000000E+00  0.00000000000E+00  0.99999998245E-14  0.12500000000E+03  0.12500000000E+03 0.  0.
        -13    1    3    3    0    0 -0.21346596632E+02  0.42000004683E+02 -0.29551972727E+02  0.55614816706E+02  0.10566000000E+00 0.  1.
         23    2    1    0    0    0 -0.56842414671E+01  0.38124028659E+01 -0.27195034801E+02  0.96956909327E+02  0.92812861887E+02 0.  0.
         13    1    3    3    0    0  0.15662355165E+02 -0.38187601817E+02  0.23569379261E+01  0.41342092621E+02  0.10566000000E+00 0. -1.
         22    1    1    0    0    0  0.56842414671E+01 -0.38124028659E+01  0.27195034801E+02  0.28043090673E+02  0.00000000000E+00 0.  1.
</event>
<event>
 5    1  0.1691066E-003  0.9118800E+02  0.7818608E-02  0.1130116E+00
         25   -1    0    0    0    0  0.00000000000E+00  0.00000000000E+00  0.99999998245E-14  0.12500000000E+03  0.12500000000E+03 0.  0.
        -13    1    3    3    0    0 -0.51164650518E+02 -0.83003162760E+00  0.24668602764E+02  0.56807231419E+02  0.10566000000E+00 0.  1.
         23    2    1    0    0    0 -0.29520373745E+02 -0.14701477291E+02  0.61163505443E+00  0.92015761370E+02  0.85900758684E+02 0.  0.
         13    1    3    3    0    0  0.21644276773E+02 -0.13871445663E+02 -0.24056967710E+02  0.35208529950E+02  0.10566000000E+00 0. -1.
         22    1    1    0    0    0  0.29520373745E+02  0.14701477291E+02 -0.61163505443E+00  0.32984238630E+02  0.00000000000E+00 0.  1.
</event>
<event>
 5    1  0.1691066E-003  0.9118800E+02  0.7818608E-02  0.1130116E+00
         25   -1    0    0    0    0  0.00000000000E+00  0.00000000000E+00  0.99999998245E-14  0.12500000000E+03  0.12500000000E+03 0.  0.
        -13    1    3    3    0    0  0.27220235268E+02 -0.38325888685E+02 -0.14462577974E+02  0.49183251999E+02  0.10566000000E+00 0. -1.
         23    2    1    0    0    0  0.18376088051E+02 -0.10674205911E+02  0.21074075226E+02  0.95071152202E+02  0.90237398292E+02 0.  0.
         13    1    3    3    0    0 -0.88441472172E+01  0.27651682774E+02  0.35536653201E+02  0.45887900202E+02  0.10566000000E+00 0.  1.
         22    1    1    0    0    0 -0.18376088051E+02  0.10674205911E+02 -0.21074075226E+02  0.29928847798E+02  0.00000000000E+00 0. -1.
</event>
<event>
 5    1  0.1691066E-003  0.9118800E+02  0.7818608E-02  0.1130116E+00
         25   -1    0    0    0    0  0.00000000000E+00  0.00000000000E+00  0.99999998245E-14  0.12500000000E+03  0.12500000000E+03 0.  0.
        -13    1    3    3    0    0  0.14480606545E+02 -0.33323262193E+02 -0.24948158435E+02  0.44074363778E+02  0.10566000000E+00 0.  1.
         23    2    1    0    0    0 -0.27291768672E+02 -0.10716621126E+02 -0.69523933073E+01  0.94866590330E+02  0.89953585713E+02 0.  0.
         13    1    3    3    0    0 -0.41772375217E+02  0.22606641067E+02  0.17995765127E+02  0.50792226553E+02  0.10566000000E+00 0. -1.
         22    1    1    0    0    0  0.27291768672E+02  0.10716621126E+02  0.69523933073E+01  0.30133409670E+02  0.00000000000E+00 0.  1.
</event>
<event>
 5    1  0.1691066E-003  0.9118800E+02  0.7818608E-02  0.1130116E+00
         25   -1    0    0    0    0  0.00000000000E+00  0.00000000000E+00  0.99999998245E-14  0.12500000000E+03  0.12500000000E+03 0.  0.
        -13    1    3    3    0    0 -0.10994749284E+02 -0.10741090564E+02  0.36921156930E+02  0.39992981026E+02  0.10566000000E+00 0. -1.
         23    2    1    0    0    0  0.59160147916E+01  0.29458888068E+02  0.38896808128E+01  0.94702228893E+02  0.89724897455E+02 0.  0.
         13    1    3    3    0    0  0.16910764076E+02  0.40199978632E+02 -0.33031476117E+02  0.54709247867E+02  0.10566000000E+00 0.  1.
         22    1    1    0    0    0 -0.59160147916E+01 -0.29458888068E+02 -0.38896808128E+01  0.30297771107E+02  0.00000000000E+00 0. -1.
</event>
<event>
 5    1  0.1691066E-003  0.9118800E+02  0.7818608E-02  0.1130116E+00
         25   -1    0    0    0    0  0.00000000000E+00  0.00000000000E+00  0.99999998245E-14  0.12500000000E+03  0.12500000000E+03 0.  0.
        -13    1    3    3    0    0  0.52822079904E+02 -0.92533922303E+01 -0.28790050359E+02  0.60866046010E+02  0.10566000000E+00 0.  1.
         23    2    1    0    0    0  0.25027429753E+02 -0.12929294570E+02 -0.81692412615E+01  0.95669548232E+02  0.91062544759E+02 0.  0.
         13    1    3    3    0    0 -0.27794650152E+02 -0.36759023400E+01  0.20620809097E+02  0.34803502222E+02  0.10566000000E+00 0. -1.
         22    1    1    0    0    0 -0.25027429753E+02  0.12929294570E+02  0.81692412615E+01  0.29330451768E+02  0.00000000000E+00 0.  1.
</event>
<event>
 5    1  0.1691066E-003  0.9118800E+02  0.7818608E-02  0.1130116E+00
         25   -1    0    0    0    0  0.00000000000E+00  0.00000000000E+00  0.99999998245E-14  0.12500000000E+03  0.12500000000E+03 0.  0.
        -13    1    3    3    0    0  0.26639920010E+02  0.14894062393E+02 -0.29537586976E+02  0.42473505166E+02  0.10566000000E+00 0. -1.
         23    2    1    0    0    0  0.12803671744E+01 -0.27464230904E+02 -0.77675005585E+01  0.96429781517E+02  0.92100192069E+02 0.  0.
         13    1    3    3    0    0 -0.25359552835E+02 -0.42358293297E+02  0.21770086417E+02  0.53956276351E+02  0.10566000000E+00 0.  1.
         22    1    1    0    0    0 -0.12803671744E+01  0.27464230904E+02  0.77675005585E+01  0.28570218483E+02  0.00000000000E+00 0. -1.
</event>
<event>
 5    1  0.1691066E-003  0.9118800E+02  0.7818608E-02  0.1130116E+00
         25   -1    0    0    0    0  0.00000000000E+00  0.00000000000E+00  0.99999998245E-14  0.12500000000E+03  0.12500000000E+03 0.  0.
        -13    1    3    3    0    0 -0.36663585637E+02  0.23452151125E+02 -0.56058100513E+00  0.43526397958E+02  0.10566000000E+00 0. -1.
         23    2    1    0    0    0  0.12242604437E+02  0.19083288576E+02 -0.18433645347E+02  0.95779244584E+02  0.91212998778E+02 0.  0.
         13    1    3    3    0    0  0.48906190074E+02 -0.43688625489E+01 -0.17873064342E+02  0.52252846626E+02  0.10566000000E+00 0.  1.
         22    1    1    0    0    0 -0.12242604437E+02 -0.19083288576E+02  0.18433645347E+02  0.29220755416E+02  0.00000000000E+00 0. -1.
</event>
<event>
 5    1  0.1691066E-003  0.9118800E+02  0.7818608E-02  0.1130116E+00
         25   -1    0    0    0    0  0.00000000000E+00  0.00000000000E+00  0.99999998245E-14  0.12500000000E+03  0.12500000000E+03 0.  0.
        -13    1    3    3    0    0  0.36545859114E+02  0.13430731214E+02  0.28762922415E+01  0.39041882388E+02  0.10566000000E+00 0.  1.
         23    2    1    0    0    0 -0.46069339809E+01 -0.15945516286E+02  0.25611767313E+02  0.94480400474E+02  0.89415323734E+02 0.  0.
         13    1    3    3    0    0 -0.41152793095E+02 -0.29376247500E+02  0.22735475072E+02  0.55438518085E+02  0.10566000000E+00 0. -1.
         22    1    1    0    0    0  0.46069339809E+01  0.15945516286E+02 -0.25611767313E+02  0.30519599526E+02  0.00000000000E+00 0.  1.
</event>
<event>
 5    1  0.1691066E-003  0.9118800E+02  0.7818608E-02  0.1130116E+00
         25   -1    0    0    0    0  0.00000000000E+00  0.00000000000E+00  0.99999998245E-14  0.12500000000E+03  0.12500000000E+03 0.  0.
        -13    1    3    3    0    0  0.35657152211E+01  0.45754800392E+02  0.26189289774E+02  0.52840383675E+02  0.10566000000E+00 0. -1.
         23    2    1    0    0    0 -0.22303010261E+02  0.21037309863E+02  0.65738101177E+01  0.93643857820E+02  0.88238112258E+02 0.  0.
         13    1    3    3    0    0 -0.25868725482E+02 -0.24717490529E+02 -0.19615479656E+02  0.40803474145E+02  0.10566000000E+00 0.  1.
         22    1    1    0    0    0  0.22303010261E+02 -0.21037309863E+02 -0.65738101177E+01  0.31356142180E+02  0.00000000000E+00 0. -1.
</event>
<event>
 5    1  0.1691066E-003  0.9118800E+02  0.7818608E-02  0.1130116E+00
         25   -1    0    0    0    0  0.00000000000E+00  0.00000000000E+00  0.99999998245E-14  0.12500000000E+03  0.12500000000E+03 0.  0.
        -13    1    3    3    0    0 -0.15379780640E+02  0.20996812008E+02  0.50464866678E+02  0.56781314708E+02  0.10566000000E+00 0. -1.
         23    2    1    0    0    0 -0.20946557218E+02  0.16644782301E+02  0.12373424890E+02  0.95522742993E+02  0.90860804247E+02 0.  0.
         13    1    3    3    0    0 -0.55667765776E+01 -0.43520297074E+01 -0.38091441788E+02  0.38741428285E+02  0.10566000000E+00 0.  1.
         22    1    1    0    0    0  0.20946557218E+02 -0.16644782301E+02 -0.12373424890E+02  0.29477257007E+02  0.00000000000E+00 0. -1.
</event>
<event>
 5    1  0.1691066E-003  0.9118800E+02  0.7818608E-02  0.1130116E+00
         25   -1    0    0    0    0  0.00000000000E+00  0.00000000000E+00  0.99999998245E-14  0.12500000000E+03  0.12500000000E+03 0.  0.
        -13    1    3    3    0    0  0.19628908423E+02  0.47706265905E+02 -0.31983591945E+02  0.60697143016E+02  0.10566000000E+00 0.  1.
         23    2    1    0    0    0  0.64861853394E+01  0.28711334478E+02 -0.69570010115E+01  0.94754154156E+02  0.89797207857E+02 0.  0.
         13    1    3    3    0    0 -0.13142723084E+02 -0.18994931428E+02  0.25026590934E+02  0.34057011140E+02  0.10566000000E+00 0. -1.
         22    1    1    0    0    0 -0.64861853394E+01 -0.28711334478E+02  0.69570010115E+01  0.30245845844E+02  0.00000000000E+00 0.  1.
</event>
<event>
 5    1  0.1691066E-003  0.9118800E+02  0.7818608E-02  0.1130116E+00
         25   -1    0    0    0    0  0.00000000000E+00  0.00000000000E+00  0.99999998245E-14  0.12500000000E+03  0.12500000000E+03 0.  0.
        -13    1    3    3    0    0 -0.12521204296E+02  0.15663863266E+02  0.52112687414E+02  0.55837984589E+02  0.10566000000E+00 0. -1.
         23    2    1    0    0    0 -0.24600310999E+02  0.98871341330E+00  0.19468781845E+02  0.93612322131E+02  0.88193426812E+02 0.  0.
         13    1    3    3    0    0 -0.12079106703E+02 -0.14675149853E+02 -0.32643905569E+02  0.37774337542E+02  0.10566000000E+00 0.  1.
         22    1    1    0    0    0  0.24600310999E+02 -0.98871341330E+00 -0.19468781845E+02  0.31387677869E+02  0.00000000000E+00 0. -1.
</event>
<event>
 5    1  0.1691066E-003  0.9118800E+02  0.7818608E-02  0.1130116E+00
         25   -1    0    0    0    0  0.00000000000E+00  0.00000000000E+00  0.99999998245E-14  0.12500000000E+03  0.12500000000E+03 0.  0.
        -13    1    3    3    0    0  0.36501841340E+02  0.45290735108E+01  0.41119961354E+02  0.55170275637E+02  0.10566000000E+00 0.  1.
         23    2    1    0    0    0  0.22010688022E+01 -0.11875297896E+02  0.26448260160E+02  0.95924617466E+02  0.91412003405E+02 0.  0.
         13    1    3    3    0    0 -0.34300772538E+02 -0.16404371407E+02 -0.14671701194E+02  0.40754341829E+02  0.10566000000E+00 0. -1.
         22    1    1    0    0    0 -0.22010688022E+01  0.11875297896E+02 -0.26448260160E+02  0.29075382534E+02  0.00000000000E+00 0.  1.
</event>
<event>
 5    1  0.1691066E-003  0.9118800E+02  0.7818608E-02  0.1130116E+00
         25   -1    0    0    0    0  0.00000000000E+00  0.00000000000E+00  0.99999998245E-14  0.12500000000E+03  0.12500000000E+03 0.  0.
        -13    1    3    3    0    0  0.27320959177E+02  0.24419650300E+02 -0.27381397602E+02  0.45743920140E+02  0.10566000000E+00 0.  1.
         23    2    1    0    0    0  0.21293205250E+02 -0.17527951701E+02  0.20568556145E+01  0.97343891530E+02  0.93332592821E+02 0.  0.
         13    1    3    3    0    0 -0.60277539271E+01 -0.41947602001E+02  0.29438253216E+02  0.51599971391E+02  0.10566000000E+00 0. -1.
         22    1    1    0    0    0 -0.21293205250E+02  0.17527951701E+02 -0.20568556145E+01  0.27656108470E+02  0.00000000000E+00 0. -1.
</event>
<event>
 5    1  0.1691066E-003  0.9118800E+02  0.7818608E-02  0.1130116E+00
         25   -1    0    0    0    0  0.00000000000E+00  0.00000000000E+00  0.99999998245E-14  0.12500000000E+03  0.12500000000E+03 0.  0.
        -13    1    3    3    0    0  0.69407592826E+01 -0.39789817094E+01 -0.33045889270E+02  0.34000711707E+02  0.10566000000E+00 0. -1.
         23    2    1    0    0    0 -0.42657562469E+01  0.83890373394E+01  0.27043883166E+02  0.96365331492E+02  0.92012677784E+02 0.  0.
         13    1    3    3    0    0 -0.11206515529E+02  0.12368019049E+02  0.60089772436E+02  0.62364619786E+02  0.10566000000E+00 0.  1.
         22    1    1    0    0    0  0.42657562469E+01 -0.83890373394E+01 -0.27043883166E+02  0.28634668508E+02  0.00000000000E+00 0.  1.
</event>
<event>
 5    1  0.1691066E-003  0.9118800E+02  0.7818608E-02  0.1130116E+00
         25   -1    0    0    0    0  0.00000000000E+00  0.00000000000E+00  0.99999998245E-14  0.12500000000E+03  0.12500000000E+03 0.  0.
        -13    1    3    3    0    0 -0.30500903444E+00 -0.20771026150E+02 -0.26503882004E+02  0.33674849416E+02  0.10566000000E+00 0. -1.
         23    2    1    0    0    0  0.42543057195E+01  0.27846666938E+02  0.10493844439E+02  0.94939115984E+02  0.90054311369E+02 0.  0.
         13    1    3    3    0    0  0.45593147539E+01  0.48617693088E+02  0.36997726443E+02  0.61264266569E+02  0.10566000000E+00 0.  1.
         22    1    1    0    0    0 -0.42543057195E+01 -0.27846666938E+02 -0.10493844439E+02  0.30060884016E+02  0.00000000000E+00 0.  1.
</event>
<event>
 5    1  0.1691066E-003  0.9118800E+02  0.7818608E-02  0.1130116E+00
         25   -1    0    0    0    0  0.00000000000E+00  0.00000000000E+00  0.99999998245E-14  0.12500000000E+03  0.12500000000E+03 0.  0.
        -13    1    3    3    0    0  0.27960378419E+02 -0.31647319369E+02 -0.54848789679E+01  0.42584394394E+02  0.10566000000E+00 0.  1.
         23    2    1    0    0    0  0.13126759009E+02  0.22112637747E+02 -0.69128631566E+01  0.98371664956E+02  0.94699082567E+02 0.  0.
         13    1    3    3    0    0 -0.14833619410E+02  0.53759957116E+02 -0.14279841887E+01  0.55787270562E+02  0.10566000000E+00 0. -1.
         22    1    1    0    0    0 -0.13126759009E+02 -0.22112637747E+02  0.69128631566E+01  0.26628335044E+02  0.00000000000E+00 0.  1.
</event>
<event>
 5    1  0.1691066E-003  0.9118800E+02  0.7818608E-02  0.1130116E+00
         25   -1    0    0    0    0  0.00000000000E+00  0.00000000000E+00  0.99999998245E-14  0.12500000000E+03  0.12500000000E+03 0.  0.
        -13    1    3    3    0    0 -0.14550430835E+02  0.29118740068E+02 -0.22023506845E+02  0.39302189232E+02  0.10566000000E+00 0. -1.
         23    2    1    0    0    0  0.70195365025E+01 -0.23060175427E+02 -0.15964280976E+02  0.96087998158E+02  0.91635143583E+02 0.  0.
         13    1    3    3    0    0  0.21569967337E+02 -0.52178915495E+02  0.60592258686E+01  0.56785808926E+02  0.10566000000E+00 0.  1.
         22    1    1    0    0    0 -0.70195365025E+01  0.23060175427E+02  0.15964280976E+02  0.28912001842E+02  0.00000000000E+00 0.  1.
</event>
<event>
 5    1  0.1691066E-003  0.9118800E+02  0.7818608E-02  0.1130116E+00
         25   -1    0    0    0    0  0.00000000000E+00  0.00000000000E+00  0.99999998245E-14  0.12500000000E+03  0.12500000000E+03 0.  0.
        -13    1    3    3    0    0  0.22856458344E+01  0.33592005708E+02 -0.20475275821E+02  0.39406790129E+02  0.10566000000E+00 0. -1.
         23    2    1    0    0    0  0.27931117522E+00 -0.23091785849E+02 -0.17171055940E+02  0.96222339384E+02  0.91818216308E+02 0.  0.
         13    1    3    3    0    0 -0.20063346592E+01 -0.56683791557E+02  0.33042198804E+01  0.56815549254E+02  0.10566000000E+00 0.  1.
         22    1    1    0    0    0 -0.27931117522E+00  0.23091785849E+02  0.17171055940E+02  0.28777660616E+02  0.00000000000E+00 0.  1.
</event>
<event>
 5    1  0.1691066E-003  0.9118800E+02  0.7818608E-02  0.1130116E+00
         25   -1    0    0    0    0  0.00000000000E+00  0.00000000000E+00  0.99999998245E-14  0.12500000000E+03  0.12500000000E+03 0.  0.
        -13    1    3    3    0    0  0.23468434473E+02  0.18891544367E+02  0.45205610286E+02  0.54325097612E+02  0.10566000000E+00 0. -1.
         23    2    1    0    0    0 -0.51253334769E+01  0.24248451080E+02  0.16295483503E+02  0.95338590633E+02  0.90607106003E+02 0.  0.
         13    1    3    3    0    0 -0.28593767950E+02  0.53569067135E+01 -0.28910126783E+02  0.41013493021E+02  0.10566000000E+00 0.  1.
         22    1    1    0    0    0  0.51253334769E+01 -0.24248451080E+02 -0.16295483503E+02  0.29661409367E+02  0.00000000000E+00 0. -1.
</event>
<event>
 5    1  0.1691066E-003  0.9118800E+02  0.7818608E-02  0.1130116E+00
         25   -1    0    0    0    0  0.00000000000E+00  0.00000000000E+00  0.99999998245E-14  0.12500000000E+03  0.12500000000E+03 0.  0.
        -13    1    3    3    0    0  0.34868778082E+02 -0.21574049174E+02  0.22057027724E+01  0.41062727277E+02  0.10566000000E+00 0.  1.
         23    2    1    0    0    0 -0.18862535112E+02 -0.20110259897E+02  0.10590206329E+02  0.95464085353E+02  0.90780071261E+02 0.  0.
         13    1    3    3    0    0 -0.53731313194E+02  0.14637892773E+01  0.83845035564E+01  0.54401358076E+02  0.10566000000E+00 0. -1.
         22    1    1    0    0    0  0.18862535112E+02  0.20110259897E+02 -0.10590206329E+02  0.29535914647E+02  0.00000000000E+00 0. -1.
</event>
<event>
 5    1  0.1691066E-003  0.9118800E+02  0.7818608E-02  0.1130116E+00
         25   -1    0    0    0    0  0.00000000000E+00  0.00000000000E+00  0.99999998245E-14  0.12500000000E+03  0.12500000000E+03 0.  0.
        -13    1    3    3    0    0  0.13066343669E+02  0.43320559672E+02 -0.24745689076E+02  0.51572866113E+02  0.10566000000E+00 0. -1.
         23    2    1    0    0    0  0.24844947627E+02  0.16697966514E+02  0.65938276004E+01  0.94347560118E+02  0.89229423564E+02 0.  0.
         13    1    3    3    0    0  0.11778603958E+02 -0.26622593158E+02  0.31339516677E+02  0.42774694005E+02  0.10566000000E+00 0.  1.
         22    1    1    0    0    0 -0.24844947627E+02 -0.16697966514E+02 -0.65938276004E+01  0.30652439882E+02  0.00000000000E+00 0. -1.
</event>
<event>
 5    1  0.1691066E-003  0.9118800E+02  0.7818608E-02  0.1130116E+00
         25   -1    0    0    0    0  0.00000000000E+00  0.00000000000E+00  0.99999998245E-14  0.12500000000E+03  0.12500000000E+03 0.  0.
        -13    1    3    3    0    0  0.29048642682E+02 -0.16094379212E+02 -0.10344186021E+00  0.33209555073E+02  0.10566000000E+00 0. -1.
         23    2    1    0    0    0 -0.27002676565E+02  0.56011884701E+01 -0.12731420057E+02  0.94625554974E+02  0.89618015731E+02 0.  0.
         13    1    3    3    0    0 -0.56051319248E+02  0.21695567682E+02 -0.12627978196E+02  0.61415999901E+02  0.10566000000E+00 0.  1.
         22    1    1    0    0    0  0.27002676565E+02 -0.56011884701E+01  0.12731420057E+02  0.30374445026E+02  0.00000000000E+00 0.  1.
</event>
<event>
 5    1  0.1691066E-003  0.9118800E+02  0.7818608E-02  0.1130116E+00
         25   -1    0    0    0    0  0.00000000000E+00  0.00000000000E+00  0.99999998245E-14  0.12500000000E+03  0.12500000000E+03 0.  0.
        -13    1    3    3    0    0 -0.25632717101E+01  0.42571506214E+01  0.36026226167E+02  0.36367483129E+02  0.10566000000E+00 0.  1.
         23    2    1    0    0    0 -0.66015354580E+01  0.24102315224E+02 -0.18090298725E+02  0.94149379625E+02  0.88951362588E+02 0.  0.
         13    1    3    3    0    0 -0.40382637479E+01  0.19845164603E+02 -0.54116524892E+02  0.57781896496E+02  0.10566000000E+00 0. -1.
         22    1    1    0    0    0  0.66015354580E+01 -0.24102315224E+02  0.18090298725E+02  0.30850620375E+02  0.00000000000E+00 0. -1.
</event>
<event>
 5    1  0.1691066E-003  0.9118800E+02  0.7818608E-02  0.1130116E+00
         25   -1    0    0    0    0  0.00000000000E+00  0.00000000000E+00  0.99999998245E-14  0.12500000000E+03  0.12500000000E+03 0.  0.
        -13    1    3    3    0    0  0.49095159799E+01 -0.26733345286E+02 -0.42270272621E+02  0.50254971981E+02  0.10566000000E+00 0.  1.
         23    2    1    0    0    0 -0.10416980201E+02 -0.28694000795E+02 -0.85189310168E+00  0.94461747267E+02  0.89389243295E+02 0.  0.
         13    1    3    3    0    0 -0.15326496181E+02 -0.19606555091E+01  0.41418379519E+02  0.44206775286E+02  0.10566000000E+00 0. -1.
         22    1    1    0    0    0  0.10416980201E+02  0.28694000795E+02  0.85189310168E+00  0.30538252733E+02  0.00000000000E+00 0.  1.
</event>
<event>
 5    1  0.1691066E-003  0.9118800E+02  0.7818608E-02  0.1130116E+00
         25   -1    0    0    0    0  0.00000000000E+00  0.00000000000E+00  0.99999998245E-14  0.12500000000E+03  0.12500000000E+03 0.  0.
        -13    1    3    3    0    0 -0.43758543984E+02  0.33804095654E+02 -0.16629487039E+02  0.57741476062E+02  0.10566000000E+00 0. -1.
         23    2    1    0    0    0 -0.29072413793E+02  0.19808454997E+01 -0.13363541043E+02  0.92942033411E+02  0.87238227588E+02 0.  0.
         13    1    3    3    0    0  0.14686130191E+02 -0.31823250154E+02  0.32659459956E+01  0.35200557349E+02  0.10566000000E+00 0.  1.
         22    1    1    0    0    0  0.29072413793E+02 -0.19808454997E+01  0.13363541043E+02  0.32057966589E+02  0.00000000000E+00 0. -1.
</event>
<event>
 5    1  0.1691066E-003  0.9118800E+02  0.7818608E-02  0.1130116E+00
         25   -1    0    0    0    0  0.00000000000E+00  0.00000000000E+00  0.99999998245E-14  0.12500000000E+03  0.12500000000E+03 0.  0.
        -13    1    3    3    0    0  0.26526023668E+02  0.14746541460E+02 -0.16400667295E+02  0.34497586415E+02  0.10566000000E+00 0. -1.
         23    2    1    0    0    0 -0.16959096660E+02  0.40296039649E+01  0.24353478360E+02  0.95051033809E+02  0.90209525286E+02 0.  0.
         13    1    3    3    0    0 -0.43485120328E+02 -0.10716937495E+02  0.40754145656E+02  0.60553447395E+02  0.10566000000E+00 0.  1.
         22    1    1    0    0    0  0.16959096660E+02 -0.40296039649E+01 -0.24353478360E+02  0.29948966191E+02  0.00000000000E+00 0.  1.
</event>
<event>
 5    1  0.1691066E-003  0.9118800E+02  0.7818608E-02  0.1130116E+00
         25   -1    0    0    0    0  0.00000000000E+00  0.00000000000E+00  0.99999998245E-14  0.12500000000E+03  0.12500000000E+03 0.  0.
        -13    1    3    3    0    0 -0.12639311343E+01  0.15387260740E+02 -0.56219422524E+02  0.58300942942E+02  0.10566000000E+00 0. -1.
         23    2    1    0    0    0 -0.86043110431E+01 -0.66917976244E+01 -0.28472187723E+02  0.94512628882E+02  0.89460366758E+02 0.  0.
         13    1    3    3    0    0 -0.73403799088E+01 -0.22079058364E+02  0.27747234801E+02  0.36211685940E+02  0.10566000000E+00 0.  1.
         22    1    1    0    0    0  0.86043110431E+01  0.66917976244E+01  0.28472187723E+02  0.30487371118E+02  0.00000000000E+00 0. -1.
</event>
<event>
 5    1  0.1691066E-003  0.9118800E+02  0.7818608E-02  0.1130116E+00
         25   -1    0    0    0    0  0.00000000000E+00  0.00000000000E+00  0.99999998245E-14  0.12500000000E+03  0.12500000000E+03 0.  0.
        -13    1    3    3    0    0  0.20072107591E+02  0.57561137443E+01 -0.38571710446E+02  0.43861262628E+02  0.10566000000E+00 0.  1.
         23    2    1    0    0    0  0.81663787574E+01  0.21168129852E+02  0.12904328641E+02  0.98898253677E+02  0.95391631809E+02 0.  0.
         13    1    3    3    0    0 -0.11905728833E+02  0.15412016108E+02  0.51476039087E+02  0.55036991049E+02  0.10566000000E+00 0. -1.
         22    1    1    0    0    0 -0.81663787574E+01 -0.21168129852E+02 -0.12904328641E+02  0.26101746323E+02  0.00000000000E+00 0. -1.
</event>
<event>
 5    1  0.1691066E-003  0.9118800E+02  0.7818608E-02  0.1130116E+00
         25   -1    0    0    0    0  0.00000000000E+00  0.00000000000E+00  0.99999998245E-14  0.12500000000E+03  0.12500000000E+03 0.  0.
        -13    1    3    3    0    0 -0.35736371950E+02  0.40174304656E+02 -0.51581830585E+01  0.54015563047E+02  0.10566000000E+00 0. -1.
         23    2    1    0    0    0 -0.15105440984E+02  0.15045639092E+02  0.20492105547E+02  0.95428527383E+02  0.90731096354E+02 0.  0.
         13    1    3    3    0    0  0.20630930966E+02 -0.25128665564E+02  0.25650288605E+02  0.41412964336E+02  0.10566000000E+00 0.  1.
         22    1    1    0    0    0  0.15105440984E+02 -0.15045639092E+02 -0.20492105547E+02  0.29571472617E+02  0.00000000000E+00 0. -1.
</event>
<event>
 5    1  0.1691066E-003  0.9118800E+02  0.7818608E-02  0.1130116E+00
         25   -1    0    0    0    0  0.00000000000E+00  0.00000000000E+00  0.99999998245E-14  0.12500000000E+03  0.12500000000E+03 0.  0.
        -13    1    3    3    0    0  0.15499180124E+02 -0.17559065714E+02  0.37355615591E+02  0.44090798966E+02  0.10566000000E+00 0.  1.
         23    2    1    0    0    0 -0.76818875581E+01  0.23394483393E+02  0.14736059915E+02  0.96303925155E+02  0.91929218906E+02 0.  0.
         13    1    3    3    0    0 -0.23181067682E+02  0.40953549107E+02 -0.22619555676E+02  0.52213126188E+02  0.10566000000E+00 0. -1.
         22    1    1    0    0    0  0.76818875581E+01 -0.23394483393E+02 -0.14736059915E+02  0.28696074845E+02  0.00000000000E+00 0. -1.
</event>
<event>
 5    1  0.1691066E-003  0.9118800E+02  0.7818608E-02  0.1130116E+00
         25   -1    0    0    0    0  0.00000000000E+00  0.00000000000E+00  0.99999998245E-14  0.12500000000E+03  0.12500000000E+03 0.  0.
        -13    1    3    3    0    0 -0.17771706433E+02 -0.56321959920E+02  0.45306811040E+01  0.59232887436E+02  0.10566000000E+00 0.  1.
         23    2    1    0    0    0 -0.18611326778E+02 -0.22525975873E+02 -0.70027775116E+01  0.94952704508E+02  0.90073170961E+02 0.  0.
         13    1    3    3    0    0 -0.83962034540E+00  0.33795984046E+02 -0.11533458616E+02  0.35719817072E+02  0.10566000000E+00 0. -1.
         22    1    1    0    0    0  0.18611326778E+02  0.22525975873E+02  0.70027775116E+01  0.30047295492E+02  0.00000000000E+00 0.  1.
</event>
<event>
 5    1  0.1691066E-003  0.9118800E+02  0.7818608E-02  0.1130116E+00
         25   -1    0    0    0    0  0.00000000000E+00  0.00000000000E+00  0.99999998245E-14  0.12500000000E+03  0.12500000000E+03 0.  0.
        -13    1    3    3    0    0  0.24617548638E+02 -0.21896536079E+02 -0.27282837907E+02  0.42776703958E+02  0.10566000000E+00 0. -1.
         23    2    1    0    0    0 -0.59354164160E+01  0.20398777361E+02 -0.20649712344E+02  0.95373155657E+02  0.90654778772E+02 0.  0.
         13    1    3    3    0    0 -0.30552965054E+02  0.42295313439E+02  0.66331255630E+01  0.52596451699E+02  0.10566000000E+00 0.  1.
         22    1    1    0    0    0  0.59354164160E+01 -0.20398777361E+02  0.20649712344E+02  0.29626844343E+02  0.00000000000E+00 0. -1.
</event>
<event>
 5    1  0.1691066E-003  0.9118800E+02  0.7818608E-02  0.1130116E+00
         25   -1    0    0    0    0  0.00000000000E+00  0.00000000000E+00  0.99999998245E-14  0.12500000000E+03  0.12500000000E+03 0.  0.
        -13    1    3    3    0    0 -0.27614874399E+01 -0.35910870719E+02  0.18830862166E+01  0.36066239427E+02  0.10566000000E+00 0. -1.
         23    2    1    0    0    0  0.17272084716E+02  0.21061013834E+02  0.75835109798E+01  0.96726322261E+02  0.92501786821E+02 0.  0.
         13    1    3    3    0    0  0.20033572156E+02  0.56971884553E+02  0.57004247631E+01  0.60660082833E+02  0.10566000000E+00 0.  1.
         22    1    1    0    0    0 -0.17272084716E+02 -0.21061013834E+02 -0.75835109798E+01  0.28273677739E+02  0.00000000000E+00 0.  1.
</event>
<event>
 5    1  0.1691066E-003  0.9118800E+02  0.7818608E-02  0.1130116E+00
         25   -1    0    0    0    0  0.00000000000E+00  0.00000000000E+00  0.99999998245E-14  0.12500000000E+03  0.12500000000E+03 0.  0.
        -13    1    3    3    0    0  0.21304471813E+02 -0.49352418547E+02 -0.28414066714E+02  0.60802237516E+02  0.10566000000E+00 0. -1.
         23    2    1    0    0    0  0.19199093990E+02 -0.20149205783E+02 -0.98193503516E+01  0.95487030901E+02  0.90811660733E+02 0.  0.
         13    1    3    3    0    0 -0.21053778231E+01  0.29203212764E+02  0.18594716362E+02  0.34684793385E+02  0.10566000000E+00 0.  1.
         22    1    1    0    0    0 -0.19199093990E+02  0.20149205783E+02  0.98193503516E+01  0.29512969099E+02  0.00000000000E+00 0. -1.
</event>
<event>
 5    1  0.1691066E-003  0.9118800E+02  0.7818608E-02  0.1130116E+00
         25   -1    0    0    0    0  0.00000000000E+00  0.00000000000E+00  0.99999998245E-14  0.12500000000E+03  0.12500000000E+03 0.  0.
        -13    1    3    3    0    0 -0.19636466919E+02  0.54670822568E+02  0.27572051419E+01  0.58155851104E+02  0.10566000000E+00 0.  1.
         23    2    1    0    0    0 -0.97284204939E+01  0.23718533308E+02 -0.15109181826E+02  0.95242675472E+02  0.90474686339E+02 0.  0.
         13    1    3    3    0    0  0.99080464256E+01 -0.30952289260E+02 -0.17866386968E+02  0.37086824369E+02  0.10566000000E+00 0. -1.
         22    1    1    0    0    0  0.97284204939E+01 -0.23718533308E+02  0.15109181826E+02  0.29757324528E+02  0.00000000000E+00 0.  1.
</event>
<event>
 5    1  0.1691066E-003  0.9118800E+02  0.7818608E-02  0.1130116E+00
         25   -1    0    0    0    0  0.00000000000E+00  0.00000000000E+00  0.99999998245E-14  0.12500000000E+03  0.12500000000E+03 0.  0.
        -13    1    3    3    0    0  0.26713117096E+02 -0.11444962765E+02 -0.36598775168E+02  0.46733920289E+02  0.10566000000E+00 0.  1.
         23    2    1    0    0    0  0.16295245725E+02  0.24022274119E+02 -0.46309811352E+01  0.95605261128E+02  0.90974256150E+02 0.  0.
         13    1    3    3    0    0 -0.10417871371E+02  0.35467236884E+02  0.31967794033E+02  0.48871340839E+02  0.10566000000E+00 0. -1.
         22    1    1    0    0    0 -0.16295245725E+02 -0.24022274119E+02  0.46309811352E+01  0.29394738872E+02  0.00000000000E+00 0. -1.
</event>
<event>
 5    1  0.1691066E-003  0.9118800E+02  0.7818608E-02  0.1130116E+00
         25   -1    0    0    0    0  0.00000000000E+00  0.00000000000E+00  0.99999998245E-14  0.12500000000E+03  0.12500000000E+03 0.  0.
        -13    1    3    3    0    0  0.15887853162E+02 -0.49739814049E+02 -0.31331328370E+02  0.60894468396E+02  0.10566000000E+00 0. -1.
         23    2    1    0    0    0  0.77717888586E+01 -0.28041384644E+02 -0.58749279738E+01  0.95314401917E+02  0.90573729521E+02 0.  0.
         13    1    3    3    0    0 -0.81160643034E+01  0.21698429405E+02  0.25456400397E+02  0.34419933521E+02  0.10566000000E+00 0.  1.
         22    1    1    0    0    0 -0.77717888586E+01  0.28041384644E+02  0.58749279738E+01  0.29685598083E+02  0.00000000000E+00 0. -1.
</event>
<event>
 5    1  0.1691066E-003  0.9118800E+02  0.7818608E-02  0.1130116E+00
         25   -1    0    0    0    0  0.00000000000E+00  0.00000000000E+00  0.99999998245E-14  0.12500000000E+03  0.12500000000E+03 0.  0.
        -13    1    3    3    0    0 -0.18704622342E+02 -0.55711449957E+01 -0.36433326285E+02  0.41331573666E+02  0.10566000000E+00 0.  1.
         23    2    1    0    0    0  0.22156683066E+02 -0.20887031484E+02 -0.76595968060E+01  0.93601654312E+02  0.88178305598E+02 0.  0.
         13    1    3    3    0    0  0.40861305408E+02 -0.15315886488E+02  0.28773729479E+02  0.52270080646E+02  0.10566000000E+00 0. -1.
         22    1    1    0    0    0 -0.22156683066E+02  0.20887031484E+02  0.76595968060E+01  0.31398345688E+02  0.00000000000E+00 0. -1.
</event>
<event>
 5    1  0.1691066E-003  0.9118800E+02  0.7818608E-02  0.1130116E+00
         25   -1    0    0    0    0  0.00000000000E+00  0.00000000000E+00  0.99999998245E-14  0.12500000000E+03  0.12500000000E+03 0.  0.
        -13    1    3    3    0    0  0.27798743222E+02  0.29566713984E+02  0.23405863104E+02  0.46848759772E+02  0.10566000000E+00 0. -1.
         23    2    1    0    0    0 -0.98637306596E+01  0.26413340176E+02 -0.76720103867E+01  0.95779844882E+02  0.91213821433E+02 0.  0.
         13    1    3    3    0    0 -0.37662473882E+02 -0.31533738083E+01 -0.31077873491E+02  0.48931085110E+02  0.10566000000E+00 0.  1.
         22    1    1    0    0    0  0.98637306596E+01 -0.26413340176E+02  0.76720103867E+01  0.29220155118E+02  0.00000000000E+00 0.  1.
</event>
<event>
 5    1  0.1691066E-003  0.9118800E+02  0.7818608E-02  0.1130116E+00
         25   -1    0    0    0    0  0.00000000000E+00  0.00000000000E+00  0.99999998245E-14  0.12500000000E+03  0.12500000000E+03 0.  0.
        -13    1    3    3    0    0 -0.23930667707E+02  0.22030077213E+02  0.44501332730E+02  0.55121510663E+02  0.10566000000E+00 0. -1.
         23    2    1    0    0    0 -0.12956602351E+02 -0.10876179645E+02  0.24697171561E+02  0.95064818169E+02  0.90228623741E+02 0.  0.
         13    1    3    3    0    0  0.10974065356E+02 -0.32906256859E+02 -0.19804161169E+02  0.39943307506E+02  0.10566000000E+00 0.  1.
         22    1    1    0    0    0  0.12956602351E+02  0.10876179645E+02 -0.24697171561E+02  0.29935181831E+02  0.00000000000E+00 0. -1.
</event>
<event>
 5    1  0.1691066E-003  0.9118800E+02  0.7818608E-02  0.1130116E+00
         25   -1    0    0    0    0  0.00000000000E+00  0.00000000000E+00  0.99999998245E-14  0.12500000000E+03  0.12500000000E+03 0.  0.
        -13    1    3    3    0    0 -0.36236376458E+02  0.24312853864E+02  0.15099181528E+02  0.46175602743E+02  0.10566000000E+00 0. -1.
         23    2    1    0    0    0 -0.23436888938E+02 -0.85987265462E+01 -0.17721005486E+02  0.94385299336E+02  0.89282276147E+02 0.  0.
         13    1    3    3    0    0  0.12799487520E+02 -0.32911580410E+02 -0.32820187014E+02  0.48209696593E+02  0.10566000000E+00 0.  1.
         22    1    1    0    0    0  0.23436888938E+02  0.85987265462E+01  0.17721005486E+02  0.30614700664E+02  0.00000000000E+00 0.  1.
</event>
<event>
 5    1  0.1691066E-003  0.9118800E+02  0.7818608E-02  0.1130116E+00
         25   -1    0    0    0    0  0.00000000000E+00  0.00000000000E+00  0.99999998245E-14  0.12500000000E+03  0.12500000000E+03 0.  0.
        -13    1    3    3    0    0  0.12260523639E+02 -0.32507963941E+02 -0.10647885398E+02  0.36338365222E+02  0.10566000000E+00 0. -1.
         23    2    1    0    0    0  0.11800940706E+02  0.24483720789E+02  0.85969267260E+01  0.96493475583E+02  0.92186598243E+02 0.  0.
         13    1    3    3    0    0 -0.45958293312E+00  0.56991684730E+02  0.19244812124E+02  0.60155110361E+02  0.10566000000E+00 0.  1.
         22    1    1    0    0    0 -0.11800940706E+02 -0.24483720789E+02 -0.85969267260E+01  0.28506524417E+02  0.00000000000E+00 0.  1.
</event>
<event>
 5    1  0.1691066E-003  0.9118800E+02  0.7818608E-02  0.1130116E+00
         25   -1    0    0    0    0  0.00000000000E+00  0.00000000000E+00  0.99999998245E-14  0.12500000000E+03  0.12500000000E+03 0.  0.
        -13    1    3    3    0    0  0.54077083043E+02 -0.10649244537E+02  0.18399716716E+02  0.58105921031E+02  0.10566000000E+00 0. -1.
         23    2    1    0    0    0  0.22651647884E+02 -0.10637224856E+02 -0.75501972990E+01  0.98860887855E+02  0.95342655531E+02 0.  0.
         13    1    3    3    0    0 -0.31425435159E+02  0.12019680639E-01 -0.25949914015E+02  0.40754966824E+02  0.10566000000E+00 0.  1.
         22    1    1    0    0    0 -0.22651647884E+02  0.10637224856E+02  0.75501972990E+01  0.26139112145E+02  0.00000000000E+00 0. -1.
</event>
<event>
 5    1  0.1691066E-003  0.9118800E+02  0.7818608E-02  0.1130116E+00
         25   -1    0    0    0    0  0.00000000000E+00  0.00000000000E+00  0.99999998245E-14  0.12500000000E+03  0.12500000000E+03 0.  0.
        -13    1    3    3    0    0  0.29581535022E+02  0.37679116309E+01  0.26401505221E+02  0.39828570327E+02  0.10566000000E+00 0.  1.
         23    2    1    0    0    0  0.19689239254E+02  0.12557937885E+02 -0.23747112451E+02  0.91693945053E+02  0.85431178520E+02 0.  0.
         13    1    3    3    0    0 -0.98922957680E+01  0.87900262542E+01 -0.50148617672E+02  0.51865374727E+02  0.10566000000E+00 0. -1.
         22    1    1    0    0    0 -0.19689239254E+02 -0.12557937885E+02  0.23747112451E+02  0.33306054947E+02  0.00000000000E+00 0. -1.
</event>
<event>
 5    1  0.1691066E-003  0.9118800E+02  0.7818608E-02  0.1130116E+00
         25   -1    0    0    0    0  0.00000000000E+00  0.00000000000E+00  0.99999998245E-14  0.12500000000E+03  0.12500000000E+03 0.  0.
        -13    1    3    3    0    0  0.18443594210E+02  0.36147576468E+02 -0.46381390346E+02  0.61628386206E+02  0.10566000000E+00 0. -1.
         23    2    1    0    0    0  0.86392864575E+01  0.96526930099E+01 -0.24215811742E+02  0.97536983211E+02  0.93590842515E+02 0.  0.
         13    1    3    3    0    0 -0.98043077527E+01 -0.26494883458E+02  0.22165578604E+02  0.35908597005E+02  0.10566000000E+00 0.  1.
         22    1    1    0    0    0 -0.86392864575E+01 -0.96526930099E+01  0.24215811742E+02  0.27463016789E+02  0.00000000000E+00 0. -1.
</event>
<event>
 5    1  0.1691066E-003  0.9118800E+02  0.7818608E-02  0.1130116E+00
         25   -1    0    0    0    0  0.00000000000E+00  0.00000000000E+00  0.99999998245E-14  0.12500000000E+03  0.12500000000E+03 0.  0.
        -13    1    3    3    0    0  0.74444637184E+01  0.49755494296E+02 -0.13416154272E+01  0.50327332024E+02  0.10566000000E+00 0.  1.
         23    2    1    0    0    0 -0.16741433728E+02  0.16290200917E+02 -0.18660248585E+02  0.95102656866E+02  0.90281029106E+02 0.  0.
         13    1    3    3    0    0 -0.24185897447E+02 -0.33465293378E+02 -0.17318633158E+02  0.44775324842E+02  0.10566000000E+00 0. -1.
         22    1    1    0    0    0  0.16741433728E+02 -0.16290200917E+02  0.18660248585E+02  0.29897343134E+02  0.00000000000E+00 0.  1.
</event>
<event>
 5    1  0.1691066E-003  0.9118800E+02  0.7818608E-02  0.1130116E+00
         25   -1    0    0    0    0  0.00000000000E+00  0.00000000000E+00  0.99999998245E-14  0.12500000000E+03  0.12500000000E+03 0.  0.
        -13    1    3    3    0    0  0.12505904050E+02 -0.55688267532E+02  0.25034876055E+02  0.62324449134E+02  0.10566000000E+00 0. -1.
         23    2    1    0    0    0  0.99718529177E+01 -0.29371206874E+02  0.13754123668E+02  0.91069459749E+02  0.84512513495E+02 0.  0.
         13    1    3    3    0    0 -0.25340511326E+01  0.26317060657E+02 -0.11280752386E+02  0.28745010614E+02  0.10566000000E+00 0.  1.
         22    1    1    0    0    0 -0.99718529177E+01  0.29371206874E+02 -0.13754123668E+02  0.33930540251E+02  0.00000000000E+00 0. -1.
</event>
<event>
 5    1  0.1691066E-003  0.9118800E+02  0.7818608E-02  0.1130116E+00
         25   -1    0    0    0    0  0.00000000000E+00  0.00000000000E+00  0.99999998245E-14  0.12500000000E+03  0.12500000000E+03 0.  0.
        -13    1    3    3    0    0  0.71314929563E+01  0.28642556838E+02 -0.45555496311E+02  0.54282305240E+02  0.10566000000E+00 0.  1.
         23    2    1    0    0    0  0.21556444328E+02  0.16889335408E+02 -0.75577364551E+01  0.96591386466E+02  0.92319264601E+02 0.  0.
         13    1    3    3    0    0  0.14424951371E+02 -0.11753221430E+02  0.37997759856E+02  0.42309081226E+02  0.10566000000E+00 0. -1.
         22    1    1    0    0    0 -0.21556444328E+02 -0.16889335408E+02  0.75577364551E+01  0.28408613534E+02  0.00000000000E+00 0.  1.
</event>
