<event>
 5    1  0.9041381E-005  0.9118800E+02  0.7818608E-02  0.1130116E+00
         25   -1    0    0    0    0  0.00000000000E+00  0.00000000000E+00  0.99999998245E-14  0.12500000000E+03  0.12500000000E+03 0.  0.
        -13    1    3    3    0    0  0.21221264520E+02 -0.48385380094E+02  0.85113970135E+01  0.53515811848E+02  0.10566000000E+00 0. -1.
         23    2    1    0    0    0 -0.16116341339E+01 -0.29253215656E+02 -0.15570785458E+02  0.91821733762E+02  0.85617950457E+02 0.  0.
         13    1    3    3    0    0 -0.22832898654E+02  0.19132164438E+02 -0.24082182472E+02  0.38305921913E+02  0.10566000000E+00 0.  1.
         22    1    1    0    0    0  0.16116341339E+01  0.29253215656E+02  0.15570785458E+02  0.33178266238E+02  0.00000000000E+00 0. -1.
</event>
<event>
 5    1  0.9041381E-005  0.9118800E+02  0.7818608E-02  0.1130116E+00
         25   -1    0    0    0    0  0.00000000000E+00  0.00000000000E+00  0.99999998245E-14  0.12500000000E+03  0.12500000000E+03 0.  0.
        -13    1    3    3    0    0  0.19560377964E+01  0.31598213012E+02  0.31922773188E+01  0.31819411496E+02  0.10566000000E+00 0. -1.
         23    2    1    0    0    0  0.54587071763E+00 -0.25375388457E+02 -0.19326577219E+02  0.93098199092E+02  0.87461704609E+02 0.  0.
         13    1    3    3    0    0 -0.14101670788E+01 -0.56973601469E+02 -0.22518854537E+02  0.61278787596E+02  0.10566000000E+00 0.  1.
         22    1    1    0    0    0 -0.54587071763E+00  0.25375388457E+02  0.19326577219E+02  0.31901800908E+02  0.00000000000E+00 0.  1.
</event>
<event>
 5    1  0.9041381E-005  0.9118800E+02  0.7818608E-02  0.1130116E+00
         25   -1    0    0    0    0  0.00000000000E+00  0.00000000000E+00  0.99999998245E-14  0.12500000000E+03  0.12500000000E+03 0.  0.
        -13    1    3    3    0    0  0.53784772958E+01 -0.39573924521E+02  0.32285695083E+02  0.51355630568E+02  0.10566000000E+00 0. -1.
         23    2    1    0    0    0 -0.23597538645E+02 -0.22229863948E+02  0.15945958443E+02  0.88871281895E+02  0.81196185093E+02 0.  0.
         13    1    3    3    0    0 -0.28976015941E+02  0.17344060573E+02 -0.16339736640E+02  0.37515651326E+02  0.10566000000E+00 0.  1.
         22    1    1    0    0    0  0.23597538645E+02  0.22229863948E+02 -0.15945958443E+02  0.36128718105E+02  0.00000000000E+00 0. -1.
</event>
<event>
 5    1  0.9041381E-005  0.9118800E+02  0.7818608E-02  0.1130116E+00
         25   -1    0    0    0    0  0.00000000000E+00  0.00000000000E+00  0.99999998245E-14  0.12500000000E+03  0.12500000000E+03 0.  0.
        -13    1    3    3    0    0 -0.28522436570E+02  0.20195867939E+02 -0.13179683457E+02  0.37351274273E+02  0.10566000000E+00 0. -1.
         23    2    1    0    0    0  0.90728743912E+01 -0.24277326355E+02 -0.13900195549E+02  0.95590459695E+02  0.90953916484E+02 0.  0.
         13    1    3    3    0    0  0.37595310961E+02 -0.44473194294E+02 -0.72051209137E+00  0.58239185423E+02  0.10566000000E+00 0.  1.
         22    1    1    0    0    0 -0.90728743912E+01  0.24277326355E+02  0.13900195549E+02  0.29409540305E+02  0.00000000000E+00 0.  1.
</event>
<event>
 5    1  0.9041381E-005  0.9118800E+02  0.7818608E-02  0.1130116E+00
         25   -1    0    0    0    0  0.00000000000E+00  0.00000000000E+00  0.99999998245E-14  0.12500000000E+03  0.12500000000E+03 0.  0.
        -13    1    3    3    0    0  0.43930904129E+02  0.13799229367E+02 -0.23043752627E+02  0.51491443637E+02  0.10566000000E+00 0. -1.
         23    2    1    0    0    0  0.71262743482E+01 -0.11542463221E+02 -0.25363212081E+02  0.96237093847E+02  0.91838300626E+02 0.  0.
         13    1    3    3    0    0 -0.36804629781E+02 -0.25341692588E+02 -0.23194594537E+01  0.44745650210E+02  0.10566000000E+00 0.  1.
         22    1    1    0    0    0 -0.71262743482E+01  0.11542463221E+02  0.25363212081E+02  0.28762906153E+02  0.00000000000E+00 0.  1.
</event>
<event>
 5    1  0.9041381E-005  0.9118800E+02  0.7818608E-02  0.1130116E+00
         25   -1    0    0    0    0  0.00000000000E+00  0.00000000000E+00  0.99999998245E-14  0.12500000000E+03  0.12500000000E+03 0.  0.
        -13    1    3    3    0    0  0.24630766075E+02  0.17709675785E+02  0.14853541770E+02  0.33777893970E+02  0.10566000000E+00 0.  1.
         23    2    1    0    0    0 -0.31113593104E+02 -0.10793688094E+01  0.65391513081E+01  0.93188347847E+02  0.87590450174E+02 0.  0.
         13    1    3    3    0    0 -0.55744359179E+02 -0.18789044594E+02 -0.83143904623E+01  0.59410453877E+02  0.10566000000E+00 0. -1.
         22    1    1    0    0    0  0.31113593104E+02  0.10793688094E+01 -0.65391513081E+01  0.31811652153E+02  0.00000000000E+00 0. -1.
</event>
<event>
 5    1  0.9041381E-005  0.9118800E+02  0.7818608E-02  0.1130116E+00
         25   -1    0    0    0    0  0.00000000000E+00  0.00000000000E+00  0.99999998245E-14  0.12500000000E+03  0.12500000000E+03 0.  0.
        -13    1    3    3    0    0 -0.57408942528E+02 -0.11394545240E+02  0.77922924819E+01  0.59045349771E+02  0.10566000000E+00 0.  1.
         23    2    1    0    0    0 -0.28165511526E+02  0.83035849725E+01 -0.17841647303E+01  0.95581828631E+02  0.90942053847E+02 0.  0.
         13    1    3    3    0    0  0.29243431003E+02  0.19698130213E+02 -0.95764572122E+01  0.36536478860E+02  0.10566000000E+00 0. -1.
         22    1    1    0    0    0  0.28165511526E+02 -0.83035849725E+01  0.17841647303E+01  0.29418171369E+02  0.00000000000E+00 0.  1.
</event>
<event>
 5    1  0.9041381E-005  0.9118800E+02  0.7818608E-02  0.1130116E+00
         25   -1    0    0    0    0  0.00000000000E+00  0.00000000000E+00  0.99999998245E-14  0.12500000000E+03  0.12500000000E+03 0.  0.
        -13    1    3    3    0    0  0.36007313078E+02 -0.12575598565E+02  0.30188308264E+02  0.48641724828E+02  0.10566000000E+00 0.  1.
         23    2    1    0    0    0  0.14380340084E+01 -0.16226676196E+01 -0.16836332645E+02  0.10802463288E+03  0.10668251131E+03 0.  0.
         13    1    3    3    0    0 -0.34569279070E+02  0.10952930945E+02 -0.47024640909E+02  0.59382908049E+02  0.10566000000E+00 0. -1.
         22    1    1    0    0    0 -0.14380340084E+01  0.16226676196E+01  0.16836332645E+02  0.16975367123E+02  0.00000000000E+00 0. -1.
</event>
<event>
 5    1  0.9041381E-005  0.9118800E+02  0.7818608E-02  0.1130116E+00
         25   -1    0    0    0    0  0.00000000000E+00  0.00000000000E+00  0.99999998245E-14  0.12500000000E+03  0.12500000000E+03 0.  0.
        -13    1    3    3    0    0  0.11461486630E+02 -0.31680189358E+02 -0.23419874821E+02  0.41030498098E+02  0.10566000000E+00 0.  1.
         23    2    1    0    0    0 -0.16552930925E+02  0.11952460080E+02 -0.24769873351E+02  0.92900039720E+02  0.87178035823E+02 0.  0.
         13    1    3    3    0    0 -0.28014417555E+02  0.43632649439E+02 -0.13499985298E+01  0.51869541622E+02  0.10566000000E+00 0. -1.
         22    1    1    0    0    0  0.16552930925E+02 -0.11952460080E+02  0.24769873351E+02  0.32099960280E+02  0.00000000000E+00 0. -1.
</event>
<event>
 5    1  0.9041381E-005  0.9118800E+02  0.7818608E-02  0.1130116E+00
         25   -1    0    0    0    0  0.00000000000E+00  0.00000000000E+00  0.99999998245E-14  0.12500000000E+03  0.12500000000E+03 0.  0.
        -13    1    3    3    0    0 -0.72863045084E+01  0.22617694225E+02  0.40431574063E+02  0.46897480430E+02  0.10566000000E+00 0. -1.
         23    2    1    0    0    0 -0.70957316515E+00 -0.21368917580E+02  0.19539781047E+02  0.96035587767E+02  0.91563622371E+02 0.  0.
         13    1    3    3    0    0  0.65767313433E+01 -0.43986611805E+02 -0.20891793016E+02  0.49138107337E+02  0.10566000000E+00 0.  1.
         22    1    1    0    0    0  0.70957316515E+00  0.21368917580E+02 -0.19539781047E+02  0.28964412233E+02  0.00000000000E+00 0.  1.
</event>
<event>
 5    1  0.9041381E-005  0.9118800E+02  0.7818608E-02  0.1130116E+00
         25   -1    0    0    0    0  0.00000000000E+00  0.00000000000E+00  0.99999998245E-14  0.12500000000E+03  0.12500000000E+03 0.  0.
        -13    1    3    3    0    0  0.29997470017E+02 -0.49507951776E+02  0.23000409479E+02  0.62288967696E+02  0.10566000000E+00 0. -1.
         23    2    1    0    0    0  0.14472044704E+02 -0.19751267581E+02  0.66270065916E+01  0.99633292186E+02  0.96350002836E+02 0.  0.
         13    1    3    3    0    0 -0.15525425313E+02  0.29756684195E+02 -0.16373402887E+02  0.37344324489E+02  0.10566000000E+00 0.  1.
         22    1    1    0    0    0 -0.14472044704E+02  0.19751267581E+02 -0.66270065916E+01  0.25366707814E+02  0.00000000000E+00 0. -1.
</event>
<event>
 5    1  0.9041381E-005  0.9118800E+02  0.7818608E-02  0.1130116E+00
         25   -1    0    0    0    0  0.00000000000E+00  0.00000000000E+00  0.99999998245E-14  0.12500000000E+03  0.12500000000E+03 0.  0.
        -13    1    3    3    0    0 -0.12044448178E+02  0.33556570275E+02  0.95881105744E+01  0.36919577042E+02  0.10566000000E+00 0. -1.
         23    2    1    0    0    0 -0.14266145173E+02 -0.15458173669E+02 -0.21433360434E+02  0.94968899941E+02  0.90095643542E+02 0.  0.
         13    1    3    3    0    0 -0.22216969943E+01 -0.49014743944E+02 -0.31021471009E+02  0.58049322899E+02  0.10566000000E+00 0.  1.
         22    1    1    0    0    0  0.14266145173E+02  0.15458173669E+02  0.21433360434E+02  0.30031100059E+02  0.00000000000E+00 0.  1.
</event>
<event>
 5    1  0.9041381E-005  0.9118800E+02  0.7818608E-02  0.1130116E+00
         25   -1    0    0    0    0  0.00000000000E+00  0.00000000000E+00  0.99999998245E-14  0.12500000000E+03  0.12500000000E+03 0.  0.
        -13    1    3    3    0    0 -0.30028280806E+02 -0.13601647777E+01  0.74676751964E+01  0.30972972626E+02  0.10566000000E+00 0.  1.
         23    2    1    0    0    0  0.15475984337E+02 -0.25236215464E+02 -0.20031428059E+02  0.89256038661E+02  0.81786366010E+02 0.  0.
         13    1    3    3    0    0  0.45504265143E+02 -0.23876050686E+02 -0.27499103255E+02  0.58283066035E+02  0.10566000000E+00 0. -1.
         22    1    1    0    0    0 -0.15475984337E+02  0.25236215464E+02  0.20031428059E+02  0.35743961339E+02  0.00000000000E+00 0. -1.
</event>
<event>
 5    1  0.9041381E-005  0.9118800E+02  0.7818608E-02  0.1130116E+00
         25   -1    0    0    0    0  0.00000000000E+00  0.00000000000E+00  0.99999998245E-14  0.12500000000E+03  0.12500000000E+03 0.  0.
        -13    1    3    3    0    0 -0.12420600100E+02  0.30863595414E+02  0.21764820126E+02  0.39756149057E+02  0.10566000000E+00 0.  1.
         23    2    1    0    0    0 -0.17389790804E+02  0.10506287043E+01 -0.24450786264E+02  0.94977515196E+02  0.90107595679E+02 0.  0.
         13    1    3    3    0    0 -0.49691907044E+01 -0.29812966710E+02 -0.46215606389E+02  0.55221366139E+02  0.10566000000E+00 0. -1.
         22    1    1    0    0    0  0.17389790804E+02 -0.10506287043E+01  0.24450786264E+02  0.30022484804E+02  0.00000000000E+00 0. -1.
</event>
<event>
 5    1  0.9041381E-005  0.9118800E+02  0.7818608E-02  0.1130116E+00
         25   -1    0    0    0    0  0.00000000000E+00  0.00000000000E+00  0.99999998245E-14  0.12500000000E+03  0.12500000000E+03 0.  0.
        -13    1    3    3    0    0  0.53467453995E+02 -0.13905985445E+02 -0.19426696625E+02  0.58562383607E+02  0.10566000000E+00 0.  1.
         23    2    1    0    0    0  0.24530942478E+02  0.64614932279E+01  0.13490446863E+01  0.99596497188E+02  0.96302254890E+02 0.  0.
         13    1    3    3    0    0 -0.28936511518E+02  0.20367478673E+02  0.20775741311E+02  0.41034113581E+02  0.10566000000E+00 0. -1.
         22    1    1    0    0    0 -0.24530942478E+02 -0.64614932279E+01 -0.13490446863E+01  0.25403502812E+02  0.00000000000E+00 0.  1.
</event>
<event>
 5    1  0.9041381E-005  0.9118800E+02  0.7818608E-02  0.1130116E+00
         25   -1    0    0    0    0  0.00000000000E+00  0.00000000000E+00  0.99999998245E-14  0.12500000000E+03  0.12500000000E+03 0.  0.
        -13    1    3    3    0    0  0.18257689909E+02 -0.50674862855E+02  0.18026482402E+01  0.53893837040E+02  0.10566000000E+00 0.  1.
         23    2    1    0    0    0 -0.10931375627E+02 -0.22761495958E+02  0.14058009942E+02  0.96100029154E+02  0.91651553661E+02 0.  0.
         13    1    3    3    0    0 -0.29189065535E+02  0.27913366897E+02  0.12255361702E+02  0.42206192115E+02  0.10566000000E+00 0. -1.
         22    1    1    0    0    0  0.10931375627E+02  0.22761495958E+02 -0.14058009942E+02  0.28899970846E+02  0.00000000000E+00 0.  1.
</event>
<event>
 5    1  0.9041381E-005  0.9118800E+02  0.7818608E-02  0.1130116E+00
         25   -1    0    0    0    0  0.00000000000E+00  0.00000000000E+00  0.99999998245E-14  0.12500000000E+03  0.12500000000E+03 0.  0.
        -13    1    3    3    0    0 -0.15223807574E+02  0.28279086088E+01  0.31430661036E+02  0.35037965143E+02  0.10566000000E+00 0. -1.
         23    2    1    0    0    0 -0.90404830881E+00 -0.14528687016E+01 -0.28319349468E+02  0.96628999223E+02  0.92370178119E+02 0.  0.
         13    1    3    3    0    0  0.14319759266E+02 -0.42807773104E+01 -0.59750010504E+02  0.61591034080E+02  0.10566000000E+00 0.  1.
         22    1    1    0    0    0  0.90404830881E+00  0.14528687016E+01  0.28319349468E+02  0.28371000777E+02  0.00000000000E+00 0.  1.
</event>
<event>
 5    1  0.9041381E-005  0.9118800E+02  0.7818608E-02  0.1130116E+00
         25   -1    0    0    0    0  0.00000000000E+00  0.00000000000E+00  0.99999998245E-14  0.12500000000E+03  0.12500000000E+03 0.  0.
        -13    1    3    3    0    0 -0.29491132012E+02  0.14769942006E+02 -0.85500330758E+01  0.34073336846E+02  0.10566000000E+00 0.  1.
         23    2    1    0    0    0  0.52691252829E+01 -0.15501110610E+02  0.27774110492E+02  0.92759507991E+02  0.86976301357E+02 0.  0.
         13    1    3    3    0    0  0.34760257295E+02 -0.30271052616E+02  0.36324143568E+02  0.58686171145E+02  0.10566000000E+00 0. -1.
         22    1    1    0    0    0 -0.52691252829E+01  0.15501110610E+02 -0.27774110492E+02  0.32240492009E+02  0.00000000000E+00 0. -1.
</event>
<event>
 5    1  0.9041381E-005  0.9118800E+02  0.7818608E-02  0.1130116E+00
         25   -1    0    0    0    0  0.00000000000E+00  0.00000000000E+00  0.99999998245E-14  0.12500000000E+03  0.12500000000E+03 0.  0.
        -13    1    3    3    0    0  0.88059794145E+01 -0.20155196344E+02  0.37331650249E+02  0.43329441348E+02  0.10566000000E+00 0.  1.
         23    2    1    0    0    0  0.61224224751E+01 -0.25942044956E+02 -0.13887546297E+02  0.94944423219E+02  0.90061677781E+02 0.  0.
         13    1    3    3    0    0 -0.26835569394E+01 -0.57868486122E+01 -0.51219196546E+02  0.51614981872E+02  0.10566000000E+00 0. -1.
         22    1    1    0    0    0 -0.61224224751E+01  0.25942044956E+02  0.13887546297E+02  0.30055576781E+02  0.00000000000E+00 0.  1.
</event>
<event>
 5    1  0.9041381E-005  0.9118800E+02  0.7818608E-02  0.1130116E+00
         25   -1    0    0    0    0  0.00000000000E+00  0.00000000000E+00  0.99999998245E-14  0.12500000000E+03  0.12500000000E+03 0.  0.
        -13    1    3    3    0    0 -0.38140402102E+02  0.55420726632E+01  0.10718445836E+02  0.40003763412E+02  0.10566000000E+00 0.  1.
         23    2    1    0    0    0  0.15462721920E+02  0.55309469423E+01  0.24643319664E+02  0.95386146024E+02  0.90672688865E+02 0.  0.
         13    1    3    3    0    0  0.53603124022E+02 -0.11125720865E-01  0.13924873828E+02  0.55382382613E+02  0.10566000000E+00 0. -1.
         22    1    1    0    0    0 -0.15462721920E+02 -0.55309469423E+01 -0.24643319664E+02  0.29613853976E+02  0.00000000000E+00 0. -1.
</event>
<event>
 5    1  0.9041381E-005  0.9118800E+02  0.7818608E-02  0.1130116E+00
         25   -1    0    0    0    0  0.00000000000E+00  0.00000000000E+00  0.99999998245E-14  0.12500000000E+03  0.12500000000E+03 0.  0.
        -13    1    3    3    0    0  0.15686086756E+02  0.45946468980E+02 -0.27937492732E+02  0.56014694444E+02  0.10566000000E+00 0. -1.
         23    2    1    0    0    0 -0.11440769904E+02  0.26169266800E+02 -0.69517859479E+01  0.95605288423E+02  0.90974293653E+02 0.  0.
         13    1    3    3    0    0 -0.27126856661E+02 -0.19777202180E+02  0.20985706784E+02  0.39590593979E+02  0.10566000000E+00 0.  1.
         22    1    1    0    0    0  0.11440769904E+02 -0.26169266800E+02  0.69517859479E+01  0.29394711577E+02  0.00000000000E+00 0. -1.
</event>
<event>
 5    1  0.9041381E-005  0.9118800E+02  0.7818608E-02  0.1130116E+00
         25   -1    0    0    0    0  0.00000000000E+00  0.00000000000E+00  0.99999998245E-14  0.12500000000E+03  0.12500000000E+03 0.  0.
        -13    1    3    3    0    0 -0.36729222074E+02  0.19788266783E+02 -0.37269289957E+02  0.55943028112E+02  0.10566000000E+00 0.  1.
         23    2    1    0    0    0 -0.78778810478E+00  0.20793452377E+02 -0.21095132847E+02  0.95369054999E+02  0.90649124373E+02 0.  0.
         13    1    3    3    0    0  0.35941433969E+02  0.10051855935E+01  0.16174157110E+02  0.39426026887E+02  0.10566000000E+00 0. -1.
         22    1    1    0    0    0  0.78778810478E+00 -0.20793452377E+02  0.21095132847E+02  0.29630945001E+02  0.00000000000E+00 0.  1.
</event>
<event>
 5    1  0.9041381E-005  0.9118800E+02  0.7818608E-02  0.1130116E+00
         25   -1    0    0    0    0  0.00000000000E+00  0.00000000000E+00  0.99999998245E-14  0.12500000000E+03  0.12500000000E+03 0.  0.
        -13    1    3    3    0    0  0.17809048012E+02 -0.27125565336E+02 -0.10080295009E+02  0.33979140622E+02  0.10566000000E+00 0.  1.
         23    2    1    0    0    0 -0.70994118066E+01  0.19162574350E+02  0.21529676742E+02  0.95316117432E+02  0.90576097056E+02 0.  0.
         13    1    3    3    0    0 -0.24908459819E+02  0.46288139686E+02  0.31609971750E+02  0.61336976810E+02  0.10566000000E+00 0. -1.
         22    1    1    0    0    0  0.70994118066E+01 -0.19162574350E+02 -0.21529676742E+02  0.29683882568E+02  0.00000000000E+00 0. -1.
</event>
<event>
 5    1  0.9041381E-005  0.9118800E+02  0.7818608E-02  0.1130116E+00
         25   -1    0    0    0    0  0.00000000000E+00  0.00000000000E+00  0.99999998245E-14  0.12500000000E+03  0.12500000000E+03 0.  0.
        -13    1    3    3    0    0  0.11830970562E+02 -0.78124929285E+01  0.57043208343E+02  0.58778786073E+02  0.10566000000E+00 0.  1.
         23    2    1    0    0    0  0.10867769699E+02  0.10526473255E+02  0.22779543784E+02  0.97653653399E+02  0.93746537802E+02 0.  0.
         13    1    3    3    0    0 -0.96320086332E+00  0.18338966183E+02 -0.34263664559E+02  0.38874867326E+02  0.10566000000E+00 0. -1.
         22    1    1    0    0    0 -0.10867769699E+02 -0.10526473255E+02 -0.22779543784E+02  0.27346346601E+02  0.00000000000E+00 0.  1.
</event>
<event>
 5    1  0.9041381E-005  0.9118800E+02  0.7818608E-02  0.1130116E+00
         25   -1    0    0    0    0  0.00000000000E+00  0.00000000000E+00  0.99999998245E-14  0.12500000000E+03  0.12500000000E+03 0.  0.
        -13    1    3    3    0    0  0.46487370667E+01 -0.41085542838E+02  0.35549808934E+02  0.54529190952E+02  0.10566000000E+00 0. -1.
         23    2    1    0    0    0 -0.71296285977E+01 -0.28980541972E+02 -0.13646796804E+01  0.95124160806E+02  0.90310797812E+02 0.  0.
         13    1    3    3    0    0 -0.11778365664E+02  0.12105000866E+02 -0.36914488615E+02  0.40594969854E+02  0.10566000000E+00 0.  1.
         22    1    1    0    0    0  0.71296285977E+01  0.28980541972E+02  0.13646796804E+01  0.29875839194E+02  0.00000000000E+00 0. -1.
</event>
<event>
 5    1  0.9041381E-005  0.9118800E+02  0.7818608E-02  0.1130116E+00
         25   -1    0    0    0    0  0.00000000000E+00  0.00000000000E+00  0.99999998245E-14  0.12500000000E+03  0.12500000000E+03 0.  0.
        -13    1    3    3    0    0 -0.72650099735E+01 -0.12274671739E+02  0.30569693648E+02  0.33733740824E+02  0.10566000000E+00 0.  1.
         23    2    1    0    0    0  0.50852172050E+01  0.12781474331E+02 -0.25302397907E+02  0.96200054515E+02  0.91787872994E+02 0.  0.
         13    1    3    3    0    0  0.12350227178E+02  0.25056146069E+02 -0.55872091556E+02  0.62466313690E+02  0.10566000000E+00 0. -1.
         22    1    1    0    0    0 -0.50852172050E+01 -0.12781474331E+02  0.25302397907E+02  0.28799945485E+02  0.00000000000E+00 0. -1.
</event>
<event>
 5    1  0.9041381E-005  0.9118800E+02  0.7818608E-02  0.1130116E+00
         25   -1    0    0    0    0  0.00000000000E+00  0.00000000000E+00  0.99999998245E-14  0.12500000000E+03  0.12500000000E+03 0.  0.
        -13    1    3    3    0    0 -0.32641902383E+02  0.47939621668E+01 -0.21421307774E+02  0.39336490123E+02  0.10566000000E+00 0. -1.
         23    2    1    0    0    0 -0.83235616922E+01 -0.13015688510E+02  0.25546776490E+02  0.95144889622E+02  0.90339484200E+02 0.  0.
         13    1    3    3    0    0  0.24318340691E+02 -0.17809650677E+02  0.46968084263E+02  0.55808399499E+02  0.10566000000E+00 0.  1.
         22    1    1    0    0    0  0.83235616922E+01  0.13015688510E+02 -0.25546776490E+02  0.29855110378E+02  0.00000000000E+00 0.  1.
</event>
<event>
 5    1  0.9041381E-005  0.9118800E+02  0.7818608E-02  0.1130116E+00
         25   -1    0    0    0    0  0.00000000000E+00  0.00000000000E+00  0.99999998245E-14  0.12500000000E+03  0.12500000000E+03 0.  0.
        -13    1    3    3    0    0  0.18789158439E+02  0.38814350623E+01  0.31250552899E+02  0.36670236344E+02  0.10566000000E+00 0.  1.
         23    2    1    0    0    0  0.17477582670E+02  0.99419244766E+01 -0.24805611812E+02  0.93068414764E+02  0.87419126574E+02 0.  0.
         13    1    3    3    0    0 -0.13115757690E+01  0.60604894143E+01 -0.56056164711E+02  0.56398178420E+02  0.10566000000E+00 0. -1.
         22    1    1    0    0    0 -0.17477582670E+02 -0.99419244766E+01  0.24805611812E+02  0.31931585236E+02  0.00000000000E+00 0. -1.
</event>
<event>
 5    1  0.9041381E-005  0.9118800E+02  0.7818608E-02  0.1130116E+00
         25   -1    0    0    0    0  0.00000000000E+00  0.00000000000E+00  0.99999998245E-14  0.12500000000E+03  0.12500000000E+03 0.  0.
        -13    1    3    3    0    0  0.46087678239E+02  0.12566946323E+02  0.21720363866E+02  0.52476543292E+02  0.10566000000E+00 0.  1.
         23    2    1    0    0    0  0.25499306945E+02 -0.52195105170E+01 -0.12443378377E+02  0.96150466032E+02  0.91720316768E+02 0.  0.
         13    1    3    3    0    0 -0.20588371294E+02 -0.17786456840E+02 -0.34163742243E+02  0.43673922740E+02  0.10566000000E+00 0. -1.
         22    1    1    0    0    0 -0.25499306945E+02  0.52195105170E+01  0.12443378377E+02  0.28849533968E+02  0.00000000000E+00 0.  1.
</event>
<event>
 5    1  0.9041381E-005  0.9118800E+02  0.7818608E-02  0.1130116E+00
         25   -1    0    0    0    0  0.00000000000E+00  0.00000000000E+00  0.99999998245E-14  0.12500000000E+03  0.12500000000E+03 0.  0.
        -13    1    3    3    0    0  0.25978633016E+02  0.46607304608E+00 -0.55243059239E+02  0.61048450886E+02  0.10566000000E+00 0. -1.
         23    2    1    0    0    0  0.19599968933E+02  0.19460781585E+01 -0.19871977023E+02  0.97020695627E+02  0.92898729307E+02 0.  0.
         13    1    3    3    0    0 -0.63786640829E+01  0.14800051124E+01  0.35371082216E+02  0.35972244742E+02  0.10566000000E+00 0.  1.
         22    1    1    0    0    0 -0.19599968933E+02 -0.19460781585E+01  0.19871977023E+02  0.27979304373E+02  0.00000000000E+00 0. -1.
</event>
<event>
 5    1  0.9041381E-005  0.9118800E+02  0.7818608E-02  0.1130116E+00
         25   -1    0    0    0    0  0.00000000000E+00  0.00000000000E+00  0.99999998245E-14  0.12500000000E+03  0.12500000000E+03 0.  0.
        -13    1    3    3    0    0  0.23843435953E+02  0.71266953240E+00 -0.28849199708E+02  0.37434006247E+02  0.10566000000E+00 0. -1.
         23    2    1    0    0    0 -0.21449471583E+02 -0.19035441624E+02  0.29150373086E+01  0.96174224876E+02  0.91752690527E+02 0.  0.
         13    1    3    3    0    0 -0.45292907536E+02 -0.19748111156E+02  0.31764237016E+02  0.58740218629E+02  0.10566000000E+00 0.  1.
         22    1    1    0    0    0  0.21449471583E+02  0.19035441624E+02 -0.29150373086E+01  0.28825775124E+02  0.00000000000E+00 0.  1.
</event>
<event>
 5    1  0.9041381E-005  0.9118800E+02  0.7818608E-02  0.1130116E+00
         25   -1    0    0    0    0  0.00000000000E+00  0.00000000000E+00  0.99999998245E-14  0.12500000000E+03  0.12500000000E+03 0.  0.
        -13    1    3    3    0    0  0.54149417296E+02 -0.18406998654E+02  0.58093015637E+00  0.57195503642E+02  0.10566000000E+00 0.  1.
         23    2    1    0    0    0  0.29112829491E+02  0.89984072943E+01 -0.23925357455E+01  0.94434457274E+02  0.89351073405E+02 0.  0.
         13    1    3    3    0    0 -0.25036587805E+02  0.27405405948E+02 -0.29734659019E+01  0.37238953632E+02  0.10566000000E+00 0. -1.
         22    1    1    0    0    0 -0.29112829491E+02 -0.89984072943E+01  0.23925357455E+01  0.30565542726E+02  0.00000000000E+00 0.  1.
</event>
<event>
 5    1  0.9041381E-005  0.9118800E+02  0.7818608E-02  0.1130116E+00
         25   -1    0    0    0    0  0.00000000000E+00  0.00000000000E+00  0.99999998245E-14  0.12500000000E+03  0.12500000000E+03 0.  0.
        -13    1    3    3    0    0  0.73971263758E+01 -0.47045129749E+02 -0.86942534679E+01  0.48410359626E+02  0.10566000000E+00 0.  1.
         23    2    1    0    0    0  0.27059712433E+02 -0.98310984389E+01  0.10078747079E+02  0.94496562880E+02  0.89437915449E+02 0.  0.
         13    1    3    3    0    0  0.19662586057E+02  0.37214031310E+02  0.18773000547E+02  0.46086203254E+02  0.10566000000E+00 0. -1.
         22    1    1    0    0    0 -0.27059712433E+02  0.98310984389E+01 -0.10078747079E+02  0.30503437120E+02  0.00000000000E+00 0.  1.
</event>
<event>
 5    1  0.9041381E-005  0.9118800E+02  0.7818608E-02  0.1130116E+00
         25   -1    0    0    0    0  0.00000000000E+00  0.00000000000E+00  0.99999998245E-14  0.12500000000E+03  0.12500000000E+03 0.  0.
        -13    1    3    3    0    0 -0.38864471035E+01  0.35250217972E+02 -0.51420412475E+02  0.62464008207E+02  0.10566000000E+00 0.  1.
         23    2    1    0    0    0 -0.33535333626E+01  0.17376267836E+02 -0.26370748862E+02  0.93241579613E+02  0.87666384112E+02 0.  0.
         13    1    3    3    0    0  0.53291374092E+00 -0.17873950136E+02  0.25049663613E+02  0.30777571406E+02  0.10566000000E+00 0. -1.
         22    1    1    0    0    0  0.33535333626E+01 -0.17376267836E+02  0.26370748862E+02  0.31758420387E+02  0.00000000000E+00 0.  1.
</event>
<event>
 5    1  0.9041381E-005  0.9118800E+02  0.7818608E-02  0.1130116E+00
         25   -1    0    0    0    0  0.00000000000E+00  0.00000000000E+00  0.99999998245E-14  0.12500000000E+03  0.12500000000E+03 0.  0.
        -13    1    3    3    0    0 -0.15982725768E+02 -0.59665548768E+02 -0.21674804184E+01  0.61807235565E+02  0.10566000000E+00 0.  1.
         23    2    1    0    0    0 -0.94170694591E+01 -0.26680402860E+02 -0.71762182350E+01  0.95810563518E+02  0.91255908738E+02 0.  0.
         13    1    3    3    0    0  0.65656563092E+01  0.32985145908E+02 -0.50087378166E+01  0.34003327953E+02  0.10566000000E+00 0. -1.
         22    1    1    0    0    0  0.94170694591E+01  0.26680402860E+02  0.71762182350E+01  0.29189436482E+02  0.00000000000E+00 0.  1.
</event>
<event>
 5    1  0.9041381E-005  0.9118800E+02  0.7818608E-02  0.1130116E+00
         25   -1    0    0    0    0  0.00000000000E+00  0.00000000000E+00  0.99999998245E-14  0.12500000000E+03  0.12500000000E+03 0.  0.
        -13    1    3    3    0    0  0.13224865769E+02 -0.28101311393E+02  0.28414943302E+02  0.42095141566E+02  0.10566000000E+00 0. -1.
         23    2    1    0    0    0 -0.26580966282E+02 -0.80367848365E+01 -0.36293318715E+01  0.96994469674E+02  0.92863434238E+02 0.  0.
         13    1    3    3    0    0 -0.39805832051E+02  0.20064526556E+02 -0.32044275174E+02  0.54899328108E+02  0.10566000000E+00 0.  1.
         22    1    1    0    0    0  0.26580966282E+02  0.80367848365E+01  0.36293318715E+01  0.28005530326E+02  0.00000000000E+00 0.  1.
</event>
<event>
 5    1  0.9041381E-005  0.9118800E+02  0.7818608E-02  0.1130116E+00
         25   -1    0    0    0    0  0.00000000000E+00  0.00000000000E+00  0.99999998245E-14  0.12500000000E+03  0.12500000000E+03 0.  0.
        -13    1    3    3    0    0 -0.19940441799E+02 -0.23672605096E+02 -0.22505709692E+02  0.38269198893E+02  0.10566000000E+00 0.  1.
         23    2    1    0    0    0  0.21805740582E+02 -0.10561660720E+02  0.15508829048E+02  0.96232609123E+02  0.91832196318E+02 0.  0.
         13    1    3    3    0    0  0.41746182381E+02  0.13110944376E+02  0.38014538740E+02  0.57963410229E+02  0.10566000000E+00 0. -1.
         22    1    1    0    0    0 -0.21805740582E+02  0.10561660720E+02 -0.15508829048E+02  0.28767390877E+02  0.00000000000E+00 0. -1.
</event>
<event>
 5    1  0.9041381E-005  0.9118800E+02  0.7818608E-02  0.1130116E+00
         25   -1    0    0    0    0  0.00000000000E+00  0.00000000000E+00  0.99999998245E-14  0.12500000000E+03  0.12500000000E+03 0.  0.
        -13    1    3    3    0    0  0.70548704895E+01  0.55103389559E+02 -0.26436102082E+02  0.61522625073E+02  0.10566000000E+00 0. -1.
         23    2    1    0    0    0  0.14218313475E+00  0.22127387247E+02 -0.18548136368E+02  0.96126571988E+02  0.91687747256E+02 0.  0.
         13    1    3    3    0    0 -0.69126873547E+01 -0.32976002312E+02  0.78879657135E+01  0.34603946915E+02  0.10566000000E+00 0.  1.
         22    1    1    0    0    0 -0.14218313475E+00 -0.22127387247E+02  0.18548136368E+02  0.28873428012E+02  0.00000000000E+00 0. -1.
</event>
<event>
 5    1  0.9041381E-005  0.9118800E+02  0.7818608E-02  0.1130116E+00
         25   -1    0    0    0    0  0.00000000000E+00  0.00000000000E+00  0.99999998245E-14  0.12500000000E+03  0.12500000000E+03 0.  0.
        -13    1    3    3    0    0 -0.23072272203E+02  0.38232814043E+02 -0.12496614700E+02  0.46370835201E+02  0.10566000000E+00 0.  1.
         23    2    1    0    0    0 -0.22408205960E+02 -0.88600319186E+01 -0.19520135531E+02  0.93989299410E+02  0.88726122718E+02 0.  0.
         13    1    3    3    0    0  0.66406624337E+00 -0.47092845961E+02 -0.70235208304E+01  0.47618464209E+02  0.10566000000E+00 0. -1.
         22    1    1    0    0    0  0.22408205960E+02  0.88600319186E+01  0.19520135531E+02  0.31010700590E+02  0.00000000000E+00 0. -1.
</event>
<event>
 5    1  0.9041381E-005  0.9118800E+02  0.7818608E-02  0.1130116E+00
         25   -1    0    0    0    0  0.00000000000E+00  0.00000000000E+00  0.99999998245E-14  0.12500000000E+03  0.12500000000E+03 0.  0.
        -13    1    3    3    0    0  0.24424001932E+02 -0.18058432820E+02  0.12379750893E+02  0.32801040570E+02  0.10566000000E+00 0. -1.
         23    2    1    0    0    0 -0.17973194119E+02  0.10579894599E+02 -0.22189042445E+02  0.94548013510E+02  0.89509794869E+02 0.  0.
         13    1    3    3    0    0 -0.42397196051E+02  0.28638327419E+02 -0.34568793338E+02  0.61746972940E+02  0.10566000000E+00 0.  1.
         22    1    1    0    0    0  0.17973194119E+02 -0.10579894599E+02  0.22189042445E+02  0.30451986490E+02  0.00000000000E+00 0.  1.
</event>
<event>
 5    1  0.9041381E-005  0.9118800E+02  0.7818608E-02  0.1130116E+00
         25   -1    0    0    0    0  0.00000000000E+00  0.00000000000E+00  0.99999998245E-14  0.12500000000E+03  0.12500000000E+03 0.  0.
        -13    1    3    3    0    0  0.42592460026E+02  0.30943263404E+02 -0.18629121350E+02  0.55844950778E+02  0.10566000000E+00 0.  1.
         23    2    1    0    0    0  0.55286434037E+01  0.28733960692E+02 -0.55068076170E+01  0.95225324098E+02  0.90450710470E+02 0.  0.
         13    1    3    3    0    0 -0.37063816622E+02 -0.22093027116E+01  0.13122313732E+02  0.39380373320E+02  0.10566000000E+00 0. -1.
         22    1    1    0    0    0 -0.55286434037E+01 -0.28733960692E+02  0.55068076170E+01  0.29774675902E+02  0.00000000000E+00 0.  1.
</event>
<event>
 5    1  0.9041381E-005  0.9118800E+02  0.7818608E-02  0.1130116E+00
         25   -1    0    0    0    0  0.00000000000E+00  0.00000000000E+00  0.99999998245E-14  0.12500000000E+03  0.12500000000E+03 0.  0.
        -13    1    3    3    0    0 -0.16020521267E+02  0.51365969533E+02  0.91475718660E+01  0.54578467941E+02  0.10566000000E+00 0.  1.
         23    2    1    0    0    0 -0.25644297396E+02  0.13149756699E+02 -0.35031745860E+01  0.95968666542E+02  0.91472217834E+02 0.  0.
         13    1    3    3    0    0 -0.96237761297E+01 -0.38216212834E+02 -0.12650746452E+02  0.41390198601E+02  0.10566000000E+00 0. -1.
         22    1    1    0    0    0  0.25644297396E+02 -0.13149756699E+02  0.35031745860E+01  0.29031333458E+02  0.00000000000E+00 0.  1.
</event>
<event>
 5    1  0.9041381E-005  0.9118800E+02  0.7818608E-02  0.1130116E+00
         25   -1    0    0    0    0  0.00000000000E+00  0.00000000000E+00  0.99999998245E-14  0.12500000000E+03  0.12500000000E+03 0.  0.
        -13    1    3    3    0    0  0.26551039963E+02 -0.49698540720E+02  0.92107423141E+01  0.57094234480E+02  0.10566000000E+00 0. -1.
         23    2    1    0    0    0 -0.49346249674E+01 -0.27727780758E+02 -0.98745605055E+00  0.96819236725E+02  0.92627259385E+02 0.  0.
         13    1    3    3    0    0 -0.31485664931E+02  0.21970759962E+02 -0.10198198365E+02  0.39725002245E+02  0.10566000000E+00 0.  1.
         22    1    1    0    0    0  0.49346249674E+01  0.27727780758E+02  0.98745605055E+00  0.28180763275E+02  0.00000000000E+00 0. -1.
</event>
<event>
 5    1  0.9041381E-005  0.9118800E+02  0.7818608E-02  0.1130116E+00
         25   -1    0    0    0    0  0.00000000000E+00  0.00000000000E+00  0.99999998245E-14  0.12500000000E+03  0.12500000000E+03 0.  0.
        -13    1    3    3    0    0  0.11764566980E+02 -0.22305166632E+02 -0.54981273048E+02  0.60488652198E+02  0.10566000000E+00 0.  1.
         23    2    1    0    0    0  0.16317447748E+02 -0.81617391437E+01 -0.23964709975E+02  0.94880564231E+02  0.89973001828E+02 0.  0.
         13    1    3    3    0    0  0.45528807677E+01  0.14143427488E+02  0.31016563073E+02  0.34391912034E+02  0.10566000000E+00 0. -1.
         22    1    1    0    0    0 -0.16317447748E+02  0.81617391437E+01  0.23964709975E+02  0.30119435769E+02  0.00000000000E+00 0.  1.
</event>
<event>
 5    1  0.9041381E-005  0.9118800E+02  0.7818608E-02  0.1130116E+00
         25   -1    0    0    0    0  0.00000000000E+00  0.00000000000E+00  0.99999998245E-14  0.12500000000E+03  0.12500000000E+03 0.  0.
        -13    1    3    3    0    0  0.20492544247E+01  0.46987220288E+01  0.36723278712E+02  0.37079479444E+02  0.10566000000E+00 0. -1.
         23    2    1    0    0    0  0.18884955822E+02 -0.27825756901E+02 -0.31547536759E+01  0.91223280588E+02  0.84739720008E+02 0.  0.
         13    1    3    3    0    0  0.16835701398E+02 -0.32524478929E+02 -0.39878032388E+02  0.54143801144E+02  0.10566000000E+00 0.  1.
         22    1    1    0    0    0 -0.18884955822E+02  0.27825756901E+02  0.31547536759E+01  0.33776719412E+02  0.00000000000E+00 0.  1.
</event>
<event>
 5    1  0.9041381E-005  0.9118800E+02  0.7818608E-02  0.1130116E+00
         25   -1    0    0    0    0  0.00000000000E+00  0.00000000000E+00  0.99999998245E-14  0.12500000000E+03  0.12500000000E+03 0.  0.
        -13    1    3    3    0    0  0.39757979866E+02 -0.41244414694E+02 -0.68656158982E+01  0.57697023772E+02  0.10566000000E+00 0. -1.
         23    2    1    0    0    0  0.11213842364E+02 -0.24582154605E+02  0.11644037700E+02  0.95578643819E+02  0.90937676212E+02 0.  0.
         13    1    3    3    0    0 -0.28544137502E+02  0.16662260090E+02  0.18509653598E+02  0.37881620047E+02  0.10566000000E+00 0.  1.
         22    1    1    0    0    0 -0.11213842364E+02  0.24582154605E+02 -0.11644037700E+02  0.29421356181E+02  0.00000000000E+00 0. -1.
</event>
<event>
 5    1  0.9041381E-005  0.9118800E+02  0.7818608E-02  0.1130116E+00
         25   -1    0    0    0    0  0.00000000000E+00  0.00000000000E+00  0.99999998245E-14  0.12500000000E+03  0.12500000000E+03 0.  0.
        -13    1    3    3    0    0 -0.37954559315E+02 -0.12574955207E+02 -0.29200955483E+02  0.49511463687E+02  0.10566000000E+00 0. -1.
         23    2    1    0    0    0 -0.25852489981E+02  0.40330796522E+01  0.12501048872E+02  0.96001841565E+02  0.91517541441E+02 0.  0.
         13    1    3    3    0    0  0.12102069334E+02  0.16608034859E+02  0.41702004355E+02  0.46490377879E+02  0.10566000000E+00 0.  1.
         22    1    1    0    0    0  0.25852489981E+02 -0.40330796522E+01 -0.12501048872E+02  0.28998158435E+02  0.00000000000E+00 0. -1.
</event>
<event>
 5    1  0.9041381E-005  0.9118800E+02  0.7818608E-02  0.1130116E+00
         25   -1    0    0    0    0  0.00000000000E+00  0.00000000000E+00  0.99999998245E-14  0.12500000000E+03  0.12500000000E+03 0.  0.
        -13    1    3    3    0    0  0.47884339501E+02  0.10934935333E+02  0.99691950426E+01  0.50118647169E+02  0.10566000000E+00 0. -1.
         23    2    1    0    0    0  0.32659548461E+01  0.22577941399E+02  0.16710710003E+02  0.96721426350E+02  0.92495170618E+02 0.  0.
         13    1    3    3    0    0 -0.44618384655E+02  0.11643006066E+02  0.67415149603E+01  0.46602779182E+02  0.10566000000E+00 0.  1.
         22    1    1    0    0    0 -0.32659548461E+01 -0.22577941399E+02 -0.16710710003E+02  0.28278573650E+02  0.00000000000E+00 0.  1.
</event>
<event>
 5    1  0.9041381E-005  0.9118800E+02  0.7818608E-02  0.1130116E+00
         25   -1    0    0    0    0  0.00000000000E+00  0.00000000000E+00  0.99999998245E-14  0.12500000000E+03  0.12500000000E+03 0.  0.
        -13    1    3    3    0    0  0.17383954275E+02  0.14020216231E+01 -0.29393824594E+02  0.34178584218E+02  0.10566000000E+00 0. -1.
         23    2    1    0    0    0 -0.15431356642E+02 -0.95996379883E+01  0.22202456722E+02  0.96308034195E+02  0.91934805970E+02 0.  0.
         13    1    3    3    0    0 -0.32815310917E+02 -0.11001659611E+02  0.51596281315E+02  0.62129449976E+02  0.10566000000E+00 0.  1.
         22    1    1    0    0    0  0.15431356642E+02  0.95996379883E+01 -0.22202456722E+02  0.28691965805E+02  0.00000000000E+00 0.  1.
</event>
<event>
 5    1  0.9041381E-005  0.9118800E+02  0.7818608E-02  0.1130116E+00
         25   -1    0    0    0    0  0.00000000000E+00  0.00000000000E+00  0.99999998245E-14  0.12500000000E+03  0.12500000000E+03 0.  0.
        -13    1    3    3    0    0 -0.22683201706E+02 -0.31937687660E+02 -0.32685392242E+02  0.51018521762E+02  0.10566000000E+00 0.  1.
         23    2    1    0    0    0 -0.22640417730E+02  0.91590396284E+01 -0.18000896735E+02  0.94660111979E+02  0.89666203191E+02 0.  0.
         13    1    3    3    0    0  0.42783976438E-01  0.41096727289E+02  0.14684495507E+02  0.43641590217E+02  0.10566000000E+00 0. -1.
         22    1    1    0    0    0  0.22640417730E+02 -0.91590396284E+01  0.18000896735E+02  0.30339888021E+02  0.00000000000E+00 0.  1.
</event>
<event>
 5    1  0.9041381E-005  0.9118800E+02  0.7818608E-02  0.1130116E+00
         25   -1    0    0    0    0  0.00000000000E+00  0.00000000000E+00  0.99999998245E-14  0.12500000000E+03  0.12500000000E+03 0.  0.
        -13    1    3    3    0    0 -0.55473901216E+02  0.30229102533E+01 -0.88122877688E+01  0.56250860280E+02  0.10566000000E+00 0. -1.
         23    2    1    0    0    0 -0.18285623871E+02  0.58076636063E+01 -0.22002625302E+02  0.95807389341E+02  0.91251560728E+02 0.  0.
         13    1    3    3    0    0  0.37188277344E+02  0.27847533530E+01 -0.13190337533E+02  0.39556529061E+02  0.10566000000E+00 0.  1.
         22    1    1    0    0    0  0.18285623871E+02 -0.58076636063E+01  0.22002625302E+02  0.29192610659E+02  0.00000000000E+00 0. -1.
</event>
<event>
 5    1  0.9041381E-005  0.9118800E+02  0.7818608E-02  0.1130116E+00
         25   -1    0    0    0    0  0.00000000000E+00  0.00000000000E+00  0.99999998245E-14  0.12500000000E+03  0.12500000000E+03 0.  0.
        -13    1    3    3    0    0  0.31463834536E+02  0.17788826334E+02 -0.17439074035E+02  0.40131629587E+02  0.10566000000E+00 0. -1.
         23    2    1    0    0    0  0.11051090986E+02 -0.27791056231E+02  0.46362825693E+01  0.94735094012E+02  0.89770671730E+02 0.  0.
         13    1    3    3    0    0 -0.20412743550E+02 -0.45579882566E+02  0.22075356604E+02  0.54603464425E+02  0.10566000000E+00 0.  1.
         22    1    1    0    0    0 -0.11051090986E+02  0.27791056231E+02 -0.46362825693E+01  0.30264905988E+02  0.00000000000E+00 0.  1.
</event>
<event>
 5    1  0.9041381E-005  0.9118800E+02  0.7818608E-02  0.1130116E+00
         25   -1    0    0    0    0  0.00000000000E+00  0.00000000000E+00  0.99999998245E-14  0.12500000000E+03  0.12500000000E+03 0.  0.
        -13    1    3    3    0    0 -0.32425155400E+02  0.24849860403E+02 -0.25063438627E+02  0.47928002093E+02  0.10566000000E+00 0.  1.
         23    2    1    0    0    0 -0.24841942765E+02 -0.16697410121E+02 -0.51222098191E+01  0.94632868780E+02  0.89628216511E+02 0.  0.
         13    1    3    3    0    0  0.75832126352E+01 -0.41547270524E+02  0.19941228808E+02  0.46704866687E+02  0.10566000000E+00 0. -1.
         22    1    1    0    0    0  0.24841942765E+02  0.16697410121E+02  0.51222098191E+01  0.30367131220E+02  0.00000000000E+00 0.  1.
</event>
<event>
 5    1  0.9041381E-005  0.9118800E+02  0.7818608E-02  0.1130116E+00
         25   -1    0    0    0    0  0.00000000000E+00  0.00000000000E+00  0.99999998245E-14  0.12500000000E+03  0.12500000000E+03 0.  0.
        -13    1    3    3    0    0  0.30483363577E+02 -0.30952348026E+01  0.16404390735E+02  0.34755303665E+02  0.10566000000E+00 0.  1.
         23    2    1    0    0    0 -0.23234332201E+02  0.19555343381E+02  0.38652545531E+01  0.94386508851E+02  0.89283969517E+02 0.  0.
         13    1    3    3    0    0 -0.53717695778E+02  0.22650578183E+02 -0.12539136182E+02  0.59631205186E+02  0.10566000000E+00 0. -1.
         22    1    1    0    0    0  0.23234332201E+02 -0.19555343381E+02 -0.38652545531E+01  0.30613491149E+02  0.00000000000E+00 0. -1.
</event>
<event>
 5    1  0.9041381E-005  0.9118800E+02  0.7818608E-02  0.1130116E+00
         25   -1    0    0    0    0  0.00000000000E+00  0.00000000000E+00  0.99999998245E-14  0.12500000000E+03  0.12500000000E+03 0.  0.
        -13    1    3    3    0    0 -0.62836224632E+00 -0.26262322244E+02 -0.19783955528E+02  0.32886478515E+02  0.10566000000E+00 0. -1.
         23    2    1    0    0    0 -0.98430357588E+00  0.30114164494E+02  0.49759595003E+01  0.94461631844E+02  0.89389081889E+02 0.  0.
         13    1    3    3    0    0 -0.35594132955E+00  0.56376486738E+02  0.24759915028E+02  0.61575153328E+02  0.10566000000E+00 0.  1.
         22    1    1    0    0    0  0.98430357588E+00 -0.30114164494E+02 -0.49759595003E+01  0.30538368156E+02  0.00000000000E+00 0.  1.
</event>
<event>
 5    1  0.9041381E-005  0.9118800E+02  0.7818608E-02  0.1130116E+00
         25   -1    0    0    0    0  0.00000000000E+00  0.00000000000E+00  0.99999998245E-14  0.12500000000E+03  0.12500000000E+03 0.  0.
        -13    1    3    3    0    0  0.17723264850E+02 -0.28255373939E+02  0.17942951673E+02  0.37874014207E+02  0.10566000000E+00 0. -1.
         23    2    1    0    0    0 -0.77581900822E+01 -0.45097109209E+01 -0.28039807340E+02  0.95559249303E+02  0.90911013225E+02 0.  0.
         13    1    3    3    0    0 -0.25481454932E+02  0.23745663018E+02 -0.45982759013E+02  0.57685235096E+02  0.10566000000E+00 0.  1.
         22    1    1    0    0    0  0.77581900822E+01  0.45097109209E+01  0.28039807340E+02  0.29440750697E+02  0.00000000000E+00 0.  1.
</event>
<event>
 5    1  0.9041381E-005  0.9118800E+02  0.7818608E-02  0.1130116E+00
         25   -1    0    0    0    0  0.00000000000E+00  0.00000000000E+00  0.99999998245E-14  0.12500000000E+03  0.12500000000E+03 0.  0.
        -13    1    3    3    0    0  0.12634655939E+02 -0.10860392891E+02  0.33694120701E+02  0.37588397123E+02  0.10566000000E+00 0. -1.
         23    2    1    0    0    0 -0.31373746480E+02  0.24414169600E+01  0.19236555607E+01  0.93472663676E+02  0.87995260775E+02 0.  0.
         13    1    3    3    0    0 -0.44008402419E+02  0.13301809851E+02 -0.31770465141E+02  0.55884266552E+02  0.10566000000E+00 0.  1.
         22    1    1    0    0    0  0.31373746480E+02 -0.24414169600E+01 -0.19236555607E+01  0.31527336324E+02  0.00000000000E+00 0.  1.
</event>
<event>
 5    1  0.9041381E-005  0.9118800E+02  0.7818608E-02  0.1130116E+00
         25   -1    0    0    0    0  0.00000000000E+00  0.00000000000E+00  0.99999998245E-14  0.12500000000E+03  0.12500000000E+03 0.  0.
        -13    1    3    3    0    0  0.27575117777E+02  0.19593579550E+02  0.67464799356E+01  0.34493791261E+02  0.10566000000E+00 0.  1.
         23    2    1    0    0    0 -0.22744111049E+02  0.30227995282E+00 -0.20049754965E+02  0.94678742857E+02  0.89692171979E+02 0.  0.
         13    1    3    3    0    0 -0.50319228825E+02 -0.19291299597E+02 -0.26796234901E+02  0.60184951596E+02  0.10566000000E+00 0. -1.
         22    1    1    0    0    0  0.22744111049E+02 -0.30227995282E+00  0.20049754965E+02  0.30321257143E+02  0.00000000000E+00 0. -1.
</event>
<event>
 5    1  0.9041381E-005  0.9118800E+02  0.7818608E-02  0.1130116E+00
         25   -1    0    0    0    0  0.00000000000E+00  0.00000000000E+00  0.99999998245E-14  0.12500000000E+03  0.12500000000E+03 0.  0.
        -13    1    3    3    0    0 -0.97356068218E+01 -0.36668810301E+02  0.43231739622E+02  0.57518502796E+02  0.10566000000E+00 0.  1.
         23    2    1    0    0    0 -0.17195695091E+02 -0.21551527370E+02  0.84618452952E+01  0.96159696821E+02  0.91732895982E+02 0.  0.
         13    1    3    3    0    0 -0.74600882688E+01  0.15117282931E+02 -0.34769894327E+02  0.38641194025E+02  0.10566000000E+00 0. -1.
         22    1    1    0    0    0  0.17195695091E+02  0.21551527370E+02 -0.84618452952E+01  0.28840303179E+02  0.00000000000E+00 0. -1.
</event>
<event>
 5    1  0.9041381E-005  0.9118800E+02  0.7818608E-02  0.1130116E+00
         25   -1    0    0    0    0  0.00000000000E+00  0.00000000000E+00  0.99999998245E-14  0.12500000000E+03  0.12500000000E+03 0.  0.
        -13    1    3    3    0    0 -0.28135428246E+02 -0.51517195488E+01  0.18631197860E+02  0.34136127997E+02  0.10566000000E+00 0.  1.
         23    2    1    0    0    0  0.29855638257E+02  0.40626379948E+01  0.44565964528E+01  0.94541414754E+02  0.89500579264E+02 0.  0.
         13    1    3    3    0    0  0.57991066503E+02  0.92143575436E+01 -0.14174601407E+02  0.60405286757E+02  0.10566000000E+00 0. -1.
         22    1    1    0    0    0 -0.29855638257E+02 -0.40626379948E+01 -0.44565964528E+01  0.30458585246E+02  0.00000000000E+00 0. -1.
</event>
<event>
 5    1  0.9041381E-005  0.9118800E+02  0.7818608E-02  0.1130116E+00
         25   -1    0    0    0    0  0.00000000000E+00  0.00000000000E+00  0.99999998245E-14  0.12500000000E+03  0.12500000000E+03 0.  0.
        -13    1    3    3    0    0  0.39989311923E+02  0.40276833327E+02 -0.10735294423E+02  0.57763535915E+02  0.10566000000E+00 0.  1.
         23    2    1    0    0    0  0.10105229156E+02  0.25962867179E+02  0.82391082251E+01  0.95947133828E+02  0.91442787890E+02 0.  0.
         13    1    3    3    0    0 -0.29884082767E+02 -0.14313966148E+02  0.18974402648E+02  0.38183597913E+02  0.10566000000E+00 0. -1.
         22    1    1    0    0    0 -0.10105229156E+02 -0.25962867179E+02 -0.82391082251E+01  0.29052866172E+02  0.00000000000E+00 0.  1.
</event>
<event>
 5    1  0.9041381E-005  0.9118800E+02  0.7818608E-02  0.1130116E+00
         25   -1    0    0    0    0  0.00000000000E+00  0.00000000000E+00  0.99999998245E-14  0.12500000000E+03  0.12500000000E+03 0.  0.
        -13    1    3    3    0    0  0.99549215317E+01 -0.26992989452E+02  0.18070374653E+02  0.33974572056E+02  0.10566000000E+00 0. -1.
         23    2    1    0    0    0 -0.14656557656E+02  0.17173167460E+02 -0.18035337120E+02  0.96103533988E+02  0.91656333644E+02 0.  0.
         13    1    3    3    0    0 -0.24611479188E+02  0.44166156912E+02 -0.36105711773E+02  0.62128961933E+02  0.10566000000E+00 0.  1.
         22    1    1    0    0    0  0.14656557656E+02 -0.17173167460E+02  0.18035337120E+02  0.28896466012E+02  0.00000000000E+00 0.  1.
</event>
<event>
 5    1  0.9041381E-005  0.9118800E+02  0.7818608E-02  0.1130116E+00
         25   -1    0    0    0    0  0.00000000000E+00  0.00000000000E+00  0.99999998245E-14  0.12500000000E+03  0.12500000000E+03 0.  0.
        -13    1    3    3    0    0  0.23721728132E+02  0.14014650242E+02  0.55793921537E+02  0.62226229610E+02  0.10566000000E+00 0.  1.
         23    2    1    0    0    0  0.14597564926E+02  0.74129909013E+01  0.24072254513E+02  0.95887893013E+02  0.91361771290E+02 0.  0.
         13    1    3    3    0    0 -0.91241632061E+01 -0.66016593404E+01 -0.31721667024E+02  0.33661663403E+02  0.10566000000E+00 0. -1.
         22    1    1    0    0    0 -0.14597564926E+02 -0.74129909013E+01 -0.24072254513E+02  0.29112106987E+02  0.00000000000E+00 0.  1.
</event>
<event>
 5    1  0.9041381E-005  0.9118800E+02  0.7818608E-02  0.1130116E+00
         25   -1    0    0    0    0  0.00000000000E+00  0.00000000000E+00  0.99999998245E-14  0.12500000000E+03  0.12500000000E+03 0.  0.
        -13    1    3    3    0    0 -0.17023111886E+02 -0.34344485143E+02 -0.38053166854E+02  0.54012819494E+02  0.10566000000E+00 0.  1.
         23    2    1    0    0    0 -0.10644342641E+02  0.47586923498E+01 -0.27674180382E+02  0.94969891060E+02  0.90097018625E+02 0.  0.
         13    1    3    3    0    0  0.63787692451E+01  0.39103177492E+02  0.10378986473E+02  0.40957071567E+02  0.10566000000E+00 0. -1.
         22    1    1    0    0    0  0.10644342641E+02 -0.47586923498E+01  0.27674180382E+02  0.30030108940E+02  0.00000000000E+00 0.  1.
</event>
<event>
 5    1  0.9041381E-005  0.9118800E+02  0.7818608E-02  0.1130116E+00
         25   -1    0    0    0    0  0.00000000000E+00  0.00000000000E+00  0.99999998245E-14  0.12500000000E+03  0.12500000000E+03 0.  0.
        -13    1    3    3    0    0  0.13652224134E+02  0.98046961231E+01  0.28396811249E+02  0.32998565773E+02  0.10566000000E+00 0. -1.
         23    2    1    0    0    0 -0.28816093768E+02  0.26358489300E+02  0.24837161386E+02  0.78718018582E+02  0.63674992309E+02 0.  0.
         13    1    3    3    0    0 -0.42468317902E+02  0.16553793177E+02 -0.35596498638E+01  0.45719452810E+02  0.10566000000E+00 0.  1.
         22    1    1    0    0    0  0.28816093768E+02 -0.26358489300E+02 -0.24837161386E+02  0.46281981418E+02  0.00000000000E+00 0. -1.
</event>
<event>
 5    1  0.9041381E-005  0.9118800E+02  0.7818608E-02  0.1130116E+00
         25   -1    0    0    0    0  0.00000000000E+00  0.00000000000E+00  0.99999998245E-14  0.12500000000E+03  0.12500000000E+03 0.  0.
        -13    1    3    3    0    0  0.17757023219E+02 -0.12818264722E+02  0.38040287444E+02  0.43894127363E+02  0.10566000000E+00 0. -1.
         23    2    1    0    0    0 -0.25186376240E+02  0.40150236394E+01  0.13862968585E+02  0.95971464713E+02  0.91476041553E+02 0.  0.
         13    1    3    3    0    0 -0.42943399460E+02  0.16833288362E+02 -0.24177318859E+02  0.52077337350E+02  0.10566000000E+00 0.  1.
         22    1    1    0    0    0  0.25186376240E+02 -0.40150236394E+01 -0.13862968585E+02  0.29028535287E+02  0.00000000000E+00 0.  1.
</event>
<event>
 5    1  0.9041381E-005  0.9118800E+02  0.7818608E-02  0.1130116E+00
         25   -1    0    0    0    0  0.00000000000E+00  0.00000000000E+00  0.99999998245E-14  0.12500000000E+03  0.12500000000E+03 0.  0.
        -13    1    3    3    0    0  0.88471638979E+01  0.50295453944E+02  0.35894416035E+02  0.62420551608E+02  0.10566000000E+00 0.  1.
         23    2    1    0    0    0  0.25665913489E+01  0.24665013151E+02  0.15703012128E+02  0.95648086012E+02  0.91033079169E+02 0.  0.
         13    1    3    3    0    0 -0.62805725490E+01 -0.25630440793E+02 -0.20191403908E+02  0.33227534404E+02  0.10566000000E+00 0. -1.
         22    1    1    0    0    0 -0.25665913489E+01 -0.24665013151E+02 -0.15703012128E+02  0.29351913988E+02  0.00000000000E+00 0.  1.
</event>
<event>
 5    1  0.9041381E-005  0.9118800E+02  0.7818608E-02  0.1130116E+00
         25   -1    0    0    0    0  0.00000000000E+00  0.00000000000E+00  0.99999998245E-14  0.12500000000E+03  0.12500000000E+03 0.  0.
        -13    1    3    3    0    0 -0.10862434088E+00  0.32650657866E+02  0.37061312398E+01  0.32860673017E+02  0.10566000000E+00 0. -1.
         23    2    1    0    0    0  0.46750244178E+01 -0.26164884320E+02 -0.14638565495E+02  0.94656225935E+02  0.89660785651E+02 0.  0.
         13    1    3    3    0    0  0.47836487587E+01 -0.58815542186E+02 -0.18344696735E+02  0.61795552918E+02  0.10566000000E+00 0.  1.
         22    1    1    0    0    0 -0.46750244178E+01  0.26164884320E+02  0.14638565495E+02  0.30343774065E+02  0.00000000000E+00 0.  1.
</event>
<event>
 5    1  0.9041381E-005  0.9118800E+02  0.7818608E-02  0.1130116E+00
         25   -1    0    0    0    0  0.00000000000E+00  0.00000000000E+00  0.99999998245E-14  0.12500000000E+03  0.12500000000E+03 0.  0.
        -13    1    3    3    0    0  0.57627738024E+01 -0.38976180481E+02 -0.86566071542E+01  0.40339809348E+02  0.10566000000E+00 0. -1.
         23    2    1    0    0    0 -0.28819274097E+02  0.37125825857E+01 -0.89653107784E-01  0.95942438736E+02  0.91436369591E+02 0.  0.
         13    1    3    3    0    0 -0.34582047900E+02  0.42688763067E+02  0.85669540464E+01  0.55602629387E+02  0.10566000000E+00 0.  1.
         22    1    1    0    0    0  0.28819274097E+02 -0.37125825857E+01  0.89653107784E-01  0.29057561264E+02  0.00000000000E+00 0.  1.
</event>
<event>
 5    1  0.9041381E-005  0.9118800E+02  0.7818608E-02  0.1130116E+00
         25   -1    0    0    0    0  0.00000000000E+00  0.00000000000E+00  0.99999998245E-14  0.12500000000E+03  0.12500000000E+03 0.  0.
        -13    1    3    3    0    0 -0.46513704980E+02  0.15203763696E+02  0.24753919354E+02  0.54840193917E+02  0.10566000000E+00 0. -1.
         23    2    1    0    0    0 -0.74512278413E+01  0.22608949334E+02  0.17971359834E+02  0.95172912301E+02  0.90378250012E+02 0.  0.
         13    1    3    3    0    0  0.39062477139E+02  0.74051856382E+01 -0.67825595199E+01  0.40332718384E+02  0.10566000000E+00 0.  1.
         22    1    1    0    0    0  0.74512278413E+01 -0.22608949334E+02 -0.17971359834E+02  0.29827087699E+02  0.00000000000E+00 0. -1.
</event>
<event>
 5    1  0.9041381E-005  0.9118800E+02  0.7818608E-02  0.1130116E+00
         25   -1    0    0    0    0  0.00000000000E+00  0.00000000000E+00  0.99999998245E-14  0.12500000000E+03  0.12500000000E+03 0.  0.
        -13    1    3    3    0    0 -0.14847734082E+02 -0.55252059964E+01  0.36891615304E+02  0.40149539878E+02  0.10566000000E+00 0. -1.
         23    2    1    0    0    0 -0.32447072034E+01 -0.27098719582E+02 -0.12270265345E+02  0.95076294690E+02  0.90244521565E+02 0.  0.
         13    1    3    3    0    0  0.11603026878E+02 -0.21573513586E+02 -0.49161880649E+02  0.54926754812E+02  0.10566000000E+00 0.  1.
         22    1    1    0    0    0  0.32447072034E+01  0.27098719582E+02  0.12270265345E+02  0.29923705310E+02  0.00000000000E+00 0.  1.
</event>
<event>
 5    1  0.9041381E-005  0.9118800E+02  0.7818608E-02  0.1130116E+00
         25   -1    0    0    0    0  0.00000000000E+00  0.00000000000E+00  0.99999998245E-14  0.12500000000E+03  0.12500000000E+03 0.  0.
        -13    1    3    3    0    0 -0.35793443116E+02 -0.31092968529E+02 -0.23492915916E+02  0.52913812227E+02  0.10566000000E+00 0.  1.
         23    2    1    0    0    0 -0.21899014248E+02  0.84267948450E+01 -0.18536292267E+02  0.95097293979E+02  0.90273603532E+02 0.  0.
         13    1    3    3    0    0  0.13894428868E+02  0.39519763374E+02  0.49566236495E+01  0.42183481752E+02  0.10566000000E+00 0. -1.
         22    1    1    0    0    0  0.21899014248E+02 -0.84267948450E+01  0.18536292267E+02  0.29902706021E+02  0.00000000000E+00 0.  1.
</event>
<event>
 5    1  0.9041381E-005  0.9118800E+02  0.7818608E-02  0.1130116E+00
         25   -1    0    0    0    0  0.00000000000E+00  0.00000000000E+00  0.99999998245E-14  0.12500000000E+03  0.12500000000E+03 0.  0.
        -13    1    3    3    0    0 -0.13596026132E+02 -0.30410643396E+02  0.16526535134E+02  0.37185974317E+02  0.10566000000E+00 0.  1.
         23    2    1    0    0    0  0.66628339558E+01  0.16119249222E+02 -0.19056254267E+02  0.99166603427E+02  0.95742628210E+02 0.  0.
         13    1    3    3    0    0  0.20258860088E+02  0.46529892618E+02 -0.35582789402E+02  0.61980629109E+02  0.10566000000E+00 0. -1.
         22    1    1    0    0    0 -0.66628339558E+01 -0.16119249222E+02  0.19056254267E+02  0.25833396573E+02  0.00000000000E+00 0. -1.
</event>
<event>
 5    1  0.9041381E-005  0.9118800E+02  0.7818608E-02  0.1130116E+00
         25   -1    0    0    0    0  0.00000000000E+00  0.00000000000E+00  0.99999998245E-14  0.12500000000E+03  0.12500000000E+03 0.  0.
        -13    1    3    3    0    0  0.28313081210E+02 -0.81968207863E+01  0.90054204018E+01  0.30820889008E+02  0.10566000000E+00 0.  1.
         23    2    1    0    0    0  0.10517688750E+02  0.26663804390E+02 -0.28176701658E+02  0.84806632916E+02  0.74677026113E+02 0.  0.
         13    1    3    3    0    0 -0.17795392459E+02  0.34860625176E+02 -0.37182122060E+02  0.53985743909E+02  0.10566000000E+00 0. -1.
         22    1    1    0    0    0 -0.10517688750E+02 -0.26663804390E+02  0.28176701658E+02  0.40193367084E+02  0.00000000000E+00 0. -1.
</event>
<event>
 5    1  0.9041381E-005  0.9118800E+02  0.7818608E-02  0.1130116E+00
         25   -1    0    0    0    0  0.00000000000E+00  0.00000000000E+00  0.99999998245E-14  0.12500000000E+03  0.12500000000E+03 0.  0.
        -13    1    3    3    0    0  0.33880009825E+02 -0.25695610551E+02  0.10865080987E+02  0.43888274245E+02  0.10566000000E+00 0.  1.
         23    2    1    0    0    0  0.65413715223E+01 -0.46114505010E+01 -0.28003077995E+02  0.95875656329E+02  0.91345027681E+02 0.  0.
         13    1    3    3    0    0 -0.27338638302E+02  0.21084160050E+02 -0.38868158982E+02  0.51987382084E+02  0.10566000000E+00 0. -1.
         22    1    1    0    0    0 -0.65413715223E+01  0.46114505010E+01  0.28003077995E+02  0.29124343671E+02  0.00000000000E+00 0. -1.
</event>
<event>
 5    1  0.9041381E-005  0.9118800E+02  0.7818608E-02  0.1130116E+00
         25   -1    0    0    0    0  0.00000000000E+00  0.00000000000E+00  0.99999998245E-14  0.12500000000E+03  0.12500000000E+03 0.  0.
        -13    1    3    3    0    0  0.43474872772E+02  0.35104245523E+02 -0.17513972821E+02  0.58558714332E+02  0.10566000000E+00 0. -1.
         23    2    1    0    0    0  0.14717608593E+02  0.24945355743E+02  0.38299360441E+01  0.95784470123E+02  0.91220159673E+02 0.  0.
         13    1    3    3    0    0 -0.28757264178E+02 -0.10158889779E+02  0.21343908865E+02  0.37225755791E+02  0.10566000000E+00 0.  1.
         22    1    1    0    0    0 -0.14717608593E+02 -0.24945355743E+02 -0.38299360441E+01  0.29215529877E+02  0.00000000000E+00 0. -1.
</event>
<event>
 5    1  0.9041381E-005  0.9118800E+02  0.7818608E-02  0.1130116E+00
         25   -1    0    0    0    0  0.00000000000E+00  0.00000000000E+00  0.99999998245E-14  0.12500000000E+03  0.12500000000E+03 0.  0.
        -13    1    3    3    0    0  0.29608256967E+02 -0.15638972261E+02  0.33638837880E+02  0.47463764199E+02  0.10566000000E+00 0. -1.
         23    2    1    0    0    0  0.35734203773E+01  0.22504035461E+02  0.17076951777E+02  0.96525042103E+02  0.92229390792E+02 0.  0.
         13    1    3    3    0    0 -0.26034836590E+02  0.38143007722E+02 -0.16561886102E+02  0.49061277904E+02  0.10566000000E+00 0.  1.
         22    1    1    0    0    0 -0.35734203773E+01 -0.22504035461E+02 -0.17076951777E+02  0.28474957897E+02  0.00000000000E+00 0. -1.
</event>
<event>
 5    1  0.9041381E-005  0.9118800E+02  0.7818608E-02  0.1130116E+00
         25   -1    0    0    0    0  0.00000000000E+00  0.00000000000E+00  0.99999998245E-14  0.12500000000E+03  0.12500000000E+03 0.  0.
        -13    1    3    3    0    0 -0.73254397446E-01 -0.34286879356E+02  0.39000902534E+02  0.51929539038E+02  0.10566000000E+00 0. -1.
         23    2    1    0    0    0  0.11047744324E+02  0.66786013731E+01  0.25406911490E+02  0.96501447012E+02  0.92197406434E+02 0.  0.
         13    1    3    3    0    0  0.11120998721E+02  0.40965480729E+02 -0.13593991044E+02  0.44571907974E+02  0.10566000000E+00 0.  1.
         22    1    1    0    0    0 -0.11047744324E+02 -0.66786013731E+01 -0.25406911490E+02  0.28498552988E+02  0.00000000000E+00 0. -1.
</event>
<event>
 5    1  0.9041381E-005  0.9118800E+02  0.7818608E-02  0.1130116E+00
         25   -1    0    0    0    0  0.00000000000E+00  0.00000000000E+00  0.99999998245E-14  0.12500000000E+03  0.12500000000E+03 0.  0.
        -13    1    3    3    0    0  0.24416532359E+02  0.31614517030E+02 -0.43465332432E+00  0.39948026572E+02  0.10566000000E+00 0. -1.
         23    2    1    0    0    0  0.65243669808E+01 -0.15568817357E+01  0.33604070823E+02  0.90733036010E+02  0.84013445367E+02 0.  0.
         13    1    3    3    0    0 -0.17892165378E+02 -0.33171398766E+02  0.34038724147E+02  0.50785009438E+02  0.10566000000E+00 0.  1.
         22    1    1    0    0    0 -0.65243669808E+01  0.15568817357E+01 -0.33604070823E+02  0.34266963990E+02  0.00000000000E+00 0.  1.
</event>
<event>
 5    1  0.9041381E-005  0.9118800E+02  0.7818608E-02  0.1130116E+00
         25   -1    0    0    0    0  0.00000000000E+00  0.00000000000E+00  0.99999998245E-14  0.12500000000E+03  0.12500000000E+03 0.  0.
        -13    1    3    3    0    0 -0.12806136477E+02 -0.20810094605E+01  0.42751938352E+02  0.44677367075E+02  0.10566000000E+00 0.  1.
         23    2    1    0    0    0  0.23417825183E+02 -0.15820935640E+02  0.11361430702E+02  0.94540540904E+02  0.89499358802E+02 0.  0.
         13    1    3    3    0    0  0.36223961661E+02 -0.13739926179E+02 -0.31390507649E+02  0.49863173829E+02  0.10566000000E+00 0. -1.
         22    1    1    0    0    0 -0.23417825183E+02  0.15820935640E+02 -0.11361430702E+02  0.30459459096E+02  0.00000000000E+00 0.  1.
</event>
<event>
 5    1  0.9041381E-005  0.9118800E+02  0.7818608E-02  0.1130116E+00
         25   -1    0    0    0    0  0.00000000000E+00  0.00000000000E+00  0.99999998245E-14  0.12500000000E+03  0.12500000000E+03 0.  0.
        -13    1    3    3    0    0 -0.14489570828E+02 -0.31139430650E+01 -0.41518346269E+02  0.44084334464E+02  0.10566000000E+00 0.  1.
         23    2    1    0    0    0  0.21337469424E+02  0.16920828244E+02 -0.94488205641E+01  0.96174971987E+02  0.91753708355E+02 0.  0.
         13    1    3    3    0    0  0.35827040252E+02  0.20034771309E+02  0.32069525705E+02  0.52090637523E+02  0.10566000000E+00 0. -1.
         22    1    1    0    0    0 -0.21337469424E+02 -0.16920828244E+02  0.94488205641E+01  0.28825028013E+02  0.00000000000E+00 0. -1.
</event>
<event>
 5    1  0.9041381E-005  0.9118800E+02  0.7818608E-02  0.1130116E+00
         25   -1    0    0    0    0  0.00000000000E+00  0.00000000000E+00  0.99999998245E-14  0.12500000000E+03  0.12500000000E+03 0.  0.
        -13    1    3    3    0    0  0.19607512697E+02  0.54679464303E+01  0.41686382547E+02  0.46390932802E+02  0.10566000000E+00 0. -1.
         23    2    1    0    0    0  0.10606738659E+02 -0.26410249553E+02  0.45091150864E+01  0.96184443346E+02  0.91766610684E+02 0.  0.
         13    1    3    3    0    0 -0.90007740377E+01 -0.31878195983E+02 -0.37177267461E+02  0.49793510544E+02  0.10566000000E+00 0.  1.
         22    1    1    0    0    0 -0.10606738659E+02  0.26410249553E+02 -0.45091150864E+01  0.28815556654E+02  0.00000000000E+00 0. -1.
</event>
<event>
 4    1  0.9041381E-005  0.9118800E+02  0.7818608E-02  0.1130116E+00
         25   -1    0    0    0    0  0.00000000000E+00  0.00000000000E+00  0.99999998245E-14  0.12500000000E+03  0.12500000000E+03 0.  0.
        -13    1    1    0    0    0  0.17490762959E+02  0.12589155856E+01 -0.13499899886E+01  0.17588214644E+02  0.10566000000E+00 0.  1.
         13    1    1    0    0    0 -0.29399638614E+01  0.38834450568E+02  0.35557950803E+02  0.52736486116E+02  0.10566000000E+00 0. -1.
         22    1    1    0    0    0 -0.14550799098E+02 -0.40093366154E+02 -0.34207960815E+02  0.54675299241E+02  0.00000000000E+00 0. -1.
</event>
<event>
 5    1  0.9041381E-005  0.9118800E+02  0.7818608E-02  0.1130116E+00
         25   -1    0    0    0    0  0.00000000000E+00  0.00000000000E+00  0.99999998245E-14  0.12500000000E+03  0.12500000000E+03 0.  0.
        -13    1    3    3    0    0 -0.16147449681E+02  0.12793644342E+02 -0.26148400043E+02  0.33289149217E+02  0.10566000000E+00 0.  1.
         23    2    1    0    0    0  0.33263209511E+02  0.29021554917E+01  0.29534249636E+01  0.91480060673E+02  0.85117654857E+02 0.  0.
         13    1    3    3    0    0  0.49410659191E+02 -0.98914888503E+01  0.29101825007E+02  0.58190911457E+02  0.10566000000E+00 0. -1.
         22    1    1    0    0    0 -0.33263209511E+02 -0.29021554917E+01 -0.29534249636E+01  0.33519939327E+02  0.00000000000E+00 0. -1.
</event>
<event>
 5    1  0.9041381E-005  0.9118800E+02  0.7818608E-02  0.1130116E+00
         25   -1    0    0    0    0  0.00000000000E+00  0.00000000000E+00  0.99999998245E-14  0.12500000000E+03  0.12500000000E+03 0.  0.
        -13    1    3    3    0    0  0.39125645637E+01 -0.10181862535E+02  0.57532930726E+02  0.58557900988E+02  0.10566000000E+00 0.  1.
         23    2    1    0    0    0 -0.12223026877E+02 -0.10549404345E+02  0.20892714663E+02  0.98595495762E+02  0.94994073186E+02 0.  0.
         13    1    3    3    0    0 -0.16135591441E+02 -0.36754180985E+00 -0.36640216063E+02  0.40037594774E+02  0.10566000000E+00 0. -1.
         22    1    1    0    0    0  0.12223026877E+02  0.10549404345E+02 -0.20892714663E+02  0.26404504238E+02  0.00000000000E+00 0.  1.
</event>
<event>
 5    1  0.9041381E-005  0.9118800E+02  0.7818608E-02  0.1130116E+00
         25   -1    0    0    0    0  0.00000000000E+00  0.00000000000E+00  0.99999998245E-14  0.12500000000E+03  0.12500000000E+03 0.  0.
        -13    1    3    3    0    0  0.84344481793E+01 -0.25343697482E+01 -0.33817911322E+02  0.34946033199E+02  0.10566000000E+00 0.  1.
         23    2    1    0    0    0 -0.60333070716E+01 -0.81060056672E+01  0.26192007772E+02  0.96926357678E+02  0.92771705921E+02 0.  0.
         13    1    3    3    0    0 -0.14467755251E+02 -0.55716359191E+01  0.60009919094E+02  0.61980324479E+02  0.10566000000E+00 0. -1.
         22    1    1    0    0    0  0.60333070716E+01  0.81060056672E+01 -0.26192007772E+02  0.28073642322E+02  0.00000000000E+00 0. -1.
</event>
<event>
 5    1  0.9041381E-005  0.9118800E+02  0.7818608E-02  0.1130116E+00
         25   -1    0    0    0    0  0.00000000000E+00  0.00000000000E+00  0.99999998245E-14  0.12500000000E+03  0.12500000000E+03 0.  0.
        -13    1    3    3    0    0 -0.17977892634E+02 -0.33783375642E+02  0.36192990563E+02  0.52673188847E+02  0.10566000000E+00 0.  1.
         23    2    1    0    0    0  0.15948237842E+02 -0.20842611318E+02  0.13565164634E+02  0.95457244063E+02  0.90770650630E+02 0.  0.
         13    1    3    3    0    0  0.33926130477E+02  0.12940764324E+02 -0.22627825929E+02  0.42784055216E+02  0.10566000000E+00 0. -1.
         22    1    1    0    0    0 -0.15948237842E+02  0.20842611318E+02 -0.13565164634E+02  0.29542755937E+02  0.00000000000E+00 0.  1.
</event>
<event>
 5    1  0.9041381E-005  0.9118800E+02  0.7818608E-02  0.1130116E+00
         25   -1    0    0    0    0  0.00000000000E+00  0.00000000000E+00  0.99999998245E-14  0.12500000000E+03  0.12500000000E+03 0.  0.
        -13    1    3    3    0    0  0.13108048873E+02 -0.10864062931E+02 -0.10966638957E+02  0.20251596053E+02  0.10566000000E+00 0.  1.
         23    2    1    0    0    0  0.87467791724E-01  0.31394992640E+01  0.45255025076E+02  0.79636122291E+02  0.65452506236E+02 0.  0.
         13    1    3    3    0    0 -0.13020581081E+02  0.14003562195E+02  0.56221664033E+02  0.59384526238E+02  0.10566000000E+00 0. -1.
         22    1    1    0    0    0 -0.87467791724E-01 -0.31394992640E+01 -0.45255025076E+02  0.45363877709E+02  0.00000000000E+00 0. -1.
</event>
<event>
 5    1  0.9041381E-005  0.9118800E+02  0.7818608E-02  0.1130116E+00
         25   -1    0    0    0    0  0.00000000000E+00  0.00000000000E+00  0.99999998245E-14  0.12500000000E+03  0.12500000000E+03 0.  0.
        -13    1    3    3    0    0 -0.18027363182E+01  0.31546819559E+02 -0.52532464932E+02  0.61303529412E+02  0.10566000000E+00 0.  1.
         23    2    1    0    0    0 -0.35236337209E+01  0.22877763181E+02 -0.22088881460E+02  0.93004270176E+02  0.87327358509E+02 0.  0.
         13    1    3    3    0    0 -0.17208974027E+01 -0.86690563776E+01  0.30443583472E+02  0.31700740764E+02  0.10566000000E+00 0. -1.
         22    1    1    0    0    0  0.35236337209E+01 -0.22877763181E+02  0.22088881460E+02  0.31995729824E+02  0.00000000000E+00 0.  1.
</event>
<event>
 5    1  0.9041381E-005  0.9118800E+02  0.7818608E-02  0.1130116E+00
         25   -1    0    0    0    0  0.00000000000E+00  0.00000000000E+00  0.99999998245E-14  0.12500000000E+03  0.12500000000E+03 0.  0.
        -13    1    3    3    0    0  0.27370843976E+02 -0.63711981694E+01  0.28786949739E+02  0.40230024924E+02  0.10566000000E+00 0. -1.
         23    2    1    0    0    0 -0.18893990328E+02  0.18975169980E+02  0.12565279607E+02  0.95420848595E+02  0.90720516691E+02 0.  0.
         13    1    3    3    0    0 -0.46264834304E+02  0.25346368149E+02 -0.16221670132E+02  0.55190823670E+02  0.10566000000E+00 0.  1.
         22    1    1    0    0    0  0.18893990328E+02 -0.18975169980E+02 -0.12565279607E+02  0.29579151405E+02  0.00000000000E+00 0.  1.
</event>
<event>
 5    1  0.9041381E-005  0.9118800E+02  0.7818608E-02  0.1130116E+00
         25   -1    0    0    0    0  0.00000000000E+00  0.00000000000E+00  0.99999998245E-14  0.12500000000E+03  0.12500000000E+03 0.  0.
        -13    1    3    3    0    0 -0.33982265953E+02  0.10986480601E+02 -0.15011843750E+02  0.38740983108E+02  0.10566000000E+00 0.  1.
         23    2    1    0    0    0  0.41451013282E+01 -0.28973801358E+02 -0.94088252424E+01  0.94256073403E+02  0.89101169189E+02 0.  0.
         13    1    3    3    0    0  0.38127367282E+02 -0.39960281959E+02  0.56030185080E+01  0.55515090296E+02  0.10566000000E+00 0. -1.
         22    1    1    0    0    0 -0.41451013282E+01  0.28973801358E+02  0.94088252424E+01  0.30743926597E+02  0.00000000000E+00 0. -1.
</event>
<event>
 5    1  0.9041381E-005  0.9118800E+02  0.7818608E-02  0.1130116E+00
         25   -1    0    0    0    0  0.00000000000E+00  0.00000000000E+00  0.99999998245E-14  0.12500000000E+03  0.12500000000E+03 0.  0.
        -13    1    3    3    0    0  0.23764839651E+02 -0.34490069689E+02  0.97942793746E+01  0.43014783311E+02  0.10566000000E+00 0.  1.
         23    2    1    0    0    0 -0.21187214540E+02 -0.16623365556E+02 -0.11310583975E+02  0.95791034728E+02  0.91229154781E+02 0.  0.
         13    1    3    3    0    0 -0.44952054191E+02  0.17866704133E+02 -0.21104863350E+02  0.52776251417E+02  0.10566000000E+00 0. -1.
         22    1    1    0    0    0  0.21187214540E+02  0.16623365556E+02  0.11310583975E+02  0.29208965272E+02  0.00000000000E+00 0.  1.
</event>
<event>
 5    1  0.9041381E-005  0.9118800E+02  0.7818608E-02  0.1130116E+00
         25   -1    0    0    0    0  0.00000000000E+00  0.00000000000E+00  0.99999998245E-14  0.12500000000E+03  0.12500000000E+03 0.  0.
        -13    1    3    3    0    0 -0.11720891692E+02 -0.27348881048E+02  0.21492873448E+02  0.36705522333E+02  0.10566000000E+00 0. -1.
         23    2    1    0    0    0 -0.17462210685E+02  0.23180657436E+02 -0.72026579788E+01  0.95097659571E+02  0.90274109759E+02 0.  0.
         13    1    3    3    0    0 -0.57413189926E+01  0.50529538485E+02 -0.28695531427E+02  0.58392137238E+02  0.10566000000E+00 0.  1.
         22    1    1    0    0    0  0.17462210685E+02 -0.23180657436E+02  0.72026579788E+01  0.29902340429E+02  0.00000000000E+00 0.  1.
</event>
<event>
 5    1  0.9041381E-005  0.9118800E+02  0.7818608E-02  0.1130116E+00
         25   -1    0    0    0    0  0.00000000000E+00  0.00000000000E+00  0.99999998245E-14  0.12500000000E+03  0.12500000000E+03 0.  0.
        -13    1    3    3    0    0 -0.10207952188E+02  0.42542255539E+02  0.17372576933E+02  0.47072958135E+02  0.10566000000E+00 0. -1.
         23    2    1    0    0    0 -0.28100500612E+02  0.33277535752E+01 -0.59536322022E+01  0.96083606468E+02  0.91629152659E+02 0.  0.
         13    1    3    3    0    0 -0.17892548424E+02 -0.39214501964E+02 -0.23326209135E+02  0.49010648333E+02  0.10566000000E+00 0.  1.
         22    1    1    0    0    0  0.28100500612E+02 -0.33277535752E+01  0.59536322022E+01  0.28916393532E+02  0.00000000000E+00 0. -1.
</event>
<event>
 5    1  0.9041381E-005  0.9118800E+02  0.7818608E-02  0.1130116E+00
         25   -1    0    0    0    0  0.00000000000E+00  0.00000000000E+00  0.99999998245E-14  0.12500000000E+03  0.12500000000E+03 0.  0.
        -13    1    3    3    0    0 -0.56827656848E+01 -0.15388671598E+01  0.34177879001E+02  0.34681414547E+02  0.10566000000E+00 0.  1.
         23    2    1    0    0    0  0.20822607320E+02  0.14046689100E+02 -0.17200198547E+02  0.94557640034E+02  0.89523237254E+02 0.  0.
         13    1    3    3    0    0  0.26505373004E+02  0.15585556260E+02 -0.51378077547E+02  0.59876225487E+02  0.10566000000E+00 0. -1.
         22    1    1    0    0    0 -0.20822607320E+02 -0.14046689100E+02  0.17200198547E+02  0.30442359966E+02  0.00000000000E+00 0. -1.
</event>
<event>
 5    1  0.9041381E-005  0.9118800E+02  0.7818608E-02  0.1130116E+00
         25   -1    0    0    0    0  0.00000000000E+00  0.00000000000E+00  0.99999998245E-14  0.12500000000E+03  0.12500000000E+03 0.  0.
        -13    1    3    3    0    0 -0.31117430875E+02  0.12697690337E+02 -0.26330171435E+02  0.42694436827E+02  0.10566000000E+00 0. -1.
         23    2    1    0    0    0  0.14807896658E+02 -0.12900132193E+02 -0.22089527525E+02  0.95442692269E+02  0.90750609184E+02 0.  0.
         13    1    3    3    0    0  0.45925327533E+02 -0.25597822530E+02  0.42406439095E+01  0.52748255442E+02  0.10566000000E+00 0.  1.
         22    1    1    0    0    0 -0.14807896658E+02  0.12900132193E+02  0.22089527525E+02  0.29557307731E+02  0.00000000000E+00 0.  1.
</event>
<event>
 5    1  0.9041381E-005  0.9118800E+02  0.7818608E-02  0.1130116E+00
         25   -1    0    0    0    0  0.00000000000E+00  0.00000000000E+00  0.99999998245E-14  0.12500000000E+03  0.12500000000E+03 0.  0.
        -13    1    3    3    0    0  0.50837524152E+02 -0.93262750166E+01 -0.25845508738E+02  0.57787842610E+02  0.10566000000E+00 0.  1.
         23    2    1    0    0    0  0.27898024201E+02  0.97008489883E+01 -0.30567306664E+01  0.95305727357E+02  0.90561757046E+02 0.  0.
         13    1    3    3    0    0 -0.22939499950E+02  0.19027124005E+02  0.22788778072E+02  0.37517884747E+02  0.10566000000E+00 0. -1.
         22    1    1    0    0    0 -0.27898024201E+02 -0.97008489883E+01  0.30567306664E+01  0.29694272643E+02  0.00000000000E+00 0.  1.
</event>
<event>
 5    1  0.9041381E-005  0.9118800E+02  0.7818608E-02  0.1130116E+00
         25   -1    0    0    0    0  0.00000000000E+00  0.00000000000E+00  0.99999998245E-14  0.12500000000E+03  0.12500000000E+03 0.  0.
        -13    1    3    3    0    0  0.18977271178E+02  0.17339574499E+02 -0.38618330461E+02  0.46391640161E+02  0.10566000000E+00 0.  1.
         23    2    1    0    0    0  0.21292239047E+02 -0.83812726118E+01  0.88786403024E+01  0.10045543995E+03  0.97410779632E+02 0.  0.
         13    1    3    3    0    0  0.23149678685E+01 -0.25720847111E+02  0.47496970764E+02  0.54063799793E+02  0.10566000000E+00 0. -1.
         22    1    1    0    0    0 -0.21292239047E+02  0.83812726118E+01 -0.88786403024E+01  0.24544560046E+02  0.00000000000E+00 0. -1.
</event>
<event>
 5    1  0.9041381E-005  0.9118800E+02  0.7818608E-02  0.1130116E+00
         25   -1    0    0    0    0  0.00000000000E+00  0.00000000000E+00  0.99999998245E-14  0.12500000000E+03  0.12500000000E+03 0.  0.
        -13    1    3    3    0    0 -0.28251512405E+02  0.17837196678E+02 -0.17289911656E+02  0.37620017911E+02  0.10566000000E+00 0.  1.
         23    2    1    0    0    0  0.19732709189E+02  0.17571779117E+02  0.14188810617E+02  0.95008841636E+02  0.90151042196E+02 0.  0.
         13    1    3    3    0    0  0.47984221595E+02 -0.26541756072E+00  0.31478722273E+02  0.57388823725E+02  0.10566000000E+00 0. -1.
         22    1    1    0    0    0 -0.19732709189E+02 -0.17571779117E+02 -0.14188810617E+02  0.29991158364E+02  0.00000000000E+00 0.  1.
</event>
<event>
 5    1  0.9041381E-005  0.9118800E+02  0.7818608E-02  0.1130116E+00
         25   -1    0    0    0    0  0.00000000000E+00  0.00000000000E+00  0.99999998245E-14  0.12500000000E+03  0.12500000000E+03 0.  0.
        -13    1    3    3    0    0  0.34864633867E+02  0.57203497838E+01 -0.26399152831E+02  0.44104325531E+02  0.10566000000E+00 0.  1.
         23    2    1    0    0    0  0.94329066868E+01  0.20305640566E+02  0.17285064178E+02  0.96714452259E+02  0.92485745198E+02 0.  0.
         13    1    3    3    0    0 -0.25431727180E+02  0.14585290782E+02  0.43684217009E+02  0.52610126728E+02  0.10566000000E+00 0. -1.
         22    1    1    0    0    0 -0.94329066868E+01 -0.20305640566E+02 -0.17285064178E+02  0.28285547741E+02  0.00000000000E+00 0. -1.
</event>
<event>
 5    1  0.9041381E-005  0.9118800E+02  0.7818608E-02  0.1130116E+00
         25   -1    0    0    0    0  0.00000000000E+00  0.00000000000E+00  0.99999998245E-14  0.12500000000E+03  0.12500000000E+03 0.  0.
        -13    1    3    3    0    0 -0.21290338711E+02  0.32964778282E+02 -0.27326609694E+02  0.47819555529E+02  0.10566000000E+00 0.  1.
         23    2    1    0    0    0  0.14960027889E+02  0.25172713341E+02  0.27855986641E+01  0.95585250446E+02  0.90946757015E+02 0.  0.
         13    1    3    3    0    0  0.36250366599E+02 -0.77920649405E+01  0.30112208358E+02  0.47765694917E+02  0.10566000000E+00 0. -1.
         22    1    1    0    0    0 -0.14960027889E+02 -0.25172713341E+02 -0.27855986641E+01  0.29414749554E+02  0.00000000000E+00 0.  1.
</event>
<event>
 5    1  0.9041381E-005  0.9118800E+02  0.7818608E-02  0.1130116E+00
         25   -1    0    0    0    0  0.00000000000E+00  0.00000000000E+00  0.99999998245E-14  0.12500000000E+03  0.12500000000E+03 0.  0.
        -13    1    3    3    0    0  0.13154918129E+02 -0.24882191609E+02 -0.21703395899E+02  0.35541861063E+02  0.10566000000E+00 0.  1.
         23    2    1    0    0    0 -0.10462745302E+02  0.80173217755E-01  0.27510887720E+02  0.95566610624E+02  0.90921134265E+02 0.  0.
         13    1    3    3    0    0 -0.23617663431E+02  0.24962364826E+02  0.49214283619E+02  0.60024749561E+02  0.10566000000E+00 0. -1.
         22    1    1    0    0    0  0.10462745302E+02 -0.80173217755E-01 -0.27510887720E+02  0.29433389376E+02  0.00000000000E+00 0. -1.
</event>
<event>
 5    1  0.9041381E-005  0.9118800E+02  0.7818608E-02  0.1130116E+00
         25   -1    0    0    0    0  0.00000000000E+00  0.00000000000E+00  0.99999998245E-14  0.12500000000E+03  0.12500000000E+03 0.  0.
        -13    1    3    3    0    0 -0.23280444270E+02 -0.21596213754E+02  0.16886602443E+02  0.35965873269E+02  0.10566000000E+00 0.  1.
         23    2    1    0    0    0 -0.30701654198E+01  0.30924461039E+02  0.43493379343E+01  0.93620628644E+02  0.88205199172E+02 0.  0.
         13    1    3    3    0    0  0.20210278850E+02  0.52520674793E+02 -0.12537264509E+02  0.57654755374E+02  0.10566000000E+00 0. -1.
         22    1    1    0    0    0  0.30701654198E+01 -0.30924461039E+02 -0.43493379343E+01  0.31379371356E+02  0.00000000000E+00 0. -1.
</event>
<event>
 5    1  0.9041381E-005  0.9118800E+02  0.7818608E-02  0.1130116E+00
         25   -1    0    0    0    0  0.00000000000E+00  0.00000000000E+00  0.99999998245E-14  0.12500000000E+03  0.12500000000E+03 0.  0.
        -13    1    3    3    0    0 -0.11199199660E+02  0.17342406559E+02 -0.55300987122E+02  0.59028734351E+02  0.10566000000E+00 0. -1.
         23    2    1    0    0    0 -0.34297329977E+01  0.20503474901E+02 -0.17269841563E+02  0.97974031395E+02  0.94172755343E+02 0.  0.
         13    1    3    3    0    0  0.77694666621E+01  0.31610683415E+01  0.38031145560E+02  0.38945297045E+02  0.10566000000E+00 0.  1.
         22    1    1    0    0    0  0.34297329977E+01 -0.20503474901E+02  0.17269841563E+02  0.27025968605E+02  0.00000000000E+00 0. -1.
</event>
<event>
 5    1  0.9041381E-005  0.9118800E+02  0.7818608E-02  0.1130116E+00
         25   -1    0    0    0    0  0.00000000000E+00  0.00000000000E+00  0.99999998245E-14  0.12500000000E+03  0.12500000000E+03 0.  0.
        -13    1    3    3    0    0 -0.17410583671E+02  0.48696462232E+02 -0.20577794394E+02  0.55659057159E+02  0.10566000000E+00 0. -1.
         23    2    1    0    0    0 -0.25336509016E+02  0.14917484061E+02 -0.82013073119E+00  0.95586692905E+02  0.90948739553E+02 0.  0.
         13    1    3    3    0    0 -0.79259253446E+01 -0.33778978171E+02  0.19757663662E+02  0.39927635746E+02  0.10566000000E+00 0.  1.
         22    1    1    0    0    0  0.25336509016E+02 -0.14917484061E+02  0.82013073119E+00  0.29413307095E+02  0.00000000000E+00 0. -1.
</event>
<event>
 5    1  0.9041381E-005  0.9118800E+02  0.7818608E-02  0.1130116E+00
         25   -1    0    0    0    0  0.00000000000E+00  0.00000000000E+00  0.99999998245E-14  0.12500000000E+03  0.12500000000E+03 0.  0.
        -13    1    3    3    0    0 -0.15454875208E+02 -0.29681444476E+02 -0.25468164329E+01  0.33560970663E+02  0.10566000000E+00 0.  1.
         23    2    1    0    0    0  0.14058696176E+02  0.24162252309E+02  0.81362647346E+01  0.95885395784E+02  0.91358354550E+02 0.  0.
         13    1    3    3    0    0  0.29513571384E+02  0.53843696785E+02  0.10683081168E+02  0.62324425121E+02  0.10566000000E+00 0. -1.
         22    1    1    0    0    0 -0.14058696176E+02 -0.24162252309E+02 -0.81362647346E+01  0.29114604216E+02  0.00000000000E+00 0. -1.
</event>
<event>
 5    1  0.9041381E-005  0.9118800E+02  0.7818608E-02  0.1130116E+00
         25   -1    0    0    0    0  0.00000000000E+00  0.00000000000E+00  0.99999998245E-14  0.12500000000E+03  0.12500000000E+03 0.  0.
        -13    1    3    3    0    0  0.14152923387E+02 -0.26376320372E+02  0.26857922031E+02  0.40216596781E+02  0.10566000000E+00 0.  1.
         23    2    1    0    0    0  0.92554576142E+01 -0.10153163773E+02 -0.25928481669E+02  0.95656578388E+02  0.91044739535E+02 0.  0.
         13    1    3    3    0    0 -0.48974657728E+01  0.16223156599E+02 -0.52786403700E+02  0.55439981607E+02  0.10566000000E+00 0. -1.
         22    1    1    0    0    0 -0.92554576142E+01  0.10153163773E+02  0.25928481669E+02  0.29343421612E+02  0.00000000000E+00 0. -1.
</event>
<event>
 5    1  0.9041381E-005  0.9118800E+02  0.7818608E-02  0.1130116E+00
         25   -1    0    0    0    0  0.00000000000E+00  0.00000000000E+00  0.99999998245E-14  0.12500000000E+03  0.12500000000E+03 0.  0.
        -13    1    3    3    0    0  0.34212592386E+02  0.75111235127E+01  0.26515809974E+01  0.35127773912E+02  0.10566000000E+00 0.  1.
         23    2    1    0    0    0 -0.25467976611E+02  0.11403285566E+02  0.99409373437E+01  0.95377795665E+02  0.90661176456E+02 0.  0.
         13    1    3    3    0    0 -0.59680568997E+02  0.38921620535E+01  0.72893563463E+01  0.60250021753E+02  0.10566000000E+00 0. -1.
         22    1    1    0    0    0  0.25467976611E+02 -0.11403285566E+02 -0.99409373437E+01  0.29622204335E+02  0.00000000000E+00 0. -1.
</event>
<event>
 5    1  0.9041381E-005  0.9118800E+02  0.7818608E-02  0.1130116E+00
         25   -1    0    0    0    0  0.00000000000E+00  0.00000000000E+00  0.99999998245E-14  0.12500000000E+03  0.12500000000E+03 0.  0.
        -13    1    3    3    0    0 -0.31385521088E+02 -0.13594919012E+02  0.38746008860E+02  0.51683044836E+02  0.10566000000E+00 0. -1.
         23    2    1    0    0    0 -0.22387759117E+02 -0.17468303921E+02 -0.46977408252E+01  0.96217676101E+02  0.91811867562E+02 0.  0.
         13    1    3    3    0    0  0.89977619705E+01 -0.38733849096E+01 -0.43443749685E+02  0.44534631265E+02  0.10566000000E+00 0.  1.
         22    1    1    0    0    0  0.22387759117E+02  0.17468303921E+02  0.46977408252E+01  0.28782323899E+02  0.00000000000E+00 0. -1.
</event>
<event>
 5    1  0.9041381E-005  0.9118800E+02  0.7818608E-02  0.1130116E+00
         25   -1    0    0    0    0  0.00000000000E+00  0.00000000000E+00  0.99999998245E-14  0.12500000000E+03  0.12500000000E+03 0.  0.
        -13    1    3    3    0    0  0.35193040805E+01 -0.30481050449E+02 -0.18461563067E+02  0.35809501708E+02  0.10566000000E+00 0.  1.
         23    2    1    0    0    0  0.16487082043E+02  0.24878599490E+02 -0.16169373553E+01  0.95110485563E+02  0.90291867799E+02 0.  0.
         13    1    3    3    0    0  0.12967777962E+02  0.55359649939E+02  0.16844625712E+02  0.59300983854E+02  0.10566000000E+00 0. -1.
         22    1    1    0    0    0 -0.16487082043E+02 -0.24878599490E+02  0.16169373553E+01  0.29889514437E+02  0.00000000000E+00 0. -1.
</event>
<event>
 5    1  0.9041381E-005  0.9118800E+02  0.7818608E-02  0.1130116E+00
         25   -1    0    0    0    0  0.00000000000E+00  0.00000000000E+00  0.99999998245E-14  0.12500000000E+03  0.12500000000E+03 0.  0.
        -13    1    3    3    0    0 -0.41376453782E+02 -0.39685296571E+01  0.12407744695E+02  0.43378836403E+02  0.10566000000E+00 0.  1.
         23    2    1    0    0    0 -0.20610450128E+02  0.30001775083E+02 -0.74117689141E+01  0.87853917017E+02  0.79614566846E+02 0.  0.
         13    1    3    3    0    0  0.20766003654E+02  0.33970304740E+02 -0.19819513609E+02  0.44475080614E+02  0.10566000000E+00 0. -1.
         22    1    1    0    0    0  0.20610450128E+02 -0.30001775083E+02  0.74117689141E+01  0.37146082983E+02  0.00000000000E+00 0. -1.
</event>
<event>
 5    1  0.9041381E-005  0.9118800E+02  0.7818608E-02  0.1130116E+00
         25   -1    0    0    0    0  0.00000000000E+00  0.00000000000E+00  0.99999998245E-14  0.12500000000E+03  0.12500000000E+03 0.  0.
        -13    1    3    3    0    0 -0.32764411510E+02  0.15494154568E+02  0.13799600595E+02  0.38781640346E+02  0.10566000000E+00 0.  1.
         23    2    1    0    0    0  0.22787959401E+02  0.20101111491E+01  0.17693412300E+02  0.96079618272E+02  0.91623711821E+02 0.  0.
         13    1    3    3    0    0  0.55552370910E+02 -0.13484043419E+02  0.38938117059E+01  0.57297977925E+02  0.10566000000E+00 0. -1.
         22    1    1    0    0    0 -0.22787959401E+02 -0.20101111491E+01 -0.17693412300E+02  0.28920381728E+02  0.00000000000E+00 0. -1.
</event>
<event>
 5    1  0.9041381E-005  0.9118800E+02  0.7818608E-02  0.1130116E+00
         25   -1    0    0    0    0  0.00000000000E+00  0.00000000000E+00  0.99999998245E-14  0.12500000000E+03  0.12500000000E+03 0.  0.
        -13    1    3    3    0    0  0.10788669145E+02 -0.24568883165E+02 -0.34297239709E+02  0.43546954172E+02  0.10566000000E+00 0.  1.
         23    2    1    0    0    0 -0.22231490839E+02 -0.22160154376E+02  0.30571229937E+01  0.93461806839E+02  0.87979836949E+02 0.  0.
         13    1    3    3    0    0 -0.33020159984E+02  0.24087287890E+01  0.37354362703E+02  0.49914852667E+02  0.10566000000E+00 0. -1.
         22    1    1    0    0    0  0.22231490839E+02  0.22160154376E+02 -0.30571229937E+01  0.31538193161E+02  0.00000000000E+00 0. -1.
</event>
<event>
 5    1  0.9041381E-005  0.9118800E+02  0.7818608E-02  0.1130116E+00
         25   -1    0    0    0    0  0.00000000000E+00  0.00000000000E+00  0.99999998245E-14  0.12500000000E+03  0.12500000000E+03 0.  0.
        -13    1    3    3    0    0 -0.28872762636E+02 -0.25675963386E+01 -0.45604528330E+02  0.54037145940E+02  0.10566000000E+00 0. -1.
         23    2    1    0    0    0 -0.21066992691E+02  0.18714260782E+02 -0.12466368091E+02  0.94186819849E+02  0.89003960374E+02 0.  0.
         13    1    3    3    0    0  0.78057699453E+01  0.21281857120E+02  0.33138160239E+02  0.40149673909E+02  0.10566000000E+00 0.  1.
         22    1    1    0    0    0  0.21066992691E+02 -0.18714260782E+02  0.12466368091E+02  0.30813180151E+02  0.00000000000E+00 0. -1.
</event>
<event>
 5    1  0.9041381E-005  0.9118800E+02  0.7818608E-02  0.1130116E+00
         25   -1    0    0    0    0  0.00000000000E+00  0.00000000000E+00  0.99999998245E-14  0.12500000000E+03  0.12500000000E+03 0.  0.
        -13    1    3    3    0    0 -0.26715955225E+02  0.92418916237E+01  0.50265296845E+02  0.57669455133E+02  0.10566000000E+00 0.  1.
         23    2    1    0    0    0  0.22017951908E+01  0.13083186575E+02  0.26755918494E+02  0.95135357905E+02  0.90326294489E+02 0.  0.
         13    1    3    3    0    0  0.28917750416E+02  0.38412949515E+01 -0.23509378351E+02  0.37465902772E+02  0.10566000000E+00 0. -1.
         22    1    1    0    0    0 -0.22017951908E+01 -0.13083186575E+02 -0.26755918494E+02  0.29864642095E+02  0.00000000000E+00 0.  1.
</event>
<event>
 5    1  0.9041381E-005  0.9118800E+02  0.7818608E-02  0.1130116E+00
         25   -1    0    0    0    0  0.00000000000E+00  0.00000000000E+00  0.99999998245E-14  0.12500000000E+03  0.12500000000E+03 0.  0.
        -13    1    3    3    0    0  0.73485099714E+01 -0.29466318186E+02  0.17114692874E+02  0.34859552241E+02  0.10566000000E+00 0.  1.
         23    2    1    0    0    0 -0.25617627123E+02  0.16182948850E+02 -0.27624977695E+01  0.94573333294E+02  0.89545146845E+02 0.  0.
         13    1    3    3    0    0 -0.32966137094E+02  0.45649267035E+02 -0.19877190644E+02  0.59713781054E+02  0.10566000000E+00 0. -1.
         22    1    1    0    0    0  0.25617627123E+02 -0.16182948850E+02  0.27624977695E+01  0.30426666706E+02  0.00000000000E+00 0. -1.
</event>
<event>
 5    1  0.9041381E-005  0.9118800E+02  0.7818608E-02  0.1130116E+00
         25   -1    0    0    0    0  0.00000000000E+00  0.00000000000E+00  0.99999998245E-14  0.12500000000E+03  0.12500000000E+03 0.  0.
        -13    1    3    3    0    0 -0.11611102137E+02  0.51016553439E+02 -0.14233941915E+02  0.54222898153E+02  0.10566000000E+00 0.  1.
         23    2    1    0    0    0 -0.14692400555E+02  0.11370546425E+02 -0.23489476365E+02  0.95051519905E+02  0.90210198849E+02 0.  0.
         13    1    3    3    0    0 -0.30812984187E+01 -0.39646007015E+02 -0.92555344503E+01  0.40828621752E+02  0.10566000000E+00 0. -1.
         22    1    1    0    0    0  0.14692400555E+02 -0.11370546425E+02  0.23489476365E+02  0.29948480095E+02  0.00000000000E+00 0. -1.
</event>
<event>
 5    1  0.9041381E-005  0.9118800E+02  0.7818608E-02  0.1130116E+00
         25   -1    0    0    0    0  0.00000000000E+00  0.00000000000E+00  0.99999998245E-14  0.12500000000E+03  0.12500000000E+03 0.  0.
        -13    1    3    3    0    0 -0.12660912019E+02 -0.24305876655E+02 -0.28593066761E+02  0.39606173306E+02  0.10566000000E+00 0.  1.
         23    2    1    0    0    0  0.14255947391E+02 -0.15432075141E+02  0.20085471463E+02  0.95934433722E+02  0.91425425514E+02 0.  0.
         13    1    3    3    0    0  0.26916859409E+02  0.88738015139E+01  0.48678538224E+02  0.56328260416E+02  0.10566000000E+00 0. -1.
         22    1    1    0    0    0 -0.14255947391E+02  0.15432075141E+02 -0.20085471463E+02  0.29065566278E+02  0.00000000000E+00 0. -1.
</event>
<event>
 5    1  0.9041381E-005  0.9118800E+02  0.7818608E-02  0.1130116E+00
         25   -1    0    0    0    0  0.00000000000E+00  0.00000000000E+00  0.99999998245E-14  0.12500000000E+03  0.12500000000E+03 0.  0.
        -13    1    3    3    0    0 -0.20942828063E+02  0.39522100172E+02  0.38366156677E+02  0.58928529521E+02  0.10566000000E+00 0. -1.
         23    2    1    0    0    0 -0.11230359942E+02  0.23546097290E+02  0.32510140010E+01  0.98711052245E+02  0.95146009171E+02 0.  0.
         13    1    3    3    0    0  0.97124681212E+01 -0.15976002882E+02 -0.35115142676E+02  0.39782522724E+02  0.10566000000E+00 0.  1.
         22    1    1    0    0    0  0.11230359942E+02 -0.23546097290E+02 -0.32510140010E+01  0.26288947755E+02  0.00000000000E+00 0. -1.
</event>
<event>
 5    1  0.9041381E-005  0.9118800E+02  0.7818608E-02  0.1130116E+00
         25   -1    0    0    0    0  0.00000000000E+00  0.00000000000E+00  0.99999998245E-14  0.12500000000E+03  0.12500000000E+03 0.  0.
        -13    1    3    3    0    0  0.27372125591E+02  0.65233252917E+01  0.46290421750E+02  0.54171960848E+02  0.10566000000E+00 0.  1.
         23    2    1    0    0    0 -0.75373226586E+01  0.24363775064E+01  0.31865179066E+02  0.92165006393E+02  0.86117661361E+02 0.  0.
         13    1    3    3    0    0 -0.34909448250E+02 -0.40869477853E+01 -0.14425242684E+02  0.37993045545E+02  0.10566000000E+00 0. -1.
         22    1    1    0    0    0  0.75373226586E+01 -0.24363775064E+01 -0.31865179066E+02  0.32834993607E+02  0.00000000000E+00 0.  1.
</event>
<event>
 5    1  0.9041381E-005  0.9118800E+02  0.7818608E-02  0.1130116E+00
         25   -1    0    0    0    0  0.00000000000E+00  0.00000000000E+00  0.99999998245E-14  0.12500000000E+03  0.12500000000E+03 0.  0.
        -13    1    3    3    0    0  0.50396456977E+02  0.10288399031E+02  0.16510190960E+02  0.54020844125E+02  0.10566000000E+00 0.  1.
         23    2    1    0    0    0  0.23357369042E+02 -0.12257358008E+02 -0.85903911931E+01  0.97258256458E+02  0.93217831527E+02 0.  0.
         13    1    3    3    0    0 -0.27039087935E+02 -0.22545757039E+02 -0.25100582153E+02  0.43237412333E+02  0.10566000000E+00 0. -1.
         22    1    1    0    0    0 -0.23357369042E+02  0.12257358008E+02  0.85903911931E+01  0.27741743542E+02  0.00000000000E+00 0.  1.
</event>
<event>
 5    1  0.9041381E-005  0.9118800E+02  0.7818608E-02  0.1130116E+00
         25   -1    0    0    0    0  0.00000000000E+00  0.00000000000E+00  0.99999998245E-14  0.12500000000E+03  0.12500000000E+03 0.  0.
        -13    1    3    3    0    0  0.27137752920E+02  0.19038064356E+02  0.13367149172E+02  0.35743494079E+02  0.10566000000E+00 0. -1.
         23    2    1    0    0    0  0.10755720833E+01 -0.19791399201E+02 -0.22746399132E+02  0.94829567270E+02  0.89902123543E+02 0.  0.
         13    1    3    3    0    0 -0.26062180836E+02 -0.38829463557E+02 -0.36113548303E+02  0.59086073191E+02  0.10566000000E+00 0.  1.
         22    1    1    0    0    0 -0.10755720833E+01  0.19791399201E+02  0.22746399132E+02  0.30170432730E+02  0.00000000000E+00 0.  1.
</event>
<event>
 5    1  0.9041381E-005  0.9118800E+02  0.7818608E-02  0.1130116E+00
         25   -1    0    0    0    0  0.00000000000E+00  0.00000000000E+00  0.99999998245E-14  0.12500000000E+03  0.12500000000E+03 0.  0.
        -13    1    3    3    0    0  0.31907296804E+02  0.20501176860E+02  0.34246024368E+02  0.51099659402E+02  0.10566000000E+00 0. -1.
         23    2    1    0    0    0 -0.74308318510E+01  0.17410712337E+02  0.28223286369E+02  0.91016120593E+02  0.84433584244E+02 0.  0.
         13    1    3    3    0    0 -0.39338128655E+02 -0.30904645232E+01 -0.60227379983E+01  0.39916461191E+02  0.10566000000E+00 0.  1.
         22    1    1    0    0    0  0.74308318510E+01 -0.17410712337E+02 -0.28223286369E+02  0.33983879407E+02  0.00000000000E+00 0. -1.
</event>
<event>
 5    1  0.9041381E-005  0.9118800E+02  0.7818608E-02  0.1130116E+00
         25   -1    0    0    0    0  0.00000000000E+00  0.00000000000E+00  0.99999998245E-14  0.12500000000E+03  0.12500000000E+03 0.  0.
        -13    1    3    3    0    0 -0.72389240037E+01 -0.16787403641E+02 -0.26348741287E+01  0.18470859954E+02  0.10566000000E+00 0.  1.
         23    2    1    0    0    0 -0.13900621035E+02  0.31342462591E+02 -0.34327819425E+02  0.76482205193E+02  0.59123187484E+02 0.  0.
         13    1    3    3    0    0 -0.66616970316E+01  0.48129866232E+02 -0.31692945297E+02  0.58011345239E+02  0.10566000000E+00 0. -1.
         22    1    1    0    0    0  0.13900621035E+02 -0.31342462591E+02  0.34327819425E+02  0.48517794807E+02  0.00000000000E+00 0. -1.
</event>
<event>
 5    1  0.9041381E-005  0.9118800E+02  0.7818608E-02  0.1130116E+00
         25   -1    0    0    0    0  0.00000000000E+00  0.00000000000E+00  0.99999998245E-14  0.12500000000E+03  0.12500000000E+03 0.  0.
        -13    1    3    3    0    0 -0.31870586981E+02  0.11820003213E+01  0.50239480888E+02  0.59507546103E+02  0.10566000000E+00 0.  1.
         23    2    1    0    0    0 -0.27093916008E+01  0.97317375546E+01  0.21084428352E+02  0.10162050818E+03  0.98894524853E+02 0.  0.
         13    1    3    3    0    0  0.29161195381E+02  0.85497372334E+01 -0.29155052536E+02  0.42112962080E+02  0.10566000000E+00 0. -1.
         22    1    1    0    0    0  0.27093916008E+01 -0.97317375546E+01 -0.21084428352E+02  0.23379491817E+02  0.00000000000E+00 0.  1.
</event>
<event>
 5    1  0.9041381E-005  0.9118800E+02  0.7818608E-02  0.1130116E+00
         25   -1    0    0    0    0  0.00000000000E+00  0.00000000000E+00  0.99999998245E-14  0.12500000000E+03  0.12500000000E+03 0.  0.
        -13    1    3    3    0    0 -0.20799737503E+02 -0.26835350853E+02  0.22475134187E+02  0.40717415885E+02  0.10566000000E+00 0. -1.
         23    2    1    0    0    0  0.10144740748E+02  0.99699573849E+01 -0.16931228840E+02  0.10288705526E+03  0.10048265430E+03 0.  0.
         13    1    3    3    0    0  0.30944478251E+02  0.36805308238E+02 -0.39406363027E+02  0.62169639373E+02  0.10566000000E+00 0.  1.
         22    1    1    0    0    0 -0.10144740748E+02 -0.99699573849E+01  0.16931228840E+02  0.22112944741E+02  0.00000000000E+00 0.  1.
</event>
<event>
 5    1  0.9041381E-005  0.9118800E+02  0.7818608E-02  0.1130116E+00
         25   -1    0    0    0    0  0.00000000000E+00  0.00000000000E+00  0.99999998245E-14  0.12500000000E+03  0.12500000000E+03 0.  0.
        -13    1    3    3    0    0 -0.42602782054E+02 -0.18348660143E+02 -0.35476873171E+02  0.58397688840E+02  0.10566000000E+00 0.  1.
         23    2    1    0    0    0 -0.12837985906E+02 -0.22686517722E+02 -0.13544189179E+02  0.95624210155E+02  0.91000288675E+02 0.  0.
         13    1    3    3    0    0  0.29764796148E+02 -0.43378575790E+01  0.21932683992E+02  0.37226521316E+02  0.10566000000E+00 0. -1.
         22    1    1    0    0    0  0.12837985906E+02  0.22686517722E+02  0.13544189179E+02  0.29375789845E+02  0.00000000000E+00 0.  1.
</event>
<event>
 5    1  0.9041381E-005  0.9118800E+02  0.7818608E-02  0.1130116E+00
         25   -1    0    0    0    0  0.00000000000E+00  0.00000000000E+00  0.99999998245E-14  0.12500000000E+03  0.12500000000E+03 0.  0.
        -13    1    3    3    0    0  0.21973858034E+02 -0.81219299793E+01 -0.33092459473E+02  0.40545508031E+02  0.10566000000E+00 0. -1.
         23    2    1    0    0    0 -0.23173535139E+02  0.14331541007E+02 -0.10472247026E+02  0.95809697565E+02  0.91254722570E+02 0.  0.
         13    1    3    3    0    0 -0.45147393173E+02  0.22453470986E+02  0.22620212448E+02  0.55264189534E+02  0.10566000000E+00 0.  1.
         22    1    1    0    0    0  0.23173535139E+02 -0.14331541007E+02  0.10472247026E+02  0.29190302435E+02  0.00000000000E+00 0.  1.
</event>
<event>
 5    1  0.9041381E-005  0.9118800E+02  0.7818608E-02  0.1130116E+00
         25   -1    0    0    0    0  0.00000000000E+00  0.00000000000E+00  0.99999998245E-14  0.12500000000E+03  0.12500000000E+03 0.  0.
        -13    1    3    3    0    0 -0.30014784370E+02 -0.11192566259E+02  0.16313774140E+02  0.35948730311E+02  0.10566000000E+00 0.  1.
         23    2    1    0    0    0  0.11617244667E+02  0.26335766003E+02 -0.47507656556E+01  0.95826335181E+02  0.91277509800E+02 0.  0.
         13    1    3    3    0    0  0.41632029037E+02  0.37528332263E+02 -0.21064539796E+02  0.59877604870E+02  0.10566000000E+00 0. -1.
         22    1    1    0    0    0 -0.11617244667E+02 -0.26335766003E+02  0.47507656556E+01  0.29173664819E+02  0.00000000000E+00 0. -1.
</event>
<event>
 5    1  0.9041381E-005  0.9118800E+02  0.7818608E-02  0.1130116E+00
         25   -1    0    0    0    0  0.00000000000E+00  0.00000000000E+00  0.99999998245E-14  0.12500000000E+03  0.12500000000E+03 0.  0.
        -13    1    3    3    0    0  0.45472820551E+02 -0.19241452171E+02  0.37059142114E+02  0.61736553749E+02  0.10566000000E+00 0.  1.
         23    2    1    0    0    0  0.15652979767E+02 -0.11770541403E+02  0.20476098202E+02  0.96665709501E+02  0.92419842974E+02 0.  0.
         13    1    3    3    0    0 -0.29819840784E+02  0.74709107687E+01 -0.16583043913E+02  0.34929155752E+02  0.10566000000E+00 0. -1.
         22    1    1    0    0    0 -0.15652979767E+02  0.11770541403E+02 -0.20476098202E+02  0.28334290499E+02  0.00000000000E+00 0.  1.
</event>
<event>
 5    1  0.9041381E-005  0.9118800E+02  0.7818608E-02  0.1130116E+00
         25   -1    0    0    0    0  0.00000000000E+00  0.00000000000E+00  0.99999998245E-14  0.12500000000E+03  0.12500000000E+03 0.  0.
        -13    1    3    3    0    0  0.19212300527E+02  0.31906112672E+02  0.19076771221E+02  0.41845512084E+02  0.10566000000E+00 0.  1.
         23    2    1    0    0    0 -0.22674793588E+02  0.15468688516E+02 -0.10410435805E+02  0.95643505620E+02  0.91026789490E+02 0.  0.
         13    1    3    3    0    0 -0.41887094114E+02 -0.16437424155E+02 -0.29487207026E+02  0.53797993535E+02  0.10566000000E+00 0. -1.
         22    1    1    0    0    0  0.22674793588E+02 -0.15468688516E+02  0.10410435805E+02  0.29356494380E+02  0.00000000000E+00 0. -1.
</event>
<event>
 5    1  0.9041381E-005  0.9118800E+02  0.7818608E-02  0.1130116E+00
         25   -1    0    0    0    0  0.00000000000E+00  0.00000000000E+00  0.99999998245E-14  0.12500000000E+03  0.12500000000E+03 0.  0.
        -13    1    3    3    0    0 -0.25787055204E+02  0.44553192219E+02 -0.33370519188E+02  0.61347875823E+02  0.10566000000E+00 0.  1.
         23    2    1    0    0    0 -0.11844686890E+02  0.26977202671E+02 -0.96506131754E+01  0.93996767812E+02  0.88736643800E+02 0.  0.
         13    1    3    3    0    0  0.13942368314E+02 -0.17575989549E+02  0.23719906013E+02  0.32648891989E+02  0.10566000000E+00 0. -1.
         22    1    1    0    0    0  0.11844686890E+02 -0.26977202671E+02  0.96506131754E+01  0.31003232188E+02  0.00000000000E+00 0.  1.
</event>
<event>
 5    1  0.9041381E-005  0.9118800E+02  0.7818608E-02  0.1130116E+00
         25   -1    0    0    0    0  0.00000000000E+00  0.00000000000E+00  0.99999998245E-14  0.12500000000E+03  0.12500000000E+03 0.  0.
        -13    1    3    3    0    0  0.11087092761E+01  0.41154568555E+02 -0.39443382868E+02  0.57015080157E+02  0.10566000000E+00 0. -1.
         23    2    1    0    0    0  0.11741161519E+02  0.27330876548E+02 -0.61133472293E+01  0.94632176551E+02  0.89627251089E+02 0.  0.
         13    1    3    3    0    0  0.10632452243E+02 -0.13823692008E+02  0.33330035638E+02  0.37617096394E+02  0.10566000000E+00 0.  1.
         22    1    1    0    0    0 -0.11741161519E+02 -0.27330876548E+02  0.61133472293E+01  0.30367823449E+02  0.00000000000E+00 0. -1.
</event>
<event>
 5    1  0.9041381E-005  0.9118800E+02  0.7818608E-02  0.1130116E+00
         25   -1    0    0    0    0  0.00000000000E+00  0.00000000000E+00  0.99999998245E-14  0.12500000000E+03  0.12500000000E+03 0.  0.
        -13    1    3    3    0    0 -0.17810185410E+01  0.40335029981E+02 -0.19937436447E+02  0.45028870813E+02  0.10566000000E+00 0. -1.
         23    2    1    0    0    0 -0.54266673193E+01 -0.13302407345E+02 -0.21879572920E+02  0.98825232178E+02  0.95295897312E+02 0.  0.
         13    1    3    3    0    0 -0.36456487784E+01 -0.53637437326E+02 -0.19421364734E+01  0.53796361364E+02  0.10566000000E+00 0.  1.
         22    1    1    0    0    0  0.54266673193E+01  0.13302407345E+02  0.21879572920E+02  0.26174767822E+02  0.00000000000E+00 0. -1.
</event>
<event>
 5    1  0.9041381E-005  0.9118800E+02  0.7818608E-02  0.1130116E+00
         25   -1    0    0    0    0  0.00000000000E+00  0.00000000000E+00  0.99999998245E-14  0.12500000000E+03  0.12500000000E+03 0.  0.
        -13    1    3    3    0    0 -0.23414780234E+02 -0.41508933996E+02 -0.17157589551E+02  0.50652123136E+02  0.10566000000E+00 0. -1.
         23    2    1    0    0    0  0.14418825288E+02 -0.25685337275E+02  0.10583646018E+01  0.95525278471E+02  0.90864292314E+02 0.  0.
         13    1    3    3    0    0  0.37833605522E+02  0.15823596722E+02  0.18215954153E+02  0.44873155335E+02  0.10566000000E+00 0.  1.
         22    1    1    0    0    0 -0.14418825288E+02  0.25685337275E+02 -0.10583646018E+01  0.29474721529E+02  0.00000000000E+00 0. -1.
</event>
<event>
 5    1  0.9041381E-005  0.9118800E+02  0.7818608E-02  0.1130116E+00
         25   -1    0    0    0    0  0.00000000000E+00  0.00000000000E+00  0.99999998245E-14  0.12500000000E+03  0.12500000000E+03 0.  0.
        -13    1    3    3    0    0  0.13795939129E+02 -0.31607976181E+02  0.32973521354E+02  0.47714320379E+02  0.10566000000E+00 0.  1.
         23    2    1    0    0    0  0.26933261362E+02  0.68767834828E+01  0.58547141803E+01  0.96592810826E+02  0.92321193160E+02 0.  0.
         13    1    3    3    0    0  0.13137322232E+02  0.38484759663E+02 -0.27118807174E+02  0.48878490447E+02  0.10566000000E+00 0. -1.
         22    1    1    0    0    0 -0.26933261362E+02 -0.68767834828E+01 -0.58547141803E+01  0.28407189174E+02  0.00000000000E+00 0. -1.
</event>
<event>
 5    1  0.9041381E-005  0.9118800E+02  0.7818608E-02  0.1130116E+00
         25   -1    0    0    0    0  0.00000000000E+00  0.00000000000E+00  0.99999998245E-14  0.12500000000E+03  0.12500000000E+03 0.  0.
        -13    1    3    3    0    0  0.33953454393E+02 -0.93909805569E+01 -0.38385488050E+02  0.52100714370E+02  0.10566000000E+00 0.  1.
         23    2    1    0    0    0  0.84925492560E+01  0.20710252188E+02 -0.16488827272E+02  0.97198572638E+02  0.93137764412E+02 0.  0.
         13    1    3    3    0    0 -0.25460905136E+02  0.30101232745E+02  0.21896660778E+02  0.45097858268E+02  0.10566000000E+00 0. -1.
         22    1    1    0    0    0 -0.84925492560E+01 -0.20710252188E+02  0.16488827272E+02  0.27801427362E+02  0.00000000000E+00 0.  1.
</event>
<event>
 5    1  0.9041381E-005  0.9118800E+02  0.7818608E-02  0.1130116E+00
         25   -1    0    0    0    0  0.00000000000E+00  0.00000000000E+00  0.99999998245E-14  0.12500000000E+03  0.12500000000E+03 0.  0.
        -13    1    3    3    0    0 -0.61044466890E+01 -0.55336230575E+02  0.13016769780E+02  0.57173509103E+02  0.10566000000E+00 0.  1.
         23    2    1    0    0    0  0.13052356489E+02 -0.25557361535E+02 -0.32106256233E+01  0.96123524186E+02  0.91683592024E+02 0.  0.
         13    1    3    3    0    0  0.19156803178E+02  0.29778869040E+02 -0.16227395403E+02  0.38950015082E+02  0.10566000000E+00 0. -1.
         22    1    1    0    0    0 -0.13052356489E+02  0.25557361535E+02  0.32106256233E+01  0.28876475814E+02  0.00000000000E+00 0.  1.
</event>
<event>
 5    1  0.9041381E-005  0.9118800E+02  0.7818608E-02  0.1130116E+00
         25   -1    0    0    0    0  0.00000000000E+00  0.00000000000E+00  0.99999998245E-14  0.12500000000E+03  0.12500000000E+03 0.  0.
        -13    1    3    3    0    0 -0.33274983002E+01  0.15119188625E+02 -0.34125088425E+02  0.37472589098E+02  0.10566000000E+00 0. -1.
         23    2    1    0    0    0 -0.29290384201E+02  0.22644955674E+02  0.76153204886E+01  0.87201670271E+02  0.78583825103E+02 0.  0.
         13    1    3    3    0    0 -0.25962885901E+02  0.75257670491E+01  0.41740408914E+02  0.49729081173E+02  0.10566000000E+00 0.  1.
         22    1    1    0    0    0  0.29290384201E+02 -0.22644955674E+02 -0.76153204886E+01  0.37798329729E+02  0.00000000000E+00 0.  1.
</event>
<event>
 5    1  0.9041381E-005  0.9118800E+02  0.7818608E-02  0.1130116E+00
         25   -1    0    0    0    0  0.00000000000E+00  0.00000000000E+00  0.99999998245E-14  0.12500000000E+03  0.12500000000E+03 0.  0.
        -13    1    3    3    0    0 -0.45889789237E+01 -0.56554607746E+02 -0.57530997245E+01  0.57031497484E+02  0.10566000000E+00 0.  1.
         23    2    1    0    0    0 -0.16183301994E+02 -0.24213492624E+02  0.91376563352E+01  0.94476414827E+02  0.89409751744E+02 0.  0.
         13    1    3    3    0    0 -0.11594323071E+02  0.32341115122E+02  0.14890756060E+02  0.37444917343E+02  0.10566000000E+00 0. -1.
         22    1    1    0    0    0  0.16183301994E+02  0.24213492624E+02 -0.91376563352E+01  0.30523585173E+02  0.00000000000E+00 0.  1.
</event>
<event>
 5    1  0.9041381E-005  0.9118800E+02  0.7818608E-02  0.1130116E+00
         25   -1    0    0    0    0  0.00000000000E+00  0.00000000000E+00  0.99999998245E-14  0.12500000000E+03  0.12500000000E+03 0.  0.
        -13    1    3    3    0    0  0.44142021770E+02  0.11770996333E+02  0.41136229427E+02  0.61475808056E+02  0.10566000000E+00 0. -1.
         23    2    1    0    0    0  0.17309218457E+02  0.15330480011E+01  0.25401537279E+02  0.94223428133E+02  0.89055359374E+02 0.  0.
         13    1    3    3    0    0 -0.26832803313E+02 -0.10237948332E+02 -0.15734692148E+02  0.32747620077E+02  0.10566000000E+00 0.  1.
         22    1    1    0    0    0 -0.17309218457E+02 -0.15330480011E+01 -0.25401537279E+02  0.30776571867E+02  0.00000000000E+00 0. -1.
</event>
<event>
 5    1  0.9041381E-005  0.9118800E+02  0.7818608E-02  0.1130116E+00
         25   -1    0    0    0    0  0.00000000000E+00  0.00000000000E+00  0.99999998245E-14  0.12500000000E+03  0.12500000000E+03 0.  0.
        -13    1    3    3    0    0  0.52396310714E+02 -0.99980556017E+00 -0.12179004450E+02  0.53802530619E+02  0.10566000000E+00 0. -1.
         23    2    1    0    0    0  0.17490335151E+02 -0.19044433454E+02 -0.17956337702E+02  0.93519333982E+02  0.88061532439E+02 0.  0.
         13    1    3    3    0    0 -0.34905975563E+02 -0.18044627894E+02 -0.57773332522E+01  0.39716803363E+02  0.10566000000E+00 0.  1.
         22    1    1    0    0    0 -0.17490335151E+02  0.19044433454E+02  0.17956337702E+02  0.31480666018E+02  0.00000000000E+00 0. -1.
</event>
<event>
 5    1  0.9041381E-005  0.9118800E+02  0.7818608E-02  0.1130116E+00
         25   -1    0    0    0    0  0.00000000000E+00  0.00000000000E+00  0.99999998245E-14  0.12500000000E+03  0.12500000000E+03 0.  0.
        -13    1    3    3    0    0  0.17543821256E+02 -0.31862877144E+02  0.45414570969E+02  0.58185247482E+02  0.10566000000E+00 0. -1.
         23    2    1    0    0    0  0.25831620647E+02 -0.18356616353E+02  0.22140264359E+02  0.86342150925E+02  0.77204518853E+02 0.  0.
         13    1    3    3    0    0  0.82877993912E+01  0.13506260791E+02 -0.23274306611E+02  0.28156903444E+02  0.10566000000E+00 0.  1.
         22    1    1    0    0    0 -0.25831620647E+02  0.18356616353E+02 -0.22140264359E+02  0.38657849075E+02  0.00000000000E+00 0. -1.
</event>
<event>
 5    1  0.9041381E-005  0.9118800E+02  0.7818608E-02  0.1130116E+00
         25   -1    0    0    0    0  0.00000000000E+00  0.00000000000E+00  0.99999998245E-14  0.12500000000E+03  0.12500000000E+03 0.  0.
        -13    1    3    3    0    0 -0.27737388475E+02  0.24929467055E+01 -0.40766470635E+02  0.49370981302E+02  0.10566000000E+00 0. -1.
         23    2    1    0    0    0 -0.28731625810E+02  0.41867341669E+01  0.53048781814E+01  0.95484295753E+02  0.90807895792E+02 0.  0.
         13    1    3    3    0    0 -0.99423733573E+00  0.16937874613E+01  0.46071348816E+02  0.46113314451E+02  0.10566000000E+00 0.  1.
         22    1    1    0    0    0  0.28731625810E+02 -0.41867341669E+01 -0.53048781814E+01  0.29515704247E+02  0.00000000000E+00 0. -1.
</event>
<event>
 5    1  0.9041381E-005  0.9118800E+02  0.7818608E-02  0.1130116E+00
         25   -1    0    0    0    0  0.00000000000E+00  0.00000000000E+00  0.99999998245E-14  0.12500000000E+03  0.12500000000E+03 0.  0.
        -13    1    3    3    0    0 -0.29120875449E+02  0.44878966978E+01  0.16662748322E+02  0.33850036180E+02  0.10566000000E+00 0. -1.
         23    2    1    0    0    0  0.18821626883E+02 -0.72656055921E+01 -0.20954157185E+02  0.95911868976E+02  0.91394569007E+02 0.  0.
         13    1    3    3    0    0  0.47942502333E+02 -0.11753502290E+02 -0.37616905507E+02  0.62061832796E+02  0.10566000000E+00 0.  1.
         22    1    1    0    0    0 -0.18821626883E+02  0.72656055921E+01  0.20954157185E+02  0.29088131024E+02  0.00000000000E+00 0.  1.
</event>
<event>
 5    1  0.9041381E-005  0.9118800E+02  0.7818608E-02  0.1130116E+00
         25   -1    0    0    0    0  0.00000000000E+00  0.00000000000E+00  0.99999998245E-14  0.12500000000E+03  0.12500000000E+03 0.  0.
        -13    1    3    3    0    0  0.26121332424E+02 -0.13126811410E+02 -0.43491149157E+02  0.52403515192E+02  0.10566000000E+00 0. -1.
         23    2    1    0    0    0  0.12873155876E+02  0.19239322423E+02 -0.16829622991E+02  0.96379974152E+02  0.92032567812E+02 0.  0.
         13    1    3    3    0    0 -0.13248176549E+02  0.32366133833E+02  0.26661526166E+02  0.43976458960E+02  0.10566000000E+00 0.  1.
         22    1    1    0    0    0 -0.12873155876E+02 -0.19239322423E+02  0.16829622991E+02  0.28620025848E+02  0.00000000000E+00 0.  1.
</event>
<event>
 5    1  0.9041381E-005  0.9118800E+02  0.7818608E-02  0.1130116E+00
         25   -1    0    0    0    0  0.00000000000E+00  0.00000000000E+00  0.99999998245E-14  0.12500000000E+03  0.12500000000E+03 0.  0.
        -13    1    3    3    0    0 -0.31332575131E+02  0.27945821263E+02 -0.40712936688E+02  0.58482933992E+02  0.10566000000E+00 0.  1.
         23    2    1    0    0    0 -0.11888451032E+02 -0.10885631167E+00 -0.27418655175E+02  0.95114723203E+02  0.90297734195E+02 0.  0.
         13    1    3    3    0    0  0.19444124099E+02 -0.28054677575E+02  0.13294281514E+02  0.36631789211E+02  0.10566000000E+00 0. -1.
         22    1    1    0    0    0  0.11888451032E+02  0.10885631167E+00  0.27418655175E+02  0.29885276797E+02  0.00000000000E+00 0.  1.
</event>
<event>
 5    1  0.9041381E-005  0.9118800E+02  0.7818608E-02  0.1130116E+00
         25   -1    0    0    0    0  0.00000000000E+00  0.00000000000E+00  0.99999998245E-14  0.12500000000E+03  0.12500000000E+03 0.  0.
        -13    1    3    3    0    0  0.18236577654E+02 -0.12883887387E+02  0.32438760195E+02  0.39380853797E+02  0.10566000000E+00 0. -1.
         23    2    1    0    0    0 -0.32000733420E+01  0.28614995221E+02  0.74288954237E-01  0.96206529564E+02  0.91796690524E+02 0.  0.
         13    1    3    3    0    0 -0.21436650996E+02  0.41498882608E+02 -0.32364471241E+02  0.56825675767E+02  0.10566000000E+00 0.  1.
         22    1    1    0    0    0  0.32000733420E+01 -0.28614995221E+02 -0.74288954237E-01  0.28793470436E+02  0.00000000000E+00 0.  1.
</event>
<event>
 5    1  0.9041381E-005  0.9118800E+02  0.7818608E-02  0.1130116E+00
         25   -1    0    0    0    0  0.00000000000E+00  0.00000000000E+00  0.99999998245E-14  0.12500000000E+03  0.12500000000E+03 0.  0.
        -13    1    3    3    0    0  0.18596115445E+02 -0.42703437546E+02  0.17365506183E+02  0.49708862962E+02  0.10566000000E+00 0.  1.
         23    2    1    0    0    0  0.48787833323E+01 -0.17997709272E+01  0.29912416209E+02  0.94638933720E+02  0.89636674582E+02 0.  0.
         13    1    3    3    0    0 -0.13717332113E+02  0.40903666619E+02  0.12546910025E+02  0.44930070759E+02  0.10566000000E+00 0. -1.
         22    1    1    0    0    0 -0.48787833323E+01  0.17997709272E+01 -0.29912416209E+02  0.30361066280E+02  0.00000000000E+00 0. -1.
</event>
<event>
 5    1  0.9041381E-005  0.9118800E+02  0.7818608E-02  0.1130116E+00
         25   -1    0    0    0    0  0.00000000000E+00  0.00000000000E+00  0.99999998245E-14  0.12500000000E+03  0.12500000000E+03 0.  0.
        -13    1    3    3    0    0  0.21363365226E+02  0.16945416384E+02  0.30550738730E+02  0.40949961065E+02  0.10566000000E+00 0. -1.
         23    2    1    0    0    0  0.21566677579E+02  0.48134829938E+01 -0.21363960640E+02  0.94263864677E+02  0.89112098894E+02 0.  0.
         13    1    3    3    0    0  0.20331235289E+00 -0.12131933390E+02 -0.51914699370E+02  0.53313903613E+02  0.10566000000E+00 0.  1.
         22    1    1    0    0    0 -0.21566677579E+02 -0.48134829938E+01  0.21363960640E+02  0.30736135323E+02  0.00000000000E+00 0. -1.
</event>
<event>
 5    1  0.9041381E-005  0.9118800E+02  0.7818608E-02  0.1130116E+00
         25   -1    0    0    0    0  0.00000000000E+00  0.00000000000E+00  0.99999998245E-14  0.12500000000E+03  0.12500000000E+03 0.  0.
        -13    1    3    3    0    0 -0.32972992993E+02  0.31125082259E+01  0.20939909832E+02  0.39184141718E+02  0.10566000000E+00 0.  1.
         23    2    1    0    0    0  0.28256098250E+01  0.23734560972E+02 -0.17311859336E+02  0.95487054890E+02  0.90811693754E+02 0.  0.
         13    1    3    3    0    0  0.35798602818E+02  0.20622052746E+02 -0.38251769168E+02  0.56302913172E+02  0.10566000000E+00 0. -1.
         22    1    1    0    0    0 -0.28256098250E+01 -0.23734560972E+02  0.17311859336E+02  0.29512945110E+02  0.00000000000E+00 0. -1.
</event>
<event>
 5    1  0.9041381E-005  0.9118800E+02  0.7818608E-02  0.1130116E+00
         25   -1    0    0    0    0  0.00000000000E+00  0.00000000000E+00  0.99999998245E-14  0.12500000000E+03  0.12500000000E+03 0.  0.
        -13    1    3    3    0    0  0.62190854128E+01  0.56808031548E+01  0.34240663156E+02  0.35261632482E+02  0.10566000000E+00 0.  1.
         23    2    1    0    0    0 -0.17504551395E+02 -0.15653703279E+02 -0.17268077985E+02  0.95851513535E+02  0.91311983791E+02 0.  0.
         13    1    3    3    0    0 -0.23723636807E+02 -0.21334506434E+02 -0.51508741141E+02  0.60589881054E+02  0.10566000000E+00 0. -1.
         22    1    1    0    0    0  0.17504551395E+02  0.15653703279E+02  0.17268077985E+02  0.29148486465E+02  0.00000000000E+00 0. -1.
</event>
<event>
 5    1  0.9041381E-005  0.9118800E+02  0.7818608E-02  0.1130116E+00
         25   -1    0    0    0    0  0.00000000000E+00  0.00000000000E+00  0.99999998245E-14  0.12500000000E+03  0.12500000000E+03 0.  0.
        -13    1    3    3    0    0 -0.16318146642E+02 -0.34783585345E+02 -0.37369573796E+01  0.38602535328E+02  0.10566000000E+00 0. -1.
         23    2    1    0    0    0 -0.17177658001E+02  0.17093232818E+02  0.17956307166E+02  0.94839106286E+02  0.89915385622E+02 0.  0.
         13    1    3    3    0    0 -0.85951135983E+00  0.51876818162E+02  0.21693264546E+02  0.56236570958E+02  0.10566000000E+00 0.  1.
         22    1    1    0    0    0  0.17177658001E+02 -0.17093232818E+02 -0.17956307166E+02  0.30160893714E+02  0.00000000000E+00 0.  1.
</event>
<event>
 5    1  0.9041381E-005  0.9118800E+02  0.7818608E-02  0.1130116E+00
         25   -1    0    0    0    0  0.00000000000E+00  0.00000000000E+00  0.99999998245E-14  0.12500000000E+03  0.12500000000E+03 0.  0.
        -13    1    3    3    0    0  0.40570911122E+02  0.18152935358E+02 -0.74535497963E+01  0.45067665349E+02  0.10566000000E+00 0.  1.
         23    2    1    0    0    0  0.84334593644E+01 -0.17363607570E+02 -0.22576022107E+02  0.95296551061E+02  0.90549090361E+02 0.  0.
         13    1    3    3    0    0 -0.32137451758E+02 -0.35516542928E+02 -0.15122472311E+02  0.50228885712E+02  0.10566000000E+00 0. -1.
         22    1    1    0    0    0 -0.84334593644E+01  0.17363607570E+02  0.22576022107E+02  0.29703448939E+02  0.00000000000E+00 0. -1.
</event>
<event>
 5    1  0.9041381E-005  0.9118800E+02  0.7818608E-02  0.1130116E+00
         25   -1    0    0    0    0  0.00000000000E+00  0.00000000000E+00  0.99999998245E-14  0.12500000000E+03  0.12500000000E+03 0.  0.
        -13    1    3    3    0    0  0.18707654351E+02 -0.17844290788E+02  0.50008584086E+02  0.56296222709E+02  0.10566000000E+00 0. -1.
         23    2    1    0    0    0  0.30135953071E+01  0.96344601917E+01  0.29034170805E+02  0.94260975061E+02  0.89108045458E+02 0.  0.
         13    1    3    3    0    0 -0.15694059044E+02  0.27478750979E+02 -0.20974413281E+02  0.37964752352E+02  0.10566000000E+00 0.  1.
         22    1    1    0    0    0 -0.30135953071E+01 -0.96344601917E+01 -0.29034170805E+02  0.30739024939E+02  0.00000000000E+00 0. -1.
</event>
<event>
 5    1  0.9041381E-005  0.9118800E+02  0.7818608E-02  0.1130116E+00
         25   -1    0    0    0    0  0.00000000000E+00  0.00000000000E+00  0.99999998245E-14  0.12500000000E+03  0.12500000000E+03 0.  0.
        -13    1    3    3    0    0  0.45604986657E+02 -0.20132326407E+02  0.83541273220E+01  0.50546295432E+02  0.10566000000E+00 0. -1.
         23    2    1    0    0    0  0.77382668538E+00 -0.28281994644E+02  0.53062860677E+01  0.96214123244E+02  0.91807030292E+02 0.  0.
         13    1    3    3    0    0 -0.44831159972E+02 -0.81496682370E+01 -0.30478412543E+01  0.45667827813E+02  0.10566000000E+00 0.  1.
         22    1    1    0    0    0 -0.77382668538E+00  0.28281994644E+02 -0.53062860677E+01  0.28785876756E+02  0.00000000000E+00 0.  1.
</event>
<event>
 5    1  0.9041381E-005  0.9118800E+02  0.7818608E-02  0.1130116E+00
         25   -1    0    0    0    0  0.00000000000E+00  0.00000000000E+00  0.99999998245E-14  0.12500000000E+03  0.12500000000E+03 0.  0.
        -13    1    3    3    0    0  0.36115453804E+02  0.32877676218E+01  0.34069433470E+00  0.36266550098E+02  0.10566000000E+00 0.  1.
         23    2    1    0    0    0 -0.22268239477E+02  0.85122693184E+01  0.15186081288E+02  0.96734291390E+02  0.92512555080E+02 0.  0.
         13    1    3    3    0    0 -0.58383693281E+02  0.52245016966E+01  0.14845386953E+02  0.60467741291E+02  0.10566000000E+00 0. -1.
         22    1    1    0    0    0  0.22268239477E+02 -0.85122693184E+01 -0.15186081288E+02  0.28265708610E+02  0.00000000000E+00 0. -1.
</event>
<event>
 5    1  0.9041381E-005  0.9118800E+02  0.7818608E-02  0.1130116E+00
         25   -1    0    0    0    0  0.00000000000E+00  0.00000000000E+00  0.99999998245E-14  0.12500000000E+03  0.12500000000E+03 0.  0.
        -13    1    3    3    0    0  0.32320969881E+02 -0.21568004744E+02  0.23275524510E+02  0.45294427118E+02  0.10566000000E+00 0.  1.
         23    2    1    0    0    0  0.24687600423E+02  0.39952689117E+01 -0.17821022079E+02  0.94291229001E+02  0.89150475323E+02 0.  0.
         13    1    3    3    0    0 -0.76333694577E+01  0.25563273656E+02 -0.41096546588E+02  0.48996801884E+02  0.10566000000E+00 0. -1.
         22    1    1    0    0    0 -0.24687600423E+02 -0.39952689117E+01  0.17821022079E+02  0.30708770999E+02  0.00000000000E+00 0.  1.
</event>
<event>
 5    1  0.9041381E-005  0.9118800E+02  0.7818608E-02  0.1130116E+00
         25   -1    0    0    0    0  0.00000000000E+00  0.00000000000E+00  0.99999998245E-14  0.12500000000E+03  0.12500000000E+03 0.  0.
        -13    1    3    3    0    0 -0.56258879047E+02 -0.21733377995E+02 -0.15422687131E+02  0.62251679761E+02  0.10566000000E+00 0. -1.
         23    2    1    0    0    0 -0.27205623716E+02 -0.12168596812E+02 -0.11349456630E+02  0.93109078471E+02  0.87477252002E+02 0.  0.
         13    1    3    3    0    0  0.29053255331E+02  0.95647811830E+01  0.40732305013E+01  0.30857398710E+02  0.10566000000E+00 0.  1.
         22    1    1    0    0    0  0.27205623716E+02  0.12168596812E+02  0.11349456630E+02  0.31890921529E+02  0.00000000000E+00 0. -1.
</event>
<event>
 5    1  0.9041381E-005  0.9118800E+02  0.7818608E-02  0.1130116E+00
         25   -1    0    0    0    0  0.00000000000E+00  0.00000000000E+00  0.99999998245E-14  0.12500000000E+03  0.12500000000E+03 0.  0.
        -13    1    3    3    0    0  0.33201594121E+01 -0.33069592751E+02 -0.25016332476E+02  0.41598671588E+02  0.10566000000E+00 0.  1.
         23    2    1    0    0    0 -0.22395974822E+02 -0.15507876942E+02  0.16237750894E+02  0.93286619708E+02  0.87730581481E+02 0.  0.
         13    1    3    3    0    0 -0.25716134234E+02  0.17561715809E+02  0.41254083370E+02  0.51687948120E+02  0.10566000000E+00 0. -1.
         22    1    1    0    0    0  0.22395974822E+02  0.15507876942E+02 -0.16237750894E+02  0.31713380292E+02  0.00000000000E+00 0. -1.
</event>
<event>
 5    1  0.9041381E-005  0.9118800E+02  0.7818608E-02  0.1130116E+00
         25   -1    0    0    0    0  0.00000000000E+00  0.00000000000E+00  0.99999998245E-14  0.12500000000E+03  0.12500000000E+03 0.  0.
        -13    1    3    3    0    0 -0.40046462422E+01 -0.54983943677E+02 -0.17449036993E+01  0.55157294229E+02  0.10566000000E+00 0.  1.
         23    2    1    0    0    0  0.15004061225E+02 -0.34966797181E+02 -0.12743778654E+02  0.84872669504E+02  0.74787481412E+02 0.  0.
         13    1    3    3    0    0  0.19008707467E+02  0.20017146495E+02 -0.10998874955E+02  0.29715375275E+02  0.10566000000E+00 0. -1.
         22    1    1    0    0    0 -0.15004061225E+02  0.34966797181E+02  0.12743778654E+02  0.40127330496E+02  0.00000000000E+00 0.  1.
</event>
<event>
 5    1  0.9041381E-005  0.9118800E+02  0.7818608E-02  0.1130116E+00
         25   -1    0    0    0    0  0.00000000000E+00  0.00000000000E+00  0.99999998245E-14  0.12500000000E+03  0.12500000000E+03 0.  0.
        -13    1    3    3    0    0  0.56206766446E+02  0.12977961706E+00 -0.10865929410E+02  0.57247681377E+02  0.10566000000E+00 0. -1.
         23    2    1    0    0    0  0.30314942024E+02 -0.10964418984E+02 -0.20240818746E+02  0.86935516067E+02  0.78159318169E+02 0.  0.
         13    1    3    3    0    0 -0.25891824422E+02 -0.11094198601E+02 -0.93748893355E+01  0.29687834690E+02  0.10566000000E+00 0.  1.
         22    1    1    0    0    0 -0.30314942024E+02  0.10964418984E+02  0.20240818746E+02  0.38064483933E+02  0.00000000000E+00 0. -1.
</event>
<event>
 5    1  0.9041381E-005  0.9118800E+02  0.7818608E-02  0.1130116E+00
         25   -1    0    0    0    0  0.00000000000E+00  0.00000000000E+00  0.99999998245E-14  0.12500000000E+03  0.12500000000E+03 0.  0.
        -13    1    3    3    0    0  0.14115119895E+02 -0.93139325129E+01 -0.52630349940E+02  0.55280655273E+02  0.10566000000E+00 0. -1.
         23    2    1    0    0    0  0.22095736904E+02  0.88366134739E+01 -0.18089701984E+02  0.95107782871E+02  0.90288126118E+02 0.  0.
         13    1    3    3    0    0  0.79806170091E+01  0.18150545987E+02  0.34540647956E+02  0.39827127599E+02  0.10566000000E+00 0.  1.
         22    1    1    0    0    0 -0.22095736904E+02 -0.88366134739E+01  0.18089701984E+02  0.29892217129E+02  0.00000000000E+00 0.  1.
</event>
<event>
 5    1  0.9041381E-005  0.9118800E+02  0.7818608E-02  0.1130116E+00
         25   -1    0    0    0    0  0.00000000000E+00  0.00000000000E+00  0.99999998245E-14  0.12500000000E+03  0.12500000000E+03 0.  0.
        -13    1    3    3    0    0  0.15911455911E+02 -0.80439053123E+01 -0.42888968000E+02  0.46447320504E+02  0.10566000000E+00 0.  1.
         23    2    1    0    0    0  0.16998657903E+02  0.23759227680E+02 -0.59800546913E+01  0.95180269542E+02  0.90388425064E+02 0.  0.
         13    1    3    3    0    0  0.10872019918E+01  0.31803132993E+02  0.36908913309E+02  0.48732949038E+02  0.10566000000E+00 0. -1.
         22    1    1    0    0    0 -0.16998657903E+02 -0.23759227680E+02  0.59800546913E+01  0.29819730458E+02  0.00000000000E+00 0.  1.
</event>
<event>
 5    1  0.9041381E-005  0.9118800E+02  0.7818608E-02  0.1130116E+00
         25   -1    0    0    0    0  0.00000000000E+00  0.00000000000E+00  0.99999998245E-14  0.12500000000E+03  0.12500000000E+03 0.  0.
        -13    1    3    3    0    0 -0.20707502663E+02 -0.32579826527E+02 -0.32329301490E+01  0.38738982491E+02  0.10566000000E+00 0. -1.
         23    2    1    0    0    0 -0.25968734818E+02  0.20303908787E+02 -0.31702358898E+01  0.91883926928E+02  0.85708702779E+02 0.  0.
         13    1    3    3    0    0 -0.52612321550E+01  0.52883735315E+02  0.62694259218E-01  0.53144944437E+02  0.10566000000E+00 0.  1.
         22    1    1    0    0    0  0.25968734818E+02 -0.20303908787E+02  0.31702358898E+01  0.33116073072E+02  0.00000000000E+00 0.  1.
</event>
<event>
 5    1  0.9041381E-005  0.9118800E+02  0.7818608E-02  0.1130116E+00
         25   -1    0    0    0    0  0.00000000000E+00  0.00000000000E+00  0.99999998245E-14  0.12500000000E+03  0.12500000000E+03 0.  0.
        -13    1    3    3    0    0 -0.90626015186E+01  0.45483503205E+02  0.20859489004E+01  0.46424585695E+02  0.10566000000E+00 0. -1.
         23    2    1    0    0    0  0.44634386005E+01  0.69345025487E+01  0.28671149459E+02  0.95166387730E+02  0.90369225584E+02 0.  0.
         13    1    3    3    0    0  0.13526040119E+02 -0.38549000656E+02  0.26585200559E+02  0.48741802036E+02  0.10566000000E+00 0.  1.
         22    1    1    0    0    0 -0.44634386005E+01 -0.69345025487E+01 -0.28671149459E+02  0.29833612270E+02  0.00000000000E+00 0.  1.
</event>
<event>
 5    1  0.9041381E-005  0.9118800E+02  0.7818608E-02  0.1130116E+00
         25   -1    0    0    0    0  0.00000000000E+00  0.00000000000E+00  0.99999998245E-14  0.12500000000E+03  0.12500000000E+03 0.  0.
        -13    1    3    3    0    0 -0.30836793173E+02 -0.18385097846E+02 -0.23385283225E+02  0.42846263216E+02  0.10566000000E+00 0.  1.
         23    2    1    0    0    0  0.12602214859E+02 -0.25059474721E+02  0.67686016774E+01  0.96145068683E+02  0.91712960757E+02 0.  0.
         13    1    3    3    0    0  0.43439008033E+02 -0.66743768749E+01  0.30153884902E+02  0.53298805467E+02  0.10566000000E+00 0. -1.
         22    1    1    0    0    0 -0.12602214859E+02  0.25059474721E+02 -0.67686016774E+01  0.28854931317E+02  0.00000000000E+00 0. -1.
</event>
<event>
 5    1  0.9041381E-005  0.9118800E+02  0.7818608E-02  0.1130116E+00
         25   -1    0    0    0    0  0.00000000000E+00  0.00000000000E+00  0.99999998245E-14  0.12500000000E+03  0.12500000000E+03 0.  0.
        -13    1    3    3    0    0 -0.41005713576E+02  0.16017735948E+02  0.22183539485E+01  0.44079118288E+02  0.10566000000E+00 0. -1.
         23    2    1    0    0    0  0.26302011946E+01  0.29791402366E+01  0.28206629583E+02  0.96514790025E+02  0.92215494936E+02 0.  0.
         13    1    3    3    0    0  0.43635914771E+02 -0.13038595712E+02  0.25988275635E+02  0.52435671737E+02  0.10566000000E+00 0.  1.
         22    1    1    0    0    0 -0.26302011946E+01 -0.29791402366E+01 -0.28206629583E+02  0.28485209975E+02  0.00000000000E+00 0.  1.
</event>
<event>
 5    1  0.9041381E-005  0.9118800E+02  0.7818608E-02  0.1130116E+00
         25   -1    0    0    0    0  0.00000000000E+00  0.00000000000E+00  0.99999998245E-14  0.12500000000E+03  0.12500000000E+03 0.  0.
        -13    1    3    3    0    0 -0.12098766572E+02 -0.37186528833E+02  0.40092624331E+02  0.56005783354E+02  0.10566000000E+00 0.  1.
         23    2    1    0    0    0 -0.13210193301E+02 -0.28083042289E+02  0.34557104001E+01  0.93773274177E+02  0.88421256179E+02 0.  0.
         13    1    3    3    0    0 -0.11114267296E+01  0.91034865443E+01 -0.36636913931E+02  0.37767490823E+02  0.10566000000E+00 0. -1.
         22    1    1    0    0    0  0.13210193301E+02  0.28083042289E+02 -0.34557104001E+01  0.31226725823E+02  0.00000000000E+00 0.  1.
</event>
<event>
 5    1  0.9041381E-005  0.9118800E+02  0.7818608E-02  0.1130116E+00
         25   -1    0    0    0    0  0.00000000000E+00  0.00000000000E+00  0.99999998245E-14  0.12500000000E+03  0.12500000000E+03 0.  0.
        -13    1    3    3    0    0 -0.35352197930E+02 -0.11893692800E+02  0.22587675877E+02  0.43605642897E+02  0.10566000000E+00 0.  1.
         23    2    1    0    0    0 -0.17743353740E+02  0.13784535227E+02 -0.19012033654E+02  0.95567068834E+02  0.90921764218E+02 0.  0.
         13    1    3    3    0    0  0.17608844190E+02  0.25678228026E+02 -0.41599709532E+02  0.51961425937E+02  0.10566000000E+00 0. -1.
         22    1    1    0    0    0  0.17743353740E+02 -0.13784535227E+02  0.19012033654E+02  0.29432931166E+02  0.00000000000E+00 0. -1.
</event>
<event>
 5    1  0.9041381E-005  0.9118800E+02  0.7818608E-02  0.1130116E+00
         25   -1    0    0    0    0  0.00000000000E+00  0.00000000000E+00  0.99999998245E-14  0.12500000000E+03  0.12500000000E+03 0.  0.
        -13    1    3    3    0    0  0.28222233455E+02  0.27018822082E+02 -0.20256172020E+02  0.44009486215E+02  0.10566000000E+00 0. -1.
         23    2    1    0    0    0 -0.48867785874E+01 -0.10665516632E+02 -0.27883446630E+02  0.94749042231E+02  0.89790091646E+02 0.  0.
         13    1    3    3    0    0 -0.33109012043E+02 -0.37684338714E+02 -0.76272746096E+01  0.50739556017E+02  0.10566000000E+00 0.  1.
         22    1    1    0    0    0  0.48867785874E+01  0.10665516632E+02  0.27883446630E+02  0.30250957769E+02  0.00000000000E+00 0. -1.
</event>
<event>
 5    1  0.9041381E-005  0.9118800E+02  0.7818608E-02  0.1130116E+00
         25   -1    0    0    0    0  0.00000000000E+00  0.00000000000E+00  0.99999998245E-14  0.12500000000E+03  0.12500000000E+03 0.  0.
        -13    1    3    3    0    0 -0.17646300655E+02  0.24277422137E+02 -0.20283583678E+02  0.36224578442E+02  0.10566000000E+00 0. -1.
         23    2    1    0    0    0  0.21149976861E+02 -0.13177629519E+02  0.10088890020E+02  0.98115857038E+02  0.94360819515E+02 0.  0.
         13    1    3    3    0    0  0.38796277516E+02 -0.37455051656E+02  0.30372473698E+02  0.61891278596E+02  0.10566000000E+00 0.  1.
         22    1    1    0    0    0 -0.21149976861E+02  0.13177629519E+02 -0.10088890020E+02  0.26884142962E+02  0.00000000000E+00 0.  1.
</event>
<event>
 5    1  0.9041381E-005  0.9118800E+02  0.7818608E-02  0.1130116E+00
         25   -1    0    0    0    0  0.00000000000E+00  0.00000000000E+00  0.99999998245E-14  0.12500000000E+03  0.12500000000E+03 0.  0.
        -13    1    3    3    0    0  0.38261341367E+01 -0.33275209787E+02 -0.18727978502E+01  0.33546943596E+02  0.10566000000E+00 0.  1.
         23    2    1    0    0    0  0.97042891003E+00  0.26678406878E+02  0.12886186001E+02  0.95356570451E+02  0.90631907255E+02 0.  0.
         13    1    3    3    0    0 -0.28557052266E+01  0.59953616665E+02  0.14758983851E+02  0.61809626855E+02  0.10566000000E+00 0. -1.
         22    1    1    0    0    0 -0.97042891003E+00 -0.26678406878E+02 -0.12886186001E+02  0.29643429549E+02  0.00000000000E+00 0. -1.
</event>
<event>
 5    1  0.9041381E-005  0.9118800E+02  0.7818608E-02  0.1130116E+00
         25   -1    0    0    0    0  0.00000000000E+00  0.00000000000E+00  0.99999998245E-14  0.12500000000E+03  0.12500000000E+03 0.  0.
        -13    1    3    3    0    0 -0.43789508414E+02 -0.20541200452E+02 -0.88531588463E+00  0.48376201911E+02  0.10566000000E+00 0.  1.
         23    2    1    0    0    0 -0.21143537368E+02  0.15687069551E+02 -0.16574428098E+02  0.93889792828E+02  0.88585823961E+02 0.  0.
         13    1    3    3    0    0  0.22645971046E+02  0.36228270003E+02 -0.15689112214E+02  0.45513590916E+02  0.10566000000E+00 0. -1.
         22    1    1    0    0    0  0.21143537368E+02 -0.15687069551E+02  0.16574428098E+02  0.31110207172E+02  0.00000000000E+00 0.  1.
</event>
<event>
 5    1  0.9041381E-005  0.9118800E+02  0.7818608E-02  0.1130116E+00
         25   -1    0    0    0    0  0.00000000000E+00  0.00000000000E+00  0.99999998245E-14  0.12500000000E+03  0.12500000000E+03 0.  0.
        -13    1    3    3    0    0 -0.49471332965E+01 -0.56726061259E+02  0.15831202198E+01  0.56963475907E+02  0.10566000000E+00 0.  1.
         23    2    1    0    0    0 -0.20494509906E+02 -0.22637550470E+02  0.64185349654E-02  0.94463404434E+02  0.89391560611E+02 0.  0.
         13    1    3    3    0    0 -0.15547376610E+02  0.34088510789E+02 -0.15767016848E+01  0.37499928526E+02  0.10566000000E+00 0. -1.
         22    1    1    0    0    0  0.20494509906E+02  0.22637550470E+02 -0.64185349654E-02  0.30536595566E+02  0.00000000000E+00 0.  1.
</event>
<event>
 5    1  0.9041381E-005  0.9118800E+02  0.7818608E-02  0.1130116E+00
         25   -1    0    0    0    0  0.00000000000E+00  0.00000000000E+00  0.99999998245E-14  0.12500000000E+03  0.12500000000E+03 0.  0.
        -13    1    3    3    0    0  0.27826817880E+02  0.13763872457E+02 -0.23905824902E+02  0.39182593159E+02  0.10566000000E+00 0. -1.
         23    2    1    0    0    0  0.10772247747E+02 -0.24186054638E+02  0.13632441314E+02  0.95219972857E+02  0.90443314923E+02 0.  0.
         13    1    3    3    0    0 -0.17054570133E+02 -0.37949927095E+02  0.37538266216E+02  0.56037379698E+02  0.10566000000E+00 0.  1.
         22    1    1    0    0    0 -0.10772247747E+02  0.24186054638E+02 -0.13632441314E+02  0.29780027143E+02  0.00000000000E+00 0.  1.
</event>
<event>
 5    1  0.9041381E-005  0.9118800E+02  0.7818608E-02  0.1130116E+00
         25   -1    0    0    0    0  0.00000000000E+00  0.00000000000E+00  0.99999998245E-14  0.12500000000E+03  0.12500000000E+03 0.  0.
        -13    1    3    3    0    0  0.19216133241E+02 -0.26662328622E+02 -0.23534654552E+02  0.40423145266E+02  0.10566000000E+00 0.  1.
         23    2    1    0    0    0  0.13849522042E+01 -0.15116875822E+02  0.26320680782E+02  0.94615525937E+02  0.89604026050E+02 0.  0.
         13    1    3    3    0    0 -0.17831181037E+02  0.11545452800E+02  0.49855335334E+02  0.54192380671E+02  0.10566000000E+00 0. -1.
         22    1    1    0    0    0 -0.13849522042E+01  0.15116875822E+02 -0.26320680782E+02  0.30384474063E+02  0.00000000000E+00 0.  1.
</event>
<event>
 5    1  0.9041381E-005  0.9118800E+02  0.7818608E-02  0.1130116E+00
         25   -1    0    0    0    0  0.00000000000E+00  0.00000000000E+00  0.99999998245E-14  0.12500000000E+03  0.12500000000E+03 0.  0.
        -13    1    3    3    0    0  0.76301369604E+01 -0.18477524868E+02 -0.29933615513E+02  0.35995422167E+02  0.10566000000E+00 0. -1.
         23    2    1    0    0    0  0.16458392987E+02  0.91674592686E+01  0.22335332321E+02  0.95780347726E+02  0.91214510532E+02 0.  0.
         13    1    3    3    0    0  0.88282560263E+01  0.27644984136E+02  0.52268947834E+02  0.59784925559E+02  0.10566000000E+00 0.  1.
         22    1    1    0    0    0 -0.16458392987E+02 -0.91674592686E+01 -0.22335332321E+02  0.29219652274E+02  0.00000000000E+00 0.  1.
</event>
<event>
 5    1  0.9041381E-005  0.9118800E+02  0.7818608E-02  0.1130116E+00
         25   -1    0    0    0    0  0.00000000000E+00  0.00000000000E+00  0.99999998245E-14  0.12500000000E+03  0.12500000000E+03 0.  0.
        -13    1    3    3    0    0  0.17976904486E+02 -0.13716475720E+01 -0.39056998312E+02  0.43017563775E+02  0.10566000000E+00 0. -1.
         23    2    1    0    0    0 -0.26848140130E+02 -0.39929444054E+01 -0.13467522834E+02  0.94699168250E+02  0.89720633427E+02 0.  0.
         13    1    3    3    0    0 -0.44825044616E+02 -0.26212968334E+01  0.25589475478E+02  0.51681604476E+02  0.10566000000E+00 0.  1.
         22    1    1    0    0    0  0.26848140130E+02  0.39929444054E+01  0.13467522834E+02  0.30300831750E+02  0.00000000000E+00 0.  1.
</event>
<event>
 5    1  0.9041381E-005  0.9118800E+02  0.7818608E-02  0.1130116E+00
         25   -1    0    0    0    0  0.00000000000E+00  0.00000000000E+00  0.99999998245E-14  0.12500000000E+03  0.12500000000E+03 0.  0.
        -13    1    3    3    0    0  0.20682192140E+01  0.22303908917E+02  0.38620101564E+02  0.44645999737E+02  0.10566000000E+00 0. -1.
         23    2    1    0    0    0 -0.16270234726E+02  0.20567410900E+01 -0.13675370045E+02  0.10364662866E+03  0.10142315891E+03 0.  0.
         13    1    3    3    0    0 -0.18338453940E+02 -0.20247167827E+02 -0.52295471608E+02  0.59000628918E+02  0.10566000000E+00 0.  1.
         22    1    1    0    0    0  0.16270234726E+02 -0.20567410900E+01  0.13675370045E+02  0.21353371345E+02  0.00000000000E+00 0.  1.
</event>
<event>
 5    1  0.9041381E-005  0.9118800E+02  0.7818608E-02  0.1130116E+00
         25   -1    0    0    0    0  0.00000000000E+00  0.00000000000E+00  0.99999998245E-14  0.12500000000E+03  0.12500000000E+03 0.  0.
        -13    1    3    3    0    0  0.29035599947E+02  0.11008451761E+02 -0.13984078792E+02  0.34056096344E+02  0.10566000000E+00 0. -1.
         23    2    1    0    0    0 -0.13797323890E+02 -0.11744331908E+02  0.23480155106E+02  0.95341726917E+02  0.90611432662E+02 0.  0.
         13    1    3    3    0    0 -0.42832923837E+02 -0.22752783669E+02  0.37464233898E+02  0.61285630573E+02  0.10566000000E+00 0.  1.
         22    1    1    0    0    0  0.13797323890E+02  0.11744331908E+02 -0.23480155106E+02  0.29658273083E+02  0.00000000000E+00 0.  1.
</event>
<event>
 5    1  0.9041381E-005  0.9118800E+02  0.7818608E-02  0.1130116E+00
         25   -1    0    0    0    0  0.00000000000E+00  0.00000000000E+00  0.99999998245E-14  0.12500000000E+03  0.12500000000E+03 0.  0.
        -13    1    3    3    0    0 -0.24915432140E+02  0.56266125921E+01  0.29227952908E+02  0.38816516114E+02  0.10566000000E+00 0.  1.
         23    2    1    0    0    0  0.89021061396E+01 -0.26600249237E+02 -0.47096542755E+01  0.96557046627E+02  0.92272756850E+02 0.  0.
         13    1    3    3    0    0  0.33817538280E+02 -0.32226861829E+02 -0.33937607183E+02  0.57740530514E+02  0.10566000000E+00 0. -1.
         22    1    1    0    0    0 -0.89021061396E+01  0.26600249237E+02  0.47096542755E+01  0.28442953373E+02  0.00000000000E+00 0. -1.
</event>
<event>
 5    1  0.9041381E-005  0.9118800E+02  0.7818608E-02  0.1130116E+00
         25   -1    0    0    0    0  0.00000000000E+00  0.00000000000E+00  0.99999998245E-14  0.12500000000E+03  0.12500000000E+03 0.  0.
        -13    1    3    3    0    0 -0.32941932804E+02 -0.33371421318E+02  0.13900914818E+02  0.48908785452E+02  0.10566000000E+00 0. -1.
         23    2    1    0    0    0 -0.28900358132E+02  0.16778654470E+01 -0.12990085068E+02  0.93270073390E+02  0.87707002841E+02 0.  0.
         13    1    3    3    0    0  0.40415746714E+01  0.35049286765E+02 -0.26890999886E+02  0.44361287937E+02  0.10566000000E+00 0.  1.
         22    1    1    0    0    0  0.28900358132E+02 -0.16778654470E+01  0.12990085068E+02  0.31729926610E+02  0.00000000000E+00 0.  1.
</event>
<event>
 5    1  0.9041381E-005  0.9118800E+02  0.7818608E-02  0.1130116E+00
         25   -1    0    0    0    0  0.00000000000E+00  0.00000000000E+00  0.99999998245E-14  0.12500000000E+03  0.12500000000E+03 0.  0.
        -13    1    3    3    0    0 -0.33746521934E+02 -0.22418366862E+02 -0.25812908382E+01  0.40596614906E+02  0.10566000000E+00 0.  1.
         23    2    1    0    0    0 -0.39795975982E+01  0.26261549438E+02  0.43817122116E+01  0.98079643801E+02  0.94312835555E+02 0.  0.
         13    1    3    3    0    0  0.29766924336E+02  0.48679916300E+02  0.69630030498E+01  0.57483028895E+02  0.10566000000E+00 0. -1.
         22    1    1    0    0    0  0.39795975982E+01 -0.26261549438E+02 -0.43817122116E+01  0.26920356199E+02  0.00000000000E+00 0. -1.
</event>
<event>
 5    1  0.9041381E-005  0.9118800E+02  0.7818608E-02  0.1130116E+00
         25   -1    0    0    0    0  0.00000000000E+00  0.00000000000E+00  0.99999998245E-14  0.12500000000E+03  0.12500000000E+03 0.  0.
        -13    1    3    3    0    0 -0.26255215881E+02  0.24736252020E+02 -0.28838767770E+02  0.46183375965E+02  0.10566000000E+00 0. -1.
         23    2    1    0    0    0 -0.51268631523E+01  0.14996866977E+02  0.19525027264E+02  0.99852088863E+02  0.96633442533E+02 0.  0.
         13    1    3    3    0    0  0.21128352729E+02 -0.97393850428E+01  0.48363795034E+02  0.53668712898E+02  0.10566000000E+00 0.  1.
         22    1    1    0    0    0  0.51268631523E+01 -0.14996866977E+02 -0.19525027264E+02  0.25147911137E+02  0.00000000000E+00 0.  1.
</event>
<event>
 5    1  0.9041381E-005  0.9118800E+02  0.7818608E-02  0.1130116E+00
         25   -1    0    0    0    0  0.00000000000E+00  0.00000000000E+00  0.99999998245E-14  0.12500000000E+03  0.12500000000E+03 0.  0.
        -13    1    3    3    0    0 -0.68848303466E+00 -0.37568033116E+01 -0.42314813939E+02  0.42486965327E+02  0.10566000000E+00 0. -1.
         23    2    1    0    0    0 -0.17605918204E+02 -0.21346843862E+02  0.60638223361E+01  0.96672874484E+02  0.92429533273E+02 0.  0.
         13    1    3    3    0    0 -0.16917435170E+02 -0.17590040550E+02  0.48378636275E+02  0.54185909157E+02  0.10566000000E+00 0.  1.
         22    1    1    0    0    0  0.17605918204E+02  0.21346843862E+02 -0.60638223361E+01  0.28327125516E+02  0.00000000000E+00 0.  1.
</event>
<event>
 5    1  0.9041381E-005  0.9118800E+02  0.7818608E-02  0.1130116E+00
         25   -1    0    0    0    0  0.00000000000E+00  0.00000000000E+00  0.99999998245E-14  0.12500000000E+03  0.12500000000E+03 0.  0.
        -13    1    3    3    0    0  0.49500748208E+02 -0.33657588272E+02  0.77273134082E+01  0.60356274388E+02  0.10566000000E+00 0.  1.
         23    2    1    0    0    0  0.20960559493E+02 -0.19110555664E+02 -0.72572031601E+01  0.95721588333E+02  0.91133951320E+02 0.  0.
         13    1    3    3    0    0 -0.28540188715E+02  0.14547032607E+02 -0.14984516568E+02  0.35365313945E+02  0.10566000000E+00 0. -1.
         22    1    1    0    0    0 -0.20960559493E+02  0.19110555664E+02  0.72572031601E+01  0.29278411667E+02  0.00000000000E+00 0.  1.
</event>
<event>
 5    1  0.9041381E-005  0.9118800E+02  0.7818608E-02  0.1130116E+00
         25   -1    0    0    0    0  0.00000000000E+00  0.00000000000E+00  0.99999998245E-14  0.12500000000E+03  0.12500000000E+03 0.  0.
        -13    1    3    3    0    0 -0.59756158369E+02  0.12915106362E+01  0.46312986556E+01  0.59949366586E+02  0.10566000000E+00 0. -1.
         23    2    1    0    0    0 -0.28731274223E+02  0.10822002804E+01 -0.10400859542E+02  0.94424925918E+02  0.89337738271E+02 0.  0.
         13    1    3    3    0    0  0.31024884146E+02 -0.20931035580E+00 -0.15032158198E+02  0.34475559332E+02  0.10566000000E+00 0.  1.
         22    1    1    0    0    0  0.28731274223E+02 -0.10822002804E+01  0.10400859542E+02  0.30575074082E+02  0.00000000000E+00 0. -1.
</event>
<event>
 5    1  0.9041381E-005  0.9118800E+02  0.7818608E-02  0.1130116E+00
         25   -1    0    0    0    0  0.00000000000E+00  0.00000000000E+00  0.99999998245E-14  0.12500000000E+03  0.12500000000E+03 0.  0.
        -13    1    3    3    0    0 -0.15319531794E+02 -0.27828366020E+02 -0.18588691390E+02  0.36805660181E+02  0.10566000000E+00 0.  1.
         23    2    1    0    0    0 -0.13987737849E+02  0.20777599006E+02  0.14908793206E+02  0.95851457233E+02  0.91311906717E+02 0.  0.
         13    1    3    3    0    0  0.13317939451E+01  0.48605965026E+02  0.33497484596E+02  0.59045797052E+02  0.10566000000E+00 0. -1.
         22    1    1    0    0    0  0.13987737849E+02 -0.20777599006E+02 -0.14908793206E+02  0.29148542767E+02  0.00000000000E+00 0. -1.
</event>
<event>
 5    1  0.9041381E-005  0.9118800E+02  0.7818608E-02  0.1130116E+00
         25   -1    0    0    0    0  0.00000000000E+00  0.00000000000E+00  0.99999998245E-14  0.12500000000E+03  0.12500000000E+03 0.  0.
        -13    1    3    3    0    0  0.18967277569E+02  0.11278522148E+02  0.55705197582E+02  0.59916966562E+02  0.10566000000E+00 0.  1.
         23    2    1    0    0    0  0.14140292489E+02  0.16809506688E+02  0.23982407658E+02  0.92478264747E+02  0.86571162559E+02 0.  0.
         13    1    3    3    0    0 -0.48269850802E+01  0.55309845395E+01 -0.31722789924E+02  0.32561298186E+02  0.10566000000E+00 0. -1.
         22    1    1    0    0    0 -0.14140292489E+02 -0.16809506688E+02 -0.23982407658E+02  0.32521735253E+02  0.00000000000E+00 0.  1.
</event>
<event>
 5    1  0.9041381E-005  0.9118800E+02  0.7818608E-02  0.1130116E+00
         25   -1    0    0    0    0  0.00000000000E+00  0.00000000000E+00  0.99999998245E-14  0.12500000000E+03  0.12500000000E+03 0.  0.
        -13    1    3    3    0    0  0.56377829091E+01 -0.33811468597E+02  0.38088960945E+02  0.51242366404E+02  0.10566000000E+00 0.  1.
         23    2    1    0    0    0  0.27313759502E+02 -0.18841545770E+02  0.87270221230E+01  0.90689561059E+02  0.83948735934E+02 0.  0.
         13    1    3    3    0    0  0.21675976593E+02  0.14969922827E+02 -0.29361938822E+02  0.39447194655E+02  0.10566000000E+00 0. -1.
         22    1    1    0    0    0 -0.27313759502E+02  0.18841545770E+02 -0.87270221230E+01  0.34310438941E+02  0.00000000000E+00 0.  1.
</event>
<event>
 5    1  0.9041381E-005  0.9118800E+02  0.7818608E-02  0.1130116E+00
         25   -1    0    0    0    0  0.00000000000E+00  0.00000000000E+00  0.99999998245E-14  0.12500000000E+03  0.12500000000E+03 0.  0.
        -13    1    3    3    0    0 -0.61969469338E+00 -0.17978064031E+02 -0.54098552173E+02  0.57011045588E+02  0.10566000000E+00 0.  1.
         23    2    1    0    0    0  0.15296209977E+02  0.18297723920E+01 -0.24917719135E+02  0.95704696049E+02  0.91110778793E+02 0.  0.
         13    1    3    3    0    0  0.15915904671E+02  0.19807836423E+02  0.29180833037E+02  0.38693650461E+02  0.10566000000E+00 0. -1.
         22    1    1    0    0    0 -0.15296209977E+02 -0.18297723920E+01  0.24917719135E+02  0.29295303951E+02  0.00000000000E+00 0.  1.
</event>
<event>
 5    1  0.9041381E-005  0.9118800E+02  0.7818608E-02  0.1130116E+00
         25   -1    0    0    0    0  0.00000000000E+00  0.00000000000E+00  0.99999998245E-14  0.12500000000E+03  0.12500000000E+03 0.  0.
        -13    1    3    3    0    0 -0.31672961621E+02  0.26162568065E+02  0.41970114152E+02  0.58729533555E+02  0.10566000000E+00 0.  1.
         23    2    1    0    0    0 -0.79574228875E+01  0.97198335013E+00  0.27714918121E+02  0.96148968526E+02  0.91718275886E+02 0.  0.
         13    1    3    3    0    0  0.23715538733E+02 -0.25190584715E+02 -0.14255196031E+02  0.37419434972E+02  0.10566000000E+00 0. -1.
         22    1    1    0    0    0  0.79574228875E+01 -0.97198335013E+00 -0.27714918121E+02  0.28851031474E+02  0.00000000000E+00 0.  1.
</event>
<event>
 5    1  0.9041381E-005  0.9118800E+02  0.7818608E-02  0.1130116E+00
         25   -1    0    0    0    0  0.00000000000E+00  0.00000000000E+00  0.99999998245E-14  0.12500000000E+03  0.12500000000E+03 0.  0.
        -13    1    3    3    0    0  0.53168074181E+02 -0.29300051142E+01  0.34348889941E+00  0.53249959537E+02  0.10566000000E+00 0.  1.
         23    2    1    0    0    0  0.17984939349E+02 -0.53328804174E+01  0.23116963929E+02  0.95229348710E+02  0.90456272184E+02 0.  0.
         13    1    3    3    0    0 -0.35183134832E+02 -0.24028753033E+01  0.22773475030E+02  0.41979389172E+02  0.10566000000E+00 0. -1.
         22    1    1    0    0    0 -0.17984939349E+02  0.53328804174E+01 -0.23116963929E+02  0.29770651290E+02  0.00000000000E+00 0.  1.
</event>
<event>
 5    1  0.9041381E-005  0.9118800E+02  0.7818608E-02  0.1130116E+00
         25   -1    0    0    0    0  0.00000000000E+00  0.00000000000E+00  0.99999998245E-14  0.12500000000E+03  0.12500000000E+03 0.  0.
        -13    1    3    3    0    0  0.19502168853E+01  0.17982103593E+02 -0.42551209598E+02  0.46236089777E+02  0.10566000000E+00 0. -1.
         23    2    1    0    0    0  0.27515376539E+02 -0.63285228141E+01 -0.79098986791E+01  0.95679143188E+02  0.91075714639E+02 0.  0.
         13    1    3    3    0    0  0.25565159654E+02 -0.24310626407E+02  0.34641310919E+02  0.49443053411E+02  0.10566000000E+00 0.  1.
         22    1    1    0    0    0 -0.27515376539E+02  0.63285228141E+01  0.79098986791E+01  0.29320856812E+02  0.00000000000E+00 0.  1.
</event>
<event>
 5    1  0.9041381E-005  0.9118800E+02  0.7818608E-02  0.1130116E+00
         25   -1    0    0    0    0  0.00000000000E+00  0.00000000000E+00  0.99999998245E-14  0.12500000000E+03  0.12500000000E+03 0.  0.
        -13    1    3    3    0    0  0.47618976400E+02 -0.34364889428E+02 -0.21639525057E+01  0.58763988915E+02  0.10566000000E+00 0.  1.
         23    2    1    0    0    0  0.21452616254E+02 -0.11087055156E+02 -0.15573504470E+02  0.96265498479E+02  0.91876953693E+02 0.  0.
         13    1    3    3    0    0 -0.26166360146E+02  0.23277834272E+02 -0.13409551964E+02  0.37501509564E+02  0.10566000000E+00 0. -1.
         22    1    1    0    0    0 -0.21452616254E+02  0.11087055156E+02  0.15573504470E+02  0.28734501521E+02  0.00000000000E+00 0.  1.
</event>
<event>
 5    1  0.9041381E-005  0.9118800E+02  0.7818608E-02  0.1130116E+00
         25   -1    0    0    0    0  0.00000000000E+00  0.00000000000E+00  0.99999998245E-14  0.12500000000E+03  0.12500000000E+03 0.  0.
        -13    1    3    3    0    0  0.34757585493E+02 -0.92991209639E+01  0.13684523929E+02  0.38494684817E+02  0.10566000000E+00 0. -1.
         23    2    1    0    0    0 -0.23796010738E+02  0.40189152799E+01  0.10652891530E+02  0.98620350551E+02  0.95026773269E+02 0.  0.
         13    1    3    3    0    0 -0.58553596231E+02  0.13318036244E+02 -0.30316323991E+01  0.60125665734E+02  0.10566000000E+00 0.  1.
         22    1    1    0    0    0  0.23796010738E+02 -0.40189152799E+01 -0.10652891530E+02  0.26379649449E+02  0.00000000000E+00 0.  1.
</event>
<event>
 5    1  0.9041381E-005  0.9118800E+02  0.7818608E-02  0.1130116E+00
         25   -1    0    0    0    0  0.00000000000E+00  0.00000000000E+00  0.99999998245E-14  0.12500000000E+03  0.12500000000E+03 0.  0.
        -13    1    3    3    0    0  0.45968622042E+02 -0.80606085166E+01  0.33390494077E+02  0.57384875018E+02  0.10566000000E+00 0.  1.
         23    2    1    0    0    0  0.22520899017E+02 -0.17107324659E+02  0.33987222978E+01  0.96514867689E+02  0.92215600211E+02 0.  0.
         13    1    3    3    0    0 -0.23447723024E+02 -0.90467161420E+01 -0.29991771779E+02  0.39129992671E+02  0.10566000000E+00 0. -1.
         22    1    1    0    0    0 -0.22520899017E+02  0.17107324659E+02 -0.33987222978E+01  0.28485132311E+02  0.00000000000E+00 0.  1.
</event>
<event>
 5    1  0.9041381E-005  0.9118800E+02  0.7818608E-02  0.1130116E+00
         25   -1    0    0    0    0  0.00000000000E+00  0.00000000000E+00  0.99999998245E-14  0.12500000000E+03  0.12500000000E+03 0.  0.
        -13    1    3    3    0    0  0.16029896682E+02 -0.25271065659E+02  0.26696943152E+02  0.40103893637E+02  0.10566000000E+00 0.  1.
         23    2    1    0    0    0 -0.16765285067E+02  0.18919366095E+02  0.11724325948E+02  0.97134662827E+02  0.93051951655E+02 0.  0.
         13    1    3    3    0    0 -0.32795181749E+02  0.44190431753E+02 -0.14972617204E+02  0.57030769191E+02  0.10566000000E+00 0. -1.
         22    1    1    0    0    0  0.16765285067E+02 -0.18919366095E+02 -0.11724325948E+02  0.27865337173E+02  0.00000000000E+00 0. -1.
</event>
<event>
 5    1  0.9041381E-005  0.9118800E+02  0.7818608E-02  0.1130116E+00
         25   -1    0    0    0    0  0.00000000000E+00  0.00000000000E+00  0.99999998245E-14  0.12500000000E+03  0.12500000000E+03 0.  0.
        -13    1    3    3    0    0 -0.15548312070E+02 -0.32479145948E+01  0.28821160195E+02  0.32908500368E+02  0.10566000000E+00 0. -1.
         23    2    1    0    0    0  0.19637694985E+02  0.91343830218E+00 -0.22404264879E+02  0.95193549043E+02  0.90406787692E+02 0.  0.
         13    1    3    3    0    0  0.35186007055E+02  0.41613528970E+01 -0.51225425074E+02  0.62285048675E+02  0.10566000000E+00 0.  1.
         22    1    1    0    0    0 -0.19637694985E+02 -0.91343830218E+00  0.22404264879E+02  0.29806450957E+02  0.00000000000E+00 0.  1.
</event>
<event>
 5    1  0.9041381E-005  0.9118800E+02  0.7818608E-02  0.1130116E+00
         25   -1    0    0    0    0  0.00000000000E+00  0.00000000000E+00  0.99999998245E-14  0.12500000000E+03  0.12500000000E+03 0.  0.
        -13    1    3    3    0    0  0.42460077797E+01  0.17849029241E+02 -0.48776417376E+02  0.52113016445E+02  0.10566000000E+00 0. -1.
         23    2    1    0    0    0 -0.18249024229E+02 -0.77738219763E+01 -0.14768647993E+02  0.10027001502E+03  0.97172546306E+02 0.  0.
         13    1    3    3    0    0 -0.22495032009E+02 -0.25622851217E+02  0.34007769383E+02  0.48156998578E+02  0.10566000000E+00 0.  1.
         22    1    1    0    0    0  0.18249024229E+02  0.77738219763E+01  0.14768647993E+02  0.24729984977E+02  0.00000000000E+00 0.  1.
</event>
<event>
 5    1  0.9041381E-005  0.9118800E+02  0.7818608E-02  0.1130116E+00
         25   -1    0    0    0    0  0.00000000000E+00  0.00000000000E+00  0.99999998245E-14  0.12500000000E+03  0.12500000000E+03 0.  0.
        -13    1    3    3    0    0  0.27578991646E+02 -0.26291008188E+01  0.20100215078E+02  0.34227806847E+02  0.10566000000E+00 0.  1.
         23    2    1    0    0    0 -0.23768964508E+02 -0.56677744782E+01 -0.14840838188E+02  0.96410879352E+02  0.92074534145E+02 0.  0.
         13    1    3    3    0    0 -0.51347956154E+02 -0.30386736594E+01 -0.34941053267E+02  0.62183072505E+02  0.10566000000E+00 0. -1.
         22    1    1    0    0    0  0.23768964508E+02  0.56677744782E+01  0.14840838188E+02  0.28589120648E+02  0.00000000000E+00 0. -1.
</event>
<event>
 5    1  0.9041381E-005  0.9118800E+02  0.7818608E-02  0.1130116E+00
         25   -1    0    0    0    0  0.00000000000E+00  0.00000000000E+00  0.99999998245E-14  0.12500000000E+03  0.12500000000E+03 0.  0.
        -13    1    3    3    0    0  0.32327690156E+02  0.12914154301E+02 -0.12391233862E+02  0.36951438034E+02  0.10566000000E+00 0.  1.
         23    2    1    0    0    0 -0.25179292346E+02  0.28539095132E+01 -0.15290326276E+02  0.95403790104E+02  0.90697009466E+02 0.  0.
         13    1    3    3    0    0 -0.57506982502E+02 -0.10060244788E+02 -0.28990924146E+01  0.58452352070E+02  0.10566000000E+00 0. -1.
         22    1    1    0    0    0  0.25179292346E+02 -0.28539095132E+01  0.15290326276E+02  0.29596209896E+02  0.00000000000E+00 0.  1.
</event>
<event>
 5    1  0.9041381E-005  0.9118800E+02  0.7818608E-02  0.1130116E+00
         25   -1    0    0    0    0  0.00000000000E+00  0.00000000000E+00  0.99999998245E-14  0.12500000000E+03  0.12500000000E+03 0.  0.
        -13    1    3    3    0    0 -0.24159395623E+02 -0.17622481933E+02  0.29543633040E+02  0.42036480390E+02  0.10566000000E+00 0. -1.
         23    2    1    0    0    0  0.19457043579E+02 -0.22260465181E+02 -0.88721728600E+00  0.95421426515E+02  0.90721312980E+02 0.  0.
         13    1    3    3    0    0  0.43616439202E+02 -0.46379832480E+01 -0.30430850326E+02  0.53384946125E+02  0.10566000000E+00 0.  1.
         22    1    1    0    0    0 -0.19457043579E+02  0.22260465181E+02  0.88721728600E+00  0.29578573485E+02  0.00000000000E+00 0.  1.
</event>
<event>
 5    1  0.9041381E-005  0.9118800E+02  0.7818608E-02  0.1130116E+00
         25   -1    0    0    0    0  0.00000000000E+00  0.00000000000E+00  0.99999998245E-14  0.12500000000E+03  0.12500000000E+03 0.  0.
        -13    1    3    3    0    0 -0.22476767788E+02  0.31826750003E+02 -0.43049903678E+02  0.58064209946E+02  0.10566000000E+00 0.  1.
         23    2    1    0    0    0 -0.75193912972E+01  0.20996082360E+00 -0.27763883886E+02  0.96235115550E+02  0.91835607949E+02 0.  0.
         13    1    3    3    0    0  0.14957376490E+02 -0.31616789179E+02  0.15286019793E+02  0.38170905604E+02  0.10566000000E+00 0. -1.
         22    1    1    0    0    0  0.75193912972E+01 -0.20996082360E+00  0.27763883886E+02  0.28764884450E+02  0.00000000000E+00 0.  1.
</event>
<event>
 5    1  0.9041381E-005  0.9118800E+02  0.7818608E-02  0.1130116E+00
         25   -1    0    0    0    0  0.00000000000E+00  0.00000000000E+00  0.99999998245E-14  0.12500000000E+03  0.12500000000E+03 0.  0.
        -13    1    3    3    0    0 -0.50254971148E+01 -0.30998881875E+02 -0.48984694713E+02  0.58186749169E+02  0.10566000000E+00 0.  1.
         23    2    1    0    0    0  0.12747665621E+02 -0.83427013907E+01 -0.25279320766E+02  0.95484788606E+02  0.90808574217E+02 0.  0.
         13    1    3    3    0    0  0.17773162736E+02  0.22656180485E+02  0.23705373947E+02  0.37298039436E+02  0.10566000000E+00 0. -1.
         22    1    1    0    0    0 -0.12747665621E+02  0.83427013907E+01  0.25279320766E+02  0.29515211394E+02  0.00000000000E+00 0.  1.
</event>
<event>
 5    1  0.9041381E-005  0.9118800E+02  0.7818608E-02  0.1130116E+00
         25   -1    0    0    0    0  0.00000000000E+00  0.00000000000E+00  0.99999998245E-14  0.12500000000E+03  0.12500000000E+03 0.  0.
        -13    1    3    3    0    0 -0.38632610520E+02 -0.34247426280E+02 -0.40429122431E+01  0.51785336784E+02  0.10566000000E+00 0.  1.
         23    2    1    0    0    0 -0.28156232298E+02  0.80297473217E+01 -0.47002066081E+01  0.95346295317E+02  0.90617734628E+02 0.  0.
         13    1    3    3    0    0  0.10476378222E+02  0.42277173601E+02 -0.65729436496E+00  0.43560958533E+02  0.10566000000E+00 0. -1.
         22    1    1    0    0    0  0.28156232298E+02 -0.80297473217E+01  0.47002066081E+01  0.29653704683E+02  0.00000000000E+00 0.  1.
</event>
<event>
 5    1  0.9041381E-005  0.9118800E+02  0.7818608E-02  0.1130116E+00
         25   -1    0    0    0    0  0.00000000000E+00  0.00000000000E+00  0.99999998245E-14  0.12500000000E+03  0.12500000000E+03 0.  0.
        -13    1    3    3    0    0 -0.28596500661E+02  0.22130943286E+02 -0.43483668573E+01  0.36420570550E+02  0.10566000000E+00 0. -1.
         23    2    1    0    0    0 -0.54496059559E+01 -0.23167435938E+02  0.21003547929E+02  0.93257641571E+02  0.87689283226E+02 0.  0.
         13    1    3    3    0    0  0.23146894705E+02 -0.45298379224E+02  0.25351914787E+02  0.56837071021E+02  0.10566000000E+00 0.  1.
         22    1    1    0    0    0  0.54496059559E+01  0.23167435938E+02 -0.21003547929E+02  0.31742358429E+02  0.00000000000E+00 0.  1.
</event>
<event>
 5    1  0.9041381E-005  0.9118800E+02  0.7818608E-02  0.1130116E+00
         25   -1    0    0    0    0  0.00000000000E+00  0.00000000000E+00  0.99999998245E-14  0.12500000000E+03  0.12500000000E+03 0.  0.
        -13    1    3    3    0    0 -0.41944376523E+01 -0.13005933441E+02 -0.39667102871E+02  0.41955188310E+02  0.10566000000E+00 0.  1.
         23    2    1    0    0    0  0.17879119593E+02 -0.21498980769E+02  0.86334773762E+01  0.95735584354E+02  0.91153146344E+02 0.  0.
         13    1    3    3    0    0  0.22073557246E+02 -0.84930473273E+01  0.48300580247E+02  0.53780396044E+02  0.10566000000E+00 0. -1.
         22    1    1    0    0    0 -0.17879119593E+02  0.21498980769E+02 -0.86334773762E+01  0.29264415646E+02  0.00000000000E+00 0. -1.
</event>
<event>
 5    1  0.9041381E-005  0.9118800E+02  0.7818608E-02  0.1130116E+00
         25   -1    0    0    0    0  0.00000000000E+00  0.00000000000E+00  0.99999998245E-14  0.12500000000E+03  0.12500000000E+03 0.  0.
        -13    1    3    3    0    0 -0.32467861291E+01  0.28954012246E+02 -0.11045602792E+02  0.31159155161E+02  0.10566000000E+00 0.  1.
         23    2    1    0    0    0 -0.12242828512E+02 -0.21430687895E+02 -0.30368455799E+02  0.85866838343E+02  0.76431077356E+02 0.  0.
         13    1    3    3    0    0 -0.89960423828E+01 -0.50384700140E+02 -0.19322853008E+02  0.54707683182E+02  0.10566000000E+00 0. -1.
         22    1    1    0    0    0  0.12242828512E+02  0.21430687895E+02  0.30368455799E+02  0.39133161657E+02  0.00000000000E+00 0. -1.
</event>
<event>
 5    1  0.9041381E-005  0.9118800E+02  0.7818608E-02  0.1130116E+00
         25   -1    0    0    0    0  0.00000000000E+00  0.00000000000E+00  0.99999998245E-14  0.12500000000E+03  0.12500000000E+03 0.  0.
        -13    1    3    3    0    0 -0.47522179802E+02 -0.33584545263E+02  0.14536831134E+02  0.59980079002E+02  0.10566000000E+00 0. -1.
         23    2    1    0    0    0 -0.23442639670E+02 -0.33785695059E+01 -0.17034809962E+00  0.10131453811E+03  0.98507027804E+02 0.  0.
         13    1    3    3    0    0  0.24079540132E+02  0.30205975757E+02 -0.14707179234E+02  0.41334459105E+02  0.10566000000E+00 0.  1.
         22    1    1    0    0    0  0.23442639670E+02  0.33785695059E+01  0.17034809962E+00  0.23685461893E+02  0.00000000000E+00 0. -1.
</event>
<event>
 5    1  0.9041381E-005  0.9118800E+02  0.7818608E-02  0.1130116E+00
         25   -1    0    0    0    0  0.00000000000E+00  0.00000000000E+00  0.99999998245E-14  0.12500000000E+03  0.12500000000E+03 0.  0.
        -13    1    3    3    0    0  0.18676721698E+02  0.17143755600E+02  0.19767049168E+02  0.32147716658E+02  0.10566000000E+00 0.  1.
         23    2    1    0    0    0 -0.21793770712E+02  0.20117569886E+01 -0.23216270623E+02  0.93093718022E+02  0.87455300042E+02 0.  0.
         13    1    3    3    0    0 -0.40470492410E+02 -0.15131998612E+02 -0.42983319791E+02  0.60946001364E+02  0.10566000000E+00 0. -1.
         22    1    1    0    0    0  0.21793770712E+02 -0.20117569886E+01  0.23216270623E+02  0.31906281978E+02  0.00000000000E+00 0. -1.
</event>
<event>
 5    1  0.9041381E-005  0.9118800E+02  0.7818608E-02  0.1130116E+00
         25   -1    0    0    0    0  0.00000000000E+00  0.00000000000E+00  0.99999998245E-14  0.12500000000E+03  0.12500000000E+03 0.  0.
        -13    1    3    3    0    0 -0.37832044796E+02  0.83686208670E+00  0.95015573750E+01  0.39016082686E+02  0.10566000000E+00 0. -1.
         23    2    1    0    0    0  0.63322857509E+01  0.22005202972E+02 -0.18616217414E+02  0.95489148581E+02  0.90814575621E+02 0.  0.
         13    1    3    3    0    0  0.44164330547E+02  0.21168340886E+02 -0.28117774789E+02  0.56473065895E+02  0.10566000000E+00 0.  1.
         22    1    1    0    0    0 -0.63322857509E+01 -0.22005202972E+02  0.18616217414E+02  0.29510851419E+02  0.00000000000E+00 0.  1.
</event>
<event>
 5    1  0.9041381E-005  0.9118800E+02  0.7818608E-02  0.1130116E+00
         25   -1    0    0    0    0  0.00000000000E+00  0.00000000000E+00  0.99999998245E-14  0.12500000000E+03  0.12500000000E+03 0.  0.
        -13    1    3    3    0    0  0.16852758139E+00  0.32283971086E+02 -0.15275225288E+02  0.35715918891E+02  0.10566000000E+00 0. -1.
         23    2    1    0    0    0  0.92513212920E+01 -0.24884497852E+02 -0.16729982247E+02  0.93619791509E+02  0.88204012818E+02 0.  0.
         13    1    3    3    0    0  0.90827937106E+01 -0.57168468937E+02 -0.14547569587E+01  0.57903872617E+02  0.10566000000E+00 0.  1.
         22    1    1    0    0    0 -0.92513212920E+01  0.24884497852E+02  0.16729982247E+02  0.31380208491E+02  0.00000000000E+00 0.  1.
</event>
<event>
 5    1  0.9041381E-005  0.9118800E+02  0.7818608E-02  0.1130116E+00
         25   -1    0    0    0    0  0.00000000000E+00  0.00000000000E+00  0.99999998245E-14  0.12500000000E+03  0.12500000000E+03 0.  0.
        -13    1    3    3    0    0  0.99874913080E+00  0.52925120066E+02  0.65472266654E+01  0.53338008726E+02  0.10566000000E+00 0. -1.
         23    2    1    0    0    0 -0.22364502935E+02  0.19170016747E+02 -0.27061041136E+01  0.95419879427E+02  0.90719181306E+02 0.  0.
         13    1    3    3    0    0 -0.23363252066E+02 -0.33755103319E+02 -0.92533307790E+01  0.42081870701E+02  0.10566000000E+00 0.  1.
         22    1    1    0    0    0  0.22364502935E+02 -0.19170016747E+02  0.27061041136E+01  0.29580120573E+02  0.00000000000E+00 0.  1.
</event>
<event>
 5    1  0.9041381E-005  0.9118800E+02  0.7818608E-02  0.1130116E+00
         25   -1    0    0    0    0  0.00000000000E+00  0.00000000000E+00  0.99999998245E-14  0.12500000000E+03  0.12500000000E+03 0.  0.
        -13    1    3    3    0    0 -0.41784266487E+02  0.13264731066E+02 -0.47669152518E+01  0.44097762541E+02  0.10566000000E+00 0.  1.
         23    2    1    0    0    0  0.27224148254E+01  0.30128754843E+02  0.86293611851E+01  0.93541785090E+02  0.88093395170E+02 0.  0.
         13    1    3    3    0    0  0.44506681312E+02  0.16864023777E+02  0.13396276437E+02  0.49444022549E+02  0.10566000000E+00 0. -1.
         22    1    1    0    0    0 -0.27224148254E+01 -0.30128754843E+02 -0.86293611851E+01  0.31458214910E+02  0.00000000000E+00 0.  1.
</event>
<event>
 5    1  0.9041381E-005  0.9118800E+02  0.7818608E-02  0.1130116E+00
         25   -1    0    0    0    0  0.00000000000E+00  0.00000000000E+00  0.99999998245E-14  0.12500000000E+03  0.12500000000E+03 0.  0.
        -13    1    3    3    0    0 -0.81427959842E+01  0.46789289015E+02 -0.28562076454E+01  0.47578480210E+02  0.10566000000E+00 0. -1.
         23    2    1    0    0    0  0.70833048564E+01  0.12698004385E+02  0.26298284799E+02  0.94949836832E+02  0.90069191226E+02 0.  0.
         13    1    3    3    0    0  0.15226100841E+02 -0.34091284630E+02  0.29154492444E+02  0.47371356622E+02  0.10566000000E+00 0.  1.
         22    1    1    0    0    0 -0.70833048564E+01 -0.12698004385E+02 -0.26298284799E+02  0.30050163168E+02  0.00000000000E+00 0.  1.
</event>
<event>
 5    1  0.9041381E-005  0.9118800E+02  0.7818608E-02  0.1130116E+00
         25   -1    0    0    0    0  0.00000000000E+00  0.00000000000E+00  0.99999998245E-14  0.12500000000E+03  0.12500000000E+03 0.  0.
        -13    1    3    3    0    0  0.56681823086E+02 -0.39055052891E+01  0.23308595722E+02  0.61411593681E+02  0.10566000000E+00 0. -1.
         23    2    1    0    0    0  0.34469216151E+02 -0.24882477199E+01  0.53114487618E+01  0.90035307427E+02  0.82968830634E+02 0.  0.
         13    1    3    3    0    0 -0.22212606935E+02  0.14172575692E+01 -0.17997146960E+02  0.28623713746E+02  0.10566000000E+00 0.  1.
         22    1    1    0    0    0 -0.34469216151E+02  0.24882477199E+01 -0.53114487618E+01  0.34964692573E+02  0.00000000000E+00 0. -1.
</event>
<event>
 5    1  0.9041381E-005  0.9118800E+02  0.7818608E-02  0.1130116E+00
         25   -1    0    0    0    0  0.00000000000E+00  0.00000000000E+00  0.99999998245E-14  0.12500000000E+03  0.12500000000E+03 0.  0.
        -13    1    3    3    0    0  0.30046235361E+02  0.45148110355E+02  0.11187570142E+02  0.55374190899E+02  0.10566000000E+00 0. -1.
         23    2    1    0    0    0 -0.52618888056E+01  0.29541124709E+02  0.68594363273E+01  0.94219853970E+02  0.89050342462E+02 0.  0.
         13    1    3    3    0    0 -0.35308124166E+02 -0.15606985646E+02 -0.43281338149E+01  0.38845663071E+02  0.10566000000E+00 0.  1.
         22    1    1    0    0    0  0.52618888056E+01 -0.29541124709E+02 -0.68594363273E+01  0.30780146030E+02  0.00000000000E+00 0. -1.
</event>
<event>
 5    1  0.9041381E-005  0.9118800E+02  0.7818608E-02  0.1130116E+00
         25   -1    0    0    0    0  0.00000000000E+00  0.00000000000E+00  0.99999998245E-14  0.12500000000E+03  0.12500000000E+03 0.  0.
        -13    1    3    3    0    0  0.11040391939E+02  0.14421581776E+02 -0.33125457643E+02  0.37778027783E+02  0.10566000000E+00 0.  1.
         23    2    1    0    0    0 -0.28679753044E+02 -0.11936894920E+02 -0.39065442027E+01  0.93690595939E+02  0.88304297658E+02 0.  0.
         13    1    3    3    0    0 -0.39720144983E+02 -0.26358476696E+02  0.29218913440E+02  0.55912568157E+02  0.10566000000E+00 0. -1.
         22    1    1    0    0    0  0.28679753044E+02  0.11936894920E+02  0.39065442027E+01  0.31309404061E+02  0.00000000000E+00 0. -1.
</event>
<event>
 5    1  0.9041381E-005  0.9118800E+02  0.7818608E-02  0.1130116E+00
         25   -1    0    0    0    0  0.00000000000E+00  0.00000000000E+00  0.99999998245E-14  0.12500000000E+03  0.12500000000E+03 0.  0.
        -13    1    3    3    0    0 -0.18158907227E+02  0.37042543407E+01 -0.50190324422E+02  0.53502777886E+02  0.10566000000E+00 0.  1.
         23    2    1    0    0    0 -0.20944923632E+02  0.16739791544E+02 -0.91253850992E+01  0.96677162922E+02  0.92435332696E+02 0.  0.
         13    1    3    3    0    0 -0.27860164054E+01  0.13035537204E+02  0.41064939323E+02  0.43174385036E+02  0.10566000000E+00 0. -1.
         22    1    1    0    0    0  0.20944923632E+02 -0.16739791544E+02  0.91253850992E+01  0.28322837078E+02  0.00000000000E+00 0.  1.
</event>
<event>
 5    1  0.9041381E-005  0.9118800E+02  0.7818608E-02  0.1130116E+00
         25   -1    0    0    0    0  0.00000000000E+00  0.00000000000E+00  0.99999998245E-14  0.12500000000E+03  0.12500000000E+03 0.  0.
        -13    1    3    3    0    0  0.16281621370E+02  0.34930228180E+02  0.54771890518E+00  0.38542485586E+02  0.10566000000E+00 0. -1.
         23    2    1    0    0    0  0.41690341051E+01 -0.15829299210E+02 -0.23789126749E+02  0.96123190787E+02  0.91683137472E+02 0.  0.
         13    1    3    3    0    0 -0.12112587265E+02 -0.50759527390E+02 -0.24336845654E+02  0.57580705201E+02  0.10566000000E+00 0.  1.
         22    1    1    0    0    0 -0.41690341051E+01  0.15829299210E+02  0.23789126749E+02  0.28876809213E+02  0.00000000000E+00 0.  1.
</event>
<event>
 5    1  0.9041381E-005  0.9118800E+02  0.7818608E-02  0.1130116E+00
         25   -1    0    0    0    0  0.00000000000E+00  0.00000000000E+00  0.99999998245E-14  0.12500000000E+03  0.12500000000E+03 0.  0.
        -13    1    3    3    0    0 -0.24832823767E+02 -0.12376240777E+02 -0.27846378839E+02  0.39309953581E+02  0.10566000000E+00 0. -1.
         23    2    1    0    0    0  0.13591465620E+02 -0.64392545627E+01  0.19371611770E+02  0.10047549634E+03  0.97436513104E+02 0.  0.
         13    1    3    3    0    0  0.38424289387E+02  0.59369862141E+01  0.47217990610E+02  0.61165542763E+02  0.10566000000E+00 0.  1.
         22    1    1    0    0    0 -0.13591465620E+02  0.64392545627E+01 -0.19371611770E+02  0.24524503656E+02  0.00000000000E+00 0.  1.
</event>
<event>
 5    1  0.9041381E-005  0.9118800E+02  0.7818608E-02  0.1130116E+00
         25   -1    0    0    0    0  0.00000000000E+00  0.00000000000E+00  0.99999998245E-14  0.12500000000E+03  0.12500000000E+03 0.  0.
        -13    1    3    3    0    0  0.55244778068E+02  0.15296518877E+02  0.34636663776E+00  0.57324515937E+02  0.10566000000E+00 0.  1.
         23    2    1    0    0    0  0.18575726858E+02  0.23100264892E+02  0.43971454395E+01  0.95033105693E+02  0.90184679538E+02 0.  0.
         13    1    3    3    0    0 -0.36669051210E+02  0.78037460142E+01  0.40507788017E+01  0.37708589756E+02  0.10566000000E+00 0. -1.
         22    1    1    0    0    0 -0.18575726858E+02 -0.23100264892E+02 -0.43971454395E+01  0.29966894307E+02  0.00000000000E+00 0.  1.
</event>
<event>
 5    1  0.9041381E-005  0.9118800E+02  0.7818608E-02  0.1130116E+00
         25   -1    0    0    0    0  0.00000000000E+00  0.00000000000E+00  0.99999998245E-14  0.12500000000E+03  0.12500000000E+03 0.  0.
        -13    1    3    3    0    0  0.41237801193E+02  0.38152642750E+01 -0.40443251285E+00  0.41416026106E+02  0.10566000000E+00 0.  1.
         23    2    1    0    0    0  0.41508634641E+01 -0.12550230129E+02 -0.30403983694E+02  0.91846717082E+02  0.85654417694E+02 0.  0.
         13    1    3    3    0    0 -0.37086937729E+02 -0.16365494404E+02 -0.29999551181E+02  0.50430690976E+02  0.10566000000E+00 0. -1.
         22    1    1    0    0    0 -0.41508634641E+01  0.12550230129E+02  0.30403983694E+02  0.33153282918E+02  0.00000000000E+00 0. -1.
</event>
<event>
 5    1  0.9041381E-005  0.9118800E+02  0.7818608E-02  0.1130116E+00
         25   -1    0    0    0    0  0.00000000000E+00  0.00000000000E+00  0.99999998245E-14  0.12500000000E+03  0.12500000000E+03 0.  0.
        -13    1    3    3    0    0  0.34904922240E+01  0.58170293917E+02  0.59515302736E+01  0.58578140180E+02  0.10566000000E+00 0.  1.
         23    2    1    0    0    0 -0.13563780853E+02  0.25412800119E+02  0.63095709351E+01  0.95511065698E+02  0.90844738012E+02 0.  0.
         13    1    3    3    0    0 -0.17054273077E+02 -0.32757493798E+02  0.35804066150E+00  0.36932925518E+02  0.10566000000E+00 0. -1.
         22    1    1    0    0    0  0.13563780853E+02 -0.25412800119E+02 -0.63095709351E+01  0.29488934302E+02  0.00000000000E+00 0.  1.
</event>
<event>
 5    1  0.9041381E-005  0.9118800E+02  0.7818608E-02  0.1130116E+00
         25   -1    0    0    0    0  0.00000000000E+00  0.00000000000E+00  0.99999998245E-14  0.12500000000E+03  0.12500000000E+03 0.  0.
        -13    1    3    3    0    0 -0.39492153110E+02 -0.78506018599E+00 -0.33264607191E+02  0.51640988879E+02  0.10566000000E+00 0. -1.
         23    2    1    0    0    0 -0.10529278121E+02  0.24664447620E+02 -0.13015375024E+02  0.95190594418E+02  0.90402702418E+02 0.  0.
         13    1    3    3    0    0  0.28962874989E+02  0.25449507806E+02  0.20249232167E+02  0.43549605539E+02  0.10566000000E+00 0.  1.
         22    1    1    0    0    0  0.10529278121E+02 -0.24664447620E+02  0.13015375024E+02  0.29809405582E+02  0.00000000000E+00 0. -1.
</event>
<event>
 5    1  0.9041381E-005  0.9118800E+02  0.7818608E-02  0.1130116E+00
         25   -1    0    0    0    0  0.00000000000E+00  0.00000000000E+00  0.99999998245E-14  0.12500000000E+03  0.12500000000E+03 0.  0.
        -13    1    3    3    0    0  0.97772482208E+01  0.52016913643E+02 -0.31399330221E+02  0.61540905015E+02  0.10566000000E+00 0.  1.
         23    2    1    0    0    0 -0.17261320265E+01  0.27994434720E+02 -0.11992395320E+02  0.94496140366E+02  0.89437324934E+02 0.  0.
         13    1    3    3    0    0 -0.11503380247E+02 -0.24022478923E+02  0.19406934902E+02  0.32955235351E+02  0.10566000000E+00 0. -1.
         22    1    1    0    0    0  0.17261320265E+01 -0.27994434720E+02  0.11992395320E+02  0.30503859634E+02  0.00000000000E+00 0.  1.
</event>
<event>
 5    1  0.9041381E-005  0.9118800E+02  0.7818608E-02  0.1130116E+00
         25   -1    0    0    0    0  0.00000000000E+00  0.00000000000E+00  0.99999998245E-14  0.12500000000E+03  0.12500000000E+03 0.  0.
        -13    1    3    3    0    0 -0.43272521441E+02 -0.21121447216E+02  0.17984730471E+02  0.51401248414E+02  0.10566000000E+00 0. -1.
         23    2    1    0    0    0 -0.13412003425E+02 -0.18509638361E+02 -0.16287891331E+02  0.96932510762E+02  0.92779996176E+02 0.  0.
         13    1    3    3    0    0  0.29860518016E+02  0.26118088550E+01 -0.34272621803E+02  0.45531262347E+02  0.10566000000E+00 0.  1.
         22    1    1    0    0    0  0.13412003425E+02  0.18509638361E+02  0.16287891331E+02  0.28067489238E+02  0.00000000000E+00 0. -1.
</event>
<event>
 5    1  0.9041381E-005  0.9118800E+02  0.7818608E-02  0.1130116E+00
         25   -1    0    0    0    0  0.00000000000E+00  0.00000000000E+00  0.99999998245E-14  0.12500000000E+03  0.12500000000E+03 0.  0.
        -13    1    3    3    0    0  0.27140116088E+02  0.12946411698E+02  0.24932737173E+02  0.39062104706E+02  0.10566000000E+00 0.  1.
         23    2    1    0    0    0  0.10547337006E+02 -0.20326353240E+02 -0.18011538116E+02  0.95865442182E+02  0.91331049186E+02 0.  0.
         13    1    3    3    0    0 -0.16592779081E+02 -0.33272764938E+02 -0.42944275288E+02  0.56803337476E+02  0.10566000000E+00 0. -1.
         22    1    1    0    0    0 -0.10547337006E+02  0.20326353240E+02  0.18011538116E+02  0.29134557818E+02  0.00000000000E+00 0. -1.
</event>
<event>
 5    1  0.9041381E-005  0.9118800E+02  0.7818608E-02  0.1130116E+00
         25   -1    0    0    0    0  0.00000000000E+00  0.00000000000E+00  0.99999998245E-14  0.12500000000E+03  0.12500000000E+03 0.  0.
        -13    1    3    3    0    0  0.50882541248E+02 -0.26548791943E+02  0.14509630170E+02  0.59198073357E+02  0.10566000000E+00 0. -1.
         23    2    1    0    0    0  0.24208101340E+01 -0.13718301014E+02  0.48342721367E+01  0.11025475360E+03  0.10926430524E+03 0.  0.
         13    1    3    3    0    0 -0.48461731114E+02  0.12830490929E+02 -0.96753580333E+01  0.51056680240E+02  0.10566000000E+00 0.  1.
         22    1    1    0    0    0 -0.24208101340E+01  0.13718301014E+02 -0.48342721367E+01  0.14745246404E+02  0.00000000000E+00 0. -1.
</event>
<event>
 5    1  0.9041381E-005  0.9118800E+02  0.7818608E-02  0.1130116E+00
         25   -1    0    0    0    0  0.00000000000E+00  0.00000000000E+00  0.99999998245E-14  0.12500000000E+03  0.12500000000E+03 0.  0.
        -13    1    3    3    0    0 -0.17761444610E+02  0.51644461076E+02  0.58510191720E+01  0.54925994427E+02  0.10566000000E+00 0.  1.
         23    2    1    0    0    0 -0.17308664271E+02  0.34520995036E+02  0.23720282583E+02  0.79679576757E+02  0.65535442237E+02 0.  0.
         13    1    3    3    0    0  0.45278033865E+00 -0.17123466040E+02  0.17869263411E+02  0.24753582329E+02  0.10566000000E+00 0. -1.
         22    1    1    0    0    0  0.17308664271E+02 -0.34520995036E+02 -0.23720282583E+02  0.45320423243E+02  0.00000000000E+00 0.  1.
</event>
<event>
 5    1  0.9041381E-005  0.9118800E+02  0.7818608E-02  0.1130116E+00
         25   -1    0    0    0    0  0.00000000000E+00  0.00000000000E+00  0.99999998245E-14  0.12500000000E+03  0.12500000000E+03 0.  0.
        -13    1    3    3    0    0 -0.47010054208E+02  0.36803323524E+02  0.17748878739E+02  0.62285340809E+02  0.10566000000E+00 0. -1.
         23    2    1    0    0    0 -0.23746079410E+02  0.14433967658E+02  0.65236616897E+01  0.96455755895E+02  0.92135438208E+02 0.  0.
         13    1    3    3    0    0  0.23263974799E+02 -0.22369355867E+02 -0.11225217050E+02  0.34170415086E+02  0.10566000000E+00 0.  1.
         22    1    1    0    0    0  0.23746079410E+02 -0.14433967658E+02 -0.65236616897E+01  0.28544244105E+02  0.00000000000E+00 0. -1.
</event>
<event>
 5    1  0.9041381E-005  0.9118800E+02  0.7818608E-02  0.1130116E+00
         25   -1    0    0    0    0  0.00000000000E+00  0.00000000000E+00  0.99999998245E-14  0.12500000000E+03  0.12500000000E+03 0.  0.
        -13    1    3    3    0    0 -0.75369623953E+01 -0.16571695633E+02  0.30728237296E+02  0.35716419608E+02  0.10566000000E+00 0.  1.
         23    2    1    0    0    0 -0.13956692794E+02  0.99068446693E+01 -0.23219646493E+02  0.96154084720E+02  0.91725248324E+02 0.  0.
         13    1    3    3    0    0 -0.64197303989E+01  0.26478540302E+02 -0.53947883789E+02  0.60437665112E+02  0.10566000000E+00 0. -1.
         22    1    1    0    0    0  0.13956692794E+02 -0.99068446693E+01  0.23219646493E+02  0.28845915280E+02  0.00000000000E+00 0. -1.
</event>
<event>
 5    1  0.9041381E-005  0.9118800E+02  0.7818608E-02  0.1130116E+00
         25   -1    0    0    0    0  0.00000000000E+00  0.00000000000E+00  0.99999998245E-14  0.12500000000E+03  0.12500000000E+03 0.  0.
        -13    1    3    3    0    0 -0.10100575207E+02 -0.56541715030E+02  0.12066309659E+02  0.58690664938E+02  0.10566000000E+00 0.  1.
         23    2    1    0    0    0  0.99369561215E+01 -0.29210334999E+02  0.18350037534E+01  0.94091198559E+02  0.88869565318E+02 0.  0.
         13    1    3    3    0    0  0.20037531329E+02  0.27331380030E+02 -0.10231305906E+02  0.35400533622E+02  0.10566000000E+00 0. -1.
         22    1    1    0    0    0 -0.99369561215E+01  0.29210334999E+02 -0.18350037534E+01  0.30908801441E+02  0.00000000000E+00 0.  1.
</event>
<event>
 5    1  0.9041381E-005  0.9118800E+02  0.7818608E-02  0.1130116E+00
         25   -1    0    0    0    0  0.00000000000E+00  0.00000000000E+00  0.99999998245E-14  0.12500000000E+03  0.12500000000E+03 0.  0.
        -13    1    3    3    0    0 -0.24837300686E+02  0.13835073560E+02 -0.23139715666E+02  0.36657309924E+02  0.10566000000E+00 0. -1.
         23    2    1    0    0    0  0.27924283506E+02 -0.22753908674E+01 -0.17156856077E+02  0.92147287428E+02  0.86091938397E+02 0.  0.
         13    1    3    3    0    0  0.52761584191E+02 -0.16110464427E+02  0.59828595892E+01  0.55489977503E+02  0.10566000000E+00 0.  1.
         22    1    1    0    0    0 -0.27924283506E+02  0.22753908674E+01  0.17156856077E+02  0.32852712572E+02  0.00000000000E+00 0.  1.
</event>
<event>
 5    1  0.9041381E-005  0.9118800E+02  0.7818608E-02  0.1130116E+00
         25   -1    0    0    0    0  0.00000000000E+00  0.00000000000E+00  0.99999998245E-14  0.12500000000E+03  0.12500000000E+03 0.  0.
        -13    1    3    3    0    0 -0.22074530797E+02  0.71550789462E+01  0.36253596724E+02  0.43044331846E+02  0.10566000000E+00 0.  1.
         23    2    1    0    0    0 -0.20201739611E+02 -0.12833761676E+02 -0.14078455040E+02  0.97232777986E+02  0.93183660029E+02 0.  0.
         13    1    3    3    0    0  0.18727911864E+01 -0.19988840623E+02 -0.50332051763E+02  0.54188446140E+02  0.10566000000E+00 0. -1.
         22    1    1    0    0    0  0.20201739611E+02  0.12833761676E+02  0.14078455040E+02  0.27767222014E+02  0.00000000000E+00 0. -1.
</event>
<event>
 5    1  0.9041381E-005  0.9118800E+02  0.7818608E-02  0.1130116E+00
         25   -1    0    0    0    0  0.00000000000E+00  0.00000000000E+00  0.99999998245E-14  0.12500000000E+03  0.12500000000E+03 0.  0.
        -13    1    3    3    0    0 -0.10283829725E+02  0.58361323050E+02  0.61196107466E+01  0.59575682805E+02  0.10566000000E+00 0.  1.
         23    2    1    0    0    0 -0.51189010607E+01  0.26633994087E+02 -0.10686591360E+02  0.95849081935E+02  0.91308655033E+02 0.  0.
         13    1    3    3    0    0  0.51649286644E+01 -0.31727328963E+02 -0.16806202107E+02  0.36273399131E+02  0.10566000000E+00 0. -1.
         22    1    1    0    0    0  0.51189010607E+01 -0.26633994087E+02  0.10686591360E+02  0.29150918065E+02  0.00000000000E+00 0.  1.
</event>
<event>
 5    1  0.9041381E-005  0.9118800E+02  0.7818608E-02  0.1130116E+00
         25   -1    0    0    0    0  0.00000000000E+00  0.00000000000E+00  0.99999998245E-14  0.12500000000E+03  0.12500000000E+03 0.  0.
        -13    1    3    3    0    0 -0.42149297748E+02 -0.35154034243E+02  0.12223082652E+02  0.56229746022E+02  0.10566000000E+00 0.  1.
         23    2    1    0    0    0 -0.39287553772E+01 -0.22678893005E+02  0.16526701626E+02  0.96664524473E+02  0.92418240181E+02 0.  0.
         13    1    3    3    0    0  0.38220542371E+02  0.12475141238E+02  0.43036189735E+01  0.40434778450E+02  0.10566000000E+00 0. -1.
         22    1    1    0    0    0  0.39287553772E+01  0.22678893005E+02 -0.16526701626E+02  0.28335475527E+02  0.00000000000E+00 0.  1.
</event>
<event>
 5    1  0.9041381E-005  0.9118800E+02  0.7818608E-02  0.1130116E+00
         25   -1    0    0    0    0  0.00000000000E+00  0.00000000000E+00  0.99999998245E-14  0.12500000000E+03  0.12500000000E+03 0.  0.
        -13    1    3    3    0    0  0.45993677578E+02  0.28497262137E+02 -0.28566890806E+02  0.61184889808E+02  0.10566000000E+00 0.  1.
         23    2    1    0    0    0  0.22527766053E+02  0.18885146267E+02 -0.62909295774E+01  0.94937984303E+02  0.90052740523E+02 0.  0.
         13    1    3    3    0    0 -0.23465911525E+02 -0.96121158708E+01  0.22275961229E+02  0.33753094494E+02  0.10566000000E+00 0. -1.
         22    1    1    0    0    0 -0.22527766053E+02 -0.18885146267E+02  0.62909295774E+01  0.30062015697E+02  0.00000000000E+00 0.  1.
</event>
<event>
 5    1  0.9041381E-005  0.9118800E+02  0.7818608E-02  0.1130116E+00
         25   -1    0    0    0    0  0.00000000000E+00  0.00000000000E+00  0.99999998245E-14  0.12500000000E+03  0.12500000000E+03 0.  0.
        -13    1    3    3    0    0  0.36325661944E+02  0.41493548204E+02  0.24349893413E+02  0.60284299212E+02  0.10566000000E+00 0.  1.
         23    2    1    0    0    0  0.66235633422E+01  0.24363519041E+02  0.14150815058E+02  0.96056983256E+02  0.91592826215E+02 0.  0.
         13    1    3    3    0    0 -0.29702098601E+02 -0.17130029162E+02 -0.10199078355E+02  0.35772684045E+02  0.10566000000E+00 0. -1.
         22    1    1    0    0    0 -0.66235633422E+01 -0.24363519041E+02 -0.14150815058E+02  0.28943016744E+02  0.00000000000E+00 0.  1.
</event>
<event>
 5    1  0.9041381E-005  0.9118800E+02  0.7818608E-02  0.1130116E+00
         25   -1    0    0    0    0  0.00000000000E+00  0.00000000000E+00  0.99999998245E-14  0.12500000000E+03  0.12500000000E+03 0.  0.
        -13    1    3    3    0    0 -0.35803666557E+02  0.10958842081E+02 -0.14454380717E+02  0.40136505137E+02  0.10566000000E+00 0.  1.
         23    2    1    0    0    0  0.15034476869E+02 -0.13757111173E+02 -0.19378482614E+02  0.96878492377E+02  0.92707190089E+02 0.  0.
         13    1    3    3    0    0  0.50838143427E+02 -0.24715953254E+02 -0.49241018974E+01  0.56741987239E+02  0.10566000000E+00 0. -1.
         22    1    1    0    0    0 -0.15034476869E+02  0.13757111173E+02  0.19378482614E+02  0.28121507623E+02  0.00000000000E+00 0. -1.
</event>
<event>
 5    1  0.9041381E-005  0.9118800E+02  0.7818608E-02  0.1130116E+00
         25   -1    0    0    0    0  0.00000000000E+00  0.00000000000E+00  0.99999998245E-14  0.12500000000E+03  0.12500000000E+03 0.  0.
        -13    1    3    3    0    0 -0.31849453759E+02  0.11291745772E+02  0.44036234861E+02  0.55507588419E+02  0.10566000000E+00 0.  1.
         23    2    1    0    0    0 -0.22987255897E+02  0.63161873290E+01 -0.46648221677E+00  0.10115622174E+03  0.98305927771E+02 0.  0.
         13    1    3    3    0    0  0.88621978615E+01 -0.49755584425E+01 -0.44502717078E+02  0.45648633321E+02  0.10566000000E+00 0. -1.
         22    1    1    0    0    0  0.22987255897E+02 -0.63161873290E+01  0.46648221677E+00  0.23843778260E+02  0.00000000000E+00 0.  1.
</event>
<event>
 5    1  0.9041381E-005  0.9118800E+02  0.7818608E-02  0.1130116E+00
         25   -1    0    0    0    0  0.00000000000E+00  0.00000000000E+00  0.99999998245E-14  0.12500000000E+03  0.12500000000E+03 0.  0.
        -13    1    3    3    0    0  0.14302117243E+02  0.15288966260E+02 -0.45013568457E+02  0.49644088835E+02  0.10566000000E+00 0. -1.
         23    2    1    0    0    0 -0.22036510450E+02  0.73300206030E+01 -0.16622339463E+02  0.96440602876E+02  0.92114877837E+02 0.  0.
         13    1    3    3    0    0 -0.36338627693E+02 -0.79589456575E+01  0.28391228994E+02  0.46796514041E+02  0.10566000000E+00 0.  1.
         22    1    1    0    0    0  0.22036510450E+02 -0.73300206030E+01  0.16622339463E+02  0.28559397124E+02  0.00000000000E+00 0. -1.
</event>
<event>
 5    1  0.9041381E-005  0.9118800E+02  0.7818608E-02  0.1130116E+00
         25   -1    0    0    0    0  0.00000000000E+00  0.00000000000E+00  0.99999998245E-14  0.12500000000E+03  0.12500000000E+03 0.  0.
        -13    1    3    3    0    0  0.17013166897E+02 -0.59863064624E+01 -0.33531116193E+02  0.38074015156E+02  0.10566000000E+00 0. -1.
         23    2    1    0    0    0 -0.27206753564E+02 -0.12294815103E+02  0.18941098257E+01  0.95084158545E+02  0.90255413336E+02 0.  0.
         13    1    3    3    0    0 -0.44219920461E+02 -0.63085086407E+01  0.35425226018E+02  0.57010143390E+02  0.10566000000E+00 0.  1.
         22    1    1    0    0    0  0.27206753564E+02  0.12294815103E+02 -0.18941098257E+01  0.29915841455E+02  0.00000000000E+00 0.  1.
</event>
<event>
 5    1  0.9041381E-005  0.9118800E+02  0.7818608E-02  0.1130116E+00
         25   -1    0    0    0    0  0.00000000000E+00  0.00000000000E+00  0.99999998245E-14  0.12500000000E+03  0.12500000000E+03 0.  0.
        -13    1    3    3    0    0  0.94492308828E+01  0.78332377500E+00 -0.42555438904E+02  0.43599060825E+02  0.10566000000E+00 0.  1.
         23    2    1    0    0    0 -0.26421277819E+02 -0.72830363249E+00 -0.95275632947E+00  0.98551520036E+02  0.94936189143E+02 0.  0.
         13    1    3    3    0    0 -0.35870508702E+02 -0.15116274075E+01  0.41602682575E+02  0.54952459212E+02  0.10566000000E+00 0. -1.
         22    1    1    0    0    0  0.26421277819E+02  0.72830363249E+00  0.95275632947E+00  0.26448479964E+02  0.00000000000E+00 0. -1.
</event>
<event>
 5    1  0.9041381E-005  0.9118800E+02  0.7818608E-02  0.1130116E+00
         25   -1    0    0    0    0  0.00000000000E+00  0.00000000000E+00  0.99999998245E-14  0.12500000000E+03  0.12500000000E+03 0.  0.
        -13    1    3    3    0    0 -0.32213780396E+02 -0.15370530411E+02  0.19159478549E+01  0.35744410371E+02  0.10566000000E+00 0. -1.
         23    2    1    0    0    0  0.18576627194E+02  0.65664230034E+01 -0.21514399910E+02  0.95826752110E+02  0.91278080761E+02 0.  0.
         13    1    3    3    0    0  0.50790407591E+02  0.21936953415E+02 -0.23430347765E+02  0.60082341739E+02  0.10566000000E+00 0.  1.
         22    1    1    0    0    0 -0.18576627194E+02 -0.65664230034E+01  0.21514399910E+02  0.29173247890E+02  0.00000000000E+00 0.  1.
</event>
<event>
 5    1  0.9041381E-005  0.9118800E+02  0.7818608E-02  0.1130116E+00
         25   -1    0    0    0    0  0.00000000000E+00  0.00000000000E+00  0.99999998245E-14  0.12500000000E+03  0.12500000000E+03 0.  0.
        -13    1    3    3    0    0 -0.32350272368E+02 -0.50109953729E+02  0.34235013974E+00  0.59646256820E+02  0.10566000000E+00 0.  1.
         23    2    1    0    0    0 -0.81081437963E+01 -0.25073830703E+02 -0.11212517890E+02  0.96361572330E+02  0.92007570790E+02 0.  0.
         13    1    3    3    0    0  0.24242128571E+02  0.25036123026E+02 -0.11554868030E+02  0.36715315511E+02  0.10566000000E+00 0. -1.
         22    1    1    0    0    0  0.81081437963E+01  0.25073830703E+02  0.11212517890E+02  0.28638427670E+02  0.00000000000E+00 0.  1.
</event>
<event>
 5    1  0.9041381E-005  0.9118800E+02  0.7818608E-02  0.1130116E+00
         25   -1    0    0    0    0  0.00000000000E+00  0.00000000000E+00  0.99999998245E-14  0.12500000000E+03  0.12500000000E+03 0.  0.
        -13    1    3    3    0    0 -0.16911647512E+02 -0.16811265665E+02 -0.21600295115E+02  0.32174623353E+02  0.10566000000E+00 0. -1.
         23    2    1    0    0    0  0.19056826583E+02  0.15960000455E+02  0.17502993512E+02  0.94598700097E+02  0.89580550480E+02 0.  0.
         13    1    3    3    0    0  0.35968474094E+02  0.32771266120E+02  0.39103288627E+02  0.62424076744E+02  0.10566000000E+00 0.  1.
         22    1    1    0    0    0 -0.19056826583E+02 -0.15960000455E+02 -0.17502993512E+02  0.30401299903E+02  0.00000000000E+00 0.  1.
</event>
<event>
 5    1  0.9041381E-005  0.9118800E+02  0.7818608E-02  0.1130116E+00
         25   -1    0    0    0    0  0.00000000000E+00  0.00000000000E+00  0.99999998245E-14  0.12500000000E+03  0.12500000000E+03 0.  0.
        -13    1    3    3    0    0  0.10390969767E+02  0.52164422054E+02  0.15632499294E+02  0.55439023973E+02  0.10566000000E+00 0.  1.
         23    2    1    0    0    0 -0.14904032051E+02  0.32342241847E+02  0.71187999039E+01  0.88684327197E+02  0.80907859935E+02 0.  0.
         13    1    3    3    0    0 -0.25295001817E+02 -0.19822180207E+02 -0.85136993896E+01  0.33245303223E+02  0.10566000000E+00 0. -1.
         22    1    1    0    0    0  0.14904032051E+02 -0.32342241847E+02 -0.71187999039E+01  0.36315672803E+02  0.00000000000E+00 0.  1.
</event>
<event>
 5    1  0.9041381E-005  0.9118800E+02  0.7818608E-02  0.1130116E+00
         25   -1    0    0    0    0  0.00000000000E+00  0.00000000000E+00  0.99999998245E-14  0.12500000000E+03  0.12500000000E+03 0.  0.
        -13    1    3    3    0    0  0.67193168021E+01  0.32494112244E+02 -0.13786482589E+02  0.35931807845E+02  0.10566000000E+00 0. -1.
         23    2    1    0    0    0 -0.97842713315E+01 -0.25402008374E+02 -0.90224563971E+01  0.96322505089E+02  0.91954479348E+02 0.  0.
         13    1    3    3    0    0 -0.16503588134E+02 -0.57896120619E+02  0.47640261917E+01  0.60390697244E+02  0.10566000000E+00 0.  1.
         22    1    1    0    0    0  0.97842713315E+01  0.25402008374E+02  0.90224563971E+01  0.28677494911E+02  0.00000000000E+00 0.  1.
</event>
<event>
 5    1  0.9041381E-005  0.9118800E+02  0.7818608E-02  0.1130116E+00
         25   -1    0    0    0    0  0.00000000000E+00  0.00000000000E+00  0.99999998245E-14  0.12500000000E+03  0.12500000000E+03 0.  0.
        -13    1    3    3    0    0  0.57819468110E+02 -0.33867553944E+01  0.21228445784E+02  0.61686457826E+02  0.10566000000E+00 0. -1.
         23    2    1    0    0    0  0.28450047653E+02 -0.75848485207E+01  0.14811819727E+02  0.92040553067E+02  0.85936827185E+02 0.  0.
         13    1    3    3    0    0 -0.29369420458E+02 -0.41980931264E+01 -0.64166260562E+01  0.30354095241E+02  0.10566000000E+00 0.  1.
         22    1    1    0    0    0 -0.28450047653E+02  0.75848485207E+01 -0.14811819727E+02  0.32959446933E+02  0.00000000000E+00 0. -1.
</event>
<event>
 5    1  0.9041381E-005  0.9118800E+02  0.7818608E-02  0.1130116E+00
         25   -1    0    0    0    0  0.00000000000E+00  0.00000000000E+00  0.99999998245E-14  0.12500000000E+03  0.12500000000E+03 0.  0.
        -13    1    3    3    0    0  0.56238315716E+02 -0.35252526094E+01  0.20445444430E+02  0.59943330926E+02  0.10566000000E+00 0.  1.
         23    2    1    0    0    0  0.23534733184E+02 -0.12523332632E+02  0.15334003197E+02  0.94245338885E+02  0.89086108464E+02 0.  0.
         13    1    3    3    0    0 -0.32703582532E+02 -0.89980800224E+01 -0.51114412325E+01  0.34302007959E+02  0.10566000000E+00 0. -1.
         22    1    1    0    0    0 -0.23534733184E+02  0.12523332632E+02 -0.15334003197E+02  0.30754661115E+02  0.00000000000E+00 0.  1.
</event>
<event>
 5    1  0.9041381E-005  0.9118800E+02  0.7818608E-02  0.1130116E+00
         25   -1    0    0    0    0  0.00000000000E+00  0.00000000000E+00  0.99999998245E-14  0.12500000000E+03  0.12500000000E+03 0.  0.
        -13    1    3    3    0    0 -0.24293306858E+02 -0.54607047812E+02  0.15003485773E+02  0.61621507432E+02  0.10566000000E+00 0.  1.
         23    2    1    0    0    0 -0.10954151831E+02 -0.27077712521E+02 -0.21674189129E+00  0.95789677599E+02  0.91227295256E+02 0.  0.
         13    1    3    3    0    0  0.13339155027E+02  0.27529335290E+02 -0.15220227664E+02  0.34168170167E+02  0.10566000000E+00 0. -1.
         22    1    1    0    0    0  0.10954151831E+02  0.27077712521E+02  0.21674189129E+00  0.29210322401E+02  0.00000000000E+00 0.  1.
</event>
<event>
 5    1  0.9041381E-005  0.9118800E+02  0.7818608E-02  0.1130116E+00
         25   -1    0    0    0    0  0.00000000000E+00  0.00000000000E+00  0.99999998245E-14  0.12500000000E+03  0.12500000000E+03 0.  0.
        -13    1    3    3    0    0 -0.46707429100E+02 -0.18879847052E+02  0.32161422252E+02  0.59769564187E+02  0.10566000000E+00 0.  1.
         23    2    1    0    0    0 -0.29410211122E+02 -0.24468350790E+01  0.65544360737E+01  0.94769086147E+02  0.89817991165E+02 0.  0.
         13    1    3    3    0    0  0.17297217978E+02  0.16433011973E+02 -0.25606986178E+02  0.34999521960E+02  0.10566000000E+00 0. -1.
         22    1    1    0    0    0  0.29410211122E+02  0.24468350790E+01 -0.65544360737E+01  0.30230913853E+02  0.00000000000E+00 0.  1.
</event>
<event>
 5    1  0.9041381E-005  0.9118800E+02  0.7818608E-02  0.1130116E+00
         25   -1    0    0    0    0  0.00000000000E+00  0.00000000000E+00  0.99999998245E-14  0.12500000000E+03  0.12500000000E+03 0.  0.
        -13    1    3    3    0    0  0.43519423065E+02  0.12347340704E+02 -0.39466677743E+02  0.60033547476E+02  0.10566000000E+00 0.  1.
         23    2    1    0    0    0  0.24379886485E+02  0.13384541151E+02 -0.94926894625E+01  0.95612316184E+02  0.90983949387E+02 0.  0.
         13    1    3    3    0    0 -0.19139536580E+02  0.10372004468E+01  0.29973988281E+02  0.35578768708E+02  0.10566000000E+00 0. -1.
         22    1    1    0    0    0 -0.24379886485E+02 -0.13384541151E+02  0.94926894625E+01  0.29387683816E+02  0.00000000000E+00 0.  1.
</event>
<event>
 5    1  0.9041381E-005  0.9118800E+02  0.7818608E-02  0.1130116E+00
         25   -1    0    0    0    0  0.00000000000E+00  0.00000000000E+00  0.99999998245E-14  0.12500000000E+03  0.12500000000E+03 0.  0.
        -13    1    3    3    0    0 -0.44125738087E+02 -0.10895043598E+02 -0.33815094412E+02  0.56650282531E+02  0.10566000000E+00 0. -1.
         23    2    1    0    0    0 -0.19339203972E+02  0.13999886008E+02 -0.17582461232E+02  0.95349627971E+02  0.90622331644E+02 0.  0.
         13    1    3    3    0    0  0.24786534115E+02  0.24894929605E+02  0.16232633180E+02  0.38699345440E+02  0.10566000000E+00 0.  1.
         22    1    1    0    0    0  0.19339203972E+02 -0.13999886008E+02  0.17582461232E+02  0.29650372029E+02  0.00000000000E+00 0. -1.
</event>
<event>
 5    1  0.9041381E-005  0.9118800E+02  0.7818608E-02  0.1130116E+00
         25   -1    0    0    0    0  0.00000000000E+00  0.00000000000E+00  0.99999998245E-14  0.12500000000E+03  0.12500000000E+03 0.  0.
        -13    1    3    3    0    0 -0.17737134783E+02 -0.38913934456E+02 -0.34875506256E+02  0.55183442679E+02  0.10566000000E+00 0. -1.
         23    2    1    0    0    0  0.13345611605E+02 -0.20114099633E+02 -0.14734546663E+02  0.96719455124E+02  0.92492506620E+02 0.  0.
         13    1    3    3    0    0  0.31082746388E+02  0.18799834824E+02  0.20140959593E+02  0.41536012445E+02  0.10566000000E+00 0.  1.
         22    1    1    0    0    0 -0.13345611605E+02  0.20114099633E+02  0.14734546663E+02  0.28280544876E+02  0.00000000000E+00 0. -1.
</event>
<event>
 5    1  0.9041381E-005  0.9118800E+02  0.7818608E-02  0.1130116E+00
         25   -1    0    0    0    0  0.00000000000E+00  0.00000000000E+00  0.99999998245E-14  0.12500000000E+03  0.12500000000E+03 0.  0.
        -13    1    3    3    0    0  0.10909776610E+02  0.45463751361E+02  0.26349543567E+02  0.53668291604E+02  0.10566000000E+00 0.  1.
         23    2    1    0    0    0  0.25609040233E+02  0.13152307559E+02  0.32320632088E+01  0.96030147250E+02  0.91556194834E+02 0.  0.
         13    1    3    3    0    0  0.14699263623E+02 -0.32311443802E+02 -0.23117480358E+02  0.42361855646E+02  0.10566000000E+00 0. -1.
         22    1    1    0    0    0 -0.25609040233E+02 -0.13152307559E+02 -0.32320632088E+01  0.28969852750E+02  0.00000000000E+00 0. -1.
</event>
<event>
 5    1  0.9041381E-005  0.9118800E+02  0.7818608E-02  0.1130116E+00
         25   -1    0    0    0    0  0.00000000000E+00  0.00000000000E+00  0.99999998245E-14  0.12500000000E+03  0.12500000000E+03 0.  0.
        -13    1    3    3    0    0  0.56988800292E+01  0.22864364844E+02  0.40916270196E+01  0.23916709410E+02  0.10566000000E+00 0. -1.
         23    2    1    0    0    0 -0.25944630489E+02 -0.18168505744E+02 -0.26161591968E+02  0.83919014781E+02  0.73176182569E+02 0.  0.
         13    1    3    3    0    0 -0.31643510519E+02 -0.41032870589E+02 -0.30253218988E+02  0.60002305371E+02  0.10566000000E+00 0.  1.
         22    1    1    0    0    0  0.25944630489E+02  0.18168505744E+02  0.26161591968E+02  0.41080985219E+02  0.00000000000E+00 0.  1.
</event>
<event>
 5    1  0.9041381E-005  0.9118800E+02  0.7818608E-02  0.1130116E+00
         25   -1    0    0    0    0  0.00000000000E+00  0.00000000000E+00  0.99999998245E-14  0.12500000000E+03  0.12500000000E+03 0.  0.
        -13    1    3    3    0    0  0.19003294178E+02  0.13542869463E+02 -0.36748654515E+02  0.43531704257E+02  0.10566000000E+00 0.  1.
         23    2    1    0    0    0  0.25783306907E+02 -0.10789616723E+02  0.88696853316E+01  0.95676527116E+02  0.91072124050E+02 0.  0.
         13    1    3    3    0    0  0.67800127293E+01 -0.24332486186E+02  0.45618339846E+02  0.52144822859E+02  0.10566000000E+00 0. -1.
         22    1    1    0    0    0 -0.25783306907E+02  0.10789616723E+02 -0.88696853316E+01  0.29323472884E+02  0.00000000000E+00 0. -1.
</event>
<event>
 5    1  0.9041381E-005  0.9118800E+02  0.7818608E-02  0.1130116E+00
         25   -1    0    0    0    0  0.00000000000E+00  0.00000000000E+00  0.99999998245E-14  0.12500000000E+03  0.12500000000E+03 0.  0.
        -13    1    3    3    0    0 -0.47798082616E+02 -0.15537240356E+02  0.10918300896E+02  0.51432314727E+02  0.10566000000E+00 0.  1.
         23    2    1    0    0    0 -0.25351114450E+02  0.14853811511E+02 -0.91663334991E+01  0.94221169774E+02  0.89052189437E+02 0.  0.
         13    1    3    3    0    0  0.22446968166E+02  0.30391051867E+02 -0.20084634395E+02  0.42788855047E+02  0.10566000000E+00 0. -1.
         22    1    1    0    0    0  0.25351114450E+02 -0.14853811511E+02  0.91663334991E+01  0.30778830226E+02  0.00000000000E+00 0.  1.
</event>
<event>
 5    1  0.9041381E-005  0.9118800E+02  0.7818608E-02  0.1130116E+00
         25   -1    0    0    0    0  0.00000000000E+00  0.00000000000E+00  0.99999998245E-14  0.12500000000E+03  0.12500000000E+03 0.  0.
        -13    1    3    3    0    0  0.18339204608E+02 -0.38283122946E+02  0.44846778128E+02  0.61750859109E+02  0.10566000000E+00 0.  1.
         23    2    1    0    0    0  0.11082915178E+02 -0.12085847676E+02  0.23645553134E+02  0.96224821358E+02  0.91821595169E+02 0.  0.
         13    1    3    3    0    0 -0.72562894300E+01  0.26197275270E+02 -0.21201224994E+02  0.34473962249E+02  0.10566000000E+00 0. -1.
         22    1    1    0    0    0 -0.11082915178E+02  0.12085847676E+02 -0.23645553134E+02  0.28775178642E+02  0.00000000000E+00 0.  1.
</event>
<event>
 5    1  0.9041381E-005  0.9118800E+02  0.7818608E-02  0.1130116E+00
         25   -1    0    0    0    0  0.00000000000E+00  0.00000000000E+00  0.99999998245E-14  0.12500000000E+03  0.12500000000E+03 0.  0.
        -13    1    3    3    0    0  0.12959762997E+02 -0.13089216305E+02  0.53038000770E+02  0.56145558418E+02  0.10566000000E+00 0.  1.
         23    2    1    0    0    0  0.21119845137E+02  0.63487197542E+01  0.20665979159E+02  0.94776883090E+02  0.89828841541E+02 0.  0.
         13    1    3    3    0    0  0.81600821399E+01  0.19437936059E+02 -0.32372021610E+02  0.38631324672E+02  0.10566000000E+00 0. -1.
         22    1    1    0    0    0 -0.21119845137E+02 -0.63487197542E+01 -0.20665979159E+02  0.30223116910E+02  0.00000000000E+00 0.  1.
</event>
<event>
 5    1  0.9041381E-005  0.9118800E+02  0.7818608E-02  0.1130116E+00
         25   -1    0    0    0    0  0.00000000000E+00  0.00000000000E+00  0.99999998245E-14  0.12500000000E+03  0.12500000000E+03 0.  0.
        -13    1    3    3    0    0  0.44524606778E+02  0.10347694090E+02  0.18074607096E+02  0.49155040102E+02  0.10566000000E+00 0.  1.
         23    2    1    0    0    0  0.21010123160E+02 -0.11195721702E+02 -0.16378932295E+02  0.96102960658E+02  0.91655551738E+02 0.  0.
         13    1    3    3    0    0 -0.23514483618E+02 -0.21543415791E+02 -0.34453539392E+02  0.46947920555E+02  0.10566000000E+00 0. -1.
         22    1    1    0    0    0 -0.21010123160E+02  0.11195721702E+02  0.16378932295E+02  0.28897039342E+02  0.00000000000E+00 0.  1.
</event>
<event>
 5    1  0.9041381E-005  0.9118800E+02  0.7818608E-02  0.1130116E+00
         25   -1    0    0    0    0  0.00000000000E+00  0.00000000000E+00  0.99999998245E-14  0.12500000000E+03  0.12500000000E+03 0.  0.
        -13    1    3    3    0    0  0.28098735476E+02 -0.23012138895E+02  0.50104689704E+02  0.61883669625E+02  0.10566000000E+00 0. -1.
         23    2    1    0    0    0  0.84062449240E+01 -0.14698403850E+02  0.24102602853E+02  0.95544211201E+02  0.90890333921E+02 0.  0.
         13    1    3    3    0    0 -0.19692490552E+02  0.83137350451E+01 -0.26002086851E+02  0.33660541576E+02  0.10566000000E+00 0.  1.
         22    1    1    0    0    0 -0.84062449240E+01  0.14698403850E+02 -0.24102602853E+02  0.29455788799E+02  0.00000000000E+00 0. -1.
</event>
<event>
 5    1  0.9041381E-005  0.9118800E+02  0.7818608E-02  0.1130116E+00
         25   -1    0    0    0    0  0.00000000000E+00  0.00000000000E+00  0.99999998245E-14  0.12500000000E+03  0.12500000000E+03 0.  0.
        -13    1    3    3    0    0  0.12824557620E+02  0.37161269561E+02  0.15671114803E+02  0.42320494288E+02  0.10566000000E+00 0.  1.
         23    2    1    0    0    0  0.16720124477E+02 -0.15383429902E+02  0.19376034198E+02  0.95139605171E+02  0.90332171970E+02 0.  0.
         13    1    3    3    0    0  0.38955668571E+01 -0.52544699463E+02  0.37049193943E+01  0.52819110884E+02  0.10566000000E+00 0. -1.
         22    1    1    0    0    0 -0.16720124477E+02  0.15383429902E+02 -0.19376034198E+02  0.29860394829E+02  0.00000000000E+00 0.  1.
</event>
<event>
 5    1  0.9041381E-005  0.9118800E+02  0.7818608E-02  0.1130116E+00
         25   -1    0    0    0    0  0.00000000000E+00  0.00000000000E+00  0.99999998245E-14  0.12500000000E+03  0.12500000000E+03 0.  0.
        -13    1    3    3    0    0  0.32962221555E+02 -0.95717560488E+01  0.70970555779E+01  0.35050048868E+02  0.10566000000E+00 0.  1.
         23    2    1    0    0    0 -0.19444796038E+02 -0.99164221511E+01 -0.21167664843E+02  0.94594317041E+02  0.89574434190E+02 0.  0.
         13    1    3    3    0    0 -0.52407017594E+02 -0.34466610228E+00 -0.28264720421E+02  0.59544268174E+02  0.10566000000E+00 0. -1.
         22    1    1    0    0    0  0.19444796038E+02  0.99164221511E+01  0.21167664843E+02  0.30405682959E+02  0.00000000000E+00 0. -1.
</event>
<event>
 5    1  0.9041381E-005  0.9118800E+02  0.7818608E-02  0.1130116E+00
         25   -1    0    0    0    0  0.00000000000E+00  0.00000000000E+00  0.99999998245E-14  0.12500000000E+03  0.12500000000E+03 0.  0.
        -13    1    3    3    0    0 -0.11609572547E+02 -0.50053199159E+01 -0.40691045459E+02  0.42609948917E+02  0.10566000000E+00 0.  1.
         23    2    1    0    0    0 -0.14008485804E+02 -0.25057460091E+02  0.78955769175E+01  0.95226620689E+02  0.90452502300E+02 0.  0.
         13    1    3    3    0    0 -0.23989132560E+01 -0.20052140175E+02  0.48586622376E+02  0.52616671772E+02  0.10566000000E+00 0. -1.
         22    1    1    0    0    0  0.14008485804E+02  0.25057460091E+02 -0.78955769175E+01  0.29773379311E+02  0.00000000000E+00 0. -1.
</event>
<event>
 5    1  0.9041381E-005  0.9118800E+02  0.7818608E-02  0.1130116E+00
         25   -1    0    0    0    0  0.00000000000E+00  0.00000000000E+00  0.99999998245E-14  0.12500000000E+03  0.12500000000E+03 0.  0.
        -13    1    3    3    0    0  0.10324055747E+02 -0.19757499002E+02 -0.27107843741E+02  0.35096883768E+02  0.10566000000E+00 0.  1.
         23    2    1    0    0    0 -0.23821578136E+02  0.19852569405E+02 -0.23562841963E-01  0.93990442569E+02  0.88727733220E+02 0.  0.
         13    1    3    3    0    0 -0.34145633883E+02  0.39610068407E+02  0.27084280899E+02  0.58893558802E+02  0.10566000000E+00 0. -1.
         22    1    1    0    0    0  0.23821578136E+02 -0.19852569405E+02  0.23562841963E-01  0.31009557431E+02  0.00000000000E+00 0. -1.
</event>
<event>
 5    1  0.9041381E-005  0.9118800E+02  0.7818608E-02  0.1130116E+00
         25   -1    0    0    0    0  0.00000000000E+00  0.00000000000E+00  0.99999998245E-14  0.12500000000E+03  0.12500000000E+03 0.  0.
        -13    1    3    3    0    0  0.31213985659E+02  0.12344192615E+01 -0.24136725451E+02  0.39476947339E+02  0.10566000000E+00 0.  1.
         23    2    1    0    0    0  0.97292204942E+01  0.38727118136E+01  0.27557317232E+02  0.95520153303E+02  0.90857241461E+02 0.  0.
         13    1    3    3    0    0 -0.21484765165E+02  0.26382925521E+01  0.51694042684E+02  0.56043205965E+02  0.10566000000E+00 0. -1.
         22    1    1    0    0    0 -0.97292204942E+01 -0.38727118136E+01 -0.27557317232E+02  0.29479846697E+02  0.00000000000E+00 0. -1.
</event>
<event>
 5    1  0.9041381E-005  0.9118800E+02  0.7818608E-02  0.1130116E+00
         25   -1    0    0    0    0  0.00000000000E+00  0.00000000000E+00  0.99999998245E-14  0.12500000000E+03  0.12500000000E+03 0.  0.
        -13    1    3    3    0    0 -0.19787819134E+02  0.26921601432E+02  0.18072328160E+02  0.37986189845E+02  0.10566000000E+00 0.  1.
         23    2    1    0    0    0 -0.16177497209E+02 -0.19293646377E+02 -0.15688941911E+02  0.95333535689E+02  0.90600132021E+02 0.  0.
         13    1    3    3    0    0  0.36103219257E+01 -0.46215247810E+02 -0.33761270071E+02  0.57347345844E+02  0.10566000000E+00 0. -1.
         22    1    1    0    0    0  0.16177497209E+02  0.19293646377E+02  0.15688941911E+02  0.29666464311E+02  0.00000000000E+00 0. -1.
</event>
<event>
 5    1  0.9041381E-005  0.9118800E+02  0.7818608E-02  0.1130116E+00
         25   -1    0    0    0    0  0.00000000000E+00  0.00000000000E+00  0.99999998245E-14  0.12500000000E+03  0.12500000000E+03 0.  0.
        -13    1    3    3    0    0 -0.28134984339E+02 -0.11178525031E+01 -0.13944607386E+02  0.31421174026E+02  0.10566000000E+00 0.  1.
         23    2    1    0    0    0  0.27416361100E+02 -0.19621617955E+02 -0.16820098831E+01  0.91243609429E+02  0.84769701882E+02 0.  0.
         13    1    3    3    0    0  0.55551345439E+02 -0.18503765452E+02  0.12262597503E+02  0.59822435403E+02  0.10566000000E+00 0. -1.
         22    1    1    0    0    0 -0.27416361100E+02  0.19621617955E+02  0.16820098831E+01  0.33756390571E+02  0.00000000000E+00 0. -1.
</event>
<event>
 5    1  0.9041381E-005  0.9118800E+02  0.7818608E-02  0.1130116E+00
         25   -1    0    0    0    0  0.00000000000E+00  0.00000000000E+00  0.99999998245E-14  0.12500000000E+03  0.12500000000E+03 0.  0.
        -13    1    3    3    0    0 -0.23639221191E+02 -0.58502314369E+01  0.49486884791E+02  0.55154337243E+02  0.10566000000E+00 0. -1.
         23    2    1    0    0    0  0.89469273256E+01 -0.98612503591E+01  0.26837222329E+02  0.95041223831E+02  0.90195930938E+02 0.  0.
         13    1    3    3    0    0  0.32586148517E+02 -0.40110189222E+01 -0.22649662462E+02  0.39886886588E+02  0.10566000000E+00 0.  1.
         22    1    1    0    0    0 -0.89469273256E+01  0.98612503591E+01 -0.26837222329E+02  0.29958776169E+02  0.00000000000E+00 0. -1.
</event>
<event>
 5    1  0.9041381E-005  0.9118800E+02  0.7818608E-02  0.1130116E+00
         25   -1    0    0    0    0  0.00000000000E+00  0.00000000000E+00  0.99999998245E-14  0.12500000000E+03  0.12500000000E+03 0.  0.
        -13    1    3    3    0    0 -0.29571159376E+02  0.89825146375E+01  0.14561178558E+02  0.34163988659E+02  0.10566000000E+00 0. -1.
         23    2    1    0    0    0  0.24054335327E+02 -0.17137915157E+02  0.43936872249E+00  0.95461682024E+02  0.90776761928E+02 0.  0.
         13    1    3    3    0    0  0.53625494703E+02 -0.26120429795E+02 -0.14121809835E+02  0.61297693365E+02  0.10566000000E+00 0.  1.
         22    1    1    0    0    0 -0.24054335327E+02  0.17137915157E+02 -0.43936872249E+00  0.29538317976E+02  0.00000000000E+00 0.  1.
</event>
<event>
 5    1  0.9041381E-005  0.9118800E+02  0.7818608E-02  0.1130116E+00
         25   -1    0    0    0    0  0.00000000000E+00  0.00000000000E+00  0.99999998245E-14  0.12500000000E+03  0.12500000000E+03 0.  0.
        -13    1    3    3    0    0 -0.16405756246E+02 -0.17052034991E+02  0.22610594118E+02  0.32728746779E+02  0.10566000000E+00 0.  1.
         23    2    1    0    0    0  0.13248414656E+02  0.18875607876E+02 -0.18944982762E+02  0.95155043383E+02  0.90353532559E+02 0.  0.
         13    1    3    3    0    0  0.29654170902E+02  0.35927642867E+02 -0.41555576880E+02  0.62426296604E+02  0.10566000000E+00 0. -1.
         22    1    1    0    0    0 -0.13248414656E+02 -0.18875607876E+02  0.18944982762E+02  0.29844956617E+02  0.00000000000E+00 0. -1.
</event>
<event>
 5    1  0.9041381E-005  0.9118800E+02  0.7818608E-02  0.1130116E+00
         25   -1    0    0    0    0  0.00000000000E+00  0.00000000000E+00  0.99999998245E-14  0.12500000000E+03  0.12500000000E+03 0.  0.
        -13    1    3    3    0    0  0.17531778352E+02 -0.20249981146E+02  0.29392769136E+02  0.39766456092E+02  0.10566000000E+00 0.  1.
         23    2    1    0    0    0  0.99976926094E+01 -0.49946473413E+00 -0.24971985373E+02  0.98096405890E+02  0.94335049015E+02 0.  0.
         13    1    3    3    0    0 -0.75340857427E+01  0.19750516412E+02 -0.54364754510E+02  0.58329949798E+02  0.10566000000E+00 0. -1.
         22    1    1    0    0    0 -0.99976926094E+01  0.49946473413E+00  0.24971985373E+02  0.26903594110E+02  0.00000000000E+00 0. -1.
</event>
<event>
 5    1  0.9041381E-005  0.9118800E+02  0.7818608E-02  0.1130116E+00
         25   -1    0    0    0    0  0.00000000000E+00  0.00000000000E+00  0.99999998245E-14  0.12500000000E+03  0.12500000000E+03 0.  0.
        -13    1    3    3    0    0  0.29301649772E+02  0.22364133482E+02 -0.15418611676E+02  0.39956049553E+02  0.10566000000E+00 0.  1.
         23    2    1    0    0    0 -0.16848825025E+02  0.88928437330E+01  0.18224776724E+02  0.98635097932E+02  0.95046170270E+02 0.  0.
         13    1    3    3    0    0 -0.46150474798E+02 -0.13471289749E+02  0.33643388401E+02  0.58679048379E+02  0.10566000000E+00 0. -1.
         22    1    1    0    0    0  0.16848825025E+02 -0.88928437330E+01 -0.18224776724E+02  0.26364902068E+02  0.00000000000E+00 0. -1.
</event>
<event>
 5    1  0.9041381E-005  0.9118800E+02  0.7818608E-02  0.1130116E+00
         25   -1    0    0    0    0  0.00000000000E+00  0.00000000000E+00  0.99999998245E-14  0.12500000000E+03  0.12500000000E+03 0.  0.
        -13    1    3    3    0    0 -0.12383385766E+02 -0.86477656153E+01 -0.38308114562E+02  0.41178330449E+02  0.10566000000E+00 0.  1.
         23    2    1    0    0    0 -0.36075162701E+02  0.30362115510E+01  0.12844359962E+01  0.88774515596E+02  0.81047078287E+02 0.  0.
         13    1    3    3    0    0 -0.23691776935E+02  0.11683977166E+02  0.39592550559E+02  0.47596185147E+02  0.10566000000E+00 0. -1.
         22    1    1    0    0    0  0.36075162701E+02 -0.30362115510E+01 -0.12844359962E+01  0.36225484404E+02  0.00000000000E+00 0. -1.
</event>
<event>
 5    1  0.9041381E-005  0.9118800E+02  0.7818608E-02  0.1130116E+00
         25   -1    0    0    0    0  0.00000000000E+00  0.00000000000E+00  0.99999998245E-14  0.12500000000E+03  0.12500000000E+03 0.  0.
        -13    1    3    3    0    0  0.36351774728E+02 -0.93308489308E+01  0.86917118622E+00  0.37540416756E+02  0.10566000000E+00 0. -1.
         23    2    1    0    0    0 -0.18333826376E+02 -0.23469449656E+02 -0.65417801308E+01  0.94508375838E+02  0.89454423924E+02 0.  0.
         13    1    3    3    0    0 -0.54685601103E+02 -0.14138600726E+02 -0.74109513170E+01  0.56967959082E+02  0.10566000000E+00 0.  1.
         22    1    1    0    0    0  0.18333826376E+02  0.23469449656E+02  0.65417801308E+01  0.30491624162E+02  0.00000000000E+00 0.  1.
</event>
<event>
 5    1  0.9041381E-005  0.9118800E+02  0.7818608E-02  0.1130116E+00
         25   -1    0    0    0    0  0.00000000000E+00  0.00000000000E+00  0.99999998245E-14  0.12500000000E+03  0.12500000000E+03 0.  0.
        -13    1    3    3    0    0  0.75619810973E-01 -0.13301765420E+02  0.37078983729E+02  0.39392954701E+02  0.10566000000E+00 0.  1.
         23    2    1    0    0    0 -0.10125898095E+02  0.27583120750E+01 -0.21549128931E+02  0.10103112319E+03  0.98146730959E+02 0.  0.
         13    1    3    3    0    0 -0.10201517906E+02  0.16060077495E+02 -0.58628112660E+02  0.61638168491E+02  0.10566000000E+00 0. -1.
         22    1    1    0    0    0  0.10125898095E+02 -0.27583120750E+01  0.21549128931E+02  0.23968876808E+02  0.00000000000E+00 0. -1.
</event>
<event>
 5    1  0.9041381E-005  0.9118800E+02  0.7818608E-02  0.1130116E+00
         25   -1    0    0    0    0  0.00000000000E+00  0.00000000000E+00  0.99999998245E-14  0.12500000000E+03  0.12500000000E+03 0.  0.
        -13    1    3    3    0    0 -0.28094354061E+02  0.25577257997E+02  0.37481592097E+02  0.53370120544E+02  0.10566000000E+00 0. -1.
         23    2    1    0    0    0 -0.18289507575E+01  0.33423581902E+02  0.23131755606E+02  0.84311438887E+02  0.73843481241E+02 0.  0.
         13    1    3    3    0    0  0.26265403303E+02  0.78463239045E+01 -0.14349836490E+02  0.30941318343E+02  0.10566000000E+00 0.  1.
         22    1    1    0    0    0  0.18289507575E+01 -0.33423581902E+02 -0.23131755606E+02  0.40688561113E+02  0.00000000000E+00 0. -1.
</event>
<event>
 5    1  0.9041381E-005  0.9118800E+02  0.7818608E-02  0.1130116E+00
         25   -1    0    0    0    0  0.00000000000E+00  0.00000000000E+00  0.99999998245E-14  0.12500000000E+03  0.12500000000E+03 0.  0.
        -13    1    3    3    0    0  0.14527851158E+02 -0.25307033742E+02 -0.13007586155E+02  0.31948597429E+02  0.10566000000E+00 0.  1.
         23    2    1    0    0    0  0.27151175495E+02  0.26725354463E+02 -0.10183200099E+02  0.85564882830E+02  0.75935635295E+02 0.  0.
         13    1    3    3    0    0  0.12623324337E+02  0.52032388205E+02  0.28243860556E+01  0.53616285401E+02  0.10566000000E+00 0. -1.
         22    1    1    0    0    0 -0.27151175495E+02 -0.26725354463E+02  0.10183200099E+02  0.39435117170E+02  0.00000000000E+00 0. -1.
</event>
<event>
 5    1  0.9041381E-005  0.9118800E+02  0.7818608E-02  0.1130116E+00
         25   -1    0    0    0    0  0.00000000000E+00  0.00000000000E+00  0.99999998245E-14  0.12500000000E+03  0.12500000000E+03 0.  0.
        -13    1    3    3    0    0  0.34261615746E+02 -0.14018378183E+02  0.24368956298E+02  0.44319639388E+02  0.10566000000E+00 0.  1.
         23    2    1    0    0    0 -0.17349038222E+01 -0.27017117168E+02 -0.10372620703E+02  0.96008177505E+02  0.91526195028E+02 0.  0.
         13    1    3    3    0    0 -0.35996519568E+02 -0.12998738984E+02 -0.34741577001E+02  0.51688538117E+02  0.10566000000E+00 0. -1.
         22    1    1    0    0    0  0.17349038222E+01  0.27017117168E+02  0.10372620703E+02  0.28991822495E+02  0.00000000000E+00 0.  1.
</event>
<event>
 5    1  0.9041381E-005  0.9118800E+02  0.7818608E-02  0.1130116E+00
         25   -1    0    0    0    0  0.00000000000E+00  0.00000000000E+00  0.99999998245E-14  0.12500000000E+03  0.12500000000E+03 0.  0.
        -13    1    3    3    0    0 -0.27930082186E+01 -0.23001261973E+02 -0.47030088251E+02  0.52428039370E+02  0.10566000000E+00 0.  1.
         23    2    1    0    0    0 -0.18168272930E+02  0.73641746026E+01 -0.26000992747E+02  0.92436694998E+02  0.86511119225E+02 0.  0.
         13    1    3    3    0    0 -0.15375264711E+02  0.30365436576E+02  0.21029095504E+02  0.40008655628E+02  0.10566000000E+00 0. -1.
         22    1    1    0    0    0  0.18168272930E+02 -0.73641746026E+01  0.26000992747E+02  0.32563305002E+02  0.00000000000E+00 0. -1.
</event>
<event>
 5    1  0.9041381E-005  0.9118800E+02  0.7818608E-02  0.1130116E+00
         25   -1    0    0    0    0  0.00000000000E+00  0.00000000000E+00  0.99999998245E-14  0.12500000000E+03  0.12500000000E+03 0.  0.
        -13    1    3    3    0    0  0.19633824735E+02 -0.17970906900E+02 -0.33986165438E+02  0.43168404809E+02  0.10566000000E+00 0. -1.
         23    2    1    0    0    0 -0.25836279646E+02 -0.64777392279E+01 -0.63061907736E+01  0.97627705732E+02  0.93711933247E+02 0.  0.
         13    1    3    3    0    0 -0.45470104381E+02  0.11493167672E+02  0.27679974664E+02  0.54459300923E+02  0.10566000000E+00 0.  1.
         22    1    1    0    0    0  0.25836279646E+02  0.64777392279E+01  0.63061907736E+01  0.27372294268E+02  0.00000000000E+00 0.  1.
</event>
<event>
 5    1  0.9041381E-005  0.9118800E+02  0.7818608E-02  0.1130116E+00
         25   -1    0    0    0    0  0.00000000000E+00  0.00000000000E+00  0.99999998245E-14  0.12500000000E+03  0.12500000000E+03 0.  0.
        -13    1    3    3    0    0  0.46888224048E+01  0.12441941540E+02  0.54807423098E+02  0.56397267270E+02  0.10566000000E+00 0. -1.
         23    2    1    0    0    0  0.16060531660E+02 -0.55182206014E+01  0.37586500888E+02  0.83755164144E+02  0.72895754581E+02 0.  0.
         13    1    3    3    0    0  0.11371709255E+02 -0.17960162141E+02 -0.17220922211E+02  0.27357896874E+02  0.10566000000E+00 0.  1.
         22    1    1    0    0    0 -0.16060531660E+02  0.55182206014E+01 -0.37586500888E+02  0.41244835856E+02  0.00000000000E+00 0. -1.
</event>
<event>
 5    1  0.9041381E-005  0.9118800E+02  0.7818608E-02  0.1130116E+00
         25   -1    0    0    0    0  0.00000000000E+00  0.00000000000E+00  0.99999998245E-14  0.12500000000E+03  0.12500000000E+03 0.  0.
        -13    1    3    3    0    0 -0.26905280099E+02 -0.19869142664E+02  0.50765790734E+02  0.60793532553E+02  0.10566000000E+00 0. -1.
         23    2    1    0    0    0 -0.19624003570E+02 -0.16569142834E+01  0.25791009192E+02  0.92549683574E+02  0.86674222773E+02 0.  0.
         13    1    3    3    0    0  0.72812765288E+01  0.18212228381E+02 -0.24974781543E+02  0.31756151020E+02  0.10566000000E+00 0.  1.
         22    1    1    0    0    0  0.19624003570E+02  0.16569142834E+01 -0.25791009192E+02  0.32450316426E+02  0.00000000000E+00 0. -1.
</event>
<event>
 5    1  0.9041381E-005  0.9118800E+02  0.7818608E-02  0.1130116E+00
         25   -1    0    0    0    0  0.00000000000E+00  0.00000000000E+00  0.99999998245E-14  0.12500000000E+03  0.12500000000E+03 0.  0.
        -13    1    3    3    0    0 -0.12067422175E+02 -0.10539352624E+02 -0.33170466985E+02  0.36837367926E+02  0.10566000000E+00 0.  1.
         23    2    1    0    0    0 -0.13496685430E+02  0.22813707751E+02  0.14308071597E+02  0.94877804001E+02  0.89969166943E+02 0.  0.
         13    1    3    3    0    0 -0.14292632550E+01  0.33353060375E+02  0.47478538582E+02  0.58040436075E+02  0.10566000000E+00 0. -1.
         22    1    1    0    0    0  0.13496685430E+02 -0.22813707751E+02 -0.14308071597E+02  0.30122195999E+02  0.00000000000E+00 0. -1.
</event>
<event>
 5    1  0.9041381E-005  0.9118800E+02  0.7818608E-02  0.1130116E+00
         25   -1    0    0    0    0  0.00000000000E+00  0.00000000000E+00  0.99999998245E-14  0.12500000000E+03  0.12500000000E+03 0.  0.
        -13    1    3    3    0    0 -0.42338281039E+02  0.32422866701E+02  0.26491045999E+02  0.59544596805E+02  0.10566000000E+00 0.  1.
         23    2    1    0    0    0 -0.12583027968E+02  0.13196221565E+02  0.23722933661E+02  0.95079264081E+02  0.90248634452E+02 0.  0.
         13    1    3    3    0    0  0.29755253071E+02 -0.19226645136E+02 -0.27681123385E+01  0.35534667277E+02  0.10566000000E+00 0. -1.
         22    1    1    0    0    0  0.12583027968E+02 -0.13196221565E+02 -0.23722933661E+02  0.29920735919E+02  0.00000000000E+00 0.  1.
</event>
<event>
 5    1  0.9041381E-005  0.9118800E+02  0.7818608E-02  0.1130116E+00
         25   -1    0    0    0    0  0.00000000000E+00  0.00000000000E+00  0.99999998245E-14  0.12500000000E+03  0.12500000000E+03 0.  0.
        -13    1    3    3    0    0  0.90394066528E+01  0.43272966972E+02  0.27709706554E+02  0.52173743823E+02  0.10566000000E+00 0. -1.
         23    2    1    0    0    0  0.18750916690E+02  0.90397825373E+00  0.22101475942E+02  0.96001908818E+02  0.91517633299E+02 0.  0.
         13    1    3    3    0    0  0.97115100367E+01 -0.42368988718E+02 -0.56082306118E+01  0.43828164995E+02  0.10566000000E+00 0.  1.
         22    1    1    0    0    0 -0.18750916690E+02 -0.90397825373E+00 -0.22101475942E+02  0.28998091182E+02  0.00000000000E+00 0.  1.
</event>
<event>
 5    1  0.9041381E-005  0.9118800E+02  0.7818608E-02  0.1130116E+00
         25   -1    0    0    0    0  0.00000000000E+00  0.00000000000E+00  0.99999998245E-14  0.12500000000E+03  0.12500000000E+03 0.  0.
        -13    1    3    3    0    0 -0.27189818514E+02  0.19233398283E+02  0.26998176686E+02  0.42873331440E+02  0.10566000000E+00 0. -1.
         23    2    1    0    0    0  0.42291509943E+01 -0.22119570556E+02  0.19231271618E+02  0.95385764778E+02  0.90672163284E+02 0.  0.
         13    1    3    3    0    0  0.31418969508E+02 -0.41352968839E+02 -0.77669050677E+01  0.52512433338E+02  0.10566000000E+00 0.  1.
         22    1    1    0    0    0 -0.42291509943E+01  0.22119570556E+02 -0.19231271618E+02  0.29614235222E+02  0.00000000000E+00 0.  1.
</event>
<event>
 5    1  0.9041381E-005  0.9118800E+02  0.7818608E-02  0.1130116E+00
         25   -1    0    0    0    0  0.00000000000E+00  0.00000000000E+00  0.99999998245E-14  0.12500000000E+03  0.12500000000E+03 0.  0.
        -13    1    3    3    0    0  0.14031953956E+02 -0.96084553896E+01 -0.43777442150E+02  0.46964813979E+02  0.10566000000E+00 0.  1.
         23    2    1    0    0    0  0.29567712327E+02 -0.48978027539E+01  0.14263364327E+01  0.94995458349E+02  0.90132483530E+02 0.  0.
         13    1    3    3    0    0  0.15535758371E+02  0.47106526357E+01  0.45203778583E+02  0.48030644370E+02  0.10566000000E+00 0. -1.
         22    1    1    0    0    0 -0.29567712327E+02  0.48978027539E+01 -0.14263364327E+01  0.30004541651E+02  0.00000000000E+00 0. -1.
</event>
<event>
 5    1  0.9041381E-005  0.9118800E+02  0.7818608E-02  0.1130116E+00
         25   -1    0    0    0    0  0.00000000000E+00  0.00000000000E+00  0.99999998245E-14  0.12500000000E+03  0.12500000000E+03 0.  0.
        -13    1    3    3    0    0  0.21643125157E+02 -0.22425744783E+02  0.32027135826E+02  0.44688784822E+02  0.10566000000E+00 0.  1.
         23    2    1    0    0    0 -0.22946743587E+02 -0.30306876490E+01  0.19067285739E+02  0.95011677368E+02  0.90154974028E+02 0.  0.
         13    1    3    3    0    0 -0.44589868744E+02  0.19395057134E+02 -0.12959850087E+02  0.50322892546E+02  0.10566000000E+00 0. -1.
         22    1    1    0    0    0  0.22946743587E+02  0.30306876490E+01 -0.19067285739E+02  0.29988322632E+02  0.00000000000E+00 0. -1.
</event>
<event>
 5    1  0.9041381E-005  0.9118800E+02  0.7818608E-02  0.1130116E+00
         25   -1    0    0    0    0  0.00000000000E+00  0.00000000000E+00  0.99999998245E-14  0.12500000000E+03  0.12500000000E+03 0.  0.
        -13    1    3    3    0    0  0.26927762271E+02 -0.37895054673E+02  0.25098518538E+02  0.52830732973E+02  0.10566000000E+00 0. -1.
         23    2    1    0    0    0 -0.11964069571E+02 -0.23149045821E+02  0.89859961527E+01  0.97436157562E+02  0.93456082683E+02 0.  0.
         13    1    3    3    0    0 -0.38891831842E+02  0.14746008852E+02 -0.16112522385E+02  0.44605424589E+02  0.10566000000E+00 0.  1.
         22    1    1    0    0    0  0.11964069571E+02  0.23149045821E+02 -0.89859961527E+01  0.27563842438E+02  0.00000000000E+00 0. -1.
</event>
<event>
 5    1  0.9041381E-005  0.9118800E+02  0.7818608E-02  0.1130116E+00
         25   -1    0    0    0    0  0.00000000000E+00  0.00000000000E+00  0.99999998245E-14  0.12500000000E+03  0.12500000000E+03 0.  0.
        -13    1    3    3    0    0  0.60574507292E+01 -0.40330882527E+02 -0.44232862236E+02  0.60165023563E+02  0.10566000000E+00 0.  1.
         23    2    1    0    0    0  0.12777446179E+02 -0.13127469156E+02 -0.24371149833E+02  0.94511534616E+02  0.89458837764E+02 0.  0.
         13    1    3    3    0    0  0.67199954494E+01  0.27203413371E+02  0.19861712404E+02  0.34346511053E+02  0.10566000000E+00 0. -1.
         22    1    1    0    0    0 -0.12777446179E+02  0.13127469156E+02  0.24371149833E+02  0.30488465384E+02  0.00000000000E+00 0.  1.
</event>
<event>
 5    1  0.9041381E-005  0.9118800E+02  0.7818608E-02  0.1130116E+00
         25   -1    0    0    0    0  0.00000000000E+00  0.00000000000E+00  0.99999998245E-14  0.12500000000E+03  0.12500000000E+03 0.  0.
        -13    1    3    3    0    0 -0.31572534201E+02 -0.40672151947E+01 -0.25980830525E+02  0.41089924241E+02  0.10566000000E+00 0. -1.
         23    2    1    0    0    0 -0.44339133819E+01 -0.24315685026E+02  0.16400920302E+02  0.95336852612E+02  0.90604708228E+02 0.  0.
         13    1    3    3    0    0  0.27138620819E+02 -0.20248469832E+02  0.42381750827E+02  0.54246928371E+02  0.10566000000E+00 0.  1.
         22    1    1    0    0    0  0.44339133819E+01  0.24315685026E+02 -0.16400920302E+02  0.29663147388E+02  0.00000000000E+00 0.  1.
</event>
<event>
 5    1  0.9041381E-005  0.9118800E+02  0.7818608E-02  0.1130116E+00
         25   -1    0    0    0    0  0.00000000000E+00  0.00000000000E+00  0.99999998245E-14  0.12500000000E+03  0.12500000000E+03 0.  0.
        -13    1    3    3    0    0  0.37599935834E+02 -0.11092479273E+01 -0.81030045663E+01  0.38479286022E+02  0.10566000000E+00 0.  1.
         23    2    1    0    0    0 -0.16680625652E+02 -0.20432984318E+02 -0.11560854289E+02  0.96200634170E+02  0.91788662386E+02 0.  0.
         13    1    3    3    0    0 -0.54280561486E+02 -0.19323736391E+02 -0.34578497225E+01  0.57721348149E+02  0.10566000000E+00 0. -1.
         22    1    1    0    0    0  0.16680625652E+02  0.20432984318E+02  0.11560854289E+02  0.28799365830E+02  0.00000000000E+00 0. -1.
</event>
<event>
 5    1  0.9041381E-005  0.9118800E+02  0.7818608E-02  0.1130116E+00
         25   -1    0    0    0    0  0.00000000000E+00  0.00000000000E+00  0.99999998245E-14  0.12500000000E+03  0.12500000000E+03 0.  0.
        -13    1    3    3    0    0 -0.20888428089E+02  0.32737514203E+02 -0.16982657342E+02  0.42385057257E+02  0.10566000000E+00 0.  1.
         23    2    1    0    0    0  0.22108750455E+02  0.16742343301E+01 -0.19477178079E+02  0.95487962233E+02  0.90812942680E+02 0.  0.
         13    1    3    3    0    0  0.42997178544E+02 -0.31063279873E+02 -0.24945207369E+01  0.53102904976E+02  0.10566000000E+00 0. -1.
         22    1    1    0    0    0 -0.22108750455E+02 -0.16742343301E+01  0.19477178079E+02  0.29512037767E+02  0.00000000000E+00 0.  1.
</event>
<event>
 5    1  0.9041381E-005  0.9118800E+02  0.7818608E-02  0.1130116E+00
         25   -1    0    0    0    0  0.00000000000E+00  0.00000000000E+00  0.99999998245E-14  0.12500000000E+03  0.12500000000E+03 0.  0.
        -13    1    3    3    0    0  0.32097633460E+02 -0.17058488822E+02 -0.24631862017E+02  0.43908881848E+02  0.10566000000E+00 0.  1.
         23    2    1    0    0    0  0.16925542767E+02  0.17526222992E+02  0.13136017462E+02  0.97319728233E+02  0.93300225393E+02 0.  0.
         13    1    3    3    0    0 -0.15172090694E+02  0.34584711814E+02  0.37767879479E+02  0.53410846386E+02  0.10566000000E+00 0. -1.
         22    1    1    0    0    0 -0.16925542767E+02 -0.17526222992E+02 -0.13136017462E+02  0.27680271767E+02  0.00000000000E+00 0. -1.
</event>
<event>
 5    1  0.9041381E-005  0.9118800E+02  0.7818608E-02  0.1130116E+00
         25   -1    0    0    0    0  0.00000000000E+00  0.00000000000E+00  0.99999998245E-14  0.12500000000E+03  0.12500000000E+03 0.  0.
        -13    1    3    3    0    0  0.13885732188E+02  0.40977655987E+02 -0.22266780402E+02  0.48660071127E+02  0.10566000000E+00 0.  1.
         23    2    1    0    0    0  0.35496436544E+01 -0.67962882609E+01 -0.26203504300E+02  0.97697744749E+02  0.93805310017E+02 0.  0.
         13    1    3    3    0    0 -0.10336088534E+02 -0.47773944248E+02 -0.39367238971E+01  0.49037673622E+02  0.10566000000E+00 0. -1.
         22    1    1    0    0    0 -0.35496436544E+01  0.67962882609E+01  0.26203504300E+02  0.27302255251E+02  0.00000000000E+00 0.  1.
</event>
<event>
 5    1  0.9041381E-005  0.9118800E+02  0.7818608E-02  0.1130116E+00
         25   -1    0    0    0    0  0.00000000000E+00  0.00000000000E+00  0.99999998245E-14  0.12500000000E+03  0.12500000000E+03 0.  0.
        -13    1    3    3    0    0 -0.49558696991E+02 -0.48088847188E+01 -0.93413121878E+00  0.49800337196E+02  0.10566000000E+00 0. -1.
         23    2    1    0    0    0 -0.12599792285E+02 -0.19266482905E+02 -0.20614563760E+02  0.94098343601E+02  0.88879614649E+02 0.  0.
         13    1    3    3    0    0  0.36958904706E+02 -0.14457598187E+02 -0.19680432542E+02  0.44298006405E+02  0.10566000000E+00 0.  1.
         22    1    1    0    0    0  0.12599792285E+02  0.19266482905E+02  0.20614563760E+02  0.30901656399E+02  0.00000000000E+00 0.  1.
</event>
<event>
 5    1  0.9041381E-005  0.9118800E+02  0.7818608E-02  0.1130116E+00
         25   -1    0    0    0    0  0.00000000000E+00  0.00000000000E+00  0.99999998245E-14  0.12500000000E+03  0.12500000000E+03 0.  0.
        -13    1    3    3    0    0 -0.18302844120E+02 -0.28211126627E+02  0.21790152458E+02  0.40070982975E+02  0.10566000000E+00 0. -1.
         23    2    1    0    0    0 -0.69121000636E+01 -0.64772589304E+01 -0.27924986509E+02  0.95512089221E+02  0.90846146343E+02 0.  0.
         13    1    3    3    0    0  0.11390744056E+02  0.21733867696E+02 -0.49715138967E+02  0.55441106246E+02  0.10566000000E+00 0.  1.
         22    1    1    0    0    0  0.69121000636E+01  0.64772589304E+01  0.27924986509E+02  0.29487910779E+02  0.00000000000E+00 0.  1.
</event>
<event>
 5    1  0.9041381E-005  0.9118800E+02  0.7818608E-02  0.1130116E+00
         25   -1    0    0    0    0  0.00000000000E+00  0.00000000000E+00  0.99999998245E-14  0.12500000000E+03  0.12500000000E+03 0.  0.
        -13    1    3    3    0    0  0.30524829281E+02 -0.19178690141E+02 -0.18326493925E+02  0.40440807383E+02  0.10566000000E+00 0.  1.
         23    2    1    0    0    0  0.16680756529E+02  0.25782511446E+02  0.64663720406E+01  0.93618484705E+02  0.88202160837E+02 0.  0.
         13    1    3    3    0    0 -0.13844072752E+02  0.44961201587E+02  0.24792865966E+02  0.53177677322E+02  0.10566000000E+00 0. -1.
         22    1    1    0    0    0 -0.16680756529E+02 -0.25782511446E+02 -0.64663720406E+01  0.31381515295E+02  0.00000000000E+00 0. -1.
</event>
<event>
 5    1  0.9041381E-005  0.9118800E+02  0.7818608E-02  0.1130116E+00
         25   -1    0    0    0    0  0.00000000000E+00  0.00000000000E+00  0.99999998245E-14  0.12500000000E+03  0.12500000000E+03 0.  0.
        -13    1    3    3    0    0 -0.26069507490E+02  0.23123864127E+02 -0.15794555575E+02  0.38259789110E+02  0.10566000000E+00 0. -1.
         23    2    1    0    0    0  0.27357881025E+02  0.15617891863E+01 -0.18649367505E+01  0.97534188001E+02  0.93587109157E+02 0.  0.
         13    1    3    3    0    0  0.53427388515E+02 -0.21562074940E+02  0.13929618825E+02  0.59274398891E+02  0.10566000000E+00 0.  1.
         22    1    1    0    0    0 -0.27357881025E+02 -0.15617891863E+01  0.18649367505E+01  0.27465811999E+02  0.00000000000E+00 0.  1.
</event>
<event>
 5    1  0.9041381E-005  0.9118800E+02  0.7818608E-02  0.1130116E+00
         25   -1    0    0    0    0  0.00000000000E+00  0.00000000000E+00  0.99999998245E-14  0.12500000000E+03  0.12500000000E+03 0.  0.
        -13    1    3    3    0    0 -0.26956314310E+02  0.48851827112E+02  0.17282717086E+02  0.58411020940E+02  0.10566000000E+00 0.  1.
         23    2    1    0    0    0 -0.34828823545E+01  0.28540097176E+02 -0.38906050811E+01  0.95986133932E+02  0.91496084523E+02 0.  0.
         13    1    3    3    0    0  0.23473431956E+02 -0.20311729936E+02 -0.21173322167E+02  0.37575112992E+02  0.10566000000E+00 0. -1.
         22    1    1    0    0    0  0.34828823545E+01 -0.28540097176E+02  0.38906050811E+01  0.29013866068E+02  0.00000000000E+00 0.  1.
</event>
<event>
 5    1  0.9041381E-005  0.9118800E+02  0.7818608E-02  0.1130116E+00
         25   -1    0    0    0    0  0.00000000000E+00  0.00000000000E+00  0.99999998245E-14  0.12500000000E+03  0.12500000000E+03 0.  0.
        -13    1    3    3    0    0 -0.42303168171E+02  0.31602893889E+02 -0.11786752171E+02  0.54103970559E+02  0.10566000000E+00 0.  1.
         23    2    1    0    0    0 -0.22646811642E+02 -0.48577633437E+01 -0.17570658921E+02  0.95927607646E+02  0.91416092191E+02 0.  0.
         13    1    3    3    0    0  0.19656356529E+02 -0.36460657233E+02 -0.57839067504E+01  0.41823637087E+02  0.10566000000E+00 0. -1.
         22    1    1    0    0    0  0.22646811642E+02  0.48577633437E+01  0.17570658921E+02  0.29072392354E+02  0.00000000000E+00 0.  1.
</event>
<event>
 5    1  0.9041381E-005  0.9118800E+02  0.7818608E-02  0.1130116E+00
         25   -1    0    0    0    0  0.00000000000E+00  0.00000000000E+00  0.99999998245E-14  0.12500000000E+03  0.12500000000E+03 0.  0.
        -13    1    3    3    0    0  0.66289191824E+00  0.31787164930E+02 -0.12784730558E+02  0.34268407892E+02  0.10566000000E+00 0. -1.
         23    2    1    0    0    0 -0.11160041008E+02 -0.18908108312E+02  0.19593895661E+02  0.95572396930E+02  0.90929089034E+02 0.  0.
         13    1    3    3    0    0 -0.11822932926E+02 -0.50695273242E+02  0.32378626220E+02  0.61303989038E+02  0.10566000000E+00 0.  1.
         22    1    1    0    0    0  0.11160041008E+02  0.18908108312E+02 -0.19593895661E+02  0.29427603070E+02  0.00000000000E+00 0.  1.
</event>
<event>
 5    1  0.9041381E-005  0.9118800E+02  0.7818608E-02  0.1130116E+00
         25   -1    0    0    0    0  0.00000000000E+00  0.00000000000E+00  0.99999998245E-14  0.12500000000E+03  0.12500000000E+03 0.  0.
        -13    1    3    3    0    0 -0.25417892164E+02  0.43491810445E+02 -0.21768028794E+02  0.54876817140E+02  0.10566000000E+00 0. -1.
         23    2    1    0    0    0 -0.44704685057E+00  0.11779417535E+02 -0.26962390313E+02  0.95573396055E+02  0.90930462518E+02 0.  0.
         13    1    3    3    0    0  0.24970845314E+02 -0.31712392910E+02 -0.51943615194E+01  0.40696578915E+02  0.10566000000E+00 0.  1.
         22    1    1    0    0    0  0.44704685057E+00 -0.11779417535E+02  0.26962390313E+02  0.29426603945E+02  0.00000000000E+00 0. -1.
</event>
<event>
 5    1  0.9041381E-005  0.9118800E+02  0.7818608E-02  0.1130116E+00
         25   -1    0    0    0    0  0.00000000000E+00  0.00000000000E+00  0.99999998245E-14  0.12500000000E+03  0.12500000000E+03 0.  0.
        -13    1    3    3    0    0  0.41351461555E+02  0.15356509636E+02  0.34720412613E+02  0.56136298212E+02  0.10566000000E+00 0.  1.
         23    2    1    0    0    0  0.53174308691E+01  0.33869927390E+00  0.28908033127E+02  0.95605031595E+02  0.90973940768E+02 0.  0.
         13    1    3    3    0    0 -0.36034030686E+02 -0.15017810362E+02 -0.58123794856E+01  0.39468733383E+02  0.10566000000E+00 0. -1.
         22    1    1    0    0    0 -0.53174308691E+01 -0.33869927390E+00 -0.28908033127E+02  0.29394968405E+02  0.00000000000E+00 0.  1.
</event>
<event>
 5    1  0.9041381E-005  0.9118800E+02  0.7818608E-02  0.1130116E+00
         25   -1    0    0    0    0  0.00000000000E+00  0.00000000000E+00  0.99999998245E-14  0.12500000000E+03  0.12500000000E+03 0.  0.
        -13    1    3    3    0    0  0.22053538838E+02  0.11791380114E+02  0.22198155426E+02  0.33438966620E+02  0.10566000000E+00 0. -1.
         23    2    1    0    0    0 -0.17323555307E+01 -0.36898475797E+01 -0.30999540741E+02  0.93733603390E+02  0.88365156298E+02 0.  0.
         13    1    3    3    0    0 -0.23785894368E+02 -0.15481227694E+02 -0.53197696166E+02  0.60294636770E+02  0.10566000000E+00 0.  1.
         22    1    1    0    0    0  0.17323555307E+01  0.36898475797E+01  0.30999540741E+02  0.31266396610E+02  0.00000000000E+00 0.  1.
</event>
<event>
 5    1  0.9041381E-005  0.9118800E+02  0.7818608E-02  0.1130116E+00
         25   -1    0    0    0    0  0.00000000000E+00  0.00000000000E+00  0.99999998245E-14  0.12500000000E+03  0.12500000000E+03 0.  0.
        -13    1    3    3    0    0  0.31799662387E+02  0.26311966209E+02 -0.26554553598E+01  0.41359408856E+02  0.10566000000E+00 0. -1.
         23    2    1    0    0    0 -0.21888816252E+02  0.19070475382E+02  0.29305754288E+01  0.95821384876E+02  0.91270730352E+02 0.  0.
         13    1    3    3    0    0 -0.53688478639E+02 -0.72414908265E+01  0.55860307886E+01  0.54461976020E+02  0.10566000000E+00 0.  1.
         22    1    1    0    0    0  0.21888816252E+02 -0.19070475382E+02 -0.29305754288E+01  0.29178615124E+02  0.00000000000E+00 0.  1.
</event>
<event>
 5    1  0.9041381E-005  0.9118800E+02  0.7818608E-02  0.1130116E+00
         25   -1    0    0    0    0  0.00000000000E+00  0.00000000000E+00  0.99999998245E-14  0.12500000000E+03  0.12500000000E+03 0.  0.
        -13    1    3    3    0    0 -0.34804957499E+02 -0.31367817114E+02 -0.33110552697E+02  0.57372858400E+02  0.10566000000E+00 0. -1.
         23    2    1    0    0    0 -0.24646666310E+02 -0.16167447253E+02  0.37175011612E+00  0.95521487333E+02  0.90859076780E+02 0.  0.
         13    1    3    3    0    0  0.10158291189E+02  0.15200369860E+02  0.33482302813E+02  0.38148628933E+02  0.10566000000E+00 0.  1.
         22    1    1    0    0    0  0.24646666310E+02  0.16167447253E+02 -0.37175011612E+00  0.29478512667E+02  0.00000000000E+00 0. -1.
</event>
<event>
 5    1  0.9041381E-005  0.9118800E+02  0.7818608E-02  0.1130116E+00
         25   -1    0    0    0    0  0.00000000000E+00  0.00000000000E+00  0.99999998245E-14  0.12500000000E+03  0.12500000000E+03 0.  0.
        -13    1    3    3    0    0 -0.44860851215E+01  0.32374425163E+02 -0.13970579182E+02  0.35544572174E+02  0.10566000000E+00 0.  1.
         23    2    1    0    0    0 -0.21698446777E+02 -0.20985341269E+02  0.42897647997E+01  0.94510506355E+02  0.89457400972E+02 0.  0.
         13    1    3    3    0    0 -0.17212361656E+02 -0.53359766432E+02  0.18260343982E+02  0.58965934180E+02  0.10566000000E+00 0. -1.
         22    1    1    0    0    0  0.21698446777E+02  0.20985341269E+02 -0.42897647997E+01  0.30489493645E+02  0.00000000000E+00 0. -1.
</event>
<event>
 5    1  0.9041381E-005  0.9118800E+02  0.7818608E-02  0.1130116E+00
         25   -1    0    0    0    0  0.00000000000E+00  0.00000000000E+00  0.99999998245E-14  0.12500000000E+03  0.12500000000E+03 0.  0.
        -13    1    3    3    0    0 -0.57195165020E+02  0.20376566987E+02 -0.90970060943E+01  0.61394283674E+02  0.10566000000E+00 0.  1.
         23    2    1    0    0    0 -0.23735859907E+02  0.17247443271E+02 -0.46726379043E+01  0.95289751097E+02  0.90539702750E+02 0.  0.
         13    1    3    3    0    0  0.33459305114E+02 -0.31291237153E+01  0.44243681901E+01  0.33895467423E+02  0.10566000000E+00 0. -1.
         22    1    1    0    0    0  0.23735859907E+02 -0.17247443271E+02  0.46726379043E+01  0.29710248903E+02  0.00000000000E+00 0.  1.
</event>
<event>
 5    1  0.9041381E-005  0.9118800E+02  0.7818608E-02  0.1130116E+00
         25   -1    0    0    0    0  0.00000000000E+00  0.00000000000E+00  0.99999998245E-14  0.12500000000E+03  0.12500000000E+03 0.  0.
        -13    1    3    3    0    0  0.35239989806E+02  0.23936991596E+02  0.21695942914E+02  0.47807547010E+02  0.10566000000E+00 0.  1.
         23    2    1    0    0    0 -0.18557741649E+01  0.29806358332E+02 -0.60840721606E+01  0.94522486505E+02  0.89474139428E+02 0.  0.
         13    1    3    3    0    0 -0.37095763971E+02  0.58693667355E+01 -0.27780015074E+02  0.46714939495E+02  0.10566000000E+00 0. -1.
         22    1    1    0    0    0  0.18557741649E+01 -0.29806358332E+02  0.60840721606E+01  0.30477513495E+02  0.00000000000E+00 0. -1.
</event>
<event>
 5    1  0.9041381E-005  0.9118800E+02  0.7818608E-02  0.1130116E+00
         25   -1    0    0    0    0  0.00000000000E+00  0.00000000000E+00  0.99999998245E-14  0.12500000000E+03  0.12500000000E+03 0.  0.
        -13    1    3    3    0    0  0.15950696110E+02 -0.88273569707E+01 -0.56066693156E+02  0.58956188674E+02  0.10566000000E+00 0.  1.
         23    2    1    0    0    0 -0.17816344118E+01 -0.15763081186E+02 -0.25405738310E+02  0.95048364173E+02  0.90205825993E+02 0.  0.
         13    1    3    3    0    0 -0.17732330522E+02 -0.69357242156E+01  0.30660954846E+02  0.36092175499E+02  0.10566000000E+00 0. -1.
         22    1    1    0    0    0  0.17816344118E+01  0.15763081186E+02  0.25405738310E+02  0.29951635827E+02  0.00000000000E+00 0.  1.
</event>
<event>
 5    1  0.9041381E-005  0.9118800E+02  0.7818608E-02  0.1130116E+00
         25   -1    0    0    0    0  0.00000000000E+00  0.00000000000E+00  0.99999998245E-14  0.12500000000E+03  0.12500000000E+03 0.  0.
        -13    1    3    3    0    0  0.26282009413E+02  0.54145584365E+02 -0.67262110693E+01  0.60561880786E+02  0.10566000000E+00 0. -1.
         23    2    1    0    0    0  0.32953612961E+01  0.29669136344E+02 -0.77611446103E+01  0.94155998587E+02  0.88960663480E+02 0.  0.
         13    1    3    3    0    0 -0.22986648117E+02 -0.24476448020E+02 -0.10349335410E+01  0.33594117801E+02  0.10566000000E+00 0.  1.
         22    1    1    0    0    0 -0.32953612961E+01 -0.29669136344E+02  0.77611446103E+01  0.30844001413E+02  0.00000000000E+00 0. -1.
</event>
<event>
 5    1  0.9041381E-005  0.9118800E+02  0.7818608E-02  0.1130116E+00
         25   -1    0    0    0    0  0.00000000000E+00  0.00000000000E+00  0.99999998245E-14  0.12500000000E+03  0.12500000000E+03 0.  0.
        -13    1    3    3    0    0 -0.83702267132E+00  0.98686044298E+00  0.34797231065E+02  0.34821443886E+02  0.10566000000E+00 0. -1.
         23    2    1    0    0    0 -0.11743450244E+02 -0.12962435666E+02 -0.23475376525E+02  0.95724982237E+02  0.91138606305E+02 0.  0.
         13    1    3    3    0    0 -0.10906427573E+02 -0.13949296109E+02 -0.58272607590E+02  0.60903538351E+02  0.10566000000E+00 0.  1.
         22    1    1    0    0    0  0.11743450244E+02  0.12962435666E+02  0.23475376525E+02  0.29275017763E+02  0.00000000000E+00 0.  1.
</event>
<event>
 5    1  0.9041381E-005  0.9118800E+02  0.7818608E-02  0.1130116E+00
         25   -1    0    0    0    0  0.00000000000E+00  0.00000000000E+00  0.99999998245E-14  0.12500000000E+03  0.12500000000E+03 0.  0.
        -13    1    3    3    0    0 -0.25083627931E+02 -0.29584728963E+02  0.23367733456E+02  0.45282521009E+02  0.10566000000E+00 0. -1.
         23    2    1    0    0    0  0.11074020719E+02 -0.29217613779E+02 -0.75465139233E+01  0.92855750713E+02  0.87114509000E+02 0.  0.
         13    1    3    3    0    0  0.36157648650E+02  0.36711518388E+00 -0.30914247380E+02  0.47573229705E+02  0.10566000000E+00 0.  1.
         22    1    1    0    0    0 -0.11074020719E+02  0.29217613779E+02  0.75465139233E+01  0.32144249287E+02  0.00000000000E+00 0. -1.
</event>
<event>
 5    1  0.9041381E-005  0.9118800E+02  0.7818608E-02  0.1130116E+00
         25   -1    0    0    0    0  0.00000000000E+00  0.00000000000E+00  0.99999998245E-14  0.12500000000E+03  0.12500000000E+03 0.  0.
        -13    1    3    3    0    0 -0.50180089519E+02  0.30061911312E+02 -0.21959323464E+02  0.62481860943E+02  0.10566000000E+00 0. -1.
         23    2    1    0    0    0 -0.23416866559E+02  0.13407815290E+02 -0.11108216323E+02  0.95819327969E+02  0.91267913268E+02 0.  0.
         13    1    3    3    0    0  0.26763222960E+02 -0.16654096022E+02  0.10851107141E+02  0.33337467026E+02  0.10566000000E+00 0.  1.
         22    1    1    0    0    0  0.23416866559E+02 -0.13407815290E+02  0.11108216323E+02  0.29180672031E+02  0.00000000000E+00 0. -1.
</event>
<event>
 5    1  0.9041381E-005  0.9118800E+02  0.7818608E-02  0.1130116E+00
         25   -1    0    0    0    0  0.00000000000E+00  0.00000000000E+00  0.99999998245E-14  0.12500000000E+03  0.12500000000E+03 0.  0.
        -13    1    3    3    0    0 -0.33402325486E+02 -0.33644933993E+02 -0.15825050154E+02  0.49981399617E+02  0.10566000000E+00 0. -1.
         23    2    1    0    0    0 -0.23744692833E+02 -0.94261647713E+01  0.18767812304E+02  0.93299940084E+02  0.87749558523E+02 0.  0.
         13    1    3    3    0    0  0.96576326525E+01  0.24218769222E+02  0.34592862458E+02  0.43318540467E+02  0.10566000000E+00 0.  1.
         22    1    1    0    0    0  0.23744692833E+02  0.94261647713E+01 -0.18767812304E+02  0.31700059916E+02  0.00000000000E+00 0. -1.
</event>
<event>
 5    1  0.9041381E-005  0.9118800E+02  0.7818608E-02  0.1130116E+00
         25   -1    0    0    0    0  0.00000000000E+00  0.00000000000E+00  0.99999998245E-14  0.12500000000E+03  0.12500000000E+03 0.  0.
        -13    1    3    3    0    0  0.22199895553E+02  0.60583873834E+01 -0.37795998626E+02  0.44250289225E+02  0.10566000000E+00 0. -1.
         23    2    1    0    0    0 -0.23607785158E+02  0.51466383152E+01 -0.20800440519E+02  0.93117814821E+02  0.87489734856E+02 0.  0.
         13    1    3    3    0    0 -0.45807680711E+02 -0.91174906824E+00  0.16995558108E+02  0.48867525596E+02  0.10566000000E+00 0.  1.
         22    1    1    0    0    0  0.23607785158E+02 -0.51466383152E+01  0.20800440519E+02  0.31882185179E+02  0.00000000000E+00 0. -1.
</event>
<event>
 5    1  0.9041381E-005  0.9118800E+02  0.7818608E-02  0.1130116E+00
         25   -1    0    0    0    0  0.00000000000E+00  0.00000000000E+00  0.99999998245E-14  0.12500000000E+03  0.12500000000E+03 0.  0.
        -13    1    3    3    0    0  0.17909054201E+02  0.33337879428E+02 -0.41608524897E+02  0.56244368031E+02  0.10566000000E+00 0. -1.
         23    2    1    0    0    0 -0.55278412161E+01  0.26608216565E+02 -0.10279363087E+02  0.95944544011E+02  0.91439247605E+02 0.  0.
         13    1    3    3    0    0 -0.23436895417E+02 -0.67296628629E+01  0.31329161810E+02  0.39700175979E+02  0.10566000000E+00 0.  1.
         22    1    1    0    0    0  0.55278412161E+01 -0.26608216565E+02  0.10279363087E+02  0.29055455989E+02  0.00000000000E+00 0. -1.
</event>
<event>
 5    1  0.9041381E-005  0.9118800E+02  0.7818608E-02  0.1130116E+00
         25   -1    0    0    0    0  0.00000000000E+00  0.00000000000E+00  0.99999998245E-14  0.12500000000E+03  0.12500000000E+03 0.  0.
        -13    1    3    3    0    0 -0.15543630023E+02 -0.44528749030E+02  0.30829606400E+02  0.56346159756E+02  0.10566000000E+00 0.  1.
         23    2    1    0    0    0  0.14159618522E+00 -0.29207406206E+02 -0.18875174515E+01  0.95731324784E+02  0.91147304930E+02 0.  0.
         13    1    3    3    0    0  0.15685226208E+02  0.15321342824E+02 -0.32717123852E+02  0.39385165028E+02  0.10566000000E+00 0. -1.
         22    1    1    0    0    0 -0.14159618522E+00  0.29207406206E+02  0.18875174515E+01  0.29268675216E+02  0.00000000000E+00 0.  1.
</event>
<event>
 5    1  0.9041381E-005  0.9118800E+02  0.7818608E-02  0.1130116E+00
         25   -1    0    0    0    0  0.00000000000E+00  0.00000000000E+00  0.99999998245E-14  0.12500000000E+03  0.12500000000E+03 0.  0.
        -13    1    3    3    0    0 -0.48484556639E+01  0.49026625687E+02  0.25059461758E+02  0.55273007302E+02  0.10566000000E+00 0.  1.
         23    2    1    0    0    0 -0.20241031354E+02  0.21665055004E+02  0.14754836450E+00  0.95350451452E+02  0.90623467507E+02 0.  0.
         13    1    3    3    0    0 -0.15392575690E+02 -0.27361570683E+02 -0.24911913393E+02  0.40077444150E+02  0.10566000000E+00 0. -1.
         22    1    1    0    0    0  0.20241031354E+02 -0.21665055004E+02 -0.14754836450E+00  0.29649548548E+02  0.00000000000E+00 0.  1.
</event>
<event>
 5    1  0.9041381E-005  0.9118800E+02  0.7818608E-02  0.1130116E+00
         25   -1    0    0    0    0  0.00000000000E+00  0.00000000000E+00  0.99999998245E-14  0.12500000000E+03  0.12500000000E+03 0.  0.
        -13    1    3    3    0    0  0.99148710000E+01 -0.24710998875E+02  0.49064545178E+02  0.55823640959E+02  0.10566000000E+00 0.  1.
         23    2    1    0    0    0  0.24286070299E+02 -0.24346011560E+02  0.34416653548E+02  0.76347687301E+02  0.58838098417E+02 0.  0.
         13    1    3    3    0    0  0.14371199299E+02  0.36498731467E+00 -0.14647891630E+02  0.20524046343E+02  0.10566000000E+00 0. -1.
         22    1    1    0    0    0 -0.24286070299E+02  0.24346011560E+02 -0.34416653548E+02  0.48652312699E+02  0.00000000000E+00 0.  1.
</event>
<event>
 5    1  0.9041381E-005  0.9118800E+02  0.7818608E-02  0.1130116E+00
         25   -1    0    0    0    0  0.00000000000E+00  0.00000000000E+00  0.99999998245E-14  0.12500000000E+03  0.12500000000E+03 0.  0.
        -13    1    3    3    0    0 -0.40286385523E+02 -0.67018608193E+00 -0.18836773555E+02  0.44477828295E+02  0.10566000000E+00 0. -1.
         23    2    1    0    0    0  0.14810312854E+02  0.13852825983E+02 -0.10811115729E+02  0.10201899963E+03  0.99396931081E+02 0.  0.
         13    1    3    3    0    0  0.55096698376E+02  0.14523012065E+02  0.80256578260E+01  0.57541171338E+02  0.10566000000E+00 0.  1.
         22    1    1    0    0    0 -0.14810312854E+02 -0.13852825983E+02  0.10811115729E+02  0.22981000366E+02  0.00000000000E+00 0.  1.
</event>
<event>
 5    1  0.9041381E-005  0.9118800E+02  0.7818608E-02  0.1130116E+00
         25   -1    0    0    0    0  0.00000000000E+00  0.00000000000E+00  0.99999998245E-14  0.12500000000E+03  0.12500000000E+03 0.  0.
        -13    1    3    3    0    0  0.12532552679E+02  0.35962786134E+02  0.17623025674E+02  0.41963901881E+02  0.10566000000E+00 0. -1.
         23    2    1    0    0    0 -0.19933280538E+02  0.11072736003E+02 -0.17795847204E+02  0.96075385339E+02  0.91617936752E+02 0.  0.
         13    1    3    3    0    0 -0.32465833217E+02 -0.24890050131E+02 -0.35418872878E+02  0.54111483457E+02  0.10566000000E+00 0.  1.
         22    1    1    0    0    0  0.19933280538E+02 -0.11072736003E+02  0.17795847204E+02  0.28924614661E+02  0.00000000000E+00 0.  1.
</event>
<event>
 5    1  0.9041381E-005  0.9118800E+02  0.7818608E-02  0.1130116E+00
         25   -1    0    0    0    0  0.00000000000E+00  0.00000000000E+00  0.99999998245E-14  0.12500000000E+03  0.12500000000E+03 0.  0.
        -13    1    3    3    0    0 -0.42874429223E+02  0.80321292222E+00  0.64327337841E+01  0.43361884878E+02  0.10566000000E+00 0. -1.
         23    2    1    0    0    0 -0.33929948256E+01 -0.18764812438E+02 -0.22063451472E+02  0.95837927190E+02  0.91293383099E+02 0.  0.
         13    1    3    3    0    0  0.39481434398E+02 -0.19568025360E+02 -0.28496185256E+02  0.52476042312E+02  0.10566000000E+00 0.  1.
         22    1    1    0    0    0  0.33929948256E+01  0.18764812438E+02  0.22063451472E+02  0.29162072810E+02  0.00000000000E+00 0.  1.
</event>
<event>
 5    1  0.9041381E-005  0.9118800E+02  0.7818608E-02  0.1130116E+00
         25   -1    0    0    0    0  0.00000000000E+00  0.00000000000E+00  0.99999998245E-14  0.12500000000E+03  0.12500000000E+03 0.  0.
        -13    1    3    3    0    0  0.11837998277E+02 -0.94388900349E+01  0.34361498175E+02  0.37549361768E+02  0.10566000000E+00 0.  1.
         23    2    1    0    0    0 -0.74974516348E+01 -0.21015923675E+02 -0.19139142355E+02  0.95602932136E+02  0.90971056023E+02 0.  0.
         13    1    3    3    0    0 -0.19335449912E+02 -0.11577033640E+02 -0.53500640531E+02  0.58053570368E+02  0.10566000000E+00 0. -1.
         22    1    1    0    0    0  0.74974516348E+01  0.21015923675E+02  0.19139142355E+02  0.29397067864E+02  0.00000000000E+00 0. -1.
</event>
<event>
 5    1  0.9041381E-005  0.9118800E+02  0.7818608E-02  0.1130116E+00
         25   -1    0    0    0    0  0.00000000000E+00  0.00000000000E+00  0.99999998245E-14  0.12500000000E+03  0.12500000000E+03 0.  0.
        -13    1    3    3    0    0  0.37369781242E+02  0.95265816130E+01  0.67937639458E+01  0.39158941507E+02  0.10566000000E+00 0.  1.
         23    2    1    0    0    0  0.43068243380E+00 -0.22522622779E+02 -0.19959434500E+02  0.94902939516E+02  0.90004082569E+02 0.  0.
         13    1    3    3    0    0 -0.36939098809E+02 -0.32049204392E+02 -0.26753198446E+02  0.55743998009E+02  0.10566000000E+00 0. -1.
         22    1    1    0    0    0 -0.43068243380E+00  0.22522622779E+02  0.19959434500E+02  0.30097060484E+02  0.00000000000E+00 0. -1.
</event>
<event>
 5    1  0.9041381E-005  0.9118800E+02  0.7818608E-02  0.1130116E+00
         25   -1    0    0    0    0  0.00000000000E+00  0.00000000000E+00  0.99999998245E-14  0.12500000000E+03  0.12500000000E+03 0.  0.
        -13    1    3    3    0    0 -0.34799592260E+02 -0.72680043511E+01 -0.17562373197E+02  0.39652031789E+02  0.10566000000E+00 0.  1.
         23    2    1    0    0    0  0.16831617748E+02  0.17147437852E+02 -0.14690089668E+02  0.96837316972E+02  0.92651655371E+02 0.  0.
         13    1    3    3    0    0  0.51631210007E+02  0.24415442203E+02  0.28722835287E+01  0.57185285183E+02  0.10566000000E+00 0. -1.
         22    1    1    0    0    0 -0.16831617748E+02 -0.17147437852E+02  0.14690089668E+02  0.28162683028E+02  0.00000000000E+00 0. -1.
</event>
<event>
 5    1  0.9041381E-005  0.9118800E+02  0.7818608E-02  0.1130116E+00
         25   -1    0    0    0    0  0.00000000000E+00  0.00000000000E+00  0.99999998245E-14  0.12500000000E+03  0.12500000000E+03 0.  0.
        -13    1    3    3    0    0 -0.76712071498E+01 -0.43816562712E+01 -0.53701335193E+02  0.54423256944E+02  0.10566000000E+00 0.  1.
         23    2    1    0    0    0 -0.23851277590E+02  0.53052743861E+00 -0.14585817106E+02  0.97037329121E+02  0.92921107830E+02 0.  0.
         13    1    3    3    0    0 -0.16180070440E+02  0.49121837099E+01  0.39115518087E+02  0.42614072177E+02  0.10566000000E+00 0. -1.
         22    1    1    0    0    0  0.23851277590E+02 -0.53052743861E+00  0.14585817106E+02  0.27962670879E+02  0.00000000000E+00 0.  1.
</event>
<event>
 5    1  0.9041381E-005  0.9118800E+02  0.7818608E-02  0.1130116E+00
         25   -1    0    0    0    0  0.00000000000E+00  0.00000000000E+00  0.99999998245E-14  0.12500000000E+03  0.12500000000E+03 0.  0.
        -13    1    3    3    0    0 -0.18337358994E+02  0.82270626704E+01 -0.10753847425E+01  0.20127367225E+02  0.10566000000E+00 0.  1.
         23    2    1    0    0    0  0.25941074477E+02  0.40169146689E+02 -0.11753595725E+02  0.75759298307E+02  0.57574513257E+02 0.  0.
         13    1    3    3    0    0  0.44278433471E+02  0.31942084019E+02 -0.10678210982E+02  0.55631931082E+02  0.10566000000E+00 0. -1.
         22    1    1    0    0    0 -0.25941074477E+02 -0.40169146689E+02  0.11753595725E+02  0.49240701693E+02  0.00000000000E+00 0. -1.
</event>
<event>
 5    1  0.9041381E-005  0.9118800E+02  0.7818608E-02  0.1130116E+00
         25   -1    0    0    0    0  0.00000000000E+00  0.00000000000E+00  0.99999998245E-14  0.12500000000E+03  0.12500000000E+03 0.  0.
        -13    1    3    3    0    0  0.28311396788E+02 -0.24822184728E+02  0.43535782106E+01  0.37903045392E+02  0.10566000000E+00 0.  1.
         23    2    1    0    0    0  0.67764004937E+01  0.28448488847E+02 -0.18570512729E+01  0.95696676626E+02  0.91099775831E+02 0.  0.
         13    1    3    3    0    0 -0.21534996294E+02  0.53270673575E+02 -0.62106294835E+01  0.57793631233E+02  0.10566000000E+00 0. -1.
         22    1    1    0    0    0 -0.67764004937E+01 -0.28448488847E+02  0.18570512729E+01  0.29303323374E+02  0.00000000000E+00 0. -1.
</event>
<event>
 5    1  0.9041381E-005  0.9118800E+02  0.7818608E-02  0.1130116E+00
         25   -1    0    0    0    0  0.00000000000E+00  0.00000000000E+00  0.99999998245E-14  0.12500000000E+03  0.12500000000E+03 0.  0.
        -13    1    3    3    0    0  0.45708994350E+02  0.50084678168E+01  0.17941670900E+02  0.49359007618E+02  0.10566000000E+00 0. -1.
         23    2    1    0    0    0  0.94861771971E+01  0.27264646172E+02 -0.14695901062E+01  0.96094841572E+02  0.91644478246E+02 0.  0.
         13    1    3    3    0    0 -0.36222817153E+02  0.22256178355E+02 -0.19411261006E+02  0.46735833953E+02  0.10566000000E+00 0.  1.
         22    1    1    0    0    0 -0.94861771971E+01 -0.27264646172E+02  0.14695901062E+01  0.28905158428E+02  0.00000000000E+00 0.  1.
</event>
<event>
 5    1  0.9041381E-005  0.9118800E+02  0.7818608E-02  0.1130116E+00
         25   -1    0    0    0    0  0.00000000000E+00  0.00000000000E+00  0.99999998245E-14  0.12500000000E+03  0.12500000000E+03 0.  0.
        -13    1    3    3    0    0  0.14025695038E+01 -0.30510793181E+02 -0.41099701032E+02  0.51206174342E+02  0.10566000000E+00 0.  1.
         23    2    1    0    0    0  0.89885187808E+01 -0.33626824159E+02 -0.31293828356E+01  0.90052184477E+02  0.82994253532E+02 0.  0.
         13    1    3    3    0    0  0.75859492770E+01 -0.31160309778E+01  0.37970318196E+02  0.38846010136E+02  0.10566000000E+00 0. -1.
         22    1    1    0    0    0 -0.89885187808E+01  0.33626824159E+02  0.31293828356E+01  0.34947815523E+02  0.00000000000E+00 0.  1.
</event>
<event>
 5    1  0.9041381E-005  0.9118800E+02  0.7818608E-02  0.1130116E+00
         25   -1    0    0    0    0  0.00000000000E+00  0.00000000000E+00  0.99999998245E-14  0.12500000000E+03  0.12500000000E+03 0.  0.
        -13    1    3    3    0    0 -0.18448439121E+02 -0.23902879930E+02  0.21752271457E+02  0.37213775038E+02  0.10566000000E+00 0. -1.
         23    2    1    0    0    0  0.77240318428E+01  0.24275595356E+02 -0.62363066534E+01  0.98772977323E+02  0.95227329747E+02 0.  0.
         13    1    3    3    0    0  0.26172470964E+02  0.48178475287E+02 -0.27988578111E+02  0.61559202285E+02  0.10566000000E+00 0.  1.
         22    1    1    0    0    0 -0.77240318428E+01 -0.24275595356E+02  0.62363066534E+01  0.26227022677E+02  0.00000000000E+00 0.  1.
</event>
<event>
 5    1  0.9041381E-005  0.9118800E+02  0.7818608E-02  0.1130116E+00
         25   -1    0    0    0    0  0.00000000000E+00  0.00000000000E+00  0.99999998245E-14  0.12500000000E+03  0.12500000000E+03 0.  0.
        -13    1    3    3    0    0 -0.22515194312E+02  0.20602906990E+02 -0.51369390468E+02  0.59751478579E+02  0.10566000000E+00 0.  1.
         23    2    1    0    0    0 -0.20843959645E+02  0.12538378599E+02 -0.16434966708E+02  0.95643744751E+02  0.91027117870E+02 0.  0.
         13    1    3    3    0    0  0.16712346667E+01 -0.80645283915E+01  0.34934423760E+02  0.35892266172E+02  0.10566000000E+00 0. -1.
         22    1    1    0    0    0  0.20843959645E+02 -0.12538378599E+02  0.16434966708E+02  0.29356255249E+02  0.00000000000E+00 0.  1.
</event>
<event>
 5    1  0.9041381E-005  0.9118800E+02  0.7818608E-02  0.1130116E+00
         25   -1    0    0    0    0  0.00000000000E+00  0.00000000000E+00  0.99999998245E-14  0.12500000000E+03  0.12500000000E+03 0.  0.
        -13    1    3    3    0    0  0.11874469344E+02  0.29547130532E+02 -0.24970834875E+02  0.40467143502E+02  0.10566000000E+00 0. -1.
         23    2    1    0    0    0  0.12963589138E+02  0.58624793476E+01  0.25257852590E+02  0.96010649802E+02  0.91529571454E+02 0.  0.
         13    1    3    3    0    0  0.10891197939E+01 -0.23684651184E+02  0.50228687464E+02  0.55543506300E+02  0.10566000000E+00 0.  1.
         22    1    1    0    0    0 -0.12963589138E+02 -0.58624793476E+01 -0.25257852590E+02  0.28989350198E+02  0.00000000000E+00 0. -1.
</event>
<event>
 5    1  0.9041381E-005  0.9118800E+02  0.7818608E-02  0.1130116E+00
         25   -1    0    0    0    0  0.00000000000E+00  0.00000000000E+00  0.99999998245E-14  0.12500000000E+03  0.12500000000E+03 0.  0.
        -13    1    3    3    0    0 -0.35475063255E+02 -0.48765971002E+01  0.13274895483E+02  0.38190251719E+02  0.10566000000E+00 0.  1.
         23    2    1    0    0    0  0.82255308503E+01 -0.18178705677E+02 -0.21549925156E+02  0.95631241563E+02  0.91009946659E+02 0.  0.
         13    1    3    3    0    0  0.43700594105E+02 -0.13302108577E+02 -0.34824820640E+02  0.57440989845E+02  0.10566000000E+00 0. -1.
         22    1    1    0    0    0 -0.82255308503E+01  0.18178705677E+02  0.21549925156E+02  0.29368758437E+02  0.00000000000E+00 0. -1.
</event>
<event>
 5    1  0.9041381E-005  0.9118800E+02  0.7818608E-02  0.1130116E+00
         25   -1    0    0    0    0  0.00000000000E+00  0.00000000000E+00  0.99999998245E-14  0.12500000000E+03  0.12500000000E+03 0.  0.
        -13    1    3    3    0    0  0.11726050533E+02  0.32406999638E+02  0.32475231410E+02  0.47353623999E+02  0.10566000000E+00 0.  1.
         23    2    1    0    0    0 -0.25101731881E+02  0.14170509832E+02  0.84290946470E+01  0.94967518769E+02  0.90093727264E+02 0.  0.
         13    1    3    3    0    0 -0.36827782414E+02 -0.18236489806E+02 -0.24046136763E+02  0.47613894770E+02  0.10566000000E+00 0. -1.
         22    1    1    0    0    0  0.25101731881E+02 -0.14170509832E+02 -0.84290946470E+01  0.30032481231E+02  0.00000000000E+00 0. -1.
</event>
<event>
 5    1  0.9041381E-005  0.9118800E+02  0.7818608E-02  0.1130116E+00
         25   -1    0    0    0    0  0.00000000000E+00  0.00000000000E+00  0.99999998245E-14  0.12500000000E+03  0.12500000000E+03 0.  0.
        -13    1    3    3    0    0  0.36731101473E+02  0.24085227151E+02 -0.42411709865E+02  0.61057647188E+02  0.10566000000E+00 0. -1.
         23    2    1    0    0    0  0.25060981984E+02  0.93099509925E+01 -0.14904660432E+02  0.94391554956E+02  0.89291033922E+02 0.  0.
         13    1    3    3    0    0 -0.11670119490E+02 -0.14775276159E+02  0.27507049434E+02  0.33333907768E+02  0.10566000000E+00 0.  1.
         22    1    1    0    0    0 -0.25060981984E+02 -0.93099509925E+01  0.14904660432E+02  0.30608445044E+02  0.00000000000E+00 0. -1.
</event>
<event>
 5    1  0.9041381E-005  0.9118800E+02  0.7818608E-02  0.1130116E+00
         25   -1    0    0    0    0  0.00000000000E+00  0.00000000000E+00  0.99999998245E-14  0.12500000000E+03  0.12500000000E+03 0.  0.
        -13    1    3    3    0    0  0.33153862493E+02 -0.67239079025E+01  0.11718403534E+02  0.35801140779E+02  0.10566000000E+00 0. -1.
         23    2    1    0    0    0 -0.22015468383E+02  0.16418513042E+02  0.10372277328E+02  0.95643015217E+02  0.91026116055E+02 0.  0.
         13    1    3    3    0    0 -0.55169330875E+02  0.23142420944E+02 -0.13461262059E+01  0.59841874437E+02  0.10566000000E+00 0.  1.
         22    1    1    0    0    0  0.22015468383E+02 -0.16418513042E+02 -0.10372277328E+02  0.29356984783E+02  0.00000000000E+00 0.  1.
</event>
<event>
 5    1  0.9041381E-005  0.9118800E+02  0.7818608E-02  0.1130116E+00
         25   -1    0    0    0    0  0.00000000000E+00  0.00000000000E+00  0.99999998245E-14  0.12500000000E+03  0.12500000000E+03 0.  0.
        -13    1    3    3    0    0 -0.31631017875E+02 -0.36406465392E+02  0.18145750416E+01  0.48262364849E+02  0.10566000000E+00 0.  1.
         23    2    1    0    0    0 -0.28002854619E+02  0.28607374968E+01  0.18748556756E+02  0.91179117896E+02  0.84674550332E+02 0.  0.
         13    1    3    3    0    0  0.36281632558E+01  0.39267202889E+02  0.16933981715E+02  0.42916753047E+02  0.10566000000E+00 0. -1.
         22    1    1    0    0    0  0.28002854619E+02 -0.28607374968E+01 -0.18748556756E+02  0.33820882104E+02  0.00000000000E+00 0.  1.
</event>
<event>
 5    1  0.9041381E-005  0.9118800E+02  0.7818608E-02  0.1130116E+00
         25   -1    0    0    0    0  0.00000000000E+00  0.00000000000E+00  0.99999998245E-14  0.12500000000E+03  0.12500000000E+03 0.  0.
        -13    1    3    3    0    0  0.14216783468E+02  0.40469002082E+02 -0.63948644388E+00  0.42898451821E+02  0.10566000000E+00 0.  1.
         23    2    1    0    0    0  0.11125420913E+02 -0.17425113875E+02 -0.10667787902E+02  0.10173605187E+03  0.99040461260E+02 0.  0.
         13    1    3    3    0    0 -0.30913625549E+01 -0.57894115957E+02 -0.10028301459E+02  0.58837600045E+02  0.10566000000E+00 0. -1.
         22    1    1    0    0    0 -0.11125420913E+02  0.17425113875E+02  0.10667787902E+02  0.23263948134E+02  0.00000000000E+00 0. -1.
</event>
<event>
 5    1  0.9041381E-005  0.9118800E+02  0.7818608E-02  0.1130116E+00
         25   -1    0    0    0    0  0.00000000000E+00  0.00000000000E+00  0.99999998245E-14  0.12500000000E+03  0.12500000000E+03 0.  0.
        -13    1    3    3    0    0  0.45393031253E+02  0.36869243155E+02 -0.14033346183E+02  0.60139956321E+02  0.10566000000E+00 0.  1.
         23    2    1    0    0    0  0.16189756926E+02  0.19031224649E+02 -0.17440008984E+02  0.94529528157E+02  0.89483976438E+02 0.  0.
         13    1    3    3    0    0 -0.29203274326E+02 -0.17838018506E+02 -0.34066628013E+01  0.34389571836E+02  0.10566000000E+00 0. -1.
         22    1    1    0    0    0 -0.16189756926E+02 -0.19031224649E+02  0.17440008984E+02  0.30470471843E+02  0.00000000000E+00 0.  1.
</event>
<event>
 5    1  0.9041381E-005  0.9118800E+02  0.7818608E-02  0.1130116E+00
         25   -1    0    0    0    0  0.00000000000E+00  0.00000000000E+00  0.99999998245E-14  0.12500000000E+03  0.12500000000E+03 0.  0.
        -13    1    3    3    0    0 -0.10138662963E+00 -0.51427105465E+02  0.30321649799E+02  0.59700678944E+02  0.10566000000E+00 0.  1.
         23    2    1    0    0    0 -0.10386496194E+02 -0.17833480321E+02  0.19860937351E+02  0.96357912855E+02  0.92002598951E+02 0.  0.
         13    1    3    3    0    0 -0.10285109564E+02  0.33593625144E+02 -0.10460712449E+02  0.36657233911E+02  0.10566000000E+00 0. -1.
         22    1    1    0    0    0  0.10386496194E+02  0.17833480321E+02 -0.19860937351E+02  0.28642087145E+02  0.00000000000E+00 0.  1.
</event>
<event>
 5    1  0.9041381E-005  0.9118800E+02  0.7818608E-02  0.1130116E+00
         25   -1    0    0    0    0  0.00000000000E+00  0.00000000000E+00  0.99999998245E-14  0.12500000000E+03  0.12500000000E+03 0.  0.
        -13    1    3    3    0    0 -0.29929659053E+02  0.36804434234E+02  0.14781592100E+01  0.47461004930E+02  0.10566000000E+00 0. -1.
         23    2    1    0    0    0 -0.71285497309E+01  0.53777179906E+01 -0.27614114519E+02  0.95978018801E+02  0.91484997132E+02 0.  0.
         13    1    3    3    0    0  0.22801109322E+02 -0.31426716243E+02 -0.29092273729E+02  0.48517013871E+02  0.10566000000E+00 0.  1.
         22    1    1    0    0    0  0.71285497309E+01 -0.53777179906E+01  0.27614114519E+02  0.29021981199E+02  0.00000000000E+00 0.  1.
</event>
<event>
 5    1  0.9041381E-005  0.9118800E+02  0.7818608E-02  0.1130116E+00
         25   -1    0    0    0    0  0.00000000000E+00  0.00000000000E+00  0.99999998245E-14  0.12500000000E+03  0.12500000000E+03 0.  0.
        -13    1    3    3    0    0  0.14057528022E+02  0.17456475246E+02 -0.40365233206E+02  0.46170400019E+02  0.10566000000E+00 0. -1.
         23    2    1    0    0    0 -0.35701256610E+01 -0.12520407398E+02  0.10833452502E+02  0.10806276021E+03  0.10672717579E+03 0.  0.
         13    1    3    3    0    0 -0.17627653683E+02 -0.29976882644E+02  0.51198685709E+02  0.61892360189E+02  0.10566000000E+00 0.  1.
         22    1    1    0    0    0  0.35701256610E+01  0.12520407398E+02 -0.10833452502E+02  0.16937239792E+02  0.00000000000E+00 0.  1.
</event>
<event>
 5    1  0.9041381E-005  0.9118800E+02  0.7818608E-02  0.1130116E+00
         25   -1    0    0    0    0  0.00000000000E+00  0.00000000000E+00  0.99999998245E-14  0.12500000000E+03  0.12500000000E+03 0.  0.
        -13    1    3    3    0    0 -0.16212355686E+02  0.16122562518E+02  0.49531552547E+02  0.54554224042E+02  0.10566000000E+00 0.  1.
         23    2    1    0    0    0 -0.17549825009E+02  0.20763572158E+02  0.75893163348E+01  0.96773770903E+02  0.92565883163E+02 0.  0.
         13    1    3    3    0    0 -0.13374693237E+01  0.46410096395E+01 -0.41942236212E+02  0.42219546861E+02  0.10566000000E+00 0. -1.
         22    1    1    0    0    0  0.17549825009E+02 -0.20763572158E+02 -0.75893163348E+01  0.28226229097E+02  0.00000000000E+00 0. -1.
</event>
<event>
 5    1  0.9041381E-005  0.9118800E+02  0.7818608E-02  0.1130116E+00
         25   -1    0    0    0    0  0.00000000000E+00  0.00000000000E+00  0.99999998245E-14  0.12500000000E+03  0.12500000000E+03 0.  0.
        -13    1    3    3    0    0 -0.19202202577E+02 -0.90592425231E+01 -0.28532993101E+02  0.35565957294E+02  0.10566000000E+00 0. -1.
         23    2    1    0    0    0  0.82538794528E+00 -0.56607167499E+01  0.28407826480E+02  0.96021911990E+02  0.91544950694E+02 0.  0.
         13    1    3    3    0    0  0.20027590523E+02  0.33985257732E+01  0.56940819581E+02  0.60455954696E+02  0.10566000000E+00 0.  1.
         22    1    1    0    0    0 -0.82538794528E+00  0.56607167499E+01 -0.28407826480E+02  0.28978088010E+02  0.00000000000E+00 0.  1.
</event>
<event>
 5    1  0.9041381E-005  0.9118800E+02  0.7818608E-02  0.1130116E+00
         25   -1    0    0    0    0  0.00000000000E+00  0.00000000000E+00  0.99999998245E-14  0.12500000000E+03  0.12500000000E+03 0.  0.
        -13    1    3    3    0    0 -0.11721074334E+01  0.30441104822E+02 -0.17242961911E+02  0.35005222441E+02  0.10566000000E+00 0. -1.
         23    2    1    0    0    0  0.22316133866E+02 -0.21574866249E+02 -0.90781689647E+01  0.92659656215E+02  0.86832678489E+02 0.  0.
         13    1    3    3    0    0  0.23488241300E+02 -0.52015971072E+02  0.81647929466E+01  0.57654433774E+02  0.10566000000E+00 0.  1.
         22    1    1    0    0    0 -0.22316133866E+02  0.21574866249E+02  0.90781689647E+01  0.32340343785E+02  0.00000000000E+00 0.  1.
</event>
<event>
 5    1  0.9041381E-005  0.9118800E+02  0.7818608E-02  0.1130116E+00
         25   -1    0    0    0    0  0.00000000000E+00  0.00000000000E+00  0.99999998245E-14  0.12500000000E+03  0.12500000000E+03 0.  0.
        -13    1    3    3    0    0  0.55857242967E+02  0.59421579975E+01  0.15414150258E+02  0.58249017380E+02  0.10566000000E+00 0. -1.
         23    2    1    0    0    0  0.20635397014E+02 -0.11480004774E+02  0.13954051805E+02  0.97571444053E+02  0.93636857131E+02 0.  0.
         13    1    3    3    0    0 -0.35221845953E+02 -0.17422162772E+02 -0.14600984523E+01  0.39322426673E+02  0.10566000000E+00 0.  1.
         22    1    1    0    0    0 -0.20635397014E+02  0.11480004774E+02 -0.13954051805E+02  0.27428555947E+02  0.00000000000E+00 0. -1.
</event>
<event>
 5    1  0.9041381E-005  0.9118800E+02  0.7818608E-02  0.1130116E+00
         25   -1    0    0    0    0  0.00000000000E+00  0.00000000000E+00  0.99999998245E-14  0.12500000000E+03  0.12500000000E+03 0.  0.
        -13    1    3    3    0    0 -0.49533390330E+01 -0.20985818609E+02 -0.47483488655E+02  0.52150100758E+02  0.10566000000E+00 0. -1.
         23    2    1    0    0    0  0.15247597339E+02 -0.22531445772E+02 -0.78133153312E+01  0.96694467508E+02  0.92458730670E+02 0.  0.
         13    1    3    3    0    0  0.20200936372E+02 -0.15456271630E+01  0.39670173323E+02  0.44544366750E+02  0.10566000000E+00 0.  1.
         22    1    1    0    0    0 -0.15247597339E+02  0.22531445772E+02  0.78133153312E+01  0.28305532492E+02  0.00000000000E+00 0.  1.
</event>
<event>
 5    1  0.9041381E-005  0.9118800E+02  0.7818608E-02  0.1130116E+00
         25   -1    0    0    0    0  0.00000000000E+00  0.00000000000E+00  0.99999998245E-14  0.12500000000E+03  0.12500000000E+03 0.  0.
        -13    1    3    3    0    0 -0.25189576048E+02 -0.34442666037E+02 -0.49439516314E+01  0.42956557206E+02  0.10566000000E+00 0.  1.
         23    2    1    0    0    0 -0.25686048879E+02  0.14280445466E+02  0.10055100547E+02  0.93938620817E+02  0.88654696459E+02 0.  0.
         13    1    3    3    0    0 -0.49647283152E+00  0.48723111503E+02  0.14999052179E+02  0.50982063612E+02  0.10566000000E+00 0. -1.
         22    1    1    0    0    0  0.25686048879E+02 -0.14280445466E+02 -0.10055100547E+02  0.31061379183E+02  0.00000000000E+00 0. -1.
</event>
<event>
 5    1  0.9041381E-005  0.9118800E+02  0.7818608E-02  0.1130116E+00
         25   -1    0    0    0    0  0.00000000000E+00  0.00000000000E+00  0.99999998245E-14  0.12500000000E+03  0.12500000000E+03 0.  0.
        -13    1    3    3    0    0  0.30962055583E+02 -0.13162599527E+02  0.41948880106E+02  0.53773809781E+02  0.10566000000E+00 0.  1.
         23    2    1    0    0    0  0.40198153127E+01  0.15004702099E+02  0.23332813977E+02  0.96969298826E+02  0.92829546517E+02 0.  0.
         13    1    3    3    0    0 -0.26942240270E+02  0.28167301626E+02 -0.18616066129E+02  0.43195489045E+02  0.10566000000E+00 0. -1.
         22    1    1    0    0    0 -0.40198153127E+01 -0.15004702099E+02 -0.23332813977E+02  0.28030701174E+02  0.00000000000E+00 0. -1.
</event>
<event>
 5    1  0.9041381E-005  0.9118800E+02  0.7818608E-02  0.1130116E+00
         25   -1    0    0    0    0  0.00000000000E+00  0.00000000000E+00  0.99999998245E-14  0.12500000000E+03  0.12500000000E+03 0.  0.
        -13    1    3    3    0    0  0.48689942981E+02  0.31271541299E+02 -0.26078014805E+01  0.57926087692E+02  0.10566000000E+00 0. -1.
         23    2    1    0    0    0  0.25276503655E+02  0.56310291286E+01  0.13033748061E+02  0.96008816606E+02  0.91527067862E+02 0.  0.
         13    1    3    3    0    0 -0.23413439326E+02 -0.25640512171E+02  0.15641549542E+02  0.38082728914E+02  0.10566000000E+00 0.  1.
         22    1    1    0    0    0 -0.25276503655E+02 -0.56310291286E+01 -0.13033748061E+02  0.28991183394E+02  0.00000000000E+00 0. -1.
</event>
<event>
 5    1  0.9041381E-005  0.9118800E+02  0.7818608E-02  0.1130116E+00
         25   -1    0    0    0    0  0.00000000000E+00  0.00000000000E+00  0.99999998245E-14  0.12500000000E+03  0.12500000000E+03 0.  0.
        -13    1    3    3    0    0  0.21087025112E+02 -0.14466289487E+02  0.30664652077E+02  0.39928288351E+02  0.10566000000E+00 0. -1.
         23    2    1    0    0    0  0.12913763616E+02  0.13576665573E+02 -0.19486854251E+02  0.97966157739E+02  0.94162303682E+02 0.  0.
         13    1    3    3    0    0 -0.81732614960E+01  0.28042955060E+02 -0.50151506328E+02  0.58037869388E+02  0.10566000000E+00 0.  1.
         22    1    1    0    0    0 -0.12913763616E+02 -0.13576665573E+02  0.19486854251E+02  0.27033842261E+02  0.00000000000E+00 0.  1.
</event>
<event>
 5    1  0.9041381E-005  0.9118800E+02  0.7818608E-02  0.1130116E+00
         25   -1    0    0    0    0  0.00000000000E+00  0.00000000000E+00  0.99999998245E-14  0.12500000000E+03  0.12500000000E+03 0.  0.
        -13    1    3    3    0    0  0.57643129771E+02 -0.17390971475E+02 -0.96515098225E+01  0.60978185481E+02  0.10566000000E+00 0.  1.
         23    2    1    0    0    0  0.24964567122E+02 -0.10886201493E+02 -0.13647911779E+02  0.94536833873E+02  0.89494181197E+02 0.  0.
         13    1    3    3    0    0 -0.32678562648E+02  0.65047699821E+01 -0.39964019568E+01  0.33558648392E+02  0.10566000000E+00 0. -1.
         22    1    1    0    0    0 -0.24964567122E+02  0.10886201493E+02  0.13647911779E+02  0.30463166127E+02  0.00000000000E+00 0.  1.
</event>
<event>
 5    1  0.9041381E-005  0.9118800E+02  0.7818608E-02  0.1130116E+00
         25   -1    0    0    0    0  0.00000000000E+00  0.00000000000E+00  0.99999998245E-14  0.12500000000E+03  0.12500000000E+03 0.  0.
        -13    1    3    3    0    0  0.17200131736E+01 -0.18792795766E+02  0.33064148165E+02  0.38070680004E+02  0.10566000000E+00 0. -1.
         23    2    1    0    0    0  0.33852599528E+01 -0.16044774257E+02 -0.24387474508E+02  0.95612184858E+02  0.90983768962E+02 0.  0.
         13    1    3    3    0    0  0.16652467792E+01  0.27480215088E+01 -0.57451622674E+02  0.57541504854E+02  0.10566000000E+00 0.  1.
         22    1    1    0    0    0 -0.33852599528E+01  0.16044774257E+02  0.24387474508E+02  0.29387815142E+02  0.00000000000E+00 0.  1.
</event>
<event>
 5    1  0.9041381E-005  0.9118800E+02  0.7818608E-02  0.1130116E+00
         25   -1    0    0    0    0  0.00000000000E+00  0.00000000000E+00  0.99999998245E-14  0.12500000000E+03  0.12500000000E+03 0.  0.
        -13    1    3    3    0    0  0.15869919222E+02 -0.31459807486E+02  0.17364038951E+02  0.39282245810E+02  0.10566000000E+00 0. -1.
         23    2    1    0    0    0  0.30288055520E+02  0.16052024098E+02  0.64301062115E+01  0.90123359527E+02  0.83101383152E+02 0.  0.
         13    1    3    3    0    0  0.14418136297E+02  0.47511831584E+02 -0.10933932740E+02  0.50841113717E+02  0.10566000000E+00 0.  1.
         22    1    1    0    0    0 -0.30288055520E+02 -0.16052024098E+02 -0.64301062115E+01  0.34876640473E+02  0.00000000000E+00 0.  1.
</event>
<event>
 5    1  0.9041381E-005  0.9118800E+02  0.7818608E-02  0.1130116E+00
         25   -1    0    0    0    0  0.00000000000E+00  0.00000000000E+00  0.99999998245E-14  0.12500000000E+03  0.12500000000E+03 0.  0.
        -13    1    3    3    0    0 -0.91058517119E+01 -0.15612345983E+02 -0.43287805092E+02  0.46909563164E+02  0.10566000000E+00 0. -1.
         23    2    1    0    0    0  0.22359892395E+02 -0.23217255694E+02 -0.17332749642E+02  0.88401776545E+02  0.80470144379E+02 0.  0.
         13    1    3    3    0    0  0.31465744107E+02 -0.76049097106E+01  0.25955055449E+02  0.41492213382E+02  0.10566000000E+00 0.  1.
         22    1    1    0    0    0 -0.22359892395E+02  0.23217255694E+02  0.17332749642E+02  0.36598223455E+02  0.00000000000E+00 0. -1.
</event>
<event>
 5    1  0.9041381E-005  0.9118800E+02  0.7818608E-02  0.1130116E+00
         25   -1    0    0    0    0  0.00000000000E+00  0.00000000000E+00  0.99999998245E-14  0.12500000000E+03  0.12500000000E+03 0.  0.
        -13    1    3    3    0    0  0.18402409015E+02  0.41963808056E+02 -0.24882578099E+02  0.52141765419E+02  0.10566000000E+00 0. -1.
         23    2    1    0    0    0 -0.16858304048E+02  0.22769010263E+02 -0.10276588495E+02  0.94863004217E+02  0.89948602292E+02 0.  0.
         13    1    3    3    0    0 -0.35260713063E+02 -0.19194797793E+02  0.14605989604E+02  0.42721238798E+02  0.10566000000E+00 0.  1.
         22    1    1    0    0    0  0.16858304048E+02 -0.22769010263E+02  0.10276588495E+02  0.30136995783E+02  0.00000000000E+00 0. -1.
</event>
<event>
 5    1  0.9041381E-005  0.9118800E+02  0.7818608E-02  0.1130116E+00
         25   -1    0    0    0    0  0.00000000000E+00  0.00000000000E+00  0.99999998245E-14  0.12500000000E+03  0.12500000000E+03 0.  0.
        -13    1    3    3    0    0 -0.36036264719E+02  0.29903533841E+02  0.26340553388E+02  0.53727736113E+02  0.10566000000E+00 0. -1.
         23    2    1    0    0    0  0.40104824599E+01  0.14698912605E+02  0.23929492405E+02  0.96631661873E+02  0.92373781282E+02 0.  0.
         13    1    3    3    0    0  0.40046747178E+02 -0.15204621236E+02 -0.24110609834E+01  0.42903925760E+02  0.10566000000E+00 0.  1.
         22    1    1    0    0    0 -0.40104824599E+01 -0.14698912605E+02 -0.23929492405E+02  0.28368338127E+02  0.00000000000E+00 0. -1.
</event>
<event>
 5    1  0.9041381E-005  0.9118800E+02  0.7818608E-02  0.1130116E+00
         25   -1    0    0    0    0  0.00000000000E+00  0.00000000000E+00  0.99999998245E-14  0.12500000000E+03  0.12500000000E+03 0.  0.
        -13    1    3    3    0    0  0.25871590029E+02 -0.96942307734E+01 -0.22025340693E+02  0.35333328142E+02  0.10566000000E+00 0.  1.
         23    2    1    0    0    0  0.58377126347E+00 -0.41186866907E+02  0.43628111501E+01  0.83578593509E+02  0.72592343793E+02 0.  0.
         13    1    3    3    0    0 -0.25287818766E+02 -0.31492636134E+02  0.26388151843E+02  0.48245265367E+02  0.10566000000E+00 0. -1.
         22    1    1    0    0    0 -0.58377126347E+00  0.41186866907E+02 -0.43628111501E+01  0.41421406491E+02  0.00000000000E+00 0. -1.
</event>
<event>
 5    1  0.9041381E-005  0.9118800E+02  0.7818608E-02  0.1130116E+00
         25   -1    0    0    0    0  0.00000000000E+00  0.00000000000E+00  0.99999998245E-14  0.12500000000E+03  0.12500000000E+03 0.  0.
        -13    1    3    3    0    0 -0.21547226790E+02  0.41956369972E+02  0.13801761909E+02  0.49143867973E+02  0.10566000000E+00 0.  1.
         23    2    1    0    0    0 -0.34423893756E+00  0.32572658863E+01  0.29000544770E+02  0.95815074465E+02  0.91262087508E+02 0.  0.
         13    1    3    3    0    0  0.21202987852E+02 -0.38699104086E+02  0.15198782862E+02  0.46671206492E+02  0.10566000000E+00 0. -1.
         22    1    1    0    0    0  0.34423893756E+00 -0.32572658863E+01 -0.29000544770E+02  0.29184925535E+02  0.00000000000E+00 0.  1.
</event>
<event>
 5    1  0.9041381E-005  0.9118800E+02  0.7818608E-02  0.1130116E+00
         25   -1    0    0    0    0  0.00000000000E+00  0.00000000000E+00  0.99999998245E-14  0.12500000000E+03  0.12500000000E+03 0.  0.
        -13    1    3    3    0    0 -0.42668604111E+02  0.10339294475E+02 -0.51419857224E+01  0.44203642025E+02  0.10566000000E+00 0.  1.
         23    2    1    0    0    0  0.23353177326E+01  0.15325079252E+02 -0.26524308884E+02  0.94277846352E+02  0.89131709217E+02 0.  0.
         13    1    3    3    0    0  0.45003921844E+02  0.49857847774E+01 -0.21382323162E+02  0.50074204327E+02  0.10566000000E+00 0. -1.
         22    1    1    0    0    0 -0.23353177326E+01 -0.15325079252E+02  0.26524308884E+02  0.30722153648E+02  0.00000000000E+00 0. -1.
</event>
<event>
 5    1  0.9041381E-005  0.9118800E+02  0.7818608E-02  0.1130116E+00
         25   -1    0    0    0    0  0.00000000000E+00  0.00000000000E+00  0.99999998245E-14  0.12500000000E+03  0.12500000000E+03 0.  0.
        -13    1    3    3    0    0  0.51234188131E+02  0.30516565156E+02  0.67183481773E+01  0.60011250184E+02  0.10566000000E+00 0. -1.
         23    2    1    0    0    0  0.22743339973E+02  0.20597807250E+02  0.14344249962E+02  0.91128379377E+02  0.84599614918E+02 0.  0.
         13    1    3    3    0    0 -0.28490848158E+02 -0.99187579054E+01  0.76259017842E+01  0.31117129193E+02  0.10566000000E+00 0.  1.
         22    1    1    0    0    0 -0.22743339973E+02 -0.20597807250E+02 -0.14344249962E+02  0.33871620623E+02  0.00000000000E+00 0. -1.
</event>
<event>
 5    1  0.9041381E-005  0.9118800E+02  0.7818608E-02  0.1130116E+00
         25   -1    0    0    0    0  0.00000000000E+00  0.00000000000E+00  0.99999998245E-14  0.12500000000E+03  0.12500000000E+03 0.  0.
        -13    1    3    3    0    0  0.23076566609E+02 -0.14519427712E+02 -0.27921067759E+02  0.39024849729E+02  0.10566000000E+00 0. -1.
         23    2    1    0    0    0 -0.15293762561E+02  0.22986371120E+02 -0.10914649329E+02  0.95311584743E+02  0.90569841480E+02 0.  0.
         13    1    3    3    0    0 -0.38370329170E+02  0.37505798832E+02  0.17006418430E+02  0.56286735014E+02  0.10566000000E+00 0.  1.
         22    1    1    0    0    0  0.15293762561E+02 -0.22986371120E+02  0.10914649329E+02  0.29688415257E+02  0.00000000000E+00 0.  1.
</event>
<event>
 5    1  0.9041381E-005  0.9118800E+02  0.7818608E-02  0.1130116E+00
         25   -1    0    0    0    0  0.00000000000E+00  0.00000000000E+00  0.99999998245E-14  0.12500000000E+03  0.12500000000E+03 0.  0.
        -13    1    3    3    0    0  0.17822505819E+02 -0.12671029453E+02  0.42807580597E+02  0.48069707942E+02  0.10566000000E+00 0.  1.
         23    2    1    0    0    0  0.31344844680E+02 -0.95680263212E+01  0.89916698578E+00  0.92215019948E+02  0.86190225589E+02 0.  0.
         13    1    3    3    0    0  0.13522338862E+02  0.31030031316E+01 -0.41908413611E+02  0.44145312006E+02  0.10566000000E+00 0. -1.
         22    1    1    0    0    0 -0.31344844680E+02  0.95680263212E+01 -0.89916698578E+00  0.32784980052E+02  0.00000000000E+00 0. -1.
</event>
<event>
 5    1  0.9041381E-005  0.9118800E+02  0.7818608E-02  0.1130116E+00
         25   -1    0    0    0    0  0.00000000000E+00  0.00000000000E+00  0.99999998245E-14  0.12500000000E+03  0.12500000000E+03 0.  0.
        -13    1    3    3    0    0 -0.89043424550E+01 -0.23641653209E+02  0.55456057832E+02  0.60939318960E+02  0.10566000000E+00 0. -1.
         23    2    1    0    0    0  0.22463598339E+01 -0.17883980700E+02  0.22719670793E+02  0.95998856244E+02  0.91513463824E+02 0.  0.
         13    1    3    3    0    0  0.11150702289E+02  0.57576725089E+01 -0.32736387038E+02  0.35059537285E+02  0.10566000000E+00 0.  1.
         22    1    1    0    0    0 -0.22463598339E+01  0.17883980700E+02 -0.22719670793E+02  0.29001143756E+02  0.00000000000E+00 0. -1.
</event>
<event>
 5    1  0.9041381E-005  0.9118800E+02  0.7818608E-02  0.1130116E+00
         25   -1    0    0    0    0  0.00000000000E+00  0.00000000000E+00  0.99999998245E-14  0.12500000000E+03  0.12500000000E+03 0.  0.
        -13    1    3    3    0    0  0.37793098213E+01 -0.40952656970E+02  0.13392798173E+02  0.43252531747E+02  0.10566000000E+00 0.  1.
         23    2    1    0    0    0  0.16856271589E+02  0.96511015876E+01  0.21367428426E+02  0.96123631612E+02  0.91683738488E+02 0.  0.
         13    1    3    3    0    0  0.13076961767E+02  0.50603758558E+02  0.79746302531E+01  0.52871099865E+02  0.10566000000E+00 0. -1.
         22    1    1    0    0    0 -0.16856271589E+02 -0.96511015876E+01 -0.21367428426E+02  0.28876368388E+02  0.00000000000E+00 0. -1.
</event>
<event>
 5    1  0.9041381E-005  0.9118800E+02  0.7818608E-02  0.1130116E+00
         25   -1    0    0    0    0  0.00000000000E+00  0.00000000000E+00  0.99999998245E-14  0.12500000000E+03  0.12500000000E+03 0.  0.
        -13    1    3    3    0    0 -0.22267631255E+02 -0.16929574879E+02  0.52006391605E+02  0.59051958808E+02  0.10566000000E+00 0.  1.
         23    2    1    0    0    0  0.37927932883E+00 -0.17880413031E+02  0.22752941620E+02  0.96059554680E+02  0.91596335461E+02 0.  0.
         13    1    3    3    0    0  0.22646910584E+02 -0.95083815208E+00 -0.29253449984E+02  0.37007595872E+02  0.10566000000E+00 0. -1.
         22    1    1    0    0    0 -0.37927932883E+00  0.17880413031E+02 -0.22752941620E+02  0.28940445320E+02  0.00000000000E+00 0. -1.
</event>
<event>
 5    1  0.9041381E-005  0.9118800E+02  0.7818608E-02  0.1130116E+00
         25   -1    0    0    0    0  0.00000000000E+00  0.00000000000E+00  0.99999998245E-14  0.12500000000E+03  0.12500000000E+03 0.  0.
        -13    1    3    3    0    0  0.18699319878E+02  0.59680039225E+01 -0.19061959029E+02  0.27361489008E+02  0.10566000000E+00 0. -1.
         23    2    1    0    0    0 -0.38390993011E+02  0.56783022665E+00 -0.66853522588E+01  0.86027128533E+02  0.76692777583E+02 0.  0.
         13    1    3    3    0    0 -0.57090312889E+02 -0.54001736959E+01  0.12376606770E+02  0.58665639525E+02  0.10566000000E+00 0.  1.
         22    1    1    0    0    0  0.38390993011E+02 -0.56783022665E+00  0.66853522588E+01  0.38972871467E+02  0.00000000000E+00 0.  1.
</event>
<event>
 5    1  0.9041381E-005  0.9118800E+02  0.7818608E-02  0.1130116E+00
         25   -1    0    0    0    0  0.00000000000E+00  0.00000000000E+00  0.99999998245E-14  0.12500000000E+03  0.12500000000E+03 0.  0.
        -13    1    3    3    0    0  0.40437834207E+02  0.36557538082E+02  0.27530069415E+02  0.61070352152E+02  0.10566000000E+00 0. -1.
         23    2    1    0    0    0  0.22901812394E+02  0.10772632535E+02  0.59246973838E+01  0.99006834327E+02  0.95533808579E+02 0.  0.
         13    1    3    3    0    0 -0.17536021813E+02 -0.25784905547E+02 -0.21605372032E+02  0.37936482174E+02  0.10566000000E+00 0.  1.
         22    1    1    0    0    0 -0.22901812394E+02 -0.10772632535E+02 -0.59246973838E+01  0.25993165673E+02  0.00000000000E+00 0. -1.
</event>
<event>
 5    1  0.9041381E-005  0.9118800E+02  0.7818608E-02  0.1130116E+00
         25   -1    0    0    0    0  0.00000000000E+00  0.00000000000E+00  0.99999998245E-14  0.12500000000E+03  0.12500000000E+03 0.  0.
        -13    1    3    3    0    0 -0.57389786257E+02 -0.11538317552E+02  0.11748750272E+02  0.59705649946E+02  0.10566000000E+00 0.  1.
         23    2    1    0    0    0 -0.23638326150E+02 -0.16697913556E+02 -0.70652463112E+00  0.96050216626E+02  0.91583591088E+02 0.  0.
         13    1    3    3    0    0  0.33751460106E+02 -0.51595960043E+01 -0.12455274904E+02  0.36344566680E+02  0.10566000000E+00 0. -1.
         22    1    1    0    0    0  0.23638326150E+02  0.16697913556E+02  0.70652463112E+00  0.28949783374E+02  0.00000000000E+00 0.  1.
</event>
<event>
 5    1  0.9041381E-005  0.9118800E+02  0.7818608E-02  0.1130116E+00
         25   -1    0    0    0    0  0.00000000000E+00  0.00000000000E+00  0.99999998245E-14  0.12500000000E+03  0.12500000000E+03 0.  0.
        -13    1    3    3    0    0  0.34913882607E+02 -0.12482979914E+02 -0.25974286513E+02  0.45271168640E+02  0.10566000000E+00 0. -1.
         23    2    1    0    0    0 -0.14760906456E+02 -0.19797800838E+02 -0.12817508909E+02  0.97176883495E+02  0.93108650907E+02 0.  0.
         13    1    3    3    0    0 -0.49674789063E+02 -0.73148209243E+01  0.13156777604E+02  0.51905714855E+02  0.10566000000E+00 0.  1.
         22    1    1    0    0    0  0.14760906456E+02  0.19797800838E+02  0.12817508909E+02  0.27823116505E+02  0.00000000000E+00 0. -1.
</event>
<event>
 5    1  0.9041381E-005  0.9118800E+02  0.7818608E-02  0.1130116E+00
         25   -1    0    0    0    0  0.00000000000E+00  0.00000000000E+00  0.99999998245E-14  0.12500000000E+03  0.12500000000E+03 0.  0.
        -13    1    3    3    0    0 -0.22968393298E+02 -0.15702660661E+02 -0.21373081313E+02  0.35084760386E+02  0.10566000000E+00 0.  1.
         23    2    1    0    0    0  0.20771484981E+02 -0.86985489550E+01  0.19389819306E+02  0.95283263386E+02  0.90530745311E+02 0.  0.
         13    1    3    3    0    0  0.43739878279E+02  0.70041117060E+01  0.40762900619E+02  0.60198503000E+02  0.10566000000E+00 0. -1.
         22    1    1    0    0    0 -0.20771484981E+02  0.86985489550E+01 -0.19389819306E+02  0.29716736614E+02  0.00000000000E+00 0. -1.
</event>
<event>
 5    1  0.9041381E-005  0.9118800E+02  0.7818608E-02  0.1130116E+00
         25   -1    0    0    0    0  0.00000000000E+00  0.00000000000E+00  0.99999998245E-14  0.12500000000E+03  0.12500000000E+03 0.  0.
        -13    1    3    3    0    0  0.44977335931E+02  0.30708496895E+02  0.10540279082E+02  0.55471444691E+02  0.10566000000E+00 0.  1.
         23    2    1    0    0    0  0.19241791133E+02  0.14828997533E+02 -0.16168801315E+02  0.95818227781E+02  0.91266406445E+02 0.  0.
         13    1    3    3    0    0 -0.25735544798E+02 -0.15879499361E+02 -0.26709080398E+02  0.40346783090E+02  0.10566000000E+00 0. -1.
         22    1    1    0    0    0 -0.19241791133E+02 -0.14828997533E+02  0.16168801315E+02  0.29181772219E+02  0.00000000000E+00 0.  1.
</event>
<event>
 5    1  0.9041381E-005  0.9118800E+02  0.7818608E-02  0.1130116E+00
         25   -1    0    0    0    0  0.00000000000E+00  0.00000000000E+00  0.99999998245E-14  0.12500000000E+03  0.12500000000E+03 0.  0.
        -13    1    3    3    0    0 -0.11322660112E+02 -0.25026337461E+02  0.33174928743E+02  0.43070956105E+02  0.10566000000E+00 0.  1.
         23    2    1    0    0    0  0.95248959193E+01  0.21409922493E+02  0.15274770976E+02  0.97028102463E+02  0.92908695049E+02 0.  0.
         13    1    3    3    0    0  0.20847556031E+02  0.46436259954E+02 -0.17900157767E+02  0.53957146358E+02  0.10566000000E+00 0. -1.
         22    1    1    0    0    0 -0.95248959193E+01 -0.21409922493E+02 -0.15274770976E+02  0.27971897537E+02  0.00000000000E+00 0. -1.
</event>
<event>
 5    1  0.9041381E-005  0.9118800E+02  0.7818608E-02  0.1130116E+00
         25   -1    0    0    0    0  0.00000000000E+00  0.00000000000E+00  0.99999998245E-14  0.12500000000E+03  0.12500000000E+03 0.  0.
        -13    1    3    3    0    0  0.38690576757E+02 -0.32918121771E+02  0.13363911181E+02  0.52527790328E+02  0.10566000000E+00 0. -1.
         23    2    1    0    0    0  0.29303128655E+02  0.68560498793E+01  0.87782969893E+01  0.93651359408E+02  0.88248738529E+02 0.  0.
         13    1    3    3    0    0 -0.93874481014E+01  0.39774171650E+02 -0.45856141920E+01  0.41123569080E+02  0.10566000000E+00 0.  1.
         22    1    1    0    0    0 -0.29303128655E+02 -0.68560498793E+01 -0.87782969893E+01  0.31348640592E+02  0.00000000000E+00 0. -1.
</event>
<event>
 5    1  0.9041381E-005  0.9118800E+02  0.7818608E-02  0.1130116E+00
         25   -1    0    0    0    0  0.00000000000E+00  0.00000000000E+00  0.99999998245E-14  0.12500000000E+03  0.12500000000E+03 0.  0.
        -13    1    3    3    0    0 -0.28972525391E+02  0.85816518960E+01  0.37493208573E+02  0.48153959649E+02  0.10566000000E+00 0. -1.
         23    2    1    0    0    0 -0.20797820238E+02  0.26268869270E+02 -0.11965468098E+01  0.91473375600E+02  0.85107836890E+02 0.  0.
         13    1    3    3    0    0  0.81747051532E+01  0.17687217374E+02 -0.38689755382E+02  0.43319415951E+02  0.10566000000E+00 0.  1.
         22    1    1    0    0    0  0.20797820238E+02 -0.26268869270E+02  0.11965468098E+01  0.33526624400E+02  0.00000000000E+00 0. -1.
</event>
<event>
 5    1  0.9041381E-005  0.9118800E+02  0.7818608E-02  0.1130116E+00
         25   -1    0    0    0    0  0.00000000000E+00  0.00000000000E+00  0.99999998245E-14  0.12500000000E+03  0.12500000000E+03 0.  0.
        -13    1    3    3    0    0 -0.52942889910E+02 -0.21185201363E+02 -0.12141683228E+02  0.58302607013E+02  0.10566000000E+00 0.  1.
         23    2    1    0    0    0 -0.29511725989E+02  0.26402607951E+01  0.34358228873E+01  0.95171861828E+02  0.90376797116E+02 0.  0.
         13    1    3    3    0    0  0.23431163921E+02  0.23825462158E+02  0.15577506116E+02  0.36869254815E+02  0.10566000000E+00 0. -1.
         22    1    1    0    0    0  0.29511725989E+02 -0.26402607951E+01 -0.34358228873E+01  0.29828138172E+02  0.00000000000E+00 0.  1.
</event>
<event>
 5    1  0.9041381E-005  0.9118800E+02  0.7818608E-02  0.1130116E+00
         25   -1    0    0    0    0  0.00000000000E+00  0.00000000000E+00  0.99999998245E-14  0.12500000000E+03  0.12500000000E+03 0.  0.
        -13    1    3    3    0    0  0.34599946508E+01  0.39327743898E+02  0.51399487181E+01  0.39812978285E+02  0.10566000000E+00 0.  1.
         23    2    1    0    0    0  0.21993128969E+02 -0.65407724971E+01 -0.19323201303E+02  0.95002241162E+02  0.90141889766E+02 0.  0.
         13    1    3    3    0    0  0.18533134319E+02 -0.45868516395E+02 -0.24463150021E+02  0.55189262877E+02  0.10566000000E+00 0. -1.
         22    1    1    0    0    0 -0.21993128969E+02  0.65407724971E+01  0.19323201303E+02  0.29997758838E+02  0.00000000000E+00 0. -1.
</event>
<event>
 5    1  0.9041381E-005  0.9118800E+02  0.7818608E-02  0.1130116E+00
         25   -1    0    0    0    0  0.00000000000E+00  0.00000000000E+00  0.99999998245E-14  0.12500000000E+03  0.12500000000E+03 0.  0.
        -13    1    3    3    0    0  0.24465860338E+02  0.33099107899E+02  0.93015721948E+01  0.42197863395E+02  0.10566000000E+00 0.  1.
         23    2    1    0    0    0 -0.80411821209E+01  0.91988230074E+01 -0.26295929652E+02  0.96004226672E+02  0.91520799101E+02 0.  0.
         13    1    3    3    0    0 -0.32507042459E+02 -0.23900284892E+02 -0.35597501847E+02  0.53806363277E+02  0.10566000000E+00 0. -1.
         22    1    1    0    0    0  0.80411821209E+01 -0.91988230074E+01  0.26295929652E+02  0.28995773328E+02  0.00000000000E+00 0. -1.
</event>
<event>
 5    1  0.9041381E-005  0.9118800E+02  0.7818608E-02  0.1130116E+00
         25   -1    0    0    0    0  0.00000000000E+00  0.00000000000E+00  0.99999998245E-14  0.12500000000E+03  0.12500000000E+03 0.  0.
        -13    1    3    3    0    0  0.53918695440E+02 -0.21061278654E+02  0.21987529143E+02  0.61921448452E+02  0.10566000000E+00 0.  1.
         23    2    1    0    0    0  0.23655253181E+02 -0.15689512388E+02  0.10462579083E+02  0.94747770940E+02  0.89788321819E+02 0.  0.
         13    1    3    3    0    0 -0.30263442259E+02  0.53717662667E+01 -0.11524950060E+02  0.32826322488E+02  0.10566000000E+00 0. -1.
         22    1    1    0    0    0 -0.23655253181E+02  0.15689512388E+02 -0.10462579083E+02  0.30252229060E+02  0.00000000000E+00 0.  1.
</event>
<event>
 5    1  0.9041381E-005  0.9118800E+02  0.7818608E-02  0.1130116E+00
         25   -1    0    0    0    0  0.00000000000E+00  0.00000000000E+00  0.99999998245E-14  0.12500000000E+03  0.12500000000E+03 0.  0.
        -13    1    3    3    0    0  0.93432590676E+01 -0.29429007876E+02  0.29319279294E+02  0.42579270742E+02  0.10566000000E+00 0. -1.
         23    2    1    0    0    0  0.71264199197E+00 -0.18619682220E+02 -0.22253882965E+02  0.95975256562E+02  0.91481222885E+02 0.  0.
         13    1    3    3    0    0 -0.86306170756E+01  0.10809325656E+02 -0.51573162259E+02  0.53395985820E+02  0.10566000000E+00 0.  1.
         22    1    1    0    0    0 -0.71264199197E+00  0.18619682220E+02  0.22253882965E+02  0.29024743438E+02  0.00000000000E+00 0.  1.
</event>
<event>
 5    1  0.9041381E-005  0.9118800E+02  0.7818608E-02  0.1130116E+00
         25   -1    0    0    0    0  0.00000000000E+00  0.00000000000E+00  0.99999998245E-14  0.12500000000E+03  0.12500000000E+03 0.  0.
        -13    1    3    3    0    0 -0.13080475632E+02  0.17497669930E+02  0.32511562625E+02  0.39169888487E+02  0.10566000000E+00 0.  1.
         23    2    1    0    0    0 -0.88623522162E+01 -0.26299429191E+02 -0.47700171352E+01  0.96840555295E+02  0.92656024218E+02 0.  0.
         13    1    3    3    0    0  0.42181234157E+01 -0.43797099121E+02 -0.37281579761E+02  0.57670666808E+02  0.10566000000E+00 0. -1.
         22    1    1    0    0    0  0.88623522162E+01  0.26299429191E+02  0.47700171352E+01  0.28159444705E+02  0.00000000000E+00 0. -1.
</event>
<event>
 5    1  0.9041381E-005  0.9118800E+02  0.7818608E-02  0.1130116E+00
         25   -1    0    0    0    0  0.00000000000E+00  0.00000000000E+00  0.99999998245E-14  0.12500000000E+03  0.12500000000E+03 0.  0.
        -13    1    3    3    0    0  0.52557958934E+01  0.17875002744E+02  0.23430009177E+02  0.29935190121E+02  0.10566000000E+00 0. -1.
         23    2    1    0    0    0 -0.12523188843E+02 -0.27683221834E+02 -0.14025240197E+02  0.91535117026E+02  0.85198469801E+02 0.  0.
         13    1    3    3    0    0 -0.17778984737E+02 -0.45558224577E+02 -0.37455249374E+02  0.61599926904E+02  0.10566000000E+00 0.  1.
         22    1    1    0    0    0  0.12523188843E+02  0.27683221834E+02  0.14025240197E+02  0.33464882974E+02  0.00000000000E+00 0.  1.
</event>
<event>
 5    1  0.9041381E-005  0.9118800E+02  0.7818608E-02  0.1130116E+00
         25   -1    0    0    0    0  0.00000000000E+00  0.00000000000E+00  0.99999998245E-14  0.12500000000E+03  0.12500000000E+03 0.  0.
        -13    1    3    3    0    0  0.17274446929E+02  0.49365383105E+02 -0.29034117913E+02  0.59819217086E+02  0.10566000000E+00 0.  1.
         23    2    1    0    0    0  0.16975459051E+02  0.28498585627E+02 -0.53262714583E+01  0.91403798423E+02  0.85005585732E+02 0.  0.
         13    1    3    3    0    0 -0.29898787753E+00 -0.20866797477E+02  0.23707846454E+02  0.31584581337E+02  0.10566000000E+00 0. -1.
         22    1    1    0    0    0 -0.16975459051E+02 -0.28498585627E+02  0.53262714583E+01  0.33596201577E+02  0.00000000000E+00 0.  1.
</event>
<event>
 5    1  0.9041381E-005  0.9118800E+02  0.7818608E-02  0.1130116E+00
         25   -1    0    0    0    0  0.00000000000E+00  0.00000000000E+00  0.99999998245E-14  0.12500000000E+03  0.12500000000E+03 0.  0.
        -13    1    3    3    0    0  0.47218624454E+02 -0.33112253870E+02 -0.30989232161E+01  0.57754950791E+02  0.10566000000E+00 0. -1.
         23    2    1    0    0    0  0.29620804500E+02 -0.11978100616E+00  0.93360174823E+00  0.95364244249E+02  0.90642490380E+02 0.  0.
         13    1    3    3    0    0 -0.17597819954E+02  0.32992472864E+02  0.40325249644E+01  0.37609293459E+02  0.10566000000E+00 0.  1.
         22    1    1    0    0    0 -0.29620804500E+02  0.11978100616E+00 -0.93360174823E+00  0.29635755751E+02  0.00000000000E+00 0. -1.
</event>
<event>
 5    1  0.9041381E-005  0.9118800E+02  0.7818608E-02  0.1130116E+00
         25   -1    0    0    0    0  0.00000000000E+00  0.00000000000E+00  0.99999998245E-14  0.12500000000E+03  0.12500000000E+03 0.  0.
        -13    1    3    3    0    0  0.14899954604E+02  0.39114955183E+02 -0.46403999511E+02  0.62492645174E+02  0.10566000000E+00 0.  1.
         23    2    1    0    0    0  0.74809435160E+01  0.18157921503E+02 -0.21136657244E+02  0.96148086568E+02  0.91717073885E+02 0.  0.
         13    1    3    3    0    0 -0.74190110875E+01 -0.20957033680E+02  0.25267342267E+02  0.33655441394E+02  0.10566000000E+00 0. -1.
         22    1    1    0    0    0 -0.74809435160E+01 -0.18157921503E+02  0.21136657244E+02  0.28851913432E+02  0.00000000000E+00 0.  1.
</event>
<event>
 5    1  0.9041381E-005  0.9118800E+02  0.7818608E-02  0.1130116E+00
         25   -1    0    0    0    0  0.00000000000E+00  0.00000000000E+00  0.99999998245E-14  0.12500000000E+03  0.12500000000E+03 0.  0.
        -13    1    3    3    0    0  0.28972026900E+01 -0.14016502223E+01  0.36872327658E+02  0.37012675096E+02  0.10566000000E+00 0. -1.
         23    2    1    0    0    0  0.14521993060E+02  0.22754489969E+02 -0.14056184762E+02  0.94565949559E+02  0.89534838972E+02 0.  0.
         13    1    3    3    0    0  0.11624790370E+02  0.24156140191E+02 -0.50928512420E+02  0.57553274463E+02  0.10566000000E+00 0.  1.
         22    1    1    0    0    0 -0.14521993060E+02 -0.22754489969E+02  0.14056184762E+02  0.30434050441E+02  0.00000000000E+00 0.  1.
</event>
<event>
 5    1  0.9041381E-005  0.9118800E+02  0.7818608E-02  0.1130116E+00
         25   -1    0    0    0    0  0.00000000000E+00  0.00000000000E+00  0.99999998245E-14  0.12500000000E+03  0.12500000000E+03 0.  0.
        -13    1    3    3    0    0  0.11852125524E+02  0.31168788903E+02  0.16245354033E+02  0.37092977405E+02  0.10566000000E+00 0.  1.
         23    2    1    0    0    0 -0.46397474608E+01 -0.18564007239E+02 -0.17214335021E+02  0.99261255830E+02  0.95866125182E+02 0.  0.
         13    1    3    3    0    0 -0.16491872985E+02 -0.49732796142E+02 -0.33459689053E+02  0.62168278424E+02  0.10566000000E+00 0. -1.
         22    1    1    0    0    0  0.46397474608E+01  0.18564007239E+02  0.17214335021E+02  0.25738744170E+02  0.00000000000E+00 0. -1.
</event>
<event>
 5    1  0.9041381E-005  0.9118800E+02  0.7818608E-02  0.1130116E+00
         25   -1    0    0    0    0  0.00000000000E+00  0.00000000000E+00  0.99999998245E-14  0.12500000000E+03  0.12500000000E+03 0.  0.
        -13    1    3    3    0    0 -0.33551086718E+02 -0.65893102206E+01  0.27730193134E+02  0.44023507407E+02  0.10566000000E+00 0. -1.
         23    2    1    0    0    0  0.18522881713E+02 -0.99179238843E-01  0.21108564660E+02  0.96916579883E+02  0.92758530447E+02 0.  0.
         13    1    3    3    0    0  0.52073968430E+02  0.64901309818E+01 -0.66216284735E+01  0.52893072476E+02  0.10566000000E+00 0.  1.
         22    1    1    0    0    0 -0.18522881713E+02  0.99179238843E-01 -0.21108564660E+02  0.28083420117E+02  0.00000000000E+00 0.  1.
</event>
<event>
 5    1  0.9041381E-005  0.9118800E+02  0.7818608E-02  0.1130116E+00
         25   -1    0    0    0    0  0.00000000000E+00  0.00000000000E+00  0.99999998245E-14  0.12500000000E+03  0.12500000000E+03 0.  0.
        -13    1    3    3    0    0 -0.30682537463E+02  0.43038600166E+02 -0.20797285933E+02  0.56800329890E+02  0.10566000000E+00 0.  1.
         23    2    1    0    0    0  0.80246491673E+00  0.30576159792E+02 -0.56494910168E+01  0.93895944857E+02  0.88594504425E+02 0.  0.
         13    1    3    3    0    0  0.31485002379E+02 -0.12462440374E+02  0.15147794916E+02  0.37095614967E+02  0.10566000000E+00 0. -1.
         22    1    1    0    0    0 -0.80246491673E+00 -0.30576159792E+02  0.56494910168E+01  0.31104055143E+02  0.00000000000E+00 0.  1.
</event>
<event>
 5    1  0.9041381E-005  0.9118800E+02  0.7818608E-02  0.1130116E+00
         25   -1    0    0    0    0  0.00000000000E+00  0.00000000000E+00  0.99999998245E-14  0.12500000000E+03  0.12500000000E+03 0.  0.
        -13    1    3    3    0    0 -0.36254299494E+02  0.11542108393E+02 -0.66021788671E+01  0.38615986687E+02  0.10566000000E+00 0.  1.
         23    2    1    0    0    0  0.16195192794E+02  0.19963727434E+02  0.14160893763E+02  0.95650969440E+02  0.91037038396E+02 0.  0.
         13    1    3    3    0    0  0.52449492288E+02  0.84216190407E+01  0.20763072630E+02  0.57034982753E+02  0.10566000000E+00 0. -1.
         22    1    1    0    0    0 -0.16195192794E+02 -0.19963727434E+02 -0.14160893763E+02  0.29349030560E+02  0.00000000000E+00 0. -1.
</event>
<event>
 5    1  0.9041381E-005  0.9118800E+02  0.7818608E-02  0.1130116E+00
         25   -1    0    0    0    0  0.00000000000E+00  0.00000000000E+00  0.99999998245E-14  0.12500000000E+03  0.12500000000E+03 0.  0.
        -13    1    3    3    0    0  0.79633097702E+01  0.16779662239E+01  0.36053556140E+02  0.36960789325E+02  0.10566000000E+00 0.  1.
         23    2    1    0    0    0 -0.62308683033E+01 -0.15073194416E+02 -0.21183623471E+02  0.98264801982E+02  0.94557921379E+02 0.  0.
         13    1    3    3    0    0 -0.14194178073E+02 -0.16751160640E+02 -0.57237179611E+02  0.61304012657E+02  0.10566000000E+00 0. -1.
         22    1    1    0    0    0  0.62308683033E+01  0.15073194416E+02  0.21183623471E+02  0.26735198018E+02  0.00000000000E+00 0. -1.
</event>
<event>
 5    1  0.9041381E-005  0.9118800E+02  0.7818608E-02  0.1130116E+00
         25   -1    0    0    0    0  0.00000000000E+00  0.00000000000E+00  0.99999998245E-14  0.12500000000E+03  0.12500000000E+03 0.  0.
        -13    1    3    3    0    0 -0.25326451838E+02  0.23527903233E+02 -0.16898722767E+02  0.38478167686E+02  0.10566000000E+00 0.  1.
         23    2    1    0    0    0  0.14782988286E+02 -0.16154191587E+02 -0.20485581868E+02  0.95014108101E+02  0.90158344180E+02 0.  0.
         13    1    3    3    0    0  0.40109440124E+02 -0.39682094820E+02 -0.35868591013E+01  0.56535940415E+02  0.10566000000E+00 0. -1.
         22    1    1    0    0    0 -0.14782988286E+02  0.16154191587E+02  0.20485581868E+02  0.29985891899E+02  0.00000000000E+00 0. -1.
</event>
<event>
 5    1  0.9041381E-005  0.9118800E+02  0.7818608E-02  0.1130116E+00
         25   -1    0    0    0    0  0.00000000000E+00  0.00000000000E+00  0.99999998245E-14  0.12500000000E+03  0.12500000000E+03 0.  0.
        -13    1    3    3    0    0  0.42529500313E+02  0.12829354529E+02 -0.20712415126E+02  0.49013937191E+02  0.10566000000E+00 0. -1.
         23    2    1    0    0    0 -0.43028146352E+01  0.17866594562E+02 -0.22250353859E+02  0.96141592874E+02  0.91708223287E+02 0.  0.
         13    1    3    3    0    0 -0.46832314949E+02  0.50372400326E+01 -0.15379387320E+01  0.47127655683E+02  0.10566000000E+00 0.  1.
         22    1    1    0    0    0  0.43028146352E+01 -0.17866594562E+02  0.22250353859E+02  0.28858407126E+02  0.00000000000E+00 0. -1.
</event>
<event>
 5    1  0.9041381E-005  0.9118800E+02  0.7818608E-02  0.1130116E+00
         25   -1    0    0    0    0  0.00000000000E+00  0.00000000000E+00  0.99999998245E-14  0.12500000000E+03  0.12500000000E+03 0.  0.
        -13    1    3    3    0    0  0.28837445153E+02 -0.21376087368E+02  0.38733938271E+02  0.52809700739E+02  0.10566000000E+00 0. -1.
         23    2    1    0    0    0  0.13953322973E+02  0.15110842732E+02  0.19493744424E+02  0.96662059678E+02  0.92414906370E+02 0.  0.
         13    1    3    3    0    0 -0.14884122180E+02  0.36486930100E+02 -0.19240193848E+02  0.43852358939E+02  0.10566000000E+00 0.  1.
         22    1    1    0    0    0 -0.13953322973E+02 -0.15110842732E+02 -0.19493744424E+02  0.28337940322E+02  0.00000000000E+00 0. -1.
</event>
<event>
 5    1  0.9041381E-005  0.9118800E+02  0.7818608E-02  0.1130116E+00
         25   -1    0    0    0    0  0.00000000000E+00  0.00000000000E+00  0.99999998245E-14  0.12500000000E+03  0.12500000000E+03 0.  0.
        -13    1    3    3    0    0 -0.73598823827E+01  0.11077020467E+02 -0.52299444168E+02  0.53963981278E+02  0.10566000000E+00 0.  1.
         23    2    1    0    0    0  0.14908375740E+02 -0.93552466397E+01 -0.22804531385E+02  0.96193282753E+02  0.91778650503E+02 0.  0.
         13    1    3    3    0    0  0.22268258122E+02 -0.20432267106E+02  0.29494912783E+02  0.42229301474E+02  0.10566000000E+00 0. -1.
         22    1    1    0    0    0 -0.14908375740E+02  0.93552466397E+01  0.22804531385E+02  0.28806717247E+02  0.00000000000E+00 0.  1.
</event>
<event>
 5    1  0.9041381E-005  0.9118800E+02  0.7818608E-02  0.1130116E+00
         25   -1    0    0    0    0  0.00000000000E+00  0.00000000000E+00  0.99999998245E-14  0.12500000000E+03  0.12500000000E+03 0.  0.
        -13    1    3    3    0    0 -0.46094940437E+02  0.24512240172E+02  0.41926961732E+01  0.52375407562E+02  0.10566000000E+00 0. -1.
         23    2    1    0    0    0 -0.19931121860E+02 -0.13090714247E+01 -0.20278950567E+02  0.96536003044E+02  0.92244245137E+02 0.  0.
         13    1    3    3    0    0  0.26163818576E+02 -0.25821311597E+02 -0.24471646740E+02  0.44160595481E+02  0.10566000000E+00 0.  1.
         22    1    1    0    0    0  0.19931121860E+02  0.13090714247E+01  0.20278950567E+02  0.28463996956E+02  0.00000000000E+00 0. -1.
</event>
<event>
 5    1  0.9041381E-005  0.9118800E+02  0.7818608E-02  0.1130116E+00
         25   -1    0    0    0    0  0.00000000000E+00  0.00000000000E+00  0.99999998245E-14  0.12500000000E+03  0.12500000000E+03 0.  0.
        -13    1    3    3    0    0  0.73365800360E+01  0.55391625307E+02  0.18699927095E+02  0.58921608924E+02  0.10566000000E+00 0.  1.
         23    2    1    0    0    0 -0.11649069925E+02  0.18138241892E+02  0.68565445750E+01  0.10237901743E+03  0.99848657261E+02 0.  0.
         13    1    3    3    0    0 -0.18985649961E+02 -0.37253383415E+02 -0.11843382520E+02  0.43457408503E+02  0.10566000000E+00 0. -1.
         22    1    1    0    0    0  0.11649069925E+02 -0.18138241892E+02 -0.68565445750E+01  0.22620982573E+02  0.00000000000E+00 0.  1.
</event>
<event>
 5    1  0.9041381E-005  0.9118800E+02  0.7818608E-02  0.1130116E+00
         25   -1    0    0    0    0  0.00000000000E+00  0.00000000000E+00  0.99999998245E-14  0.12500000000E+03  0.12500000000E+03 0.  0.
        -13    1    3    3    0    0  0.74174680457E+01 -0.34028932226E+02 -0.95674277915E+01  0.36118331900E+02  0.10566000000E+00 0.  1.
         23    2    1    0    0    0  0.27018543783E+01  0.24826540300E+02 -0.15733968645E+02  0.95483650468E+02  0.90807007533E+02 0.  0.
         13    1    3    3    0    0 -0.47156136674E+01  0.58855472526E+02 -0.61665408538E+01  0.59365318568E+02  0.10566000000E+00 0. -1.
         22    1    1    0    0    0 -0.27018543783E+01 -0.24826540300E+02  0.15733968645E+02  0.29516349532E+02  0.00000000000E+00 0. -1.
</event>
<event>
 5    1  0.9041381E-005  0.9118800E+02  0.7818608E-02  0.1130116E+00
         25   -1    0    0    0    0  0.00000000000E+00  0.00000000000E+00  0.99999998245E-14  0.12500000000E+03  0.12500000000E+03 0.  0.
        -13    1    3    3    0    0  0.50630919551E+02 -0.11252612577E+02  0.32880002995E+02  0.61410235836E+02  0.10566000000E+00 0.  1.
         23    2    1    0    0    0  0.19147843871E+02 -0.16218822174E+01  0.21304891759E+02  0.96309080885E+02  0.91936229100E+02 0.  0.
         13    1    3    3    0    0 -0.31483075681E+02  0.96307303599E+01 -0.11575111236E+02  0.34898845049E+02  0.10566000000E+00 0. -1.
         22    1    1    0    0    0 -0.19147843871E+02  0.16218822174E+01 -0.21304891759E+02  0.28690919115E+02  0.00000000000E+00 0.  1.
</event>
<event>
 5    1  0.9041381E-005  0.9118800E+02  0.7818608E-02  0.1130116E+00
         25   -1    0    0    0    0  0.00000000000E+00  0.00000000000E+00  0.99999998245E-14  0.12500000000E+03  0.12500000000E+03 0.  0.
        -13    1    3    3    0    0  0.11042302115E+02 -0.48036254015E+02 -0.18793939302E+02  0.52750710463E+02  0.10566000000E+00 0.  1.
         23    2    1    0    0    0  0.17991197346E+02 -0.19352753158E+02  0.12502063343E+02  0.95767931572E+02  0.91197493896E+02 0.  0.
         13    1    3    3    0    0  0.69488952308E+01  0.28683500857E+02  0.31296002646E+02  0.43017221109E+02  0.10566000000E+00 0. -1.
         22    1    1    0    0    0 -0.17991197346E+02  0.19352753158E+02 -0.12502063343E+02  0.29232068428E+02  0.00000000000E+00 0. -1.
</event>
<event>
 5    1  0.9041381E-005  0.9118800E+02  0.7818608E-02  0.1130116E+00
         25   -1    0    0    0    0  0.00000000000E+00  0.00000000000E+00  0.99999998245E-14  0.12500000000E+03  0.12500000000E+03 0.  0.
        -13    1    3    3    0    0 -0.25600949895E+02  0.30375551359E+02  0.56441810648E+01  0.40124190956E+02  0.10566000000E+00 0.  1.
         23    2    1    0    0    0  0.21457792735E+02  0.85428268951E+01 -0.16588296018E+02  0.96564312472E+02  0.92282599215E+02 0.  0.
         13    1    3    3    0    0  0.47058742630E+02 -0.21832724464E+02 -0.22232477083E+02  0.56440121516E+02  0.10566000000E+00 0. -1.
         22    1    1    0    0    0 -0.21457792735E+02 -0.85428268951E+01  0.16588296018E+02  0.28435687528E+02  0.00000000000E+00 0. -1.
</event>
<event>
 5    1  0.9041381E-005  0.9118800E+02  0.7818608E-02  0.1130116E+00
         25   -1    0    0    0    0  0.00000000000E+00  0.00000000000E+00  0.99999998245E-14  0.12500000000E+03  0.12500000000E+03 0.  0.
        -13    1    3    3    0    0 -0.16892620975E+02  0.26294371182E+02 -0.16097873466E+02  0.35155473164E+02  0.10566000000E+00 0.  1.
         23    2    1    0    0    0  0.11033905144E+02 -0.26141675575E+02 -0.10161743728E+02  0.94860403118E+02  0.89944987518E+02 0.  0.
         13    1    3    3    0    0  0.27926526118E+02 -0.52436046757E+02  0.59361297376E+01  0.59704929954E+02  0.10566000000E+00 0. -1.
         22    1    1    0    0    0 -0.11033905144E+02  0.26141675575E+02  0.10161743728E+02  0.30139596882E+02  0.00000000000E+00 0. -1.
</event>
<event>
 5    1  0.9041381E-005  0.9118800E+02  0.7818608E-02  0.1130116E+00
         25   -1    0    0    0    0  0.00000000000E+00  0.00000000000E+00  0.99999998245E-14  0.12500000000E+03  0.12500000000E+03 0.  0.
        -13    1    3    3    0    0 -0.26130961638E+02 -0.21982049883E+02 -0.20852227513E+02  0.40010801410E+02  0.10566000000E+00 0.  1.
         23    2    1    0    0    0 -0.56810675569E+01 -0.58612527105E+01  0.28252021776E+02  0.95592423657E+02  0.90956615561E+02 0.  0.
         13    1    3    3    0    0  0.20449894081E+02  0.16120797173E+02  0.49104249288E+02  0.55581622247E+02  0.10566000000E+00 0. -1.
         22    1    1    0    0    0  0.56810675569E+01  0.58612527105E+01 -0.28252021776E+02  0.29407576343E+02  0.00000000000E+00 0. -1.
</event>
<event>
 5    1  0.9041381E-005  0.9118800E+02  0.7818608E-02  0.1130116E+00
         25   -1    0    0    0    0  0.00000000000E+00  0.00000000000E+00  0.99999998245E-14  0.12500000000E+03  0.12500000000E+03 0.  0.
        -13    1    3    3    0    0 -0.40732310552E+02  0.16072237033E+02  0.38233586595E+01  0.43955285935E+02  0.10566000000E+00 0. -1.
         23    2    1    0    0    0  0.64022423085E+01 -0.15382032196E+02  0.15983814447E+02  0.10191151921E+03  0.99261673377E+02 0.  0.
         13    1    3    3    0    0  0.47134552860E+02 -0.31454269229E+02  0.12160455788E+02  0.57956233272E+02  0.10566000000E+00 0.  1.
         22    1    1    0    0    0 -0.64022423085E+01  0.15382032196E+02 -0.15983814447E+02  0.23088480793E+02  0.00000000000E+00 0.  1.
</event>
<event>
 5    1  0.9041381E-005  0.9118800E+02  0.7818608E-02  0.1130116E+00
         25   -1    0    0    0    0  0.00000000000E+00  0.00000000000E+00  0.99999998245E-14  0.12500000000E+03  0.12500000000E+03 0.  0.
        -13    1    3    3    0    0  0.40054727603E+02 -0.28226033692E+01 -0.45736373407E+02  0.60861936460E+02  0.10566000000E+00 0.  1.
         23    2    1    0    0    0  0.20903072038E+02 -0.10874068806E+02 -0.18937582842E+02  0.94770613024E+02  0.89820116099E+02 0.  0.
         13    1    3    3    0    0 -0.19151655565E+02 -0.80514654367E+01  0.26798790565E+02  0.33908676565E+02  0.10566000000E+00 0. -1.
         22    1    1    0    0    0 -0.20903072038E+02  0.10874068806E+02  0.18937582842E+02  0.30229386976E+02  0.00000000000E+00 0.  1.
</event>
<event>
 5    1  0.9041381E-005  0.9118800E+02  0.7818608E-02  0.1130116E+00
         25   -1    0    0    0    0  0.00000000000E+00  0.00000000000E+00  0.99999998245E-14  0.12500000000E+03  0.12500000000E+03 0.  0.
        -13    1    3    3    0    0 -0.40871759364E+02 -0.61364070085E+01 -0.32031662077E+02  0.52289528052E+02  0.10566000000E+00 0.  1.
         23    2    1    0    0    0  0.81274326906E+00  0.36735638960E+01 -0.29578526895E+02  0.95183144421E+02  0.90392400705E+02 0.  0.
         13    1    3    3    0    0  0.41684502633E+02  0.98099709046E+01  0.24531351816E+01  0.42893616369E+02  0.10566000000E+00 0. -1.
         22    1    1    0    0    0 -0.81274326906E+00 -0.36735638960E+01  0.29578526895E+02  0.29816855579E+02  0.00000000000E+00 0.  1.
</event>
<event>
 5    1  0.9041381E-005  0.9118800E+02  0.7818608E-02  0.1130116E+00
         25   -1    0    0    0    0  0.00000000000E+00  0.00000000000E+00  0.99999998245E-14  0.12500000000E+03  0.12500000000E+03 0.  0.
        -13    1    3    3    0    0  0.11150868751E+02  0.50494300164E+02 -0.96887795546E+01  0.52610833830E+02  0.10566000000E+00 0.  1.
         23    2    1    0    0    0  0.14638858204E+02  0.18255496645E+02  0.18179678136E+02  0.95367922375E+02  0.90647562536E+02 0.  0.
         13    1    3    3    0    0  0.34879894523E+01 -0.32238803519E+02  0.27868457690E+02  0.42757088545E+02  0.10566000000E+00 0. -1.
         22    1    1    0    0    0 -0.14638858204E+02 -0.18255496645E+02 -0.18179678136E+02  0.29632077625E+02  0.00000000000E+00 0.  1.
</event>
<event>
 5    1  0.9041381E-005  0.9118800E+02  0.7818608E-02  0.1130116E+00
         25   -1    0    0    0    0  0.00000000000E+00  0.00000000000E+00  0.99999998245E-14  0.12500000000E+03  0.12500000000E+03 0.  0.
        -13    1    3    3    0    0  0.16692727049E+02  0.45167444673E+02  0.50197391277E+01  0.48414400126E+02  0.10566000000E+00 0.  1.
         23    2    1    0    0    0  0.96237243989E+01  0.87475563868E+01 -0.25447989406E+02  0.96421406983E+02  0.92088825303E+02 0.  0.
         13    1    3    3    0    0 -0.70690026503E+01 -0.36419888286E+02 -0.30467728534E+02  0.48007006856E+02  0.10566000000E+00 0. -1.
         22    1    1    0    0    0 -0.96237243989E+01 -0.87475563868E+01  0.25447989406E+02  0.28578593017E+02  0.00000000000E+00 0. -1.
</event>
<event>
 5    1  0.9041381E-005  0.9118800E+02  0.7818608E-02  0.1130116E+00
         25   -1    0    0    0    0  0.00000000000E+00  0.00000000000E+00  0.99999998245E-14  0.12500000000E+03  0.12500000000E+03 0.  0.
        -13    1    3    3    0    0 -0.35037654462E+02  0.49108954113E+02  0.49946418235E+00  0.60328991644E+02  0.10566000000E+00 0. -1.
         23    2    1    0    0    0 -0.15070502889E+02  0.19979719693E+02 -0.11268468468E+02  0.97553913978E+02  0.93613452530E+02 0.  0.
         13    1    3    3    0    0  0.19967151573E+02 -0.29129234420E+02 -0.11767932650E+02  0.37224922334E+02  0.10566000000E+00 0.  1.
         22    1    1    0    0    0  0.15070502889E+02 -0.19979719693E+02  0.11268468468E+02  0.27446086022E+02  0.00000000000E+00 0. -1.
</event>
<event>
 5    1  0.9041381E-005  0.9118800E+02  0.7818608E-02  0.1130116E+00
         25   -1    0    0    0    0  0.00000000000E+00  0.00000000000E+00  0.99999998245E-14  0.12500000000E+03  0.12500000000E+03 0.  0.
        -13    1    3    3    0    0 -0.34090309803E+02  0.13312222945E+02 -0.12588155972E+02  0.38701903532E+02  0.10566000000E+00 0. -1.
         23    2    1    0    0    0 -0.15600057585E+01 -0.28127236267E+02 -0.17855845804E+02  0.91647244981E+02  0.85362821212E+02 0.  0.
         13    1    3    3    0    0  0.32530304045E+02 -0.41439459212E+02 -0.52676898322E+01  0.52945341449E+02  0.10566000000E+00 0.  1.
         22    1    1    0    0    0  0.15600057585E+01  0.28127236267E+02  0.17855845804E+02  0.33352755019E+02  0.00000000000E+00 0.  1.
</event>
<event>
 5    1  0.9041381E-005  0.9118800E+02  0.7818608E-02  0.1130116E+00
         25   -1    0    0    0    0  0.00000000000E+00  0.00000000000E+00  0.99999998245E-14  0.12500000000E+03  0.12500000000E+03 0.  0.
        -13    1    3    3    0    0  0.88003114973E+01  0.38131725662E+02  0.43652488020E+02  0.58626144839E+02  0.10566000000E+00 0.  1.
         23    2    1    0    0    0  0.14477274047E+02  0.23203415554E+02  0.99940964171E+01  0.95881759662E+02  0.91353379332E+02 0.  0.
         13    1    3    3    0    0  0.56769625501E+01 -0.14928310108E+02 -0.33658391602E+02  0.37255614822E+02  0.10566000000E+00 0. -1.
         22    1    1    0    0    0 -0.14477274047E+02 -0.23203415554E+02 -0.99940964171E+01  0.29118240338E+02  0.00000000000E+00 0.  1.
</event>
<event>
 5    1  0.9041381E-005  0.9118800E+02  0.7818608E-02  0.1130116E+00
         25   -1    0    0    0    0  0.00000000000E+00  0.00000000000E+00  0.99999998245E-14  0.12500000000E+03  0.12500000000E+03 0.  0.
        -13    1    3    3    0    0  0.19341633329E+01  0.23437013209E+02 -0.50331735814E+02  0.55554742102E+02  0.10566000000E+00 0. -1.
         23    2    1    0    0    0 -0.15822118306E+02  0.20042860830E+02 -0.14635255716E+02  0.95567935720E+02  0.90922956012E+02 0.  0.
         13    1    3    3    0    0 -0.17756281639E+02 -0.33941523788E+01  0.35696480098E+02  0.40013193617E+02  0.10566000000E+00 0.  1.
         22    1    1    0    0    0  0.15822118306E+02 -0.20042860830E+02  0.14635255716E+02  0.29432064280E+02  0.00000000000E+00 0. -1.
</event>
<event>
 5    1  0.9041381E-005  0.9118800E+02  0.7818608E-02  0.1130116E+00
         25   -1    0    0    0    0  0.00000000000E+00  0.00000000000E+00  0.99999998245E-14  0.12500000000E+03  0.12500000000E+03 0.  0.
        -13    1    3    3    0    0  0.21325216029E+02  0.24517205025E+02 -0.37557175088E+02  0.49662971574E+02  0.10566000000E+00 0.  1.
         23    2    1    0    0    0 -0.18435153213E+02  0.18549643955E+01 -0.17078782746E+02  0.99801178857E+02  0.96567565540E+02 0.  0.
         13    1    3    3    0    0 -0.39760369242E+02 -0.22662240629E+02  0.20478392342E+02  0.50138207283E+02  0.10566000000E+00 0. -1.
         22    1    1    0    0    0  0.18435153213E+02 -0.18549643955E+01  0.17078782746E+02  0.25198821143E+02  0.00000000000E+00 0.  1.
</event>
<event>
 5    1  0.9041381E-005  0.9118800E+02  0.7818608E-02  0.1130116E+00
         25   -1    0    0    0    0  0.00000000000E+00  0.00000000000E+00  0.99999998245E-14  0.12500000000E+03  0.12500000000E+03 0.  0.
        -13    1    3    3    0    0  0.14308525219E+02 -0.48900238376E+02  0.40103380191E+01  0.51108327915E+02  0.10566000000E+00 0.  1.
         23    2    1    0    0    0  0.73509182769E+01 -0.13549108338E+02 -0.23814947702E+02  0.96631600850E+02  0.92373698706E+02 0.  0.
         13    1    3    3    0    0 -0.69576069419E+01  0.35351130038E+02 -0.27825285721E+02  0.45523272936E+02  0.10566000000E+00 0. -1.
         22    1    1    0    0    0 -0.73509182769E+01  0.13549108338E+02  0.23814947702E+02  0.28368399150E+02  0.00000000000E+00 0.  1.
</event>
<event>
 5    1  0.9041381E-005  0.9118800E+02  0.7818608E-02  0.1130116E+00
         25   -1    0    0    0    0  0.00000000000E+00  0.00000000000E+00  0.99999998245E-14  0.12500000000E+03  0.12500000000E+03 0.  0.
        -13    1    3    3    0    0 -0.21180364391E+02  0.88424011036E+01  0.47322337402E+02  0.52594778013E+02  0.10566000000E+00 0. -1.
         23    2    1    0    0    0 -0.28531109847E+02 -0.41698424520E+01  0.73876923297E+01  0.95234418985E+02  0.90463278441E+02 0.  0.
         13    1    3    3    0    0 -0.73507454565E+01 -0.13012243556E+02 -0.39934645073E+02  0.42639640972E+02  0.10566000000E+00 0.  1.
         22    1    1    0    0    0  0.28531109847E+02  0.41698424520E+01 -0.73876923297E+01  0.29765581015E+02  0.00000000000E+00 0. -1.
</event>
<event>
 5    1  0.9041381E-005  0.9118800E+02  0.7818608E-02  0.1130116E+00
         25   -1    0    0    0    0  0.00000000000E+00  0.00000000000E+00  0.99999998245E-14  0.12500000000E+03  0.12500000000E+03 0.  0.
        -13    1    3    3    0    0  0.64515538116E+01 -0.43937419053E+02 -0.83727132547E+00  0.44416568158E+02  0.10566000000E+00 0. -1.
         23    2    1    0    0    0 -0.13507442420E+02 -0.64200482291E+00 -0.24024759650E+02  0.97430954910E+02  0.93449123739E+02 0.  0.
         13    1    3    3    0    0 -0.19958996232E+02  0.43295414230E+02 -0.23187488325E+02  0.53014386752E+02  0.10566000000E+00 0.  1.
         22    1    1    0    0    0  0.13507442420E+02  0.64200482291E+00  0.24024759650E+02  0.27569045090E+02  0.00000000000E+00 0.  1.
</event>
<event>
 5    1  0.9041381E-005  0.9118800E+02  0.7818608E-02  0.1130116E+00
         25   -1    0    0    0    0  0.00000000000E+00  0.00000000000E+00  0.99999998245E-14  0.12500000000E+03  0.12500000000E+03 0.  0.
        -13    1    3    3    0    0 -0.20130091251E+02 -0.25784599472E+02 -0.25117324805E+02  0.41242663749E+02  0.10566000000E+00 0.  1.
         23    2    1    0    0    0 -0.28698377445E+02  0.55088614095E+01  0.14440463272E+02  0.92404426657E+02  0.86464482097E+02 0.  0.
         13    1    3    3    0    0 -0.85682861940E+01  0.31293460882E+02  0.39557788077E+02  0.51161762908E+02  0.10566000000E+00 0. -1.
         22    1    1    0    0    0  0.28698377445E+02 -0.55088614095E+01 -0.14440463272E+02  0.32595573343E+02  0.00000000000E+00 0. -1.
</event>
<event>
 5    1  0.9041381E-005  0.9118800E+02  0.7818608E-02  0.1130116E+00
         25   -1    0    0    0    0  0.00000000000E+00  0.00000000000E+00  0.99999998245E-14  0.12500000000E+03  0.12500000000E+03 0.  0.
        -13    1    3    3    0    0 -0.14208859040E+02  0.50842533312E+01  0.38866954440E+02  0.41694035768E+02  0.10566000000E+00 0.  1.
         23    2    1    0    0    0  0.25139974711E+02 -0.12866521458E+02  0.57197660205E+01  0.96185395609E+02  0.91767907801E+02 0.  0.
         13    1    3    3    0    0  0.39348833751E+02 -0.17950774789E+02 -0.33147188420E+02  0.54491359841E+02  0.10566000000E+00 0. -1.
         22    1    1    0    0    0 -0.25139974711E+02  0.12866521458E+02 -0.57197660205E+01  0.28814604391E+02  0.00000000000E+00 0. -1.
</event>
<event>
 5    1  0.9041381E-005  0.9118800E+02  0.7818608E-02  0.1130116E+00
         25   -1    0    0    0    0  0.00000000000E+00  0.00000000000E+00  0.99999998245E-14  0.12500000000E+03  0.12500000000E+03 0.  0.
        -13    1    3    3    0    0  0.14378531337E+02 -0.48737236153E+02  0.12944629049E+02  0.52436961549E+02  0.10566000000E+00 0. -1.
         23    2    1    0    0    0  0.25713163754E+01 -0.20230211551E+02 -0.19197597760E+02  0.96992485168E+02  0.92860762930E+02 0.  0.
         13    1    3    3    0    0 -0.11807214961E+02  0.28507024601E+02 -0.32142226808E+02  0.44555523619E+02  0.10566000000E+00 0.  1.
         22    1    1    0    0    0 -0.25713163754E+01  0.20230211551E+02  0.19197597760E+02  0.28007514832E+02  0.00000000000E+00 0. -1.
</event>
<event>
 5    1  0.9041381E-005  0.9118800E+02  0.7818608E-02  0.1130116E+00
         25   -1    0    0    0    0  0.00000000000E+00  0.00000000000E+00  0.99999998245E-14  0.12500000000E+03  0.12500000000E+03 0.  0.
        -13    1    3    3    0    0  0.99173218253E+01  0.35805976433E+02  0.33663176136E+01  0.37306359764E+02  0.10566000000E+00 0.  1.
         23    2    1    0    0    0  0.17277702372E+02 -0.20092087361E+02 -0.12244907722E+02  0.95808413217E+02  0.91252963263E+02 0.  0.
         13    1    3    3    0    0  0.73603805470E+01 -0.55898063794E+02 -0.15611225336E+02  0.58502053453E+02  0.10566000000E+00 0. -1.
         22    1    1    0    0    0 -0.17277702372E+02  0.20092087361E+02  0.12244907722E+02  0.29191586783E+02  0.00000000000E+00 0. -1.
</event>
<event>
 5    1  0.9041381E-005  0.9118800E+02  0.7818608E-02  0.1130116E+00
         25   -1    0    0    0    0  0.00000000000E+00  0.00000000000E+00  0.99999998245E-14  0.12500000000E+03  0.12500000000E+03 0.  0.
        -13    1    3    3    0    0 -0.80675162282E+01 -0.20905697487E+02 -0.26233880770E+02  0.34501603872E+02  0.10566000000E+00 0.  1.
         23    2    1    0    0    0  0.18114922520E+01  0.27644677878E+00  0.29763025032E+02  0.95180617276E+02  0.90388905951E+02 0.  0.
         13    1    3    3    0    0  0.98790084802E+01  0.21182144266E+02  0.55996905801E+02  0.60679013403E+02  0.10566000000E+00 0. -1.
         22    1    1    0    0    0 -0.18114922520E+01 -0.27644677878E+00 -0.29763025032E+02  0.29819382724E+02  0.00000000000E+00 0. -1.
</event>
<event>
 5    1  0.9041381E-005  0.9118800E+02  0.7818608E-02  0.1130116E+00
         25   -1    0    0    0    0  0.00000000000E+00  0.00000000000E+00  0.99999998245E-14  0.12500000000E+03  0.12500000000E+03 0.  0.
        -13    1    3    3    0    0 -0.15107465627E+02  0.27303017381E+02 -0.18447358002E+02  0.36249226986E+02  0.10566000000E+00 0.  1.
         23    2    1    0    0    0  0.55101708049E+01 -0.27406492912E+02 -0.99394982884E+01  0.95330630909E+02  0.90596124240E+02 0.  0.
         13    1    3    3    0    0  0.20617636431E+02 -0.54709510293E+02  0.85078597138E+01  0.59081403923E+02  0.10566000000E+00 0. -1.
         22    1    1    0    0    0 -0.55101708049E+01  0.27406492912E+02  0.99394982884E+01  0.29669369091E+02  0.00000000000E+00 0. -1.
</event>
<event>
 5    1  0.9041381E-005  0.9118800E+02  0.7818608E-02  0.1130116E+00
         25   -1    0    0    0    0  0.00000000000E+00  0.00000000000E+00  0.99999998245E-14  0.12500000000E+03  0.12500000000E+03 0.  0.
        -13    1    3    3    0    0  0.26800900437E+02  0.16044076550E+02  0.16246296639E+02  0.35208720157E+02  0.10566000000E+00 0.  1.
         23    2    1    0    0    0 -0.17805412651E+02 -0.21563433358E+02  0.14313838589E+02  0.93585029794E+02  0.88154735826E+02 0.  0.
         13    1    3    3    0    0 -0.44606313087E+02 -0.37607509908E+02 -0.19324580495E+01  0.58376309638E+02  0.10566000000E+00 0. -1.
         22    1    1    0    0    0  0.17805412651E+02  0.21563433358E+02 -0.14313838589E+02  0.31414970206E+02  0.00000000000E+00 0. -1.
</event>
<event>
 5    1  0.9041381E-005  0.9118800E+02  0.7818608E-02  0.1130116E+00
         25   -1    0    0    0    0  0.00000000000E+00  0.00000000000E+00  0.99999998245E-14  0.12500000000E+03  0.12500000000E+03 0.  0.
        -13    1    3    3    0    0 -0.54637593933E+02  0.62974138786E+01  0.11229659947E+02  0.56134129715E+02  0.10566000000E+00 0.  1.
         23    2    1    0    0    0 -0.25201192301E+02  0.93312946781E+01 -0.13707459643E+02  0.94832673244E+02  0.89906441988E+02 0.  0.
         13    1    3    3    0    0  0.29436401632E+02  0.30338807996E+01 -0.24937119590E+02  0.38698543529E+02  0.10566000000E+00 0. -1.
         22    1    1    0    0    0  0.25201192301E+02 -0.93312946781E+01  0.13707459643E+02  0.30167326756E+02  0.00000000000E+00 0.  1.
</event>
<event>
 5    1  0.9041381E-005  0.9118800E+02  0.7818608E-02  0.1130116E+00
         25   -1    0    0    0    0  0.00000000000E+00  0.00000000000E+00  0.99999998245E-14  0.12500000000E+03  0.12500000000E+03 0.  0.
        -13    1    3    3    0    0  0.25026240243E+02 -0.43015797677E+01  0.42836402078E+02  0.49797437647E+02  0.10566000000E+00 0. -1.
         23    2    1    0    0    0  0.24331008203E+02  0.15488589522E+02  0.93536310149E+00  0.96142258064E+02  0.91709129948E+02 0.  0.
         13    1    3    3    0    0 -0.69523204007E+00  0.19790169290E+02 -0.41901038976E+02  0.46344820417E+02  0.10566000000E+00 0.  1.
         22    1    1    0    0    0 -0.24331008203E+02 -0.15488589522E+02 -0.93536310149E+00  0.28857741936E+02  0.00000000000E+00 0. -1.
</event>
<event>
 5    1  0.9041381E-005  0.9118800E+02  0.7818608E-02  0.1130116E+00
         25   -1    0    0    0    0  0.00000000000E+00  0.00000000000E+00  0.99999998245E-14  0.12500000000E+03  0.12500000000E+03 0.  0.
        -13    1    3    3    0    0  0.21402819827E+02 -0.33694846477E+02 -0.16539534273E+02  0.43208688174E+02  0.10566000000E+00 0.  1.
         23    2    1    0    0    0 -0.14789818194E+02 -0.15658263723E+02  0.18416575167E+02  0.96661154118E+02  0.92413681507E+02 0.  0.
         13    1    3    3    0    0 -0.36192638021E+02  0.18036582754E+02  0.34956109440E+02  0.53452465945E+02  0.10566000000E+00 0. -1.
         22    1    1    0    0    0  0.14789818194E+02  0.15658263723E+02 -0.18416575167E+02  0.28338845882E+02  0.00000000000E+00 0. -1.
</event>
<event>
 5    1  0.9041381E-005  0.9118800E+02  0.7818608E-02  0.1130116E+00
         25   -1    0    0    0    0  0.00000000000E+00  0.00000000000E+00  0.99999998245E-14  0.12500000000E+03  0.12500000000E+03 0.  0.
        -13    1    3    3    0    0  0.13442280238E+02  0.38834374171E+02 -0.36839561683E+02  0.55190288859E+02  0.10566000000E+00 0.  1.
         23    2    1    0    0    0 -0.30222596300E-01  0.86975367497E+00 -0.28697564055E+02  0.96289243000E+02  0.91909252798E+02 0.  0.
         13    1    3    3    0    0 -0.13472502835E+02 -0.37964620496E+02  0.81419976285E+01  0.41098954141E+02  0.10566000000E+00 0. -1.
         22    1    1    0    0    0  0.30222596300E-01 -0.86975367497E+00  0.28697564055E+02  0.28710757000E+02  0.00000000000E+00 0.  1.
</event>
<event>
 5    1  0.9041381E-005  0.9118800E+02  0.7818608E-02  0.1130116E+00
         25   -1    0    0    0    0  0.00000000000E+00  0.00000000000E+00  0.99999998245E-14  0.12500000000E+03  0.12500000000E+03 0.  0.
        -13    1    3    3    0    0 -0.12759756880E+02 -0.53099803808E+02  0.28044159805E+02  0.61391258525E+02  0.10566000000E+00 0.  1.
         23    2    1    0    0    0  0.23627778856E+01 -0.25362555776E+02  0.13518183626E+02  0.96162814919E+02  0.91737144766E+02 0.  0.
         13    1    3    3    0    0  0.15122534765E+02  0.27737248032E+02 -0.14525976179E+02  0.34771556395E+02  0.10566000000E+00 0. -1.
         22    1    1    0    0    0 -0.23627778856E+01  0.25362555776E+02 -0.13518183626E+02  0.28837185081E+02  0.00000000000E+00 0.  1.
</event>
<event>
 5    1  0.9041381E-005  0.9118800E+02  0.7818608E-02  0.1130116E+00
         25   -1    0    0    0    0  0.00000000000E+00  0.00000000000E+00  0.99999998245E-14  0.12500000000E+03  0.12500000000E+03 0.  0.
        -13    1    3    3    0    0 -0.41547933166E+02 -0.26273744175E+02  0.25108978575E+02  0.55199749569E+02  0.10566000000E+00 0.  1.
         23    2    1    0    0    0 -0.13036459194E+02  0.57945731544E+00  0.27626102800E+02  0.94446987137E+02  0.89368600661E+02 0.  0.
         13    1    3    3    0    0  0.28511473971E+02  0.26853201491E+02  0.25171242248E+01  0.39247237568E+02  0.10566000000E+00 0. -1.
         22    1    1    0    0    0  0.13036459194E+02 -0.57945731544E+00 -0.27626102800E+02  0.30553012863E+02  0.00000000000E+00 0. -1.
</event>
<event>
 5    1  0.9041381E-005  0.9118800E+02  0.7818608E-02  0.1130116E+00
         25   -1    0    0    0    0  0.00000000000E+00  0.00000000000E+00  0.99999998245E-14  0.12500000000E+03  0.12500000000E+03 0.  0.
        -13    1    3    3    0    0 -0.34987837253E+02  0.26832578624E+02 -0.19349812914E+02  0.48151453302E+02  0.10566000000E+00 0.  1.
         23    2    1    0    0    0 -0.11738271493E+02  0.16681894909E+02  0.20942695203E+02  0.95765275480E+02  0.91193853247E+02 0.  0.
         13    1    3    3    0    0  0.23249565760E+02 -0.10150683716E+02  0.40292508118E+02  0.47613822178E+02  0.10566000000E+00 0. -1.
         22    1    1    0    0    0  0.11738271493E+02 -0.16681894909E+02 -0.20942695203E+02  0.29234724520E+02  0.00000000000E+00 0. -1.
</event>
<event>
 5    1  0.9041381E-005  0.9118800E+02  0.7818608E-02  0.1130116E+00
         25   -1    0    0    0    0  0.00000000000E+00  0.00000000000E+00  0.99999998245E-14  0.12500000000E+03  0.12500000000E+03 0.  0.
        -13    1    3    3    0    0 -0.99121089629E+01  0.22519134113E+02  0.24663312028E+02  0.34837500334E+02  0.10566000000E+00 0.  1.
         23    2    1    0    0    0  0.43811605830E+01 -0.30226511567E+02  0.85759046713E+00  0.94445589010E+02  0.89366645077E+02 0.  0.
         13    1    3    3    0    0  0.14293269546E+02 -0.52745645680E+02 -0.23805721561E+02  0.59608088676E+02  0.10566000000E+00 0. -1.
         22    1    1    0    0    0 -0.43811605830E+01  0.30226511567E+02 -0.85759046713E+00  0.30554410990E+02  0.00000000000E+00 0. -1.
</event>
<event>
 5    1  0.9041381E-005  0.9118800E+02  0.7818608E-02  0.1130116E+00
         25   -1    0    0    0    0  0.00000000000E+00  0.00000000000E+00  0.99999998245E-14  0.12500000000E+03  0.12500000000E+03 0.  0.
        -13    1    3    3    0    0  0.27722169546E+02 -0.15123505440E+02  0.19477946581E+02  0.37103108605E+02  0.10566000000E+00 0.  1.
         23    2    1    0    0    0  0.27681960485E+01  0.28517393585E+02  0.24064223040E+02  0.87583540029E+02  0.79188919725E+02 0.  0.
         13    1    3    3    0    0 -0.24953973497E+02  0.43640899025E+02  0.45862764597E+01  0.50480431424E+02  0.10566000000E+00 0. -1.
         22    1    1    0    0    0 -0.27681960485E+01 -0.28517393585E+02 -0.24064223040E+02  0.37416459971E+02  0.00000000000E+00 0. -1.
</event>
<event>
 5    1  0.9041381E-005  0.9118800E+02  0.7818608E-02  0.1130116E+00
         25   -1    0    0    0    0  0.00000000000E+00  0.00000000000E+00  0.99999998245E-14  0.12500000000E+03  0.12500000000E+03 0.  0.
        -13    1    3    3    0    0 -0.26882210372E+02  0.34087629873E+02  0.43885639982E+02  0.61729897987E+02  0.10566000000E+00 0. -1.
         23    2    1    0    0    0 -0.18263741145E+02  0.12221383197E+02  0.19151369171E+02  0.95850362113E+02  0.91310407557E+02 0.  0.
         13    1    3    3    0    0  0.86184692270E+01 -0.21866246677E+02 -0.24734270811E+02  0.34120464126E+02  0.10566000000E+00 0.  1.
         22    1    1    0    0    0  0.18263741145E+02 -0.12221383197E+02 -0.19151369171E+02  0.29149637887E+02  0.00000000000E+00 0. -1.
</event>
<event>
 5    1  0.9041381E-005  0.9118800E+02  0.7818608E-02  0.1130116E+00
         25   -1    0    0    0    0  0.00000000000E+00  0.00000000000E+00  0.99999998245E-14  0.12500000000E+03  0.12500000000E+03 0.  0.
        -13    1    3    3    0    0 -0.12062864940E+02  0.32233070351E+02 -0.19004559333E+02  0.39314984093E+02  0.10566000000E+00 0.  1.
         23    2    1    0    0    0  0.27769525908E+02  0.12357817504E+02  0.10637947672E+02  0.92797078498E+02  0.87030279929E+02 0.  0.
         13    1    3    3    0    0  0.39832390848E+02 -0.19875252847E+02  0.29642507004E+02  0.53482094405E+02  0.10566000000E+00 0. -1.
         22    1    1    0    0    0 -0.27769525908E+02 -0.12357817504E+02 -0.10637947672E+02  0.32202921502E+02  0.00000000000E+00 0. -1.
</event>
<event>
 5    1  0.9041381E-005  0.9118800E+02  0.7818608E-02  0.1130116E+00
         25   -1    0    0    0    0  0.00000000000E+00  0.00000000000E+00  0.99999998245E-14  0.12500000000E+03  0.12500000000E+03 0.  0.
        -13    1    3    3    0    0  0.20049701599E+02 -0.57855030827E+02 -0.83290256682E+01  0.61794651539E+02  0.10566000000E+00 0. -1.
         23    2    1    0    0    0  0.54871800421E+01 -0.30609919977E+02 -0.87645030925E+01  0.92690669146E+02  0.86877311690E+02 0.  0.
         13    1    3    3    0    0 -0.14562521556E+02  0.27245110850E+02 -0.43547742424E+00  0.30896017607E+02  0.10566000000E+00 0.  1.
         22    1    1    0    0    0 -0.54871800421E+01  0.30609919977E+02  0.87645030925E+01  0.32309330854E+02  0.00000000000E+00 0. -1.
</event>
<event>
 5    1  0.9041381E-005  0.9118800E+02  0.7818608E-02  0.1130116E+00
         25   -1    0    0    0    0  0.00000000000E+00  0.00000000000E+00  0.99999998245E-14  0.12500000000E+03  0.12500000000E+03 0.  0.
        -13    1    3    3    0    0  0.27839492044E+02  0.35354966577E+02  0.50151138452E+01  0.45278841746E+02  0.10566000000E+00 0.  1.
         23    2    1    0    0    0  0.22266529682E+02 -0.15714669637E+02  0.75684903490E+01  0.96715176648E+02  0.92486724248E+02 0.  0.
         13    1    3    3    0    0 -0.55729623625E+01 -0.51069636214E+02  0.25533765039E+01  0.51436334902E+02  0.10566000000E+00 0. -1.
         22    1    1    0    0    0 -0.22266529682E+02  0.15714669637E+02 -0.75684903490E+01  0.28284823352E+02  0.00000000000E+00 0.  1.
</event>
<event>
 5    1  0.9041381E-005  0.9118800E+02  0.7818608E-02  0.1130116E+00
         25   -1    0    0    0    0  0.00000000000E+00  0.00000000000E+00  0.99999998245E-14  0.12500000000E+03  0.12500000000E+03 0.  0.
        -13    1    3    3    0    0 -0.52416873912E+02 -0.28579269008E+02  0.13551775635E+02  0.61220626219E+02  0.10566000000E+00 0.  1.
         23    2    1    0    0    0 -0.21376670870E+02 -0.15785044843E+02  0.14341821789E+02  0.94803683165E+02  0.89866127051E+02 0.  0.
         13    1    3    3    0    0  0.31040203042E+02  0.12794224165E+02  0.79004615459E+00  0.33583056946E+02  0.10566000000E+00 0. -1.
         22    1    1    0    0    0  0.21376670870E+02  0.15785044843E+02 -0.14341821789E+02  0.30196316835E+02  0.00000000000E+00 0.  1.
</event>
<event>
 5    1  0.9041381E-005  0.9118800E+02  0.7818608E-02  0.1130116E+00
         25   -1    0    0    0    0  0.00000000000E+00  0.00000000000E+00  0.99999998245E-14  0.12500000000E+03  0.12500000000E+03 0.  0.
        -13    1    3    3    0    0  0.66225303120E+01  0.11472302376E+02  0.46127095934E+02  0.47991580229E+02  0.10566000000E+00 0.  1.
         23    2    1    0    0    0  0.29318002363E+02 -0.87798093151E+01  0.28678041612E+02  0.83058846167E+02  0.71691781549E+02 0.  0.
         13    1    3    3    0    0  0.22695472051E+02 -0.20252111691E+02 -0.17449054322E+02  0.35067265938E+02  0.10566000000E+00 0. -1.
         22    1    1    0    0    0 -0.29318002363E+02  0.87798093151E+01 -0.28678041612E+02  0.41941153833E+02  0.00000000000E+00 0.  1.
</event>
<event>
 5    1  0.9041381E-005  0.9118800E+02  0.7818608E-02  0.1130116E+00
         25   -1    0    0    0    0  0.00000000000E+00  0.00000000000E+00  0.99999998245E-14  0.12500000000E+03  0.12500000000E+03 0.  0.
        -13    1    3    3    0    0 -0.85487102042E+01  0.26265035388E+01  0.46688100275E+02  0.47537025972E+02  0.10566000000E+00 0.  1.
         23    2    1    0    0    0 -0.29040756852E+02  0.48162174146E+00  0.30491516356E+01  0.95795636563E+02  0.91235459887E+02 0.  0.
         13    1    3    3    0    0 -0.20492046648E+02 -0.21448817974E+01 -0.43638948639E+02  0.48258610591E+02  0.10566000000E+00 0. -1.
         22    1    1    0    0    0  0.29040756852E+02 -0.48162174146E+00 -0.30491516356E+01  0.29204363437E+02  0.00000000000E+00 0. -1.
</event>
<event>
 5    1  0.9041381E-005  0.9118800E+02  0.7818608E-02  0.1130116E+00
         25   -1    0    0    0    0  0.00000000000E+00  0.00000000000E+00  0.99999998245E-14  0.12500000000E+03  0.12500000000E+03 0.  0.
        -13    1    3    3    0    0  0.18927218193E+02  0.33448488203E+02  0.34783890006E+02  0.51836002156E+02  0.10566000000E+00 0.  1.
         23    2    1    0    0    0  0.16186019428E+02 -0.87259076739E+01 -0.60961045797E-01  0.10661162308E+03  0.10501383608E+03 0.  0.
         13    1    3    3    0    0 -0.27411987646E+01 -0.42174395877E+02 -0.34844851052E+02  0.54775620919E+02  0.10566000000E+00 0. -1.
         22    1    1    0    0    0 -0.16186019428E+02  0.87259076739E+01  0.60961045797E-01  0.18388376924E+02  0.00000000000E+00 0. -1.
</event>
<event>
 5    1  0.9041381E-005  0.9118800E+02  0.7818608E-02  0.1130116E+00
         25   -1    0    0    0    0  0.00000000000E+00  0.00000000000E+00  0.99999998245E-14  0.12500000000E+03  0.12500000000E+03 0.  0.
        -13    1    3    3    0    0  0.26145024357E+02 -0.19966520130E+02  0.46094311227E+02  0.56629682289E+02  0.10566000000E+00 0.  1.
         23    2    1    0    0    0  0.27740323164E+02 -0.19202081458E+01  0.13119376389E+02  0.94253768273E+02  0.89097935264E+02 0.  0.
         13    1    3    3    0    0  0.15952988076E+01  0.18046311984E+02 -0.32974934838E+02  0.37624085984E+02  0.10566000000E+00 0. -1.
         22    1    1    0    0    0 -0.27740323164E+02  0.19202081458E+01 -0.13119376389E+02  0.30746231727E+02  0.00000000000E+00 0.  1.
</event>
<event>
 5    1  0.9041381E-005  0.9118800E+02  0.7818608E-02  0.1130116E+00
         25   -1    0    0    0    0  0.00000000000E+00  0.00000000000E+00  0.99999998245E-14  0.12500000000E+03  0.12500000000E+03 0.  0.
        -13    1    3    3    0    0 -0.50913541248E+02 -0.51877763206E+01  0.24184613518E+01  0.51234381278E+02  0.10566000000E+00 0.  1.
         23    2    1    0    0    0 -0.12592105940E+02 -0.16842458050E+02 -0.19002339256E+02  0.96657127485E+02  0.92408234867E+02 0.  0.
         13    1    3    3    0    0  0.38321435308E+02 -0.11654681730E+02 -0.21420800608E+02  0.45422746207E+02  0.10566000000E+00 0. -1.
         22    1    1    0    0    0  0.12592105940E+02  0.16842458050E+02  0.19002339256E+02  0.28342872515E+02  0.00000000000E+00 0. -1.
</event>
<event>
 5    1  0.9041381E-005  0.9118800E+02  0.7818608E-02  0.1130116E+00
         25   -1    0    0    0    0  0.00000000000E+00  0.00000000000E+00  0.99999998245E-14  0.12500000000E+03  0.12500000000E+03 0.  0.
        -13    1    3    3    0    0 -0.24173685054E+02 -0.33958110554E+02 -0.33741898537E+01  0.41820050725E+02  0.10566000000E+00 0.  1.
         23    2    1    0    0    0 -0.22068470049E+02  0.19583100922E+02 -0.23591911583E+00  0.95494562029E+02  0.90822026554E+02 0.  0.
         13    1    3    3    0    0  0.21052150050E+01  0.53541211475E+02  0.31382707379E+01  0.53674511304E+02  0.10566000000E+00 0. -1.
         22    1    1    0    0    0  0.22068470049E+02 -0.19583100922E+02  0.23591911583E+00  0.29505437971E+02  0.00000000000E+00 0. -1.
</event>
<event>
 5    1  0.9041381E-005  0.9118800E+02  0.7818608E-02  0.1130116E+00
         25   -1    0    0    0    0  0.00000000000E+00  0.00000000000E+00  0.99999998245E-14  0.12500000000E+03  0.12500000000E+03 0.  0.
        -13    1    3    3    0    0  0.13294898620E+02 -0.42654163083E+02 -0.63358685222E+01  0.45125229657E+02  0.10566000000E+00 0.  1.
         23    2    1    0    0    0  0.29957253590E+02 -0.25826219939E+02  0.20113092717E+02  0.80626954380E+02  0.67318189184E+02 0.  0.
         13    1    3    3    0    0  0.16662354970E+02  0.16827943145E+02  0.26448961239E+02  0.35501724723E+02  0.10566000000E+00 0. -1.
         22    1    1    0    0    0 -0.29957253590E+02  0.25826219939E+02 -0.20113092717E+02  0.44373045620E+02  0.00000000000E+00 0.  1.
</event>
<event>
 5    1  0.9041381E-005  0.9118800E+02  0.7818608E-02  0.1130116E+00
         25   -1    0    0    0    0  0.00000000000E+00  0.00000000000E+00  0.99999998245E-14  0.12500000000E+03  0.12500000000E+03 0.  0.
        -13    1    3    3    0    0 -0.48106189142E+02  0.37445283097E+00 -0.30695946303E+02  0.57066609608E+02  0.10566000000E+00 0.  1.
         23    2    1    0    0    0 -0.27968724748E+02  0.25198302859E+01  0.33892504772E+01  0.96714206260E+02  0.92485412714E+02 0.  0.
         13    1    3    3    0    0  0.20137464394E+02  0.21453774550E+01  0.34085196781E+02  0.39647596651E+02  0.10566000000E+00 0. -1.
         22    1    1    0    0    0  0.27968724748E+02 -0.25198302859E+01 -0.33892504772E+01  0.28285793740E+02  0.00000000000E+00 0.  1.
</event>
<event>
 5    1  0.9041381E-005  0.9118800E+02  0.7818608E-02  0.1130116E+00
         25   -1    0    0    0    0  0.00000000000E+00  0.00000000000E+00  0.99999998245E-14  0.12500000000E+03  0.12500000000E+03 0.  0.
        -13    1    3    3    0    0  0.30043400953E+02 -0.51500121943E+02  0.16488060582E+02  0.61860615958E+02  0.10566000000E+00 0. -1.
         23    2    1    0    0    0  0.88413347811E+01 -0.27658875018E+02  0.82878836767E+01  0.94802788476E+02  0.89864882568E+02 0.  0.
         13    1    3    3    0    0 -0.21202066172E+02  0.23841246924E+02 -0.82001769054E+01  0.32942172518E+02  0.10566000000E+00 0.  1.
         22    1    1    0    0    0 -0.88413347811E+01  0.27658875018E+02 -0.82878836767E+01  0.30197211524E+02  0.00000000000E+00 0. -1.
</event>
<event>
 5    1  0.9041381E-005  0.9118800E+02  0.7818608E-02  0.1130116E+00
         25   -1    0    0    0    0  0.00000000000E+00  0.00000000000E+00  0.99999998245E-14  0.12500000000E+03  0.12500000000E+03 0.  0.
        -13    1    3    3    0    0 -0.25822716323E+01 -0.91879317346E+01 -0.30546306366E+02  0.32002721963E+02  0.10566000000E+00 0. -1.
         23    2    1    0    0    0 -0.30498591252E+02  0.67909856035E+01  0.17016609384E+02  0.89421262688E+02  0.82038501157E+02 0.  0.
         13    1    3    3    0    0 -0.27916319619E+02  0.15978917338E+02  0.47562915750E+02  0.57418540726E+02  0.10566000000E+00 0.  1.
         22    1    1    0    0    0  0.30498591252E+02 -0.67909856035E+01 -0.17016609384E+02  0.35578737312E+02  0.00000000000E+00 0.  1.
</event>
<event>
 5    1  0.9041381E-005  0.9118800E+02  0.7818608E-02  0.1130116E+00
         25   -1    0    0    0    0  0.00000000000E+00  0.00000000000E+00  0.99999998245E-14  0.12500000000E+03  0.12500000000E+03 0.  0.
        -13    1    3    3    0    0  0.22177778950E+02 -0.34804320026E+02 -0.24972619474E+01  0.41345399416E+02  0.10566000000E+00 0. -1.
         23    2    1    0    0    0 -0.12428438829E+02 -0.86615970255E+01  0.27169809802E+02  0.93892317357E+02  0.88589386155E+02 0.  0.
         13    1    3    3    0    0 -0.34606217779E+02  0.26142723001E+02  0.29667071749E+02  0.52546917941E+02  0.10566000000E+00 0.  1.
         22    1    1    0    0    0  0.12428438829E+02  0.86615970255E+01 -0.27169809802E+02  0.31107682643E+02  0.00000000000E+00 0.  1.
</event>
<event>
 5    1  0.9041381E-005  0.9118800E+02  0.7818608E-02  0.1130116E+00
         25   -1    0    0    0    0  0.00000000000E+00  0.00000000000E+00  0.99999998245E-14  0.12500000000E+03  0.12500000000E+03 0.  0.
        -13    1    3    3    0    0  0.24627762325E+02 -0.34349588646E+02  0.31066157702E+02  0.52455106860E+02  0.10566000000E+00 0.  1.
         23    2    1    0    0    0 -0.87776851354E+01 -0.25630375056E+02  0.15723529793E+01  0.97862642432E+02  0.94024787200E+02 0.  0.
         13    1    3    3    0    0 -0.33405447461E+02  0.87192135893E+01 -0.29493804723E+02  0.45407535572E+02  0.10566000000E+00 0. -1.
         22    1    1    0    0    0  0.87776851354E+01  0.25630375056E+02 -0.15723529793E+01  0.27137357568E+02  0.00000000000E+00 0.  1.
</event>
<event>
 5    1  0.9041381E-005  0.9118800E+02  0.7818608E-02  0.1130116E+00
         25   -1    0    0    0    0  0.00000000000E+00  0.00000000000E+00  0.99999998245E-14  0.12500000000E+03  0.12500000000E+03 0.  0.
        -13    1    3    3    0    0  0.30636543977E+02 -0.40416335414E+02  0.99751590441E+01  0.51687454543E+02  0.10566000000E+00 0.  1.
         23    2    1    0    0    0  0.15745484924E+02 -0.11586740038E+02 -0.20832554187E+02  0.96431343151E+02  0.92102311522E+02 0.  0.
         13    1    3    3    0    0 -0.14891059053E+02  0.28829595375E+02 -0.30807713231E+02  0.44743888608E+02  0.10566000000E+00 0. -1.
         22    1    1    0    0    0 -0.15745484924E+02  0.11586740038E+02  0.20832554187E+02  0.28568656849E+02  0.00000000000E+00 0.  1.
</event>
<event>
 5    1  0.9041381E-005  0.9118800E+02  0.7818608E-02  0.1130116E+00
         25   -1    0    0    0    0  0.00000000000E+00  0.00000000000E+00  0.99999998245E-14  0.12500000000E+03  0.12500000000E+03 0.  0.
        -13    1    3    3    0    0 -0.28952418191E+02 -0.27535233299E+02  0.39602713359E+02  0.56256712145E+02  0.10566000000E+00 0.  1.
         23    2    1    0    0    0 -0.23069444865E+02  0.44184904437E+01  0.13711443923E+02  0.97802094959E+02  0.93944258684E+02 0.  0.
         13    1    3    3    0    0  0.58829733262E+01  0.31953723742E+02 -0.25891269435E+02  0.41545382814E+02  0.10566000000E+00 0. -1.
         22    1    1    0    0    0  0.23069444865E+02 -0.44184904437E+01 -0.13711443923E+02  0.27197905041E+02  0.00000000000E+00 0.  1.
</event>
<event>
 5    1  0.9041381E-005  0.9118800E+02  0.7818608E-02  0.1130116E+00
         25   -1    0    0    0    0  0.00000000000E+00  0.00000000000E+00  0.99999998245E-14  0.12500000000E+03  0.12500000000E+03 0.  0.
        -13    1    3    3    0    0  0.32010503221E+02 -0.35908914719E+02  0.39341920345E+02  0.62144350775E+02  0.10566000000E+00 0. -1.
         23    2    1    0    0    0  0.11230891532E+02 -0.17037397446E+02  0.21243927641E+02  0.95543077249E+02  0.90888774402E+02 0.  0.
         13    1    3    3    0    0 -0.20779611689E+02  0.18871517273E+02 -0.18097992704E+02  0.33398726474E+02  0.10566000000E+00 0.  1.
         22    1    1    0    0    0 -0.11230891532E+02  0.17037397446E+02 -0.21243927641E+02  0.29456922751E+02  0.00000000000E+00 0. -1.
</event>
<event>
 5    1  0.9041381E-005  0.9118800E+02  0.7818608E-02  0.1130116E+00
         25   -1    0    0    0    0  0.00000000000E+00  0.00000000000E+00  0.99999998245E-14  0.12500000000E+03  0.12500000000E+03 0.  0.
        -13    1    3    3    0    0  0.87946985606E+01  0.43258989827E+02 -0.31886263259E+02  0.54455779053E+02  0.10566000000E+00 0.  1.
         23    2    1    0    0    0  0.20949163280E+02  0.22296892865E+02 -0.12442685044E+00  0.94405321450E+02  0.89310303787E+02 0.  0.
         13    1    3    3    0    0  0.12154464719E+02 -0.20962096962E+02  0.31761836408E+02  0.39949542397E+02  0.10566000000E+00 0. -1.
         22    1    1    0    0    0 -0.20949163280E+02 -0.22296892865E+02  0.12442685044E+00  0.30594678550E+02  0.00000000000E+00 0.  1.
</event>
<event>
 5    1  0.9041381E-005  0.9118800E+02  0.7818608E-02  0.1130116E+00
         25   -1    0    0    0    0  0.00000000000E+00  0.00000000000E+00  0.99999998245E-14  0.12500000000E+03  0.12500000000E+03 0.  0.
        -13    1    3    3    0    0 -0.30278154574E+02  0.45352024417E+02  0.17299346917E+01  0.54558011338E+02  0.10566000000E+00 0.  1.
         23    2    1    0    0    0 -0.24836620369E+02  0.21913313170E+02  0.21339828726E+02  0.85598993724E+02  0.75991765548E+02 0.  0.
         13    1    3    3    0    0  0.54415342041E+01 -0.23438711247E+02  0.19609894034E+02  0.31040982386E+02  0.10566000000E+00 0. -1.
         22    1    1    0    0    0  0.24836620369E+02 -0.21913313170E+02 -0.21339828726E+02  0.39401006276E+02  0.00000000000E+00 0.  1.
</event>
<event>
 5    1  0.9041381E-005  0.9118800E+02  0.7818608E-02  0.1130116E+00
         25   -1    0    0    0    0  0.00000000000E+00  0.00000000000E+00  0.99999998245E-14  0.12500000000E+03  0.12500000000E+03 0.  0.
        -13    1    3    3    0    0  0.19270652867E+02  0.26972999886E+02  0.21983579208E+02  0.39776748278E+02  0.10566000000E+00 0.  1.
         23    2    1    0    0    0 -0.22953572018E+02 -0.69634197194E+01  0.19639103166E+02  0.93999192660E+02  0.88740059527E+02 0.  0.
         13    1    3    3    0    0 -0.42224224885E+02 -0.33936419605E+02 -0.23444760413E+01  0.54222444381E+02  0.10566000000E+00 0. -1.
         22    1    1    0    0    0  0.22953572018E+02  0.69634197194E+01 -0.19639103166E+02  0.31000807340E+02  0.00000000000E+00 0. -1.
</event>
<event>
 5    1  0.9041381E-005  0.9118800E+02  0.7818608E-02  0.1130116E+00
         25   -1    0    0    0    0  0.00000000000E+00  0.00000000000E+00  0.99999998245E-14  0.12500000000E+03  0.12500000000E+03 0.  0.
        -13    1    3    3    0    0  0.38510171632E+02 -0.95467330421E+01 -0.28602614838E+02  0.48911084332E+02  0.10566000000E+00 0. -1.
         23    2    1    0    0    0 -0.71531376991E+01 -0.21977752179E+02 -0.10992252868E+02  0.99406668976E+02  0.96055542495E+02 0.  0.
         13    1    3    3    0    0 -0.45663309331E+02 -0.12431019137E+02  0.17610361970E+02  0.50495584645E+02  0.10566000000E+00 0.  1.
         22    1    1    0    0    0  0.71531376991E+01  0.21977752179E+02  0.10992252868E+02  0.25593331024E+02  0.00000000000E+00 0. -1.
</event>
<event>
 5    1  0.9041381E-005  0.9118800E+02  0.7818608E-02  0.1130116E+00
         25   -1    0    0    0    0  0.00000000000E+00  0.00000000000E+00  0.99999998245E-14  0.12500000000E+03  0.12500000000E+03 0.  0.
        -13    1    3    3    0    0  0.34243516978E+02 -0.43953398824E+02 -0.15960307025E+02  0.57959143261E+02  0.10566000000E+00 0.  1.
         23    2    1    0    0    0  0.66043016049E+01 -0.25700549406E+02  0.61214515998E+01  0.97767533914E+02  0.93898261317E+02 0.  0.
         13    1    3    3    0    0 -0.27639215373E+02  0.18252849418E+02  0.22081758625E+02  0.39808390652E+02  0.10566000000E+00 0. -1.
         22    1    1    0    0    0 -0.66043016049E+01  0.25700549406E+02 -0.61214515998E+01  0.27232466086E+02  0.00000000000E+00 0.  1.
</event>
<event>
 5    1  0.9041381E-005  0.9118800E+02  0.7818608E-02  0.1130116E+00
         25   -1    0    0    0    0  0.00000000000E+00  0.00000000000E+00  0.99999998245E-14  0.12500000000E+03  0.12500000000E+03 0.  0.
        -13    1    3    3    0    0  0.32558615745E+02 -0.75283554678E+01  0.98460025427E+01  0.34838118855E+02  0.10566000000E+00 0. -1.
         23    2    1    0    0    0 -0.19616443237E+02  0.59888760765E+01 -0.19919482535E+02  0.96408790399E+02  0.92071698148E+02 0.  0.
         13    1    3    3    0    0 -0.52175058982E+02  0.13517231544E+02 -0.29765485078E+02  0.61570671544E+02  0.10566000000E+00 0.  1.
         22    1    1    0    0    0  0.19616443237E+02 -0.59888760765E+01  0.19919482535E+02  0.28591209601E+02  0.00000000000E+00 0.  1.
</event>
<event>
 5    1  0.9041381E-005  0.9118800E+02  0.7818608E-02  0.1130116E+00
         25   -1    0    0    0    0  0.00000000000E+00  0.00000000000E+00  0.99999998245E-14  0.12500000000E+03  0.12500000000E+03 0.  0.
        -13    1    3    3    0    0  0.49013639078E+02 -0.32744325480E+02  0.15551017693E+02  0.60962061827E+02  0.10566000000E+00 0.  1.
         23    2    1    0    0    0  0.22593643620E+02 -0.10103743584E+02  0.15577171610E+02  0.95756083679E+02  0.91181253116E+02 0.  0.
         13    1    3    3    0    0 -0.26419995459E+02  0.22640581896E+02  0.26153916787E-01  0.34794021853E+02  0.10566000000E+00 0. -1.
         22    1    1    0    0    0 -0.22593643620E+02  0.10103743584E+02 -0.15577171610E+02  0.29243916321E+02  0.00000000000E+00 0.  1.
</event>
<event>
 5    1  0.9041381E-005  0.9118800E+02  0.7818608E-02  0.1130116E+00
         25   -1    0    0    0    0  0.00000000000E+00  0.00000000000E+00  0.99999998245E-14  0.12500000000E+03  0.12500000000E+03 0.  0.
        -13    1    3    3    0    0  0.11578245038E+02 -0.26901283302E+02 -0.25694833816E+02  0.38961140259E+02  0.10566000000E+00 0. -1.
         23    2    1    0    0    0  0.87655883377E+01  0.26784535402E+02 -0.62205008779E+01  0.96139273973E+02  0.91705062529E+02 0.  0.
         13    1    3    3    0    0 -0.28126567003E+01  0.53685818704E+02  0.19474332938E+02  0.57178133714E+02  0.10566000000E+00 0.  1.
         22    1    1    0    0    0 -0.87655883377E+01 -0.26784535402E+02  0.62205008779E+01  0.28860726027E+02  0.00000000000E+00 0.  1.
</event>
<event>
 5    1  0.9041381E-005  0.9118800E+02  0.7818608E-02  0.1130116E+00
         25   -1    0    0    0    0  0.00000000000E+00  0.00000000000E+00  0.99999998245E-14  0.12500000000E+03  0.12500000000E+03 0.  0.
        -13    1    3    3    0    0 -0.12335648209E+02 -0.22960669176E+02 -0.35135932842E+02  0.43748205523E+02  0.10566000000E+00 0.  1.
         23    2    1    0    0    0  0.16388071485E+02 -0.23923345588E+02  0.73899252920E+01  0.95074987938E+02  0.90242711531E+02 0.  0.
         13    1    3    3    0    0  0.28723719695E+02 -0.96267641189E+00  0.42525858134E+02  0.51326782415E+02  0.10566000000E+00 0. -1.
         22    1    1    0    0    0 -0.16388071485E+02  0.23923345588E+02 -0.73899252920E+01  0.29925012062E+02  0.00000000000E+00 0.  1.
</event>
<event>
 5    1  0.9041381E-005  0.9118800E+02  0.7818608E-02  0.1130116E+00
         25   -1    0    0    0    0  0.00000000000E+00  0.00000000000E+00  0.99999998245E-14  0.12500000000E+03  0.12500000000E+03 0.  0.
        -13    1    3    3    0    0 -0.34176626498E+02 -0.14177179913E+02  0.35078173949E+02  0.50985524227E+02  0.10566000000E+00 0.  1.
         23    2    1    0    0    0 -0.21178076517E+02  0.14957724527E+02 -0.88130603678E+00  0.99057348857E+02  0.95599880828E+02 0.  0.
         13    1    3    3    0    0  0.12998549981E+02  0.29134904440E+02 -0.35959479986E+02  0.48071824630E+02  0.10566000000E+00 0. -1.
         22    1    1    0    0    0  0.21178076517E+02 -0.14957724527E+02  0.88130603678E+00  0.25942651143E+02  0.00000000000E+00 0. -1.
</event>
<event>
 5    1  0.9041381E-005  0.9118800E+02  0.7818608E-02  0.1130116E+00
         25   -1    0    0    0    0  0.00000000000E+00  0.00000000000E+00  0.99999998245E-14  0.12500000000E+03  0.12500000000E+03 0.  0.
        -13    1    3    3    0    0 -0.15347270828E+02  0.38202858910E+02  0.27308918146E+02  0.49404304722E+02  0.10566000000E+00 0.  1.
         23    2    1    0    0    0  0.21518377583E+02  0.13326403258E+02  0.15114962279E+02  0.95519571199E+02  0.90856440607E+02 0.  0.
         13    1    3    3    0    0  0.36865648410E+02 -0.24876455651E+02 -0.12193955868E+02  0.46115266477E+02  0.10566000000E+00 0. -1.
         22    1    1    0    0    0 -0.21518377583E+02 -0.13326403258E+02 -0.15114962279E+02  0.29480428801E+02  0.00000000000E+00 0.  1.
</event>
<event>
 5    1  0.9041381E-005  0.9118800E+02  0.7818608E-02  0.1130116E+00
         25   -1    0    0    0    0  0.00000000000E+00  0.00000000000E+00  0.99999998245E-14  0.12500000000E+03  0.12500000000E+03 0.  0.
        -13    1    3    3    0    0 -0.70919750404E+01 -0.42594550080E+02 -0.44196062413E+02  0.61789116383E+02  0.10566000000E+00 0.  1.
         23    2    1    0    0    0 -0.42602356064E+01 -0.15707349077E+02 -0.25819199245E+02  0.94479490959E+02  0.89414052250E+02 0.  0.
         13    1    3    3    0    0  0.28317394340E+01  0.26887201003E+02  0.18376863168E+02  0.32690374576E+02  0.10566000000E+00 0. -1.
         22    1    1    0    0    0  0.42602356064E+01  0.15707349077E+02  0.25819199245E+02  0.30520509041E+02  0.00000000000E+00 0.  1.
</event>
<event>
 5    1  0.9041381E-005  0.9118800E+02  0.7818608E-02  0.1130116E+00
         25   -1    0    0    0    0  0.00000000000E+00  0.00000000000E+00  0.99999998245E-14  0.12500000000E+03  0.12500000000E+03 0.  0.
        -13    1    3    3    0    0  0.18542254349E+02 -0.49638189798E+01 -0.38032361221E+02  0.42601952529E+02  0.10566000000E+00 0.  1.
         23    2    1    0    0    0 -0.48264614358E+01 -0.22804898155E+02  0.10570216328E+02  0.99405321197E+02  0.96053788573E+02 0.  0.
         13    1    3    3    0    0 -0.23368715784E+02 -0.17841079175E+02  0.48602577549E+02  0.56803368668E+02  0.10566000000E+00 0. -1.
         22    1    1    0    0    0  0.48264614358E+01  0.22804898155E+02 -0.10570216328E+02  0.25594678803E+02  0.00000000000E+00 0. -1.
</event>
<event>
 5    1  0.9041381E-005  0.9118800E+02  0.7818608E-02  0.1130116E+00
         25   -1    0    0    0    0  0.00000000000E+00  0.00000000000E+00  0.99999998245E-14  0.12500000000E+03  0.12500000000E+03 0.  0.
        -13    1    3    3    0    0  0.29446021387E+02  0.32910871509E+02 -0.42612830095E+02  0.61368217276E+02  0.10566000000E+00 0.  1.
         23    2    1    0    0    0  0.19048660377E+02  0.13295463327E+02 -0.12996671347E+02  0.98381692891E+02  0.94712318221E+02 0.  0.
         13    1    3    3    0    0 -0.10397361010E+02 -0.19615408182E+02  0.29616158747E+02  0.37013475615E+02  0.10566000000E+00 0. -1.
         22    1    1    0    0    0 -0.19048660377E+02 -0.13295463327E+02  0.12996671347E+02  0.26618307109E+02  0.00000000000E+00 0.  1.
</event>
<event>
 5    1  0.9041381E-005  0.9118800E+02  0.7818608E-02  0.1130116E+00
         25   -1    0    0    0    0  0.00000000000E+00  0.00000000000E+00  0.99999998245E-14  0.12500000000E+03  0.12500000000E+03 0.  0.
        -13    1    3    3    0    0  0.16280093752E+00  0.31815506240E+02 -0.46346534408E+02  0.56216237486E+02  0.10566000000E+00 0.  1.
         23    2    1    0    0    0 -0.39459499029E+01 -0.27090076413E+01 -0.29973332640E+02  0.94646912635E+02  0.89647800635E+02 0.  0.
         13    1    3    3    0    0 -0.41087508404E+01 -0.34524513882E+02  0.16373201767E+02  0.38430675149E+02  0.10566000000E+00 0. -1.
         22    1    1    0    0    0  0.39459499029E+01  0.27090076413E+01  0.29973332640E+02  0.30353087365E+02  0.00000000000E+00 0.  1.
</event>
<event>
 5    1  0.9041381E-005  0.9118800E+02  0.7818608E-02  0.1130116E+00
         25   -1    0    0    0    0  0.00000000000E+00  0.00000000000E+00  0.99999998245E-14  0.12500000000E+03  0.12500000000E+03 0.  0.
        -13    1    3    3    0    0 -0.83214440427E+01 -0.26208305011E+02  0.16781975407E+02  0.32214399654E+02  0.10566000000E+00 0.  1.
         23    2    1    0    0    0 -0.42779748653E+01  0.17571540939E+01 -0.34192212520E+02  0.90496434149E+02  0.83660674974E+02 0.  0.
         13    1    3    3    0    0  0.40434691774E+01  0.27965459105E+02 -0.50974187927E+02  0.58282034494E+02  0.10566000000E+00 0. -1.
         22    1    1    0    0    0  0.42779748653E+01 -0.17571540939E+01  0.34192212520E+02  0.34503565851E+02  0.00000000000E+00 0. -1.
</event>
<event>
 5    1  0.9041381E-005  0.9118800E+02  0.7818608E-02  0.1130116E+00
         25   -1    0    0    0    0  0.00000000000E+00  0.00000000000E+00  0.99999998245E-14  0.12500000000E+03  0.12500000000E+03 0.  0.
        -13    1    3    3    0    0 -0.40832091577E+02 -0.30742437107E+02  0.12629842273E+02  0.52648658308E+02  0.10566000000E+00 0. -1.
         23    2    1    0    0    0 -0.37714733388E+01 -0.26875666324E+02 -0.98060482804E+01  0.96143734919E+02  0.91711142888E+02 0.  0.
         13    1    3    3    0    0  0.37060618238E+02  0.38667707821E+01 -0.22435890554E+02  0.43495076611E+02  0.10566000000E+00 0.  1.
         22    1    1    0    0    0  0.37714733388E+01  0.26875666324E+02  0.98060482804E+01  0.28856265081E+02  0.00000000000E+00 0. -1.
</event>
<event>
 5    1  0.9041381E-005  0.9118800E+02  0.7818608E-02  0.1130116E+00
         25   -1    0    0    0    0  0.00000000000E+00  0.00000000000E+00  0.99999998245E-14  0.12500000000E+03  0.12500000000E+03 0.  0.
        -13    1    3    3    0    0  0.40233493032E+02  0.16721772787E+02 -0.43714595673E+01  0.43788953738E+02  0.10566000000E+00 0.  1.
         23    2    1    0    0    0  0.21697473162E+01  0.28617878901E+01  0.28695721336E+02  0.96080420882E+02  0.91624806797E+02 0.  0.
         13    1    3    3    0    0 -0.38063745715E+02 -0.13859984897E+02  0.33067180903E+02  0.52291467145E+02  0.10566000000E+00 0. -1.
         22    1    1    0    0    0 -0.21697473162E+01 -0.28617878901E+01 -0.28695721336E+02  0.28919579118E+02  0.00000000000E+00 0. -1.
</event>
<event>
 5    1  0.9041381E-005  0.9118800E+02  0.7818608E-02  0.1130116E+00
         25   -1    0    0    0    0  0.00000000000E+00  0.00000000000E+00  0.99999998245E-14  0.12500000000E+03  0.12500000000E+03 0.  0.
        -13    1    3    3    0    0 -0.90118208490E+01  0.36595384098E+02  0.96275735566E+01  0.38899053831E+02  0.10566000000E+00 0. -1.
         23    2    1    0    0    0  0.22883727401E+02 -0.11446796883E+02 -0.61492304868E+01  0.98684468954E+02  0.95111078422E+02 0.  0.
         13    1    3    3    0    0  0.31895548250E+02 -0.48042180981E+02 -0.15776804043E+02  0.59785415123E+02  0.10566000000E+00 0.  1.
         22    1    1    0    0    0 -0.22883727401E+02  0.11446796883E+02  0.61492304868E+01  0.26315531046E+02  0.00000000000E+00 0.  1.
</event>
<event>
 5    1  0.9041381E-005  0.9118800E+02  0.7818608E-02  0.1130116E+00
         25   -1    0    0    0    0  0.00000000000E+00  0.00000000000E+00  0.99999998245E-14  0.12500000000E+03  0.12500000000E+03 0.  0.
        -13    1    3    3    0    0  0.28546055258E+01 -0.42801581499E+02 -0.41530730611E+02  0.59707092549E+02  0.10566000000E+00 0. -1.
         23    2    1    0    0    0  0.13304960568E+01 -0.28414220280E+02 -0.92391130066E+01  0.95091818126E+02  0.90266020913E+02 0.  0.
         13    1    3    3    0    0 -0.15241094690E+01  0.14387361219E+02  0.32291617605E+02  0.35384725576E+02  0.10566000000E+00 0.  1.
         22    1    1    0    0    0 -0.13304960568E+01  0.28414220280E+02  0.92391130066E+01  0.29908181874E+02  0.00000000000E+00 0. -1.
</event>
<event>
 5    1  0.9041381E-005  0.9118800E+02  0.7818608E-02  0.1130116E+00
         25   -1    0    0    0    0  0.00000000000E+00  0.00000000000E+00  0.99999998245E-14  0.12500000000E+03  0.12500000000E+03 0.  0.
        -13    1    3    3    0    0  0.19744083998E+02  0.30773908070E+02 -0.13574572121E+01  0.36588469836E+02  0.10566000000E+00 0.  1.
         23    2    1    0    0    0 -0.28258840294E+02  0.11309927412E+01  0.11528008060E+02  0.94459270324E+02  0.89385779523E+02 0.  0.
         13    1    3    3    0    0 -0.48002924291E+02 -0.29642915329E+02  0.12885465272E+02  0.57870800487E+02  0.10566000000E+00 0. -1.
         22    1    1    0    0    0  0.28258840294E+02 -0.11309927412E+01 -0.11528008060E+02  0.30540729676E+02  0.00000000000E+00 0. -1.
</event>
<event>
 5    1  0.9041381E-005  0.9118800E+02  0.7818608E-02  0.1130116E+00
         25   -1    0    0    0    0  0.00000000000E+00  0.00000000000E+00  0.99999998245E-14  0.12500000000E+03  0.12500000000E+03 0.  0.
        -13    1    3    3    0    0 -0.12226747435E+02  0.29501448905E+02  0.50617528651E+02  0.59849596583E+02  0.10566000000E+00 0.  1.
         23    2    1    0    0    0 -0.67026045855E+01  0.14785807362E+01  0.27678899403E+02  0.96482766940E+02  0.92172076764E+02 0.  0.
         13    1    3    3    0    0  0.55241428496E+01 -0.28022868169E+02 -0.22938629248E+02  0.36633170358E+02  0.10566000000E+00 0. -1.
         22    1    1    0    0    0  0.67026045855E+01 -0.14785807362E+01 -0.27678899403E+02  0.28517233060E+02  0.00000000000E+00 0.  1.
</event>
<event>
 5    1  0.9041381E-005  0.9118800E+02  0.7818608E-02  0.1130116E+00
         25   -1    0    0    0    0  0.00000000000E+00  0.00000000000E+00  0.99999998245E-14  0.12500000000E+03  0.12500000000E+03 0.  0.
        -13    1    3    3    0    0 -0.11933463550E+02 -0.40222517364E+02  0.22717771010E+02  0.47711285239E+02  0.10566000000E+00 0. -1.
         23    2    1    0    0    0  0.10125118585E+02  0.28715169107E+01  0.26714013470E+02  0.96287595862E+02  0.91907012602E+02 0.  0.
         13    1    3    3    0    0  0.22058582135E+02  0.43094034275E+02  0.39962424603E+01  0.48576310623E+02  0.10566000000E+00 0.  1.
         22    1    1    0    0    0 -0.10125118585E+02 -0.28715169107E+01 -0.26714013470E+02  0.28712404138E+02  0.00000000000E+00 0. -1.
</event>
<event>
 5    1  0.9041381E-005  0.9118800E+02  0.7818608E-02  0.1130116E+00
         25   -1    0    0    0    0  0.00000000000E+00  0.00000000000E+00  0.99999998245E-14  0.12500000000E+03  0.12500000000E+03 0.  0.
        -13    1    3    3    0    0  0.34885628952E+02  0.14719116096E+02  0.80229096360E+01  0.38704492364E+02  0.10566000000E+00 0. -1.
         23    2    1    0    0    0 -0.71043280200E+01 -0.24422988914E+01 -0.27608880777E+02  0.96387300054E+02  0.92042517422E+02 0.  0.
         13    1    3    3    0    0 -0.41989956972E+02 -0.17161414988E+02 -0.35631790413E+02  0.57682807690E+02  0.10566000000E+00 0.  1.
         22    1    1    0    0    0  0.71043280200E+01  0.24422988914E+01  0.27608880777E+02  0.28612699946E+02  0.00000000000E+00 0.  1.
</event>
<event>
 5    1  0.9041381E-005  0.9118800E+02  0.7818608E-02  0.1130116E+00
         25   -1    0    0    0    0  0.00000000000E+00  0.00000000000E+00  0.99999998245E-14  0.12500000000E+03  0.12500000000E+03 0.  0.
        -13    1    3    3    0    0  0.78542543005E+01 -0.32111392165E+01 -0.33326163348E+02  0.34389606761E+02  0.10566000000E+00 0.  1.
         23    2    1    0    0    0 -0.54559744774E+01  0.18187780354E+02  0.22451057929E+02  0.95595697359E+02  0.90961114438E+02 0.  0.
         13    1    3    3    0    0 -0.13310228778E+02  0.21398919570E+02  0.55777221276E+02  0.61206090598E+02  0.10566000000E+00 0. -1.
         22    1    1    0    0    0  0.54559744774E+01 -0.18187780354E+02 -0.22451057929E+02  0.29404302641E+02  0.00000000000E+00 0. -1.
</event>
<event>
 5    1  0.9041381E-005  0.9118800E+02  0.7818608E-02  0.1130116E+00
         25   -1    0    0    0    0  0.00000000000E+00  0.00000000000E+00  0.99999998245E-14  0.12500000000E+03  0.12500000000E+03 0.  0.
        -13    1    3    3    0    0  0.49588047744E+01 -0.75898777625E+01  0.35329640708E+02  0.36474520776E+02  0.10566000000E+00 0. -1.
         23    2    1    0    0    0 -0.98296267793E+01 -0.23880498990E+02 -0.17568657670E+02  0.93766083707E+02  0.88411090519E+02 0.  0.
         13    1    3    3    0    0 -0.14788431554E+02 -0.16290621228E+02 -0.52898298378E+02  0.57291562932E+02  0.10566000000E+00 0.  1.
         22    1    1    0    0    0  0.98296267793E+01  0.23880498990E+02  0.17568657670E+02  0.31233916293E+02  0.00000000000E+00 0.  1.
</event>
<event>
 5    1  0.9041381E-005  0.9118800E+02  0.7818608E-02  0.1130116E+00
         25   -1    0    0    0    0  0.00000000000E+00  0.00000000000E+00  0.99999998245E-14  0.12500000000E+03  0.12500000000E+03 0.  0.
        -13    1    3    3    0    0 -0.29712134983E+02 -0.94310751804E+01  0.28226719325E+02  0.42053715558E+02  0.10566000000E+00 0.  1.
         23    2    1    0    0    0  0.41793826371E+01  0.27383610875E+02  0.13297332218E+02  0.94273001645E+02  0.89124914649E+02 0.  0.
         13    1    3    3    0    0  0.33891517621E+02  0.36814686056E+02 -0.14929387107E+02  0.52219286087E+02  0.10566000000E+00 0. -1.
         22    1    1    0    0    0 -0.41793826371E+01 -0.27383610875E+02 -0.13297332218E+02  0.30726998355E+02  0.00000000000E+00 0. -1.
</event>
<event>
 5    1  0.9041381E-005  0.9118800E+02  0.7818608E-02  0.1130116E+00
         25   -1    0    0    0    0  0.00000000000E+00  0.00000000000E+00  0.99999998245E-14  0.12500000000E+03  0.12500000000E+03 0.  0.
        -13    1    3    3    0    0 -0.17465034515E+02  0.54449244557E+02  0.23117715943E+02  0.61678096743E+02  0.10566000000E+00 0.  1.
         23    2    1    0    0    0 -0.31677920864E+01  0.28805831754E+02  0.69360403398E+01  0.95202021791E+02  0.90418501689E+02 0.  0.
         13    1    3    3    0    0  0.14297242429E+02 -0.25643412802E+02 -0.16181675603E+02  0.33523925048E+02  0.10566000000E+00 0. -1.
         22    1    1    0    0    0  0.31677920864E+01 -0.28805831754E+02 -0.69360403398E+01  0.29797978209E+02  0.00000000000E+00 0.  1.
</event>
<event>
 5    1  0.9041381E-005  0.9118800E+02  0.7818608E-02  0.1130116E+00
         25   -1    0    0    0    0  0.00000000000E+00  0.00000000000E+00  0.99999998245E-14  0.12500000000E+03  0.12500000000E+03 0.  0.
        -13    1    3    3    0    0 -0.34187124360E+02  0.51507692777E+02  0.28972567675E+01  0.61888667363E+02  0.10566000000E+00 0.  1.
         23    2    1    0    0    0 -0.10610186831E+02  0.26973138154E+02  0.23504191960E+01  0.95919925776E+02  0.91405587598E+02 0.  0.
         13    1    3    3    0    0  0.23576937529E+02 -0.24534554623E+02 -0.54683757151E+00  0.34031258413E+02  0.10566000000E+00 0. -1.
         22    1    1    0    0    0  0.10610186831E+02 -0.26973138154E+02 -0.23504191960E+01  0.29080074224E+02  0.00000000000E+00 0.  1.
</event>
<event>
 5    1  0.9041381E-005  0.9118800E+02  0.7818608E-02  0.1130116E+00
         25   -1    0    0    0    0  0.00000000000E+00  0.00000000000E+00  0.99999998245E-14  0.12500000000E+03  0.12500000000E+03 0.  0.
        -13    1    3    3    0    0  0.23839448311E+02  0.43926699107E+02  0.15120520729E+02  0.52216046397E+02  0.10566000000E+00 0. -1.
         23    2    1    0    0    0 -0.86491645873E+01  0.16605298530E+02  0.22949864015E+02  0.95381758228E+02  0.90666639715E+02 0.  0.
         13    1    3    3    0    0 -0.32488612899E+02 -0.27321400577E+02  0.78293432857E+01  0.43165711831E+02  0.10566000000E+00 0.  1.
         22    1    1    0    0    0  0.86491645873E+01 -0.16605298530E+02 -0.22949864015E+02  0.29618241772E+02  0.00000000000E+00 0. -1.
</event>
<event>
 5    1  0.9041381E-005  0.9118800E+02  0.7818608E-02  0.1130116E+00
         25   -1    0    0    0    0  0.00000000000E+00  0.00000000000E+00  0.99999998245E-14  0.12500000000E+03  0.12500000000E+03 0.  0.
        -13    1    3    3    0    0 -0.16511885670E+02 -0.35101756877E+02  0.30005149769E+02  0.49041776894E+02  0.10566000000E+00 0.  1.
         23    2    1    0    0    0 -0.57467928899E+01 -0.27776216927E+02 -0.12871143280E+02  0.93851802868E+02  0.88532201582E+02 0.  0.
         13    1    3    3    0    0  0.10765092780E+02  0.73255399501E+01 -0.42876293049E+02  0.44810025974E+02  0.10566000000E+00 0. -1.
         22    1    1    0    0    0  0.57467928899E+01  0.27776216927E+02  0.12871143280E+02  0.31148197132E+02  0.00000000000E+00 0. -1.
</event>
<event>
 5    1  0.9041381E-005  0.9118800E+02  0.7818608E-02  0.1130116E+00
         25   -1    0    0    0    0  0.00000000000E+00  0.00000000000E+00  0.99999998245E-14  0.12500000000E+03  0.12500000000E+03 0.  0.
        -13    1    3    3    0    0  0.13180551549E+02 -0.42043560845E+02  0.41499744923E+02  0.60527910424E+02  0.10566000000E+00 0. -1.
         23    2    1    0    0    0  0.14840383405E+02 -0.13754830016E+02  0.22983175882E+02  0.94378786732E+02  0.89273157685E+02 0.  0.
         13    1    3    3    0    0  0.16598318566E+01  0.28288730829E+02 -0.18516569041E+02  0.33850876308E+02  0.10566000000E+00 0.  1.
         22    1    1    0    0    0 -0.14840383405E+02  0.13754830016E+02 -0.22983175882E+02  0.30621213268E+02  0.00000000000E+00 0. -1.
</event>
<event>
 5    1  0.9041381E-005  0.9118800E+02  0.7818608E-02  0.1130116E+00
         25   -1    0    0    0    0  0.00000000000E+00  0.00000000000E+00  0.99999998245E-14  0.12500000000E+03  0.12500000000E+03 0.  0.
        -13    1    3    3    0    0 -0.71221546943E+01 -0.45147704229E+02  0.26506298806E+02  0.52835928355E+02  0.10566000000E+00 0.  1.
         23    2    1    0    0    0  0.18431246267E+02 -0.16185421520E+02  0.22582577008E+02  0.91658561923E+02  0.85379391429E+02 0.  0.
         13    1    3    3    0    0  0.25553400961E+02  0.28962282709E+02 -0.39237217979E+01  0.38822633568E+02  0.10566000000E+00 0. -1.
         22    1    1    0    0    0 -0.18431246267E+02  0.16185421520E+02 -0.22582577008E+02  0.33341438077E+02  0.00000000000E+00 0.  1.
</event>
<event>
 5    1  0.9041381E-005  0.9118800E+02  0.7818608E-02  0.1130116E+00
         25   -1    0    0    0    0  0.00000000000E+00  0.00000000000E+00  0.99999998245E-14  0.12500000000E+03  0.12500000000E+03 0.  0.
        -13    1    3    3    0    0  0.85256547907E+01 -0.52137420425E+02  0.30721783144E+02  0.61113308876E+02  0.10566000000E+00 0.  1.
         23    2    1    0    0    0  0.61347300782E+01 -0.25986265451E+02  0.50719258344E+01  0.97821969592E+02  0.93970699678E+02 0.  0.
         13    1    3    3    0    0 -0.23909247125E+01  0.26151154974E+02 -0.25649857310E+02  0.36708660715E+02  0.10566000000E+00 0. -1.
         22    1    1    0    0    0 -0.61347300782E+01  0.25986265451E+02 -0.50719258344E+01  0.27178030408E+02  0.00000000000E+00 0.  1.
</event>
<event>
 5    1  0.9041381E-005  0.9118800E+02  0.7818608E-02  0.1130116E+00
         25   -1    0    0    0    0  0.00000000000E+00  0.00000000000E+00  0.99999998245E-14  0.12500000000E+03  0.12500000000E+03 0.  0.
        -13    1    3    3    0    0  0.59220358137E+01  0.15156249278E+02 -0.40010382213E+02  0.43192872667E+02  0.10566000000E+00 0. -1.
         23    2    1    0    0    0  0.17611705549E+02 -0.22653932019E+02 -0.53288333662E+01  0.95814913512E+02  0.91261867053E+02 0.  0.
         13    1    3    3    0    0  0.11689669735E+02 -0.37810181297E+02  0.34681548847E+02  0.52622040845E+02  0.10566000000E+00 0.  1.
         22    1    1    0    0    0 -0.17611705549E+02  0.22653932019E+02  0.53288333662E+01  0.29185086488E+02  0.00000000000E+00 0.  1.
</event>
<event>
 5    1  0.9041381E-005  0.9118800E+02  0.7818608E-02  0.1130116E+00
         25   -1    0    0    0    0  0.00000000000E+00  0.00000000000E+00  0.99999998245E-14  0.12500000000E+03  0.12500000000E+03 0.  0.
        -13    1    3    3    0    0 -0.15436410919E+02 -0.45146420469E+02  0.40275634633E+02  0.62438929942E+02  0.10566000000E+00 0.  1.
         23    2    1    0    0    0 -0.54951936112E+01 -0.21354541584E+02  0.19786590844E+02  0.95373613512E+02  0.90655410087E+02 0.  0.
         13    1    3    3    0    0  0.99412173078E+01  0.23791878885E+02 -0.20489043789E+02  0.32934683570E+02  0.10566000000E+00 0. -1.
         22    1    1    0    0    0  0.54951936112E+01  0.21354541584E+02 -0.19786590844E+02  0.29626386488E+02  0.00000000000E+00 0.  1.
</event>
<event>
 5    1  0.9041381E-005  0.9118800E+02  0.7818608E-02  0.1130116E+00
         25   -1    0    0    0    0  0.00000000000E+00  0.00000000000E+00  0.99999998245E-14  0.12500000000E+03  0.12500000000E+03 0.  0.
        -13    1    3    3    0    0 -0.49838931224E+02 -0.90858109545E+01 -0.10749269645E+02  0.51788309378E+02  0.10566000000E+00 0.  1.
         23    2    1    0    0    0 -0.20520948295E+02  0.19672688172E+02  0.56616905006E+01  0.96014163490E+02  0.91534369898E+02 0.  0.
         13    1    3    3    0    0  0.29317982929E+02  0.28758499126E+02  0.16410960146E+02  0.44225854113E+02  0.10566000000E+00 0. -1.
         22    1    1    0    0    0  0.20520948295E+02 -0.19672688172E+02 -0.56616905006E+01  0.28985836510E+02  0.00000000000E+00 0. -1.
</event>
<event>
 5    1  0.9041381E-005  0.9118800E+02  0.7818608E-02  0.1130116E+00
         25   -1    0    0    0    0  0.00000000000E+00  0.00000000000E+00  0.99999998245E-14  0.12500000000E+03  0.12500000000E+03 0.  0.
        -13    1    3    3    0    0 -0.30984878663E+02 -0.10295007531E+02  0.14317967111E+02  0.35652001796E+02  0.10566000000E+00 0.  1.
         23    2    1    0    0    0  0.19216252196E+02 -0.10409397412E+02 -0.19113462107E+02  0.95966496308E+02  0.91469252084E+02 0.  0.
         13    1    3    3    0    0  0.50201130859E+02 -0.11438988151E+00 -0.33431429218E+02  0.60314494512E+02  0.10566000000E+00 0. -1.
         22    1    1    0    0    0 -0.19216252196E+02  0.10409397412E+02  0.19113462107E+02  0.29033503692E+02  0.00000000000E+00 0. -1.
</event>
<event>
 5    1  0.9041381E-005  0.9118800E+02  0.7818608E-02  0.1130116E+00
         25   -1    0    0    0    0  0.00000000000E+00  0.00000000000E+00  0.99999998245E-14  0.12500000000E+03  0.12500000000E+03 0.  0.
        -13    1    3    3    0    0  0.12030421012E+02  0.23237069694E+01 -0.33793016848E+02  0.35945928775E+02  0.10566000000E+00 0. -1.
         23    2    1    0    0    0  0.93456720926E+01  0.13543773669E+02  0.24564676352E+02  0.95433148353E+02  0.90737462430E+02 0.  0.
         13    1    3    3    0    0 -0.26847489198E+01  0.11220066700E+02  0.58357693199E+02  0.59487219578E+02  0.10566000000E+00 0.  1.
         22    1    1    0    0    0 -0.93456720926E+01 -0.13543773669E+02 -0.24564676352E+02  0.29566851647E+02  0.00000000000E+00 0.  1.
</event>
<event>
 5    1  0.9041381E-005  0.9118800E+02  0.7818608E-02  0.1130116E+00
         25   -1    0    0    0    0  0.00000000000E+00  0.00000000000E+00  0.99999998245E-14  0.12500000000E+03  0.12500000000E+03 0.  0.
        -13    1    3    3    0    0  0.13578593086E+02  0.29193825489E+02 -0.85456922011E+01  0.33312124761E+02  0.10566000000E+00 0.  1.
         23    2    1    0    0    0 -0.15718082262E+02 -0.22622940719E+02  0.10053156121E+02  0.95675581766E+02  0.91070826512E+02 0.  0.
         13    1    3    3    0    0 -0.29296675348E+02 -0.51816766208E+02  0.18598848322E+02  0.62363457005E+02  0.10566000000E+00 0. -1.
         22    1    1    0    0    0  0.15718082262E+02  0.22622940719E+02 -0.10053156121E+02  0.29324418234E+02  0.00000000000E+00 0. -1.
</event>
<event>
 5    1  0.9041381E-005  0.9118800E+02  0.7818608E-02  0.1130116E+00
         25   -1    0    0    0    0  0.00000000000E+00  0.00000000000E+00  0.99999998245E-14  0.12500000000E+03  0.12500000000E+03 0.  0.
        -13    1    3    3    0    0 -0.18701022501E+02  0.38281358945E+02 -0.11189666043E+02  0.44050090527E+02  0.10566000000E+00 0. -1.
         23    2    1    0    0    0  0.25072495451E+02  0.10958225310E+02 -0.10603663700E+02  0.95654635563E+02  0.91042072092E+02 0.  0.
         13    1    3    3    0    0  0.43773517952E+02 -0.27323133635E+02  0.58600234214E+00  0.51604545036E+02  0.10566000000E+00 0.  1.
         22    1    1    0    0    0 -0.25072495451E+02 -0.10958225310E+02  0.10603663700E+02  0.29345364437E+02  0.00000000000E+00 0.  1.
</event>
<event>
 5    1  0.9041381E-005  0.9118800E+02  0.7818608E-02  0.1130116E+00
         25   -1    0    0    0    0  0.00000000000E+00  0.00000000000E+00  0.99999998245E-14  0.12500000000E+03  0.12500000000E+03 0.  0.
        -13    1    3    3    0    0  0.20121239749E+02  0.86577381367E+01  0.29815159247E+02  0.36996967492E+02  0.10566000000E+00 0. -1.
         23    2    1    0    0    0  0.12021498238E+02 -0.15807619994E+02 -0.22301674336E+02  0.95137616506E+02  0.90329420050E+02 0.  0.
         13    1    3    3    0    0 -0.80997415112E+01 -0.24465358131E+02 -0.52116833583E+02  0.58140649014E+02  0.10566000000E+00 0.  1.
         22    1    1    0    0    0 -0.12021498238E+02  0.15807619994E+02  0.22301674336E+02  0.29862383494E+02  0.00000000000E+00 0.  1.
</event>
<event>
 5    1  0.9041381E-005  0.9118800E+02  0.7818608E-02  0.1130116E+00
         25   -1    0    0    0    0  0.00000000000E+00  0.00000000000E+00  0.99999998245E-14  0.12500000000E+03  0.12500000000E+03 0.  0.
        -13    1    3    3    0    0  0.43218804263E+02 -0.26812408724E+02  0.21912276254E+02  0.55379863833E+02  0.10566000000E+00 0. -1.
         23    2    1    0    0    0  0.24348164473E+02 -0.50541778662E+01 -0.98471974317E+01  0.98254063404E+02  0.94543724546E+02 0.  0.
         13    1    3    3    0    0 -0.18870639790E+02  0.21758230857E+02 -0.31759473685E+02  0.42874199572E+02  0.10566000000E+00 0.  1.
         22    1    1    0    0    0 -0.24348164473E+02  0.50541778662E+01  0.98471974317E+01  0.26745936596E+02  0.00000000000E+00 0. -1.
</event>
<event>
 5    1  0.9041381E-005  0.9118800E+02  0.7818608E-02  0.1130116E+00
         25   -1    0    0    0    0  0.00000000000E+00  0.00000000000E+00  0.99999998245E-14  0.12500000000E+03  0.12500000000E+03 0.  0.
        -13    1    3    3    0    0 -0.26209419126E+02  0.25845967869E+02 -0.12044185671E+02  0.38730108166E+02  0.10566000000E+00 0.  1.
         23    2    1    0    0    0  0.38369692559E+01 -0.21460287038E+02 -0.20099397487E+02  0.95347815727E+02  0.90619831890E+02 0.  0.
         13    1    3    3    0    0  0.30046388382E+02 -0.47306254907E+02 -0.80552118164E+01  0.56617707562E+02  0.10566000000E+00 0. -1.
         22    1    1    0    0    0 -0.38369692559E+01  0.21460287038E+02  0.20099397487E+02  0.29652184273E+02  0.00000000000E+00 0. -1.
</event>
<event>
 5    1  0.9041381E-005  0.9118800E+02  0.7818608E-02  0.1130116E+00
         25   -1    0    0    0    0  0.00000000000E+00  0.00000000000E+00  0.99999998245E-14  0.12500000000E+03  0.12500000000E+03 0.  0.
        -13    1    3    3    0    0 -0.49590164897E+01 -0.27515448354E+02  0.28592777864E+02  0.39990622060E+02  0.10566000000E+00 0.  1.
         23    2    1    0    0    0 -0.15961329821E+01  0.26111440193E+02  0.11935719570E+02  0.96245585537E+02  0.91849857834E+02 0.  0.
         13    1    3    3    0    0  0.33628835076E+01  0.53626888547E+02 -0.16657058294E+02  0.56254963477E+02  0.10566000000E+00 0. -1.
         22    1    1    0    0    0  0.15961329821E+01 -0.26111440193E+02 -0.11935719570E+02  0.28754414463E+02  0.00000000000E+00 0. -1.
</event>
<event>
 5    1  0.9041381E-005  0.9118800E+02  0.7818608E-02  0.1130116E+00
         25   -1    0    0    0    0  0.00000000000E+00  0.00000000000E+00  0.99999998245E-14  0.12500000000E+03  0.12500000000E+03 0.  0.
        -13    1    3    3    0    0 -0.21455819952E+02 -0.24881035716E+02  0.11901884264E+02  0.34944014668E+02  0.10566000000E+00 0.  1.
         23    2    1    0    0    0  0.20898271323E+02  0.18964490322E+02  0.55883793054E+01  0.96231621166E+02  0.91830851523E+02 0.  0.
         13    1    3    3    0    0  0.42354091275E+02  0.43845526038E+02 -0.63135049583E+01  0.61287606497E+02  0.10566000000E+00 0. -1.
         22    1    1    0    0    0 -0.20898271323E+02 -0.18964490322E+02 -0.55883793054E+01  0.28768378834E+02  0.00000000000E+00 0. -1.
</event>
<event>
 5    1  0.9041381E-005  0.9118800E+02  0.7818608E-02  0.1130116E+00
         25   -1    0    0    0    0  0.00000000000E+00  0.00000000000E+00  0.99999998245E-14  0.12500000000E+03  0.12500000000E+03 0.  0.
        -13    1    3    3    0    0  0.26232364232E+02  0.34979013934E+02  0.25365383269E+01  0.43796273126E+02  0.10566000000E+00 0. -1.
         23    2    1    0    0    0  0.22715927905E+02 -0.16912626637E+02  0.64508226969E+01  0.95954115028E+02  0.91452330517E+02 0.  0.
         13    1    3    3    0    0 -0.35164363273E+01 -0.51891640572E+02  0.39142843700E+01  0.52157841902E+02  0.10566000000E+00 0.  1.
         22    1    1    0    0    0 -0.22715927905E+02  0.16912626637E+02 -0.64508226969E+01  0.29045884972E+02  0.00000000000E+00 0.  1.
</event>
<event>
 5    1  0.9041381E-005  0.9118800E+02  0.7818608E-02  0.1130116E+00
         25   -1    0    0    0    0  0.00000000000E+00  0.00000000000E+00  0.99999998245E-14  0.12500000000E+03  0.12500000000E+03 0.  0.
        -13    1    3    3    0    0  0.11179967487E+02 -0.22285304553E+02 -0.31256957145E+02  0.39982933934E+02  0.10566000000E+00 0. -1.
         23    2    1    0    0    0 -0.27899361970E+02 -0.11913985200E+02  0.49556961757E+01  0.94261158670E+02  0.89108303023E+02 0.  0.
         13    1    3    3    0    0 -0.39079329457E+02  0.10371319353E+02  0.36212653321E+02  0.54278224736E+02  0.10566000000E+00 0.  1.
         22    1    1    0    0    0  0.27899361970E+02  0.11913985200E+02 -0.49556961757E+01  0.30738841330E+02  0.00000000000E+00 0.  1.
</event>
<event>
 5    1  0.9041381E-005  0.9118800E+02  0.7818608E-02  0.1130116E+00
         25   -1    0    0    0    0  0.00000000000E+00  0.00000000000E+00  0.99999998245E-14  0.12500000000E+03  0.12500000000E+03 0.  0.
        -13    1    3    3    0    0 -0.16564657029E+02  0.39544696955E+02  0.34178047037E+02  0.54829927804E+02  0.10566000000E+00 0. -1.
         23    2    1    0    0    0 -0.28045774658E+01 -0.62570437243E-01  0.27582700887E+02  0.97275012028E+02  0.93240297120E+02 0.  0.
         13    1    3    3    0    0  0.13760079563E+02 -0.39607267392E+02 -0.65953461497E+01  0.42445084223E+02  0.10566000000E+00 0.  1.
         22    1    1    0    0    0  0.28045774658E+01  0.62570437243E-01 -0.27582700887E+02  0.27724987972E+02  0.00000000000E+00 0. -1.
</event>
<event>
 5    1  0.9041381E-005  0.9118800E+02  0.7818608E-02  0.1130116E+00
         25   -1    0    0    0    0  0.00000000000E+00  0.00000000000E+00  0.99999998245E-14  0.12500000000E+03  0.12500000000E+03 0.  0.
        -13    1    3    3    0    0  0.18888376571E+02  0.57029185355E+02  0.39016215230E+01  0.60202429904E+02  0.10566000000E+00 0.  1.
         23    2    1    0    0    0  0.19638335089E+02  0.21411436095E+02  0.16180916164E+01  0.95901339873E+02  0.91380167259E+02 0.  0.
         13    1    3    3    0    0  0.74995851764E+00 -0.35617749260E+02 -0.22835299066E+01  0.35698909969E+02  0.10566000000E+00 0. -1.
         22    1    1    0    0    0 -0.19638335089E+02 -0.21411436095E+02 -0.16180916164E+01  0.29098660127E+02  0.00000000000E+00 0. -1.
</event>
<event>
 5    1  0.9041381E-005  0.9118800E+02  0.7818608E-02  0.1130116E+00
         25   -1    0    0    0    0  0.00000000000E+00  0.00000000000E+00  0.99999998245E-14  0.12500000000E+03  0.12500000000E+03 0.  0.
        -13    1    3    3    0    0 -0.13126330491E+02 -0.78398998390E+01  0.24578039208E+02  0.28945738149E+02  0.10566000000E+00 0. -1.
         23    2    1    0    0    0 -0.17657597125E+02  0.21368633555E+02 -0.25654951474E+02  0.87229829609E+02  0.78628604224E+02 0.  0.
         13    1    3    3    0    0 -0.45312666333E+01  0.29208533394E+02 -0.50232990682E+02  0.58284091460E+02  0.10566000000E+00 0.  1.
         22    1    1    0    0    0  0.17657597125E+02 -0.21368633555E+02  0.25654951474E+02  0.37770170391E+02  0.00000000000E+00 0.  1.
</event>
<event>
 5    1  0.9041381E-005  0.9118800E+02  0.7818608E-02  0.1130116E+00
         25   -1    0    0    0    0  0.00000000000E+00  0.00000000000E+00  0.99999998245E-14  0.12500000000E+03  0.12500000000E+03 0.  0.
        -13    1    3    3    0    0 -0.48550341229E+02  0.18085682020E+02 -0.32094997255E+02  0.60945283168E+02  0.10566000000E+00 0.  1.
         23    2    1    0    0    0 -0.16027572063E+02  0.14324364841E+02 -0.19348624360E+02  0.96078731719E+02  0.91622502311E+02 0.  0.
         13    1    3    3    0    0  0.32522769166E+02 -0.37613171784E+01  0.12746372895E+02  0.35133448552E+02  0.10566000000E+00 0. -1.
         22    1    1    0    0    0  0.16027572063E+02 -0.14324364841E+02  0.19348624360E+02  0.28921268281E+02  0.00000000000E+00 0.  1.
</event>
<event>
 5    1  0.9041381E-005  0.9118800E+02  0.7818608E-02  0.1130116E+00
         25   -1    0    0    0    0  0.00000000000E+00  0.00000000000E+00  0.99999998245E-14  0.12500000000E+03  0.12500000000E+03 0.  0.
        -13    1    3    3    0    0  0.10452013859E+02  0.36568109360E+02 -0.31318520635E+02  0.49267962355E+02  0.10566000000E+00 0. -1.
         23    2    1    0    0    0 -0.10618724031E+02 -0.42948593855E+01 -0.27270500240E+02  0.95421573732E+02  0.90721515821E+02 0.  0.
         13    1    3    3    0    0 -0.21070737890E+02 -0.40862968745E+02  0.40480203948E+01  0.46153611376E+02  0.10566000000E+00 0.  1.
         22    1    1    0    0    0  0.10618724031E+02  0.42948593855E+01  0.27270500240E+02  0.29578426268E+02  0.00000000000E+00 0. -1.
</event>
<event>
 5    1  0.9041381E-005  0.9118800E+02  0.7818608E-02  0.1130116E+00
         25   -1    0    0    0    0  0.00000000000E+00  0.00000000000E+00  0.99999998245E-14  0.12500000000E+03  0.12500000000E+03 0.  0.
        -13    1    3    3    0    0 -0.22817098337E+02  0.23224685781E+02  0.52343409655E+02  0.61642920960E+02  0.10566000000E+00 0. -1.
         23    2    1    0    0    0 -0.15193879025E+02  0.13920664419E+02  0.19461599712E+02  0.96655816804E+02  0.92406461901E+02 0.  0.
         13    1    3    3    0    0  0.76232193118E+01 -0.93040213621E+01 -0.32881809944E+02  0.35012895844E+02  0.10566000000E+00 0.  1.
         22    1    1    0    0    0  0.15193879025E+02 -0.13920664419E+02 -0.19461599712E+02  0.28344183196E+02  0.00000000000E+00 0. -1.
</event>
<event>
 5    1  0.9041381E-005  0.9118800E+02  0.7818608E-02  0.1130116E+00
         25   -1    0    0    0    0  0.00000000000E+00  0.00000000000E+00  0.99999998245E-14  0.12500000000E+03  0.12500000000E+03 0.  0.
        -13    1    3    3    0    0  0.13328490203E+02 -0.25024804123E+02 -0.25133022489E+02  0.37888909405E+02  0.10566000000E+00 0.  1.
         23    2    1    0    0    0 -0.27736988165E+01  0.27905596262E+02 -0.97001163418E+01  0.95326645540E+02  0.90590625260E+02 0.  0.
         13    1    3    3    0    0 -0.16102189019E+02  0.52930400385E+02  0.15432906147E+02  0.57437736135E+02  0.10566000000E+00 0. -1.
         22    1    1    0    0    0  0.27736988165E+01 -0.27905596262E+02  0.97001163418E+01  0.29673354460E+02  0.00000000000E+00 0. -1.
</event>
<event>
 5    1  0.9041381E-005  0.9118800E+02  0.7818608E-02  0.1130116E+00
         25   -1    0    0    0    0  0.00000000000E+00  0.00000000000E+00  0.99999998245E-14  0.12500000000E+03  0.12500000000E+03 0.  0.
        -13    1    3    3    0    0  0.27785291406E+02  0.17292945130E+02 -0.49576817808E+02  0.59404885302E+02  0.10566000000E+00 0.  1.
         23    2    1    0    0    0  0.28071955154E+02  0.12646153272E+02 -0.22533759996E+02  0.86845967470E+02  0.78015971874E+02 0.  0.
         13    1    3    3    0    0  0.28666374791E+00 -0.46467918576E+01  0.27043057812E+02  0.27441082168E+02  0.10566000000E+00 0. -1.
         22    1    1    0    0    0 -0.28071955154E+02 -0.12646153272E+02  0.22533759996E+02  0.38154032530E+02  0.00000000000E+00 0.  1.
</event>
<event>
 5    1  0.9041381E-005  0.9118800E+02  0.7818608E-02  0.1130116E+00
         25   -1    0    0    0    0  0.00000000000E+00  0.00000000000E+00  0.99999998245E-14  0.12500000000E+03  0.12500000000E+03 0.  0.
        -13    1    3    3    0    0  0.24718107779E+02  0.24585131448E+02 -0.39641320108E+01  0.35087591070E+02  0.10566000000E+00 0. -1.
         23    2    1    0    0    0 -0.14967655528E+02 -0.16564731525E+02  0.17991403675E+02  0.96327510594E+02  0.91961283422E+02 0.  0.
         13    1    3    3    0    0 -0.39685763307E+02 -0.41149862974E+02  0.21955535686E+02  0.61239919524E+02  0.10566000000E+00 0.  1.
         22    1    1    0    0    0  0.14967655528E+02  0.16564731525E+02 -0.17991403675E+02  0.28672489406E+02  0.00000000000E+00 0.  1.
</event>
<event>
 5    1  0.9041381E-005  0.9118800E+02  0.7818608E-02  0.1130116E+00
         25   -1    0    0    0    0  0.00000000000E+00  0.00000000000E+00  0.99999998245E-14  0.12500000000E+03  0.12500000000E+03 0.  0.
        -13    1    3    3    0    0 -0.25009244756E+02 -0.16833894174E+02 -0.50676542741E+02  0.58965799109E+02  0.10566000000E+00 0.  1.
         23    2    1    0    0    0 -0.16854694883E+02  0.61058489180E+01 -0.23295277713E+02  0.95605577156E+02  0.90974690377E+02 0.  0.
         13    1    3    3    0    0  0.81545498736E+01  0.22939743092E+02  0.27381265028E+02  0.36639778047E+02  0.10566000000E+00 0. -1.
         22    1    1    0    0    0  0.16854694883E+02 -0.61058489180E+01  0.23295277713E+02  0.29394422844E+02  0.00000000000E+00 0.  1.
</event>
<event>
 5    1  0.9041381E-005  0.9118800E+02  0.7818608E-02  0.1130116E+00
         25   -1    0    0    0    0  0.00000000000E+00  0.00000000000E+00  0.99999998245E-14  0.12500000000E+03  0.12500000000E+03 0.  0.
        -13    1    3    3    0    0  0.75711098124E+01  0.23162154932E+02  0.36424883402E+02  0.43824541295E+02  0.10566000000E+00 0. -1.
         23    2    1    0    0    0 -0.30256303958E+02  0.81945400287E+01  0.20681809728E+02  0.87445617178E+02  0.78970907900E+02 0.  0.
         13    1    3    3    0    0 -0.37827413771E+02 -0.14967614903E+02 -0.15743073673E+02  0.43621075883E+02  0.10566000000E+00 0.  1.
         22    1    1    0    0    0  0.30256303958E+02 -0.81945400287E+01 -0.20681809728E+02  0.37554382822E+02  0.00000000000E+00 0.  1.
</event>
<event>
 5    1  0.9041381E-005  0.9118800E+02  0.7818608E-02  0.1130116E+00
         25   -1    0    0    0    0  0.00000000000E+00  0.00000000000E+00  0.99999998245E-14  0.12500000000E+03  0.12500000000E+03 0.  0.
        -13    1    3    3    0    0 -0.34186197872E+02 -0.28764717901E+02  0.20834403221E+02  0.49296943541E+02  0.10566000000E+00 0. -1.
         23    2    1    0    0    0 -0.27235687886E+02  0.12001007014E+02  0.85327512835E+00  0.95225263353E+02  0.90450626522E+02 0.  0.
         13    1    3    3    0    0  0.69505099855E+01  0.40765724915E+02 -0.19981128092E+02  0.45928319812E+02  0.10566000000E+00 0.  1.
         22    1    1    0    0    0  0.27235687886E+02 -0.12001007014E+02 -0.85327512835E+00  0.29774736647E+02  0.00000000000E+00 0. -1.
</event>
<event>
 5    1  0.9041381E-005  0.9118800E+02  0.7818608E-02  0.1130116E+00
         25   -1    0    0    0    0  0.00000000000E+00  0.00000000000E+00  0.99999998245E-14  0.12500000000E+03  0.12500000000E+03 0.  0.
        -13    1    3    3    0    0  0.10255997060E+02  0.34932624983E+02 -0.50711036810E+02  0.62426710488E+02  0.10566000000E+00 0.  1.
         23    2    1    0    0    0  0.50036464531E+01  0.18800079797E+02 -0.23521194270E+02  0.94475811918E+02  0.89408908837E+02 0.  0.
         13    1    3    3    0    0 -0.52523506065E+01 -0.16132545186E+02  0.27189842540E+02  0.32049101430E+02  0.10566000000E+00 0. -1.
         22    1    1    0    0    0 -0.50036464531E+01 -0.18800079797E+02  0.23521194270E+02  0.30524188082E+02  0.00000000000E+00 0.  1.
</event>
<event>
 5    1  0.9041381E-005  0.9118800E+02  0.7818608E-02  0.1130116E+00
         25   -1    0    0    0    0  0.00000000000E+00  0.00000000000E+00  0.99999998245E-14  0.12500000000E+03  0.12500000000E+03 0.  0.
        -13    1    3    3    0    0  0.27860735253E+02  0.21578924301E+02 -0.39903669876E+02  0.53237060179E+02  0.10566000000E+00 0. -1.
         23    2    1    0    0    0  0.29102359081E+02  0.66779342244E+00 -0.29167778219E+01  0.95744216896E+02  0.91164983541E+02 0.  0.
         13    1    3    3    0    0  0.12416238282E+01 -0.20911130879E+02  0.36986892054E+02  0.42507156718E+02  0.10566000000E+00 0.  1.
         22    1    1    0    0    0 -0.29102359081E+02 -0.66779342244E+00  0.29167778219E+01  0.29255783104E+02  0.00000000000E+00 0. -1.
</event>
<event>
 5    1  0.9041381E-005  0.9118800E+02  0.7818608E-02  0.1130116E+00
         25   -1    0    0    0    0  0.00000000000E+00  0.00000000000E+00  0.99999998245E-14  0.12500000000E+03  0.12500000000E+03 0.  0.
        -13    1    3    3    0    0  0.34134604074E+02  0.28295284190E+02  0.43344719559E+02  0.62004598058E+02  0.10566000000E+00 0. -1.
         23    2    1    0    0    0  0.14735290257E+02  0.17600847542E+02  0.16937116422E+02  0.96473091197E+02  0.92158953983E+02 0.  0.
         13    1    3    3    0    0 -0.19399313817E+02 -0.10694436648E+02 -0.26407603137E+02  0.34468493139E+02  0.10566000000E+00 0.  1.
         22    1    1    0    0    0 -0.14735290257E+02 -0.17600847542E+02 -0.16937116422E+02  0.28526908803E+02  0.00000000000E+00 0. -1.
</event>
<event>
 5    1  0.9041381E-005  0.9118800E+02  0.7818608E-02  0.1130116E+00
         25   -1    0    0    0    0  0.00000000000E+00  0.00000000000E+00  0.99999998245E-14  0.12500000000E+03  0.12500000000E+03 0.  0.
        -13    1    3    3    0    0 -0.99427172902E+00 -0.76496676266E+01  0.44512471199E+02  0.45176069410E+02  0.10566000000E+00 0. -1.
         23    2    1    0    0    0  0.29413387915E+02 -0.25495547676E+01  0.53892295879E+01  0.94988478651E+02  0.90122803234E+02 0.  0.
         13    1    3    3    0    0  0.30407659644E+02  0.51001128590E+01 -0.39123241611E+02  0.49812409241E+02  0.10566000000E+00 0.  1.
         22    1    1    0    0    0 -0.29413387915E+02  0.25495547676E+01 -0.53892295879E+01  0.30011521349E+02  0.00000000000E+00 0.  1.
</event>
<event>
 5    1  0.9041381E-005  0.9118800E+02  0.7818608E-02  0.1130116E+00
         25   -1    0    0    0    0  0.00000000000E+00  0.00000000000E+00  0.99999998245E-14  0.12500000000E+03  0.12500000000E+03 0.  0.
        -13    1    3    3    0    0 -0.32544500781E+02 -0.42630066707E+02 -0.56354165882E+01  0.53928065075E+02  0.10566000000E+00 0.  1.
         23    2    1    0    0    0  0.71789289318E+01 -0.20755185355E+02 -0.12402046972E+02  0.99778471323E+02  0.96538167740E+02 0.  0.
         13    1    3    3    0    0  0.39723429713E+02  0.21874881352E+02 -0.67666303836E+01  0.45850406248E+02  0.10566000000E+00 0. -1.
         22    1    1    0    0    0 -0.71789289318E+01  0.20755185355E+02  0.12402046972E+02  0.25221528677E+02  0.00000000000E+00 0. -1.
</event>
<event>
 5    1  0.9041381E-005  0.9118800E+02  0.7818608E-02  0.1130116E+00
         25   -1    0    0    0    0  0.00000000000E+00  0.00000000000E+00  0.99999998245E-14  0.12500000000E+03  0.12500000000E+03 0.  0.
        -13    1    3    3    0    0  0.39399447033E+02  0.27775851698E+02 -0.54954233610E+01  0.48518297642E+02  0.10566000000E+00 0.  1.
         23    2    1    0    0    0 -0.16369924156E+01  0.24910847027E+02  0.16411309534E+02  0.95124238513E+02  0.90310905368E+02 0.  0.
         13    1    3    3    0    0 -0.41036439449E+02 -0.28650046708E+01  0.21906732895E+02  0.46605940872E+02  0.10566000000E+00 0. -1.
         22    1    1    0    0    0  0.16369924156E+01 -0.24910847027E+02 -0.16411309534E+02  0.29875761487E+02  0.00000000000E+00 0.  1.
</event>
<event>
 5    1  0.9041381E-005  0.9118800E+02  0.7818608E-02  0.1130116E+00
         25   -1    0    0    0    0  0.00000000000E+00  0.00000000000E+00  0.99999998245E-14  0.12500000000E+03  0.12500000000E+03 0.  0.
        -13    1    3    3    0    0  0.23454560006E+02 -0.54312680107E+02  0.84792841514E+01  0.59765316273E+02  0.10566000000E+00 0.  1.
         23    2    1    0    0    0 -0.16328029897E+01 -0.28780954263E+02  0.51727103472E+01  0.95712352327E+02  0.91121282265E+02 0.  0.
         13    1    3    3    0    0 -0.25087362996E+02  0.25531725844E+02 -0.33065738042E+01  0.35947036053E+02  0.10566000000E+00 0. -1.
         22    1    1    0    0    0  0.16328029897E+01  0.28780954263E+02 -0.51727103472E+01  0.29287647673E+02  0.00000000000E+00 0.  1.
</event>
<event>
 5    1  0.9041381E-005  0.9118800E+02  0.7818608E-02  0.1130116E+00
         25   -1    0    0    0    0  0.00000000000E+00  0.00000000000E+00  0.99999998245E-14  0.12500000000E+03  0.12500000000E+03 0.  0.
        -13    1    3    3    0    0 -0.16031882947E+02  0.84964009467E+01 -0.33668746156E+02  0.38246643403E+02  0.10566000000E+00 0.  1.
         23    2    1    0    0    0  0.45443801047E+01  0.27552374756E+02  0.14159304111E+02  0.93690726004E+02  0.88304481772E+02 0.  0.
         13    1    3    3    0    0  0.20576263052E+02  0.19055973809E+02  0.47828050268E+02  0.55444082601E+02  0.10566000000E+00 0. -1.
         22    1    1    0    0    0 -0.45443801047E+01 -0.27552374756E+02 -0.14159304111E+02  0.31309273996E+02  0.00000000000E+00 0.  1.
</event>
<event>
 5    1  0.9041381E-005  0.9118800E+02  0.7818608E-02  0.1130116E+00
         25   -1    0    0    0    0  0.00000000000E+00  0.00000000000E+00  0.99999998245E-14  0.12500000000E+03  0.12500000000E+03 0.  0.
        -13    1    3    3    0    0  0.16288959049E+02 -0.32520001476E+02  0.24789504928E+02  0.44016035732E+02  0.10566000000E+00 0. -1.
         23    2    1    0    0    0 -0.46441519220E+01  0.11519859862E+02  0.29487163925E+02  0.93003622789E+02  0.87326431836E+02 0.  0.
         13    1    3    3    0    0 -0.20933110971E+02  0.44039861338E+02  0.46976589968E+01  0.48987587057E+02  0.10566000000E+00 0.  1.
         22    1    1    0    0    0  0.46441519220E+01 -0.11519859862E+02 -0.29487163925E+02  0.31996377211E+02  0.00000000000E+00 0.  1.
</event>
<event>
 5    1  0.9041381E-005  0.9118800E+02  0.7818608E-02  0.1130116E+00
         25   -1    0    0    0    0  0.00000000000E+00  0.00000000000E+00  0.99999998245E-14  0.12500000000E+03  0.12500000000E+03 0.  0.
        -13    1    3    3    0    0 -0.58561438455E+02  0.60721327603E+01 -0.34038024121E+01  0.58973806940E+02  0.10566000000E+00 0.  1.
         23    2    1    0    0    0 -0.44299686766E+02 -0.66017498263E+01  0.52123921490E+01  0.79908821480E+02  0.65971246540E+02 0.  0.
         13    1    3    3    0    0  0.14261751688E+02 -0.12673882587E+02  0.86161945611E+01  0.20935014540E+02  0.10566000000E+00 0. -1.
         22    1    1    0    0    0  0.44299686766E+02  0.66017498263E+01 -0.52123921490E+01  0.45091178520E+02  0.00000000000E+00 0.  1.
</event>
<event>
 5    1  0.9041381E-005  0.9118800E+02  0.7818608E-02  0.1130116E+00
         25   -1    0    0    0    0  0.00000000000E+00  0.00000000000E+00  0.99999998245E-14  0.12500000000E+03  0.12500000000E+03 0.  0.
        -13    1    3    3    0    0  0.54850933415E+01 -0.34884413094E+02 -0.11760116665E+02  0.37219887612E+02  0.10566000000E+00 0. -1.
         23    2    1    0    0    0 -0.95932432077E+01  0.21109511289E+02  0.10772747077E+02  0.99432562473E+02  0.96089232582E+02 0.  0.
         13    1    3    3    0    0 -0.15078336549E+02  0.55993924383E+02  0.22532863742E+02  0.62212674861E+02  0.10566000000E+00 0.  1.
         22    1    1    0    0    0  0.95932432077E+01 -0.21109511289E+02 -0.10772747077E+02  0.25567437527E+02  0.00000000000E+00 0.  1.
</event>
<event>
 5    1  0.9041381E-005  0.9118800E+02  0.7818608E-02  0.1130116E+00
         25   -1    0    0    0    0  0.00000000000E+00  0.00000000000E+00  0.99999998245E-14  0.12500000000E+03  0.12500000000E+03 0.  0.
        -13    1    3    3    0    0 -0.17051448175E+02 -0.28856662336E+02  0.47556227617E+01  0.33853891326E+02  0.10566000000E+00 0. -1.
         23    2    1    0    0    0  0.41143956399E+01  0.28500588441E+02 -0.50234907221E+01  0.95769070285E+02  0.91199054663E+02 0.  0.
         13    1    3    3    0    0  0.21165843815E+02  0.57357250776E+02 -0.97791134838E+01  0.61915178959E+02  0.10566000000E+00 0.  1.
         22    1    1    0    0    0 -0.41143956399E+01 -0.28500588441E+02  0.50234907221E+01  0.29230929715E+02  0.00000000000E+00 0.  1.
</event>
<event>
 5    1  0.9041381E-005  0.9118800E+02  0.7818608E-02  0.1130116E+00
         25   -1    0    0    0    0  0.00000000000E+00  0.00000000000E+00  0.99999998245E-14  0.12500000000E+03  0.12500000000E+03 0.  0.
        -13    1    3    3    0    0 -0.15690052230E+02  0.27509603744E+02 -0.20680494682E+02  0.37823935034E+02  0.10566000000E+00 0. -1.
         23    2    1    0    0    0 -0.11223525109E+02 -0.15372593210E+02  0.20204982007E+02  0.97241660068E+02  0.93195574021E+02 0.  0.
         13    1    3    3    0    0  0.44665271203E+01 -0.42882196954E+02  0.40885476689E+02  0.59417725034E+02  0.10566000000E+00 0.  1.
         22    1    1    0    0    0  0.11223525109E+02  0.15372593210E+02 -0.20204982007E+02  0.27758339932E+02  0.00000000000E+00 0.  1.
</event>
<event>
 5    1  0.9041381E-005  0.9118800E+02  0.7818608E-02  0.1130116E+00
         25   -1    0    0    0    0  0.00000000000E+00  0.00000000000E+00  0.99999998245E-14  0.12500000000E+03  0.12500000000E+03 0.  0.
        -13    1    3    3    0    0 -0.29662082181E+02 -0.46980374027E+01 -0.17616917029E+02  0.34817777132E+02  0.10566000000E+00 0.  1.
         23    2    1    0    0    0  0.22233827471E+02 -0.10952001861E+02  0.14614077378E+02  0.96227431704E+02  0.91825148657E+02 0.  0.
         13    1    3    3    0    0  0.51895909652E+02 -0.62539644588E+01  0.32230994407E+02  0.61409654571E+02  0.10566000000E+00 0. -1.
         22    1    1    0    0    0 -0.22233827471E+02  0.10952001861E+02 -0.14614077378E+02  0.28772568296E+02  0.00000000000E+00 0. -1.
</event>
<event>
 5    1  0.9041381E-005  0.9118800E+02  0.7818608E-02  0.1130116E+00
         25   -1    0    0    0    0  0.00000000000E+00  0.00000000000E+00  0.99999998245E-14  0.12500000000E+03  0.12500000000E+03 0.  0.
        -13    1    3    3    0    0  0.30474759996E+02  0.34587207313E+02  0.13401197103E+01  0.46117165908E+02  0.10566000000E+00 0.  1.
         23    2    1    0    0    0  0.14985548869E+02  0.42043559042E+01 -0.29209371953E+02  0.91902708670E+02  0.85736090227E+02 0.  0.
         13    1    3    3    0    0 -0.15489211127E+02 -0.30382851409E+02 -0.30549491664E+02  0.45785542762E+02  0.10566000000E+00 0. -1.
         22    1    1    0    0    0 -0.14985548869E+02 -0.42043559042E+01  0.29209371953E+02  0.33097291330E+02  0.00000000000E+00 0. -1.
</event>
<event>
 5    1  0.9041381E-005  0.9118800E+02  0.7818608E-02  0.1130116E+00
         25   -1    0    0    0    0  0.00000000000E+00  0.00000000000E+00  0.99999998245E-14  0.12500000000E+03  0.12500000000E+03 0.  0.
        -13    1    3    3    0    0  0.36181655586E+02 -0.21194939364E+02  0.22354402011E+02  0.47519134135E+02  0.10566000000E+00 0.  1.
         23    2    1    0    0    0 -0.11788691381E+02 -0.22210146794E+02  0.13994254114E+02  0.96223220936E+02  0.91819416433E+02 0.  0.
         13    1    3    3    0    0 -0.47970346967E+02 -0.10152074304E+01 -0.83601478975E+01  0.48704086802E+02  0.10566000000E+00 0. -1.
         22    1    1    0    0    0  0.11788691381E+02  0.22210146794E+02 -0.13994254114E+02  0.28776779064E+02  0.00000000000E+00 0. -1.
</event>
<event>
 5    1  0.9041381E-005  0.9118800E+02  0.7818608E-02  0.1130116E+00
         25   -1    0    0    0    0  0.00000000000E+00  0.00000000000E+00  0.99999998245E-14  0.12500000000E+03  0.12500000000E+03 0.  0.
        -13    1    3    3    0    0 -0.37751188759E+02 -0.16195200069E+01 -0.78902284444E+01  0.38601061730E+02  0.10566000000E+00 0. -1.
         23    2    1    0    0    0  0.15720842303E+02 -0.89173400392E+01 -0.24030958612E+02  0.94930899449E+02  0.90042905675E+02 0.  0.
         13    1    3    3    0    0  0.53472031062E+02 -0.72978200323E+01 -0.16140730168E+02  0.56329837719E+02  0.10566000000E+00 0.  1.
         22    1    1    0    0    0 -0.15720842303E+02  0.89173400392E+01  0.24030958612E+02  0.30069100551E+02  0.00000000000E+00 0.  1.
</event>
<event>
 5    1  0.9041381E-005  0.9118800E+02  0.7818608E-02  0.1130116E+00
         25   -1    0    0    0    0  0.00000000000E+00  0.00000000000E+00  0.99999998245E-14  0.12500000000E+03  0.12500000000E+03 0.  0.
        -13    1    3    3    0    0  0.55385572257E+02  0.16296250115E+02 -0.87576686110E+01  0.58393812220E+02  0.10566000000E+00 0.  1.
         23    2    1    0    0    0  0.25165050707E+02 -0.69075792353E+01 -0.11262819808E+02  0.96577376299E+02  0.92300292929E+02 0.  0.
         13    1    3    3    0    0 -0.30220521550E+02 -0.23203829350E+02 -0.25051511972E+01  0.38183564080E+02  0.10566000000E+00 0. -1.
         22    1    1    0    0    0 -0.25165050707E+02  0.69075792353E+01  0.11262819808E+02  0.28422623701E+02  0.00000000000E+00 0.  1.
</event>
<event>
 5    1  0.9041381E-005  0.9118800E+02  0.7818608E-02  0.1130116E+00
         25   -1    0    0    0    0  0.00000000000E+00  0.00000000000E+00  0.99999998245E-14  0.12500000000E+03  0.12500000000E+03 0.  0.
        -13    1    3    3    0    0 -0.29839304679E+02 -0.16448704323E+02  0.55170753587E+01  0.34516565040E+02  0.10566000000E+00 0. -1.
         23    2    1    0    0    0  0.18570734816E+02  0.16947497019E+02 -0.13674166932E+02  0.96380554022E+02  0.92033355396E+02 0.  0.
         13    1    3    3    0    0  0.48410039495E+02  0.33396201342E+02 -0.19191242291E+02  0.61863988981E+02  0.10566000000E+00 0.  1.
         22    1    1    0    0    0 -0.18570734816E+02 -0.16947497019E+02  0.13674166932E+02  0.28619445978E+02  0.00000000000E+00 0.  1.
</event>
<event>
 5    1  0.9041381E-005  0.9118800E+02  0.7818608E-02  0.1130116E+00
         25   -1    0    0    0    0  0.00000000000E+00  0.00000000000E+00  0.99999998245E-14  0.12500000000E+03  0.12500000000E+03 0.  0.
        -13    1    3    3    0    0 -0.13184685496E+02  0.13108587971E+02  0.38976636705E+02  0.43184029260E+02  0.10566000000E+00 0.  1.
         23    2    1    0    0    0 -0.14329942872E+02  0.21886450426E+02 -0.12914941765E+02  0.95825358687E+02  0.91276172531E+02 0.  0.
         13    1    3    3    0    0 -0.11452573751E+01  0.87778624542E+01 -0.51891578470E+02  0.52641329427E+02  0.10566000000E+00 0. -1.
         22    1    1    0    0    0  0.14329942872E+02 -0.21886450426E+02  0.12914941765E+02  0.29174641313E+02  0.00000000000E+00 0.  1.
</event>
<event>
 5    1  0.9041381E-005  0.9118800E+02  0.7818608E-02  0.1130116E+00
         25   -1    0    0    0    0  0.00000000000E+00  0.00000000000E+00  0.99999998245E-14  0.12500000000E+03  0.12500000000E+03 0.  0.
        -13    1    3    3    0    0  0.28686582297E+02  0.34403639358E+02 -0.12836380617E+02  0.46597362976E+02  0.10566000000E+00 0.  1.
         23    2    1    0    0    0  0.14568964454E+02  0.40395090493E+02  0.15931368120E+02  0.79197963458E+02  0.64610299987E+02 0.  0.
         13    1    3    3    0    0 -0.14117617843E+02  0.59914511352E+01  0.28767748738E+02  0.32600600481E+02  0.10566000000E+00 0. -1.
         22    1    1    0    0    0 -0.14568964454E+02 -0.40395090493E+02 -0.15931368120E+02  0.45802036542E+02  0.00000000000E+00 0.  1.
</event>
<event>
 5    1  0.9041381E-005  0.9118800E+02  0.7818608E-02  0.1130116E+00
         25   -1    0    0    0    0  0.00000000000E+00  0.00000000000E+00  0.99999998245E-14  0.12500000000E+03  0.12500000000E+03 0.  0.
        -13    1    3    3    0    0  0.22389690192E+02 -0.29140562435E+02  0.23156832873E+02  0.43436398086E+02  0.10566000000E+00 0. -1.
         23    2    1    0    0    0  0.81280469746E+01 -0.67767164153E+01 -0.24686747778E+02  0.98140652487E+02  0.94393660389E+02 0.  0.
         13    1    3    3    0    0 -0.14261643217E+02  0.22363846020E+02 -0.47843580651E+02  0.54704254401E+02  0.10566000000E+00 0.  1.
         22    1    1    0    0    0 -0.81280469746E+01  0.67767164153E+01  0.24686747778E+02  0.26859347513E+02  0.00000000000E+00 0.  1.
</event>
<event>
 5    1  0.9041381E-005  0.9118800E+02  0.7818608E-02  0.1130116E+00
         25   -1    0    0    0    0  0.00000000000E+00  0.00000000000E+00  0.99999998245E-14  0.12500000000E+03  0.12500000000E+03 0.  0.
        -13    1    3    3    0    0 -0.29174067532E+02 -0.18274149978E+02  0.10488603862E+02  0.35987397083E+02  0.10566000000E+00 0.  1.
         23    2    1    0    0    0  0.28197995297E+02 -0.23990522758E+00  0.19047642413E+01  0.96736726657E+02  0.92515845476E+02 0.  0.
         13    1    3    3    0    0  0.57372062829E+02  0.18034244751E+02 -0.85838396207E+01  0.60749329574E+02  0.10566000000E+00 0. -1.
         22    1    1    0    0    0 -0.28197995297E+02  0.23990522758E+00 -0.19047642413E+01  0.28263273343E+02  0.00000000000E+00 0. -1.
</event>
<event>
 5    1  0.9041381E-005  0.9118800E+02  0.7818608E-02  0.1130116E+00
         25   -1    0    0    0    0  0.00000000000E+00  0.00000000000E+00  0.99999998245E-14  0.12500000000E+03  0.12500000000E+03 0.  0.
        -13    1    3    3    0    0  0.52407182995E+02 -0.13307191904E+02  0.16960260407E+02  0.56667943168E+02  0.10566000000E+00 0. -1.
         23    2    1    0    0    0  0.14922267165E+02 -0.23034464884E+02  0.61753130400E+01  0.96868254214E+02  0.92693384626E+02 0.  0.
         13    1    3    3    0    0 -0.37484915830E+02 -0.97272729802E+01 -0.10784947367E+02  0.40200311046E+02  0.10566000000E+00 0.  1.
         22    1    1    0    0    0 -0.14922267165E+02  0.23034464884E+02 -0.61753130400E+01  0.28131745786E+02  0.00000000000E+00 0. -1.
</event>
<event>
 5    1  0.9041381E-005  0.9118800E+02  0.7818608E-02  0.1130116E+00
         25   -1    0    0    0    0  0.00000000000E+00  0.00000000000E+00  0.99999998245E-14  0.12500000000E+03  0.12500000000E+03 0.  0.
        -13    1    3    3    0    0 -0.50901209692E+01  0.37656027448E+02 -0.48336616932E+02  0.61484351140E+02  0.10566000000E+00 0.  1.
         23    2    1    0    0    0 -0.82253619882E+01  0.12918180795E+02 -0.25261818537E+02  0.95458580760E+02  0.90772491373E+02 0.  0.
         13    1    3    3    0    0 -0.31352410190E+01 -0.24737846654E+02  0.23074798394E+02  0.33974229620E+02  0.10566000000E+00 0. -1.
         22    1    1    0    0    0  0.82253619882E+01 -0.12918180795E+02  0.25261818537E+02  0.29541419240E+02  0.00000000000E+00 0.  1.
</event>
<event>
 5    1  0.9041381E-005  0.9118800E+02  0.7818608E-02  0.1130116E+00
         25   -1    0    0    0    0  0.00000000000E+00  0.00000000000E+00  0.99999998245E-14  0.12500000000E+03  0.12500000000E+03 0.  0.
        -13    1    3    3    0    0 -0.14879817005E+02 -0.46598082960E+02  0.19113238934E+01  0.48953596525E+02  0.10566000000E+00 0.  1.
         23    2    1    0    0    0  0.23136442128E+01 -0.97592370407E+01  0.26637885903E+02  0.96536468551E+02  0.92244875943E+02 0.  0.
         13    1    3    3    0    0  0.17193461218E+02  0.36838845920E+02  0.24726562010E+02  0.47582872026E+02  0.10566000000E+00 0. -1.
         22    1    1    0    0    0 -0.23136442128E+01  0.97592370407E+01 -0.26637885903E+02  0.28463531449E+02  0.00000000000E+00 0. -1.
</event>
<event>
 5    1  0.9041381E-005  0.9118800E+02  0.7818608E-02  0.1130116E+00
         25   -1    0    0    0    0  0.00000000000E+00  0.00000000000E+00  0.99999998245E-14  0.12500000000E+03  0.12500000000E+03 0.  0.
        -13    1    3    3    0    0 -0.19800114144E+02  0.26569830387E+02 -0.51049782006E+01  0.33527188569E+02  0.10566000000E+00 0.  1.
         23    2    1    0    0    0 -0.40754405756E+02  0.97843519945E+01  0.26819854083E+02  0.75240983676E+02  0.56437982946E+02 0.  0.
         13    1    3    3    0    0 -0.20954291612E+02 -0.16785478392E+02  0.31924832284E+02  0.41713795107E+02  0.10566000000E+00 0. -1.
         22    1    1    0    0    0  0.40754405756E+02 -0.97843519945E+01 -0.26819854083E+02  0.49759016324E+02  0.00000000000E+00 0. -1.
</event>
<event>
 5    1  0.9041381E-005  0.9118800E+02  0.7818608E-02  0.1130116E+00
         25   -1    0    0    0    0  0.00000000000E+00  0.00000000000E+00  0.99999998245E-14  0.12500000000E+03  0.12500000000E+03 0.  0.
        -13    1    3    3    0    0  0.25034239479E+02  0.26235386019E+01  0.34067693902E+02  0.42358175515E+02  0.10566000000E+00 0.  1.
         23    2    1    0    0    0  0.74131926719E+01  0.24350357886E+02 -0.12469311293E+02  0.96656057457E+02  0.92406787436E+02 0.  0.
         13    1    3    3    0    0 -0.17621046807E+02  0.21726819284E+02 -0.46537005195E+02  0.54297881942E+02  0.10566000000E+00 0. -1.
         22    1    1    0    0    0 -0.74131926719E+01 -0.24350357886E+02  0.12469311293E+02  0.28343942543E+02  0.00000000000E+00 0.  1.
</event>
<event>
 5    1  0.9041381E-005  0.9118800E+02  0.7818608E-02  0.1130116E+00
         25   -1    0    0    0    0  0.00000000000E+00  0.00000000000E+00  0.99999998245E-14  0.12500000000E+03  0.12500000000E+03 0.  0.
        -13    1    3    3    0    0 -0.57596628577E+02  0.34611178755E+01 -0.10203485296E+02  0.58595846582E+02  0.10566000000E+00 0. -1.
         23    2    1    0    0    0 -0.27919094153E+02 -0.20196642556E+01  0.10400731686E+02  0.95138150064E+02  0.90330158396E+02 0.  0.
         13    1    3    3    0    0  0.29677534424E+02 -0.54807821311E+01  0.20604216982E+02  0.36542303482E+02  0.10566000000E+00 0.  1.
         22    1    1    0    0    0  0.27919094153E+02  0.20196642556E+01 -0.10400731686E+02  0.29861849936E+02  0.00000000000E+00 0. -1.
</event>
<event>
 5    1  0.9041381E-005  0.9118800E+02  0.7818608E-02  0.1130116E+00
         25   -1    0    0    0    0  0.00000000000E+00  0.00000000000E+00  0.99999998245E-14  0.12500000000E+03  0.12500000000E+03 0.  0.
        -13    1    3    3    0    0 -0.20543970318E+02 -0.38639587255E+02 -0.24322067907E+02  0.50066421592E+02  0.10566000000E+00 0.  1.
         23    2    1    0    0    0  0.12540881312E+02 -0.24911669495E+02  0.53758221252E+01  0.96596400851E+02  0.92326053813E+02 0.  0.
         13    1    3    3    0    0  0.33084851630E+02  0.13727917761E+02  0.29697890032E+02  0.46529979259E+02  0.10566000000E+00 0. -1.
         22    1    1    0    0    0 -0.12540881312E+02  0.24911669495E+02 -0.53758221252E+01  0.28403599149E+02  0.00000000000E+00 0. -1.
</event>
<event>
 5    1  0.9041381E-005  0.9118800E+02  0.7818608E-02  0.1130116E+00
         25   -1    0    0    0    0  0.00000000000E+00  0.00000000000E+00  0.99999998245E-14  0.12500000000E+03  0.12500000000E+03 0.  0.
        -13    1    3    3    0    0 -0.39681478230E+02  0.32249044904E+01  0.64798384116E+01  0.40336325977E+02  0.10566000000E+00 0.  1.
         23    2    1    0    0    0  0.94935610076E+01 -0.23113998858E+02  0.13562611655E+02  0.96568871308E+02  0.92288774112E+02 0.  0.
         13    1    3    3    0    0  0.49175039237E+02 -0.26338903348E+02  0.70827732429E+01  0.56232545331E+02  0.10566000000E+00 0. -1.
         22    1    1    0    0    0 -0.94935610076E+01  0.23113998858E+02 -0.13562611655E+02  0.28431128692E+02  0.00000000000E+00 0. -1.
</event>
<event>
 5    1  0.9041381E-005  0.9118800E+02  0.7818608E-02  0.1130116E+00
         25   -1    0    0    0    0  0.00000000000E+00  0.00000000000E+00  0.99999998245E-14  0.12500000000E+03  0.12500000000E+03 0.  0.
        -13    1    3    3    0    0  0.36548446462E+01 -0.15369206284E+02 -0.36077116677E+02  0.39384513491E+02  0.10566000000E+00 0. -1.
         23    2    1    0    0    0 -0.23108169821E+02 -0.17561727397E+02  0.11309115660E+02  0.93850395209E+02  0.88530214064E+02 0.  0.
         13    1    3    3    0    0 -0.26763014467E+02 -0.21925211130E+01  0.47386232337E+02  0.54465881718E+02  0.10566000000E+00 0.  1.
         22    1    1    0    0    0  0.23108169821E+02  0.17561727397E+02 -0.11309115660E+02  0.31149604791E+02  0.00000000000E+00 0.  1.
</event>
<event>
 5    1  0.9041381E-005  0.9118800E+02  0.7818608E-02  0.1130116E+00
         25   -1    0    0    0    0  0.00000000000E+00  0.00000000000E+00  0.99999998245E-14  0.12500000000E+03  0.12500000000E+03 0.  0.
        -13    1    3    3    0    0  0.39898633120E+02 -0.37111958064E+02  0.15807310526E+02  0.56736941989E+02  0.10566000000E+00 0.  1.
         23    2    1    0    0    0  0.35801050155E+01 -0.28805453731E+02  0.89955082027E+01  0.94611013765E+02  0.89597731228E+02 0.  0.
         13    1    3    3    0    0 -0.36318528105E+02  0.83065043332E+01 -0.68118023237E+01  0.37874071776E+02  0.10566000000E+00 0. -1.
         22    1    1    0    0    0 -0.35801050155E+01  0.28805453731E+02 -0.89955082027E+01  0.30388986235E+02  0.00000000000E+00 0.  1.
</event>
<event>
 5    1  0.9041381E-005  0.9118800E+02  0.7818608E-02  0.1130116E+00
         25   -1    0    0    0    0  0.00000000000E+00  0.00000000000E+00  0.99999998245E-14  0.12500000000E+03  0.12500000000E+03 0.  0.
        -13    1    3    3    0    0  0.52842297693E+02  0.78926878051E+01  0.13620705300E+02  0.55137443930E+02  0.10566000000E+00 0.  1.
         23    2    1    0    0    0  0.20005449647E+02 -0.17407200870E+02  0.96503553391E+01  0.96780183986E+02  0.92574542918E+02 0.  0.
         13    1    3    3    0    0 -0.32836848046E+02 -0.25299888675E+02 -0.39703499606E+01  0.41642740056E+02  0.10566000000E+00 0. -1.
         22    1    1    0    0    0 -0.20005449647E+02  0.17407200870E+02 -0.96503553391E+01  0.28219816014E+02  0.00000000000E+00 0. -1.
</event>
<event>
 5    1  0.9041381E-005  0.9118800E+02  0.7818608E-02  0.1130116E+00
         25   -1    0    0    0    0  0.00000000000E+00  0.00000000000E+00  0.99999998245E-14  0.12500000000E+03  0.12500000000E+03 0.  0.
        -13    1    3    3    0    0 -0.83502983519E+01  0.14386213312E+02 -0.28091044060E+02  0.32646723211E+02  0.10566000000E+00 0.  1.
         23    2    1    0    0    0  0.47123999794E+01 -0.70968157628E+01  0.28864277372E+02  0.94904850628E+02  0.90006736731E+02 0.  0.
         13    1    3    3    0    0  0.13062698331E+02 -0.21483029075E+02  0.56955321432E+02  0.62258127416E+02  0.10566000000E+00 0. -1.
         22    1    1    0    0    0 -0.47123999794E+01  0.70968157628E+01 -0.28864277372E+02  0.30095149372E+02  0.00000000000E+00 0. -1.
</event>
<event>
 5    1  0.9041381E-005  0.9118800E+02  0.7818608E-02  0.1130116E+00
         25   -1    0    0    0    0  0.00000000000E+00  0.00000000000E+00  0.99999998245E-14  0.12500000000E+03  0.12500000000E+03 0.  0.
        -13    1    3    3    0    0 -0.32486812803E+02 -0.28956448204E+02 -0.25906738325E+01  0.43595775640E+02  0.10566000000E+00 0. -1.
         23    2    1    0    0    0 -0.22931916786E+02  0.11447367086E+02 -0.23628474198E+02  0.90139996936E+02  0.83126405155E+02 0.  0.
         13    1    3    3    0    0  0.95548960168E+01  0.40403815290E+02 -0.21037800366E+02  0.46544221297E+02  0.10566000000E+00 0.  1.
         22    1    1    0    0    0  0.22931916786E+02 -0.11447367086E+02  0.23628474198E+02  0.34860003064E+02  0.00000000000E+00 0. -1.
</event>
<event>
 5    1  0.9041381E-005  0.9118800E+02  0.7818608E-02  0.1130116E+00
         25   -1    0    0    0    0  0.00000000000E+00  0.00000000000E+00  0.99999998245E-14  0.12500000000E+03  0.12500000000E+03 0.  0.
        -13    1    3    3    0    0 -0.13647197107E+02 -0.24875974523E+02 -0.26189557295E+02  0.38613005228E+02  0.10566000000E+00 0. -1.
         23    2    1    0    0    0  0.17040697182E+02  0.21030236115E+02 -0.97990623039E+01  0.96213235445E+02  0.91805821500E+02 0.  0.
         13    1    3    3    0    0  0.30687894289E+02  0.45906210638E+02  0.16390494991E+02  0.57600230218E+02  0.10566000000E+00 0.  1.
         22    1    1    0    0    0 -0.17040697182E+02 -0.21030236115E+02  0.97990623039E+01  0.28786764555E+02  0.00000000000E+00 0.  1.
</event>
<event>
 5    1  0.9041381E-005  0.9118800E+02  0.7818608E-02  0.1130116E+00
         25   -1    0    0    0    0  0.00000000000E+00  0.00000000000E+00  0.99999998245E-14  0.12500000000E+03  0.12500000000E+03 0.  0.
        -13    1    3    3    0    0 -0.28456561611E+02  0.38322775485E+02 -0.24018612561E+02  0.53435156339E+02  0.10566000000E+00 0.  1.
         23    2    1    0    0    0  0.23093162831E+01  0.29994791542E+02  0.23819407661E+01  0.94822291287E+02  0.89892006439E+02 0.  0.
         13    1    3    3    0    0  0.30765877894E+02 -0.83279839429E+01  0.26400553327E+02  0.41387134947E+02  0.10566000000E+00 0. -1.
         22    1    1    0    0    0 -0.23093162831E+01 -0.29994791542E+02 -0.23819407661E+01  0.30177708713E+02  0.00000000000E+00 0.  1.
</event>
<event>
 5    1  0.9041381E-005  0.9118800E+02  0.7818608E-02  0.1130116E+00
         25   -1    0    0    0    0  0.00000000000E+00  0.00000000000E+00  0.99999998245E-14  0.12500000000E+03  0.12500000000E+03 0.  0.
        -13    1    3    3    0    0 -0.39113314753E+02 -0.16024791082E+02 -0.28570567140E+02  0.51018955212E+02  0.10566000000E+00 0.  1.
         23    2    1    0    0    0 -0.75399189575E+01 -0.22296804547E+02 -0.33983556556E+02  0.83661398341E+02  0.72734789374E+02 0.  0.
         13    1    3    3    0    0  0.31573395796E+02 -0.62720134649E+01 -0.54129894160E+01  0.32642443129E+02  0.10566000000E+00 0. -1.
         22    1    1    0    0    0  0.75399189575E+01  0.22296804547E+02  0.33983556556E+02  0.41338601659E+02  0.00000000000E+00 0.  1.
</event>
<event>
 5    1  0.9041381E-005  0.9118800E+02  0.7818608E-02  0.1130116E+00
         25   -1    0    0    0    0  0.00000000000E+00  0.00000000000E+00  0.99999998245E-14  0.12500000000E+03  0.12500000000E+03 0.  0.
        -13    1    3    3    0    0  0.18653873567E+02  0.42534950868E+02  0.37279640846E+02  0.59556459180E+02  0.10566000000E+00 0. -1.
         23    2    1    0    0    0  0.18766680008E+02  0.21222303192E+02  0.83961867159E+01  0.95452235573E+02  0.90763753190E+02 0.  0.
         13    1    3    3    0    0  0.11280644048E+00 -0.21312647676E+02 -0.28883454130E+02  0.35895776392E+02  0.10566000000E+00 0.  1.
         22    1    1    0    0    0 -0.18766680008E+02 -0.21222303192E+02 -0.83961867159E+01  0.29547764427E+02  0.00000000000E+00 0. -1.
</event>
<event>
 5    1  0.9041381E-005  0.9118800E+02  0.7818608E-02  0.1130116E+00
         25   -1    0    0    0    0  0.00000000000E+00  0.00000000000E+00  0.99999998245E-14  0.12500000000E+03  0.12500000000E+03 0.  0.
        -13    1    3    3    0    0  0.39702485424E+02  0.93358276458E+01 -0.18816094199E+02  0.44916607080E+02  0.10566000000E+00 0.  1.
         23    2    1    0    0    0  0.18080562994E+02 -0.20679340424E+02  0.13822602400E+02  0.94249289184E+02  0.89091651102E+02 0.  0.
         13    1    3    3    0    0 -0.21621922430E+02 -0.30015168070E+02  0.32638696599E+02  0.49332682104E+02  0.10566000000E+00 0. -1.
         22    1    1    0    0    0 -0.18080562994E+02  0.20679340424E+02 -0.13822602400E+02  0.30750710816E+02  0.00000000000E+00 0. -1.
</event>
<event>
 5    1  0.9041381E-005  0.9118800E+02  0.7818608E-02  0.1130116E+00
         25   -1    0    0    0    0  0.00000000000E+00  0.00000000000E+00  0.99999998245E-14  0.12500000000E+03  0.12500000000E+03 0.  0.
        -13    1    3    3    0    0  0.31181238170E+02 -0.12880219085E+02  0.91889539443E+01  0.34965950525E+02  0.10566000000E+00 0. -1.
         23    2    1    0    0    0 -0.19689303394E+02 -0.48680759560E+01 -0.21924389437E+02  0.95132866160E+02  0.90322846168E+02 0.  0.
         13    1    3    3    0    0 -0.50870541565E+02  0.80121431286E+01 -0.31113343381E+02  0.60166915635E+02  0.10566000000E+00 0.  1.
         22    1    1    0    0    0  0.19689303394E+02  0.48680759560E+01  0.21924389437E+02  0.29867133840E+02  0.00000000000E+00 0.  1.
</event>
<event>
 5    1  0.9041381E-005  0.9118800E+02  0.7818608E-02  0.1130116E+00
         25   -1    0    0    0    0  0.00000000000E+00  0.00000000000E+00  0.99999998245E-14  0.12500000000E+03  0.12500000000E+03 0.  0.
        -13    1    3    3    0    0 -0.25599508895E+02  0.12050744194E+02  0.24655434319E+02  0.37529413756E+02  0.10566000000E+00 0.  1.
         23    2    1    0    0    0  0.13076042420E+02  0.22083064085E+02 -0.16180436949E+02  0.94661062237E+02  0.89667527897E+02 0.  0.
         13    1    3    3    0    0  0.38675551315E+02  0.10032319890E+02 -0.40835871268E+02  0.57131648481E+02  0.10566000000E+00 0. -1.
         22    1    1    0    0    0 -0.13076042420E+02 -0.22083064085E+02  0.16180436949E+02  0.30338937763E+02  0.00000000000E+00 0. -1.
</event>
<event>
 5    1  0.9041381E-005  0.9118800E+02  0.7818608E-02  0.1130116E+00
         25   -1    0    0    0    0  0.00000000000E+00  0.00000000000E+00  0.99999998245E-14  0.12500000000E+03  0.12500000000E+03 0.  0.
        -13    1    3    3    0    0  0.21443132575E+02  0.50936934304E+02  0.26338852604E+02  0.61221936685E+02  0.10566000000E+00 0. -1.
         23    2    1    0    0    0  0.17018151567E+02  0.26129813430E+02  0.68612254012E+01  0.93070999912E+02  0.87422822981E+02 0.  0.
         13    1    3    3    0    0 -0.44249810084E+01 -0.24807120874E+02 -0.19477627203E+02  0.31849063227E+02  0.10566000000E+00 0.  1.
         22    1    1    0    0    0 -0.17018151567E+02 -0.26129813430E+02 -0.68612254012E+01  0.31929000088E+02  0.00000000000E+00 0. -1.
</event>
<event>
 5    1  0.9041381E-005  0.9118800E+02  0.7818608E-02  0.1130116E+00
         25   -1    0    0    0    0  0.00000000000E+00  0.00000000000E+00  0.99999998245E-14  0.12500000000E+03  0.12500000000E+03 0.  0.
        -13    1    3    3    0    0  0.18653767055E+02  0.16163395426E+01 -0.52671451354E+02  0.55900523527E+02  0.10566000000E+00 0.  1.
         23    2    1    0    0    0  0.25745322423E+02  0.80903930931E+00 -0.13116000679E+02  0.96094885486E+02  0.91644538144E+02 0.  0.
         13    1    3    3    0    0  0.70915553673E+01 -0.80730023328E+00  0.39555450675E+02  0.40194361959E+02  0.10566000000E+00 0. -1.
         22    1    1    0    0    0 -0.25745322423E+02 -0.80903930931E+00  0.13116000679E+02  0.28905114514E+02  0.00000000000E+00 0.  1.
</event>
<event>
 5    1  0.9041381E-005  0.9118800E+02  0.7818608E-02  0.1130116E+00
         25   -1    0    0    0    0  0.00000000000E+00  0.00000000000E+00  0.99999998245E-14  0.12500000000E+03  0.12500000000E+03 0.  0.
        -13    1    3    3    0    0 -0.24083528720E+02  0.14072896817E+02 -0.14192694259E+02  0.31297068789E+02  0.10566000000E+00 0. -1.
         23    2    1    0    0    0  0.23098207365E+02 -0.48392684165E+01  0.21232532260E+02  0.93254667611E+02  0.87685043781E+02 0.  0.
         13    1    3    3    0    0  0.47181736085E+02 -0.18912165234E+02  0.35425226519E+02  0.61957598822E+02  0.10566000000E+00 0.  1.
         22    1    1    0    0    0 -0.23098207365E+02  0.48392684165E+01 -0.21232532260E+02  0.31745332389E+02  0.00000000000E+00 0.  1.
</event>
<event>
 5    1  0.9041381E-005  0.9118800E+02  0.7818608E-02  0.1130116E+00
         25   -1    0    0    0    0  0.00000000000E+00  0.00000000000E+00  0.99999998245E-14  0.12500000000E+03  0.12500000000E+03 0.  0.
        -13    1    3    3    0    0 -0.87590929188E+01 -0.24718957768E+02 -0.52785719835E+02  0.58941428252E+02  0.10566000000E+00 0. -1.
         23    2    1    0    0    0 -0.13098394723E+02  0.19749089223E+00 -0.26612924833E+02  0.95337654928E+02  0.90605815112E+02 0.  0.
         13    1    3    3    0    0 -0.43393018046E+01  0.24916448660E+02  0.26172795002E+02  0.36396226676E+02  0.10566000000E+00 0.  1.
         22    1    1    0    0    0  0.13098394723E+02 -0.19749089223E+00  0.26612924833E+02  0.29662345072E+02  0.00000000000E+00 0. -1.
</event>
<event>
 5    1  0.9041381E-005  0.9118800E+02  0.7818608E-02  0.1130116E+00
         25   -1    0    0    0    0  0.00000000000E+00  0.00000000000E+00  0.99999998245E-14  0.12500000000E+03  0.12500000000E+03 0.  0.
        -13    1    3    3    0    0 -0.38498862665E+01 -0.25197023506E+02  0.73689332586E+01  0.26533449818E+02  0.10566000000E+00 0.  1.
         23    2    1    0    0    0  0.17151674584E+02  0.31507637052E+02 -0.64246679389E+01  0.88555693288E+02  0.80708880069E+02 0.  0.
         13    1    3    3    0    0  0.21001560850E+02  0.56704660557E+02 -0.13793601197E+02  0.62022243470E+02  0.10566000000E+00 0. -1.
         22    1    1    0    0    0 -0.17151674584E+02 -0.31507637052E+02  0.64246679389E+01  0.36444306712E+02  0.00000000000E+00 0. -1.
</event>
<event>
 5    1  0.9041381E-005  0.9118800E+02  0.7818608E-02  0.1130116E+00
         25   -1    0    0    0    0  0.00000000000E+00  0.00000000000E+00  0.99999998245E-14  0.12500000000E+03  0.12500000000E+03 0.  0.
        -13    1    3    3    0    0  0.13190112442E+02 -0.42624703831E+02  0.46407927929E+01  0.44859698669E+02  0.10566000000E+00 0.  1.
         23    2    1    0    0    0  0.60248459174E+01 -0.36831905428E+01 -0.27968063026E+02  0.96154251434E+02  0.91725475515E+02 0.  0.
         13    1    3    3    0    0 -0.71652665241E+01  0.38941513288E+02 -0.32608855819E+02  0.51294552765E+02  0.10566000000E+00 0. -1.
         22    1    1    0    0    0 -0.60248459174E+01  0.36831905428E+01  0.27968063026E+02  0.28845748566E+02  0.00000000000E+00 0. -1.
</event>
<event>
 5    1  0.9041381E-005  0.9118800E+02  0.7818608E-02  0.1130116E+00
         25   -1    0    0    0    0  0.00000000000E+00  0.00000000000E+00  0.99999998245E-14  0.12500000000E+03  0.12500000000E+03 0.  0.
        -13    1    3    3    0    0  0.78171681670E+01  0.32779778960E+02  0.65526823311E+01  0.34330319494E+02  0.10566000000E+00 0. -1.
         23    2    1    0    0    0 -0.14361980859E+02 -0.19933980934E+02 -0.15861861646E+02  0.95755705771E+02  0.91180735042E+02 0.  0.
         13    1    3    3    0    0 -0.22179149026E+02 -0.52713759893E+02 -0.22414543977E+02  0.61425386277E+02  0.10566000000E+00 0.  1.
         22    1    1    0    0    0  0.14361980859E+02  0.19933980934E+02  0.15861861646E+02  0.29244294229E+02  0.00000000000E+00 0.  1.
</event>
<event>
 5    1  0.9041381E-005  0.9118800E+02  0.7818608E-02  0.1130116E+00
         25   -1    0    0    0    0  0.00000000000E+00  0.00000000000E+00  0.99999998245E-14  0.12500000000E+03  0.12500000000E+03 0.  0.
        -13    1    3    3    0    0 -0.14751461747E+02  0.30656143631E+02  0.36918136585E+02  0.50203234347E+02  0.10566000000E+00 0.  1.
         23    2    1    0    0    0  0.16807461791E+02  0.78504910442E+00  0.24283501049E+02  0.95456887484E+02  0.90770159585E+02 0.  0.
         13    1    3    3    0    0  0.31558923538E+02 -0.29871094526E+02 -0.12634635536E+02  0.45253653137E+02  0.10566000000E+00 0. -1.
         22    1    1    0    0    0 -0.16807461791E+02 -0.78504910442E+00 -0.24283501049E+02  0.29543112516E+02  0.00000000000E+00 0.  1.
</event>
<event>
 5    1  0.9041381E-005  0.9118800E+02  0.7818608E-02  0.1130116E+00
         25   -1    0    0    0    0  0.00000000000E+00  0.00000000000E+00  0.99999998245E-14  0.12500000000E+03  0.12500000000E+03 0.  0.
        -13    1    3    3    0    0 -0.27418825160E+02 -0.61553503281E+01  0.52979837061E+02  0.59971281543E+02  0.10566000000E+00 0.  1.
         23    2    1    0    0    0 -0.89537574452E+01  0.92166491536E+01  0.25296847564E+02  0.96626651754E+02  0.92367001350E+02 0.  0.
         13    1    3    3    0    0  0.18465067715E+02  0.15371999482E+02 -0.27682989497E+02  0.36655370211E+02  0.10566000000E+00 0. -1.
         22    1    1    0    0    0  0.89537574452E+01 -0.92166491536E+01 -0.25296847564E+02  0.28373348246E+02  0.00000000000E+00 0.  1.
</event>
<event>
 5    1  0.9041381E-005  0.9118800E+02  0.7818608E-02  0.1130116E+00
         25   -1    0    0    0    0  0.00000000000E+00  0.00000000000E+00  0.99999998245E-14  0.12500000000E+03  0.12500000000E+03 0.  0.
        -13    1    3    3    0    0  0.28440975019E+02 -0.22781912605E+02 -0.17423627674E+01  0.36482209281E+02  0.10566000000E+00 0. -1.
         23    2    1    0    0    0 -0.63561633676E+00  0.28745123478E+02  0.41912086763E+01  0.95943978902E+02  0.91438475083E+02 0.  0.
         13    1    3    3    0    0 -0.29076591356E+02  0.51527036083E+02  0.59335714438E+01  0.59461769621E+02  0.10566000000E+00 0.  1.
         22    1    1    0    0    0  0.63561633676E+00 -0.28745123478E+02 -0.41912086763E+01  0.29056021098E+02  0.00000000000E+00 0.  1.
</event>
<event>
 5    1  0.9041381E-005  0.9118800E+02  0.7818608E-02  0.1130116E+00
         25   -1    0    0    0    0  0.00000000000E+00  0.00000000000E+00  0.99999998245E-14  0.12500000000E+03  0.12500000000E+03 0.  0.
        -13    1    3    3    0    0 -0.30791799324E+02 -0.16799805162E+02 -0.55776483351E+01  0.35517456047E+02  0.10566000000E+00 0. -1.
         23    2    1    0    0    0  0.11513284616E+02  0.12177912976E+02  0.24762865982E+02  0.95099217088E+02  0.90276266382E+02 0.  0.
         13    1    3    3    0    0  0.42305083940E+02  0.28977718138E+02  0.30340514317E+02  0.59581761041E+02  0.10566000000E+00 0.  1.
         22    1    1    0    0    0 -0.11513284616E+02 -0.12177912976E+02 -0.24762865982E+02  0.29900782912E+02  0.00000000000E+00 0.  1.
</event>
<event>
 5    1  0.9041381E-005  0.9118800E+02  0.7818608E-02  0.1130116E+00
         25   -1    0    0    0    0  0.00000000000E+00  0.00000000000E+00  0.99999998245E-14  0.12500000000E+03  0.12500000000E+03 0.  0.
        -13    1    3    3    0    0 -0.49583369477E+02 -0.10170516871E+02 -0.33484142784E+01  0.50726452511E+02  0.10566000000E+00 0. -1.
         23    2    1    0    0    0 -0.12238450798E+02 -0.15244907823E+01 -0.26684111172E+02  0.95603647520E+02  0.90972039001E+02 0.  0.
         13    1    3    3    0    0  0.37344918679E+02  0.86460260888E+01 -0.23335696894E+02  0.44877195009E+02  0.10566000000E+00 0.  1.
         22    1    1    0    0    0  0.12238450798E+02  0.15244907823E+01  0.26684111172E+02  0.29396352480E+02  0.00000000000E+00 0. -1.
</event>
<event>
 5    1  0.9041381E-005  0.9118800E+02  0.7818608E-02  0.1130116E+00
         25   -1    0    0    0    0  0.00000000000E+00  0.00000000000E+00  0.99999998245E-14  0.12500000000E+03  0.12500000000E+03 0.  0.
        -13    1    3    3    0    0  0.57297484718E+00  0.23823398960E+02  0.55723041402E+02  0.60604877240E+02  0.10566000000E+00 0. -1.
         23    2    1    0    0    0  0.11028353426E+02  0.10046242670E+02  0.23835553594E+02  0.96880875081E+02  0.92710402707E+02 0.  0.
         13    1    3    3    0    0  0.10455378579E+02 -0.13777156290E+02 -0.31887487807E+02  0.36275997841E+02  0.10566000000E+00 0.  1.
         22    1    1    0    0    0 -0.11028353426E+02 -0.10046242670E+02 -0.23835553594E+02  0.28119124919E+02  0.00000000000E+00 0. -1.
</event>
<event>
 5    1  0.9041381E-005  0.9118800E+02  0.7818608E-02  0.1130116E+00
         25   -1    0    0    0    0  0.00000000000E+00  0.00000000000E+00  0.99999998245E-14  0.12500000000E+03  0.12500000000E+03 0.  0.
        -13    1    3    3    0    0 -0.33406302724E+02  0.11611299063E+02  0.10948757171E+02  0.37022827758E+02  0.10566000000E+00 0.  1.
         23    2    1    0    0    0  0.10840569807E+02  0.56134722223E+01 -0.26837117622E+02  0.95516786023E+02  0.90852608690E+02 0.  0.
         13    1    3    3    0    0  0.44246872531E+02 -0.59978268405E+01 -0.37785874793E+02  0.58493958265E+02  0.10566000000E+00 0. -1.
         22    1    1    0    0    0 -0.10840569807E+02 -0.56134722223E+01  0.26837117622E+02  0.29483213977E+02  0.00000000000E+00 0. -1.
</event>
<event>
 5    1  0.9041381E-005  0.9118800E+02  0.7818608E-02  0.1130116E+00
         25   -1    0    0    0    0  0.00000000000E+00  0.00000000000E+00  0.99999998245E-14  0.12500000000E+03  0.12500000000E+03 0.  0.
        -13    1    3    3    0    0 -0.35600477805E+02  0.25751075120E+02 -0.16601278923E+02  0.46969410425E+02  0.10566000000E+00 0.  1.
         23    2    1    0    0    0  0.12233527021E+00  0.29878371500E+02  0.11883653946E+02  0.92844856080E+02  0.87098874964E+02 0.  0.
         13    1    3    3    0    0  0.35722813075E+02  0.41272963805E+01  0.28484932869E+02  0.45875445655E+02  0.10566000000E+00 0. -1.
         22    1    1    0    0    0 -0.12233527021E+00 -0.29878371500E+02 -0.11883653946E+02  0.32155143920E+02  0.00000000000E+00 0.  1.
</event>
<event>
 5    1  0.9041381E-005  0.9118800E+02  0.7818608E-02  0.1130116E+00
         25   -1    0    0    0    0  0.00000000000E+00  0.00000000000E+00  0.99999998245E-14  0.12500000000E+03  0.12500000000E+03 0.  0.
        -13    1    3    3    0    0  0.43135112907E+02 -0.20794465533E+02  0.38549341609E+01  0.48040810190E+02  0.10566000000E+00 0. -1.
         23    2    1    0    0    0  0.19669939523E+02  0.20947735911E+02 -0.15041272319E+01  0.96225418172E+02  0.91822407630E+02 0.  0.
         13    1    3    3    0    0 -0.23465173384E+02  0.41742201444E+02 -0.53590613928E+01  0.48184607982E+02  0.10566000000E+00 0.  1.
         22    1    1    0    0    0 -0.19669939523E+02 -0.20947735911E+02  0.15041272319E+01  0.28774581828E+02  0.00000000000E+00 0.  1.
</event>
<event>
 5    1  0.9041381E-005  0.9118800E+02  0.7818608E-02  0.1130116E+00
         25   -1    0    0    0    0  0.00000000000E+00  0.00000000000E+00  0.99999998245E-14  0.12500000000E+03  0.12500000000E+03 0.  0.
        -13    1    3    3    0    0  0.22557277588E+02  0.56397823439E+02 -0.92260721744E+01  0.61438398682E+02  0.10566000000E+00 0. -1.
         23    2    1    0    0    0  0.94620257371E+01  0.29550896803E+02  0.32330106258E+01  0.93803240703E+02  0.88463609330E+02 0.  0.
         13    1    3    3    0    0 -0.13095251851E+02 -0.26846926635E+02  0.12459082800E+02  0.32364842021E+02  0.10566000000E+00 0.  1.
         22    1    1    0    0    0 -0.94620257371E+01 -0.29550896803E+02 -0.32330106258E+01  0.31196759297E+02  0.00000000000E+00 0. -1.
</event>
<event>
 5    1  0.9041381E-005  0.9118800E+02  0.7818608E-02  0.1130116E+00
         25   -1    0    0    0    0  0.00000000000E+00  0.00000000000E+00  0.99999998245E-14  0.12500000000E+03  0.12500000000E+03 0.  0.
        -13    1    3    3    0    0 -0.59852980864E+01 -0.17768369494E+02  0.31639439899E+02  0.36777765957E+02  0.10566000000E+00 0.  1.
         23    2    1    0    0    0  0.30489145718E+02  0.58145236196E+01 -0.49491607418E+01  0.93569268485E+02  0.88132384066E+02 0.  0.
         13    1    3    3    0    0  0.36474443804E+02  0.23582893113E+02 -0.36588600641E+02  0.56791502527E+02  0.10566000000E+00 0. -1.
         22    1    1    0    0    0 -0.30489145718E+02 -0.58145236196E+01  0.49491607418E+01  0.31430731515E+02  0.00000000000E+00 0. -1.
</event>
<event>
 5    1  0.9041381E-005  0.9118800E+02  0.7818608E-02  0.1130116E+00
         25   -1    0    0    0    0  0.00000000000E+00  0.00000000000E+00  0.99999998245E-14  0.12500000000E+03  0.12500000000E+03 0.  0.
        -13    1    3    3    0    0  0.27762679649E+02  0.12321700540E+02 -0.40397948291E+02  0.50543012135E+02  0.10566000000E+00 0.  1.
         23    2    1    0    0    0  0.26077947825E+02 -0.11409204725E+02 -0.10598348579E+01  0.96515748823E+02  0.92216794596E+02 0.  0.
         13    1    3    3    0    0 -0.16847318241E+01 -0.23730905264E+02  0.39338113433E+02  0.45972736687E+02  0.10566000000E+00 0. -1.
         22    1    1    0    0    0 -0.26077947825E+02  0.11409204725E+02  0.10598348579E+01  0.28484251177E+02  0.00000000000E+00 0. -1.
</event>
<event>
 5    1  0.9041381E-005  0.9118800E+02  0.7818608E-02  0.1130116E+00
         25   -1    0    0    0    0  0.00000000000E+00  0.00000000000E+00  0.99999998245E-14  0.12500000000E+03  0.12500000000E+03 0.  0.
        -13    1    3    3    0    0 -0.55441725971E+02 -0.13701903549E+02 -0.12045698449E+02  0.58366404332E+02  0.10566000000E+00 0.  1.
         23    2    1    0    0    0 -0.31271794905E+02 -0.24292017598E+00  0.82261020052E+01  0.92663442963E+02  0.86838129533E+02 0.  0.
         13    1    3    3    0    0  0.24169931066E+02  0.13458983373E+02  0.20271800454E+02  0.34297038631E+02  0.10566000000E+00 0. -1.
         22    1    1    0    0    0  0.31271794905E+02  0.24292017598E+00 -0.82261020052E+01  0.32336557037E+02  0.00000000000E+00 0.  1.
</event>
<event>
 5    1  0.9041381E-005  0.9118800E+02  0.7818608E-02  0.1130116E+00
         25   -1    0    0    0    0  0.00000000000E+00  0.00000000000E+00  0.99999998245E-14  0.12500000000E+03  0.12500000000E+03 0.  0.
        -13    1    3    3    0    0 -0.24228181498E+02 -0.33044762263E+02  0.39611204392E+02  0.56991400836E+02  0.10566000000E+00 0. -1.
         23    2    1    0    0    0 -0.94955435514E+01  0.13155915805E+01  0.26841761019E+02  0.96497784943E+02  0.92192441316E+02 0.  0.
         13    1    3    3    0    0  0.14732637947E+02  0.34360353844E+02 -0.12769443373E+02  0.39506384108E+02  0.10566000000E+00 0.  1.
         22    1    1    0    0    0  0.94955435514E+01 -0.13155915805E+01 -0.26841761019E+02  0.28502215057E+02  0.00000000000E+00 0. -1.
</event>
<event>
 5    1  0.9041381E-005  0.9118800E+02  0.7818608E-02  0.1130116E+00
         25   -1    0    0    0    0  0.00000000000E+00  0.00000000000E+00  0.99999998245E-14  0.12500000000E+03  0.12500000000E+03 0.  0.
        -13    1    3    3    0    0 -0.40568112750E+02  0.41792195740E+01 -0.75107030098E+00  0.40789862944E+02  0.10566000000E+00 0.  1.
         23    2    1    0    0    0 -0.68694610134E+01 -0.13572543311E+02  0.31059788985E+02  0.90415120091E+02  0.83539092781E+02 0.  0.
         13    1    3    3    0    0  0.33698651736E+02 -0.17751762885E+02  0.31810859286E+02  0.49625257147E+02  0.10566000000E+00 0. -1.
         22    1    1    0    0    0  0.68694610134E+01  0.13572543311E+02 -0.31059788985E+02  0.34584879909E+02  0.00000000000E+00 0. -1.
</event>
<event>
 5    1  0.9041381E-005  0.9118800E+02  0.7818608E-02  0.1130116E+00
         25   -1    0    0    0    0  0.00000000000E+00  0.00000000000E+00  0.99999998245E-14  0.12500000000E+03  0.12500000000E+03 0.  0.
        -13    1    3    3    0    0 -0.48894474752E+02  0.17232758275E+02 -0.24986708022E+02  0.57549842405E+02  0.10566000000E+00 0. -1.
         23    2    1    0    0    0 -0.29017332904E+02  0.76283722027E+00  0.32303617058E+01  0.95793446519E+02  0.91232459298E+02 0.  0.
         13    1    3    3    0    0  0.19877141847E+02 -0.16469921054E+02  0.28217069728E+02  0.38243604114E+02  0.10566000000E+00 0.  1.
         22    1    1    0    0    0  0.29017332904E+02 -0.76283722027E+00 -0.32303617058E+01  0.29206553481E+02  0.00000000000E+00 0. -1.
</event>
<event>
 5    1  0.9041381E-005  0.9118800E+02  0.7818608E-02  0.1130116E+00
         25   -1    0    0    0    0  0.00000000000E+00  0.00000000000E+00  0.99999998245E-14  0.12500000000E+03  0.12500000000E+03 0.  0.
        -13    1    3    3    0    0  0.22387675581E+01  0.95646512188E+01  0.57378155396E+02  0.58213044190E+02  0.10566000000E+00 0.  1.
         23    2    1    0    0    0 -0.91945008492E+01  0.16405248250E+02  0.21772365153E+02  0.96230104269E+02  0.91828786703E+02 0.  0.
         13    1    3    3    0    0 -0.11433268407E+02  0.68405970314E+01 -0.35605790243E+02  0.38017060080E+02  0.10566000000E+00 0. -1.
         22    1    1    0    0    0  0.91945008492E+01 -0.16405248250E+02 -0.21772365153E+02  0.28769895731E+02  0.00000000000E+00 0.  1.
</event>
<event>
 5    1  0.9041381E-005  0.9118800E+02  0.7818608E-02  0.1130116E+00
         25   -1    0    0    0    0  0.00000000000E+00  0.00000000000E+00  0.99999998245E-14  0.12500000000E+03  0.12500000000E+03 0.  0.
        -13    1    3    3    0    0 -0.23459340037E+02  0.49623887950E+02  0.21603415498E+02  0.58988046378E+02  0.10566000000E+00 0. -1.
         23    2    1    0    0    0 -0.11154143391E+02  0.27904406069E+02 -0.39253874181E+01  0.94693573961E+02  0.89712839049E+02 0.  0.
         13    1    3    3    0    0  0.12305196646E+02 -0.21719481880E+02 -0.25528802916E+02  0.35705527584E+02  0.10566000000E+00 0.  1.
         22    1    1    0    0    0  0.11154143391E+02 -0.27904406069E+02  0.39253874181E+01  0.30306426039E+02  0.00000000000E+00 0. -1.
</event>
<event>
 5    1  0.9041381E-005  0.9118800E+02  0.7818608E-02  0.1130116E+00
         25   -1    0    0    0    0  0.00000000000E+00  0.00000000000E+00  0.99999998245E-14  0.12500000000E+03  0.12500000000E+03 0.  0.
        -13    1    3    3    0    0  0.12649329819E+01 -0.66074490684E+01  0.34940691758E+02  0.35582601693E+02  0.10566000000E+00 0.  1.
         23    2    1    0    0    0 -0.31309234342E+02 -0.98496648201E-01 -0.10594521897E+02  0.91946683209E+02  0.85800179500E+02 0.  0.
         13    1    3    3    0    0 -0.32574167324E+02  0.65089524202E+01 -0.45535213656E+02  0.56364081516E+02  0.10566000000E+00 0. -1.
         22    1    1    0    0    0  0.31309234342E+02  0.98496648201E-01  0.10594521897E+02  0.33053316791E+02  0.00000000000E+00 0. -1.
</event>
<event>
 5    1  0.9041381E-005  0.9118800E+02  0.7818608E-02  0.1130116E+00
         25   -1    0    0    0    0  0.00000000000E+00  0.00000000000E+00  0.99999998245E-14  0.12500000000E+03  0.12500000000E+03 0.  0.
        -13    1    3    3    0    0  0.22972392721E+02  0.87069786382E+01 -0.23117873964E+02  0.33734100921E+02  0.10566000000E+00 0.  1.
         23    2    1    0    0    0 -0.16104514657E+02  0.18118645027E+02  0.20648161189E+02  0.93156833536E+02  0.87545464668E+02 0.  0.
         13    1    3    3    0    0 -0.39076907378E+02  0.94116663887E+01  0.43766035153E+02  0.59422732615E+02  0.10566000000E+00 0. -1.
         22    1    1    0    0    0  0.16104514657E+02 -0.18118645027E+02 -0.20648161189E+02  0.31843166464E+02  0.00000000000E+00 0. -1.
</event>
<event>
 5    1  0.9041381E-005  0.9118800E+02  0.7818608E-02  0.1130116E+00
         25   -1    0    0    0    0  0.00000000000E+00  0.00000000000E+00  0.99999998245E-14  0.12500000000E+03  0.12500000000E+03 0.  0.
        -13    1    3    3    0    0 -0.20187763623E+02  0.18062394831E+02 -0.48422307845E+02  0.55484475019E+02  0.10566000000E+00 0.  1.
         23    2    1    0    0    0  0.85628635922E+01  0.19263030555E+02 -0.19495963399E+02  0.96286247756E+02  0.91905179066E+02 0.  0.
         13    1    3    3    0    0  0.28750627215E+02  0.12006357246E+01  0.28926344446E+02  0.40801772737E+02  0.10566000000E+00 0. -1.
         22    1    1    0    0    0 -0.85628635922E+01 -0.19263030555E+02  0.19495963399E+02  0.28713752244E+02  0.00000000000E+00 0.  1.
</event>
<event>
 5    1  0.9041381E-005  0.9118800E+02  0.7818608E-02  0.1130116E+00
         25   -1    0    0    0    0  0.00000000000E+00  0.00000000000E+00  0.99999998245E-14  0.12500000000E+03  0.12500000000E+03 0.  0.
        -13    1    3    3    0    0 -0.41055503138E+02 -0.13327924991E+02  0.18158249422E+02  0.46828635562E+02  0.10566000000E+00 0. -1.
         23    2    1    0    0    0 -0.15851567433E+02  0.23904266429E+02 -0.23003535757E+01  0.96225397132E+02  0.91822378989E+02 0.  0.
         13    1    3    3    0    0  0.25203935705E+02  0.37232191420E+02 -0.20458602998E+02  0.49396761570E+02  0.10566000000E+00 0.  1.
         22    1    1    0    0    0  0.15851567433E+02 -0.23904266429E+02  0.23003535757E+01  0.28774602868E+02  0.00000000000E+00 0. -1.
</event>
<event>
 5    1  0.9041381E-005  0.9118800E+02  0.7818608E-02  0.1130116E+00
         25   -1    0    0    0    0  0.00000000000E+00  0.00000000000E+00  0.99999998245E-14  0.12500000000E+03  0.12500000000E+03 0.  0.
        -13    1    3    3    0    0 -0.31665800104E+02  0.94613936501E+01  0.33015427782E+00  0.33050885494E+02  0.10566000000E+00 0.  1.
         23    2    1    0    0    0 -0.18552850903E+02 -0.12044892794E+02 -0.39238160165E+02  0.79956455155E+02  0.66061439500E+02 0.  0.
         13    1    3    3    0    0  0.13112949202E+02 -0.21506286444E+02 -0.39568314443E+02  0.46905569661E+02  0.10566000000E+00 0. -1.
         22    1    1    0    0    0  0.18552850903E+02  0.12044892794E+02  0.39238160165E+02  0.45043544845E+02  0.00000000000E+00 0. -1.
</event>
<event>
 5    1  0.9041381E-005  0.9118800E+02  0.7818608E-02  0.1130116E+00
         25   -1    0    0    0    0  0.00000000000E+00  0.00000000000E+00  0.99999998245E-14  0.12500000000E+03  0.12500000000E+03 0.  0.
        -13    1    3    3    0    0 -0.33192323718E+02  0.75902237854E+01 -0.13629493594E+02  0.36675824606E+02  0.10566000000E+00 0. -1.
         23    2    1    0    0    0  0.17146691309E+02 -0.19369949494E+02 -0.17270285656E+02  0.93895872736E+02  0.88594402667E+02 0.  0.
         13    1    3    3    0    0  0.50339015026E+02 -0.26960173279E+02 -0.36407920623E+01  0.57220048129E+02  0.10566000000E+00 0.  1.
         22    1    1    0    0    0 -0.17146691309E+02  0.19369949494E+02  0.17270285656E+02  0.31104127264E+02  0.00000000000E+00 0. -1.
</event>
<event>
 5    1  0.9041381E-005  0.9118800E+02  0.7818608E-02  0.1130116E+00
         25   -1    0    0    0    0  0.00000000000E+00  0.00000000000E+00  0.99999998245E-14  0.12500000000E+03  0.12500000000E+03 0.  0.
        -13    1    3    3    0    0  0.15342633948E+02 -0.54989728227E+02 -0.73015555430E+01  0.57555108412E+02  0.10566000000E+00 0.  1.
         23    2    1    0    0    0  0.20205255450E+02 -0.26378062932E+02  0.86406068379E+01  0.90667586185E+02  0.83916008880E+02 0.  0.
         13    1    3    3    0    0  0.48626215023E+01  0.28611665296E+02  0.15942162381E+02  0.33112477773E+02  0.10566000000E+00 0. -1.
         22    1    1    0    0    0 -0.20205255450E+02  0.26378062932E+02 -0.86406068379E+01  0.34332413815E+02  0.00000000000E+00 0.  1.
</event>
<event>
 5    1  0.9041381E-005  0.9118800E+02  0.7818608E-02  0.1130116E+00
         25   -1    0    0    0    0  0.00000000000E+00  0.00000000000E+00  0.99999998245E-14  0.12500000000E+03  0.12500000000E+03 0.  0.
        -13    1    3    3    0    0  0.28027740464E+02  0.41223137125E+02  0.21229982213E+01  0.49894083370E+02  0.10566000000E+00 0.  1.
         23    2    1    0    0    0 -0.79570299141E+01  0.21711245884E+02  0.19871990413E+02  0.94510845767E+02  0.89457875236E+02 0.  0.
         13    1    3    3    0    0 -0.35984770378E+02 -0.19511891241E+02  0.17748992191E+02  0.44616762397E+02  0.10566000000E+00 0. -1.
         22    1    1    0    0    0  0.79570299141E+01 -0.21711245884E+02 -0.19871990413E+02  0.30489154233E+02  0.00000000000E+00 0. -1.
</event>
<event>
 5    1  0.9041381E-005  0.9118800E+02  0.7818608E-02  0.1130116E+00
         25   -1    0    0    0    0  0.00000000000E+00  0.00000000000E+00  0.99999998245E-14  0.12500000000E+03  0.12500000000E+03 0.  0.
        -13    1    3    3    0    0  0.16094026549E+02  0.34098735776E+02 -0.37102455816E+01  0.37888237731E+02  0.10566000000E+00 0. -1.
         23    2    1    0    0    0  0.90876338617E+00 -0.17991869536E+02 -0.23275836379E+02  0.95567063017E+02  0.90921756221E+02 0.  0.
         13    1    3    3    0    0 -0.15185263163E+02 -0.52090605312E+02 -0.19565590797E+02  0.57678825286E+02  0.10566000000E+00 0.  1.
         22    1    1    0    0    0 -0.90876338617E+00  0.17991869536E+02  0.23275836379E+02  0.29432936983E+02  0.00000000000E+00 0.  1.
</event>
<event>
 5    1  0.9041381E-005  0.9118800E+02  0.7818608E-02  0.1130116E+00
         25   -1    0    0    0    0  0.00000000000E+00  0.00000000000E+00  0.99999998245E-14  0.12500000000E+03  0.12500000000E+03 0.  0.
        -13    1    3    3    0    0  0.12546449507E+02  0.21297085690E+02 -0.19803925996E+02  0.31673110094E+02  0.10566000000E+00 0. -1.
         23    2    1    0    0    0 -0.17979832468E+02 -0.24200269534E+02  0.89524765106E+01  0.93550449021E+02  0.88105687985E+02 0.  0.
         13    1    3    3    0    0 -0.30526281975E+02 -0.45497355224E+02  0.28756402507E+02  0.61877338927E+02  0.10566000000E+00 0.  1.
         22    1    1    0    0    0  0.17979832468E+02  0.24200269534E+02 -0.89524765106E+01  0.31449550979E+02  0.00000000000E+00 0.  1.
</event>
<event>
 5    1  0.9041381E-005  0.9118800E+02  0.7818608E-02  0.1130116E+00
         25   -1    0    0    0    0  0.00000000000E+00  0.00000000000E+00  0.99999998245E-14  0.12500000000E+03  0.12500000000E+03 0.  0.
        -13    1    3    3    0    0  0.17623672572E+01 -0.26696294605E+02  0.52082693928E+02  0.58552679314E+02  0.10566000000E+00 0. -1.
         23    2    1    0    0    0 -0.18480518141E+01  0.16239369568E+01  0.30648521376E+02  0.94252897221E+02  0.89096713213E+02 0.  0.
         13    1    3    3    0    0 -0.36104190713E+01  0.28320231562E+02 -0.21434172552E+02  0.35700217907E+02  0.10566000000E+00 0.  1.
         22    1    1    0    0    0  0.18480518141E+01 -0.16239369568E+01 -0.30648521376E+02  0.30747102779E+02  0.00000000000E+00 0. -1.
</event>
<event>
 5    1  0.9041381E-005  0.9118800E+02  0.7818608E-02  0.1130116E+00
         25   -1    0    0    0    0  0.00000000000E+00  0.00000000000E+00  0.99999998245E-14  0.12500000000E+03  0.12500000000E+03 0.  0.
        -13    1    3    3    0    0 -0.90207189114E+01  0.52816651859E+02  0.26845781680E+02  0.59930620231E+02  0.10566000000E+00 0. -1.
         23    2    1    0    0    0 -0.15788424436E+02  0.19001049395E+02  0.95188736161E+01  0.98525046191E+02  0.94901325321E+02 0.  0.
         13    1    3    3    0    0 -0.67677055243E+01 -0.33815602464E+02 -0.17326908064E+02  0.38594425959E+02  0.10566000000E+00 0.  1.
         22    1    1    0    0    0  0.15788424436E+02 -0.19001049395E+02 -0.95188736161E+01  0.26474953809E+02  0.00000000000E+00 0. -1.
</event>
<event>
 5    1  0.9041381E-005  0.9118800E+02  0.7818608E-02  0.1130116E+00
         25   -1    0    0    0    0  0.00000000000E+00  0.00000000000E+00  0.99999998245E-14  0.12500000000E+03  0.12500000000E+03 0.  0.
        -13    1    3    3    0    0  0.31646556049E+02 -0.11300059131E+02 -0.17202538964E+02  0.37750951736E+02  0.10566000000E+00 0. -1.
         23    2    1    0    0    0 -0.16018005563E+02  0.20197832207E+02 -0.15525462405E+02  0.94907327952E+02  0.90010177136E+02 0.  0.
         13    1    3    3    0    0 -0.47664561612E+02  0.31497891337E+02  0.16770765591E+01  0.57156376216E+02  0.10566000000E+00 0.  1.
         22    1    1    0    0    0  0.16018005563E+02 -0.20197832207E+02  0.15525462405E+02  0.30092672048E+02  0.00000000000E+00 0.  1.
</event>
<event>
 5    1  0.9041381E-005  0.9118800E+02  0.7818608E-02  0.1130116E+00
         25   -1    0    0    0    0  0.00000000000E+00  0.00000000000E+00  0.99999998245E-14  0.12500000000E+03  0.12500000000E+03 0.  0.
        -13    1    3    3    0    0  0.37385973400E+02 -0.21866705397E+01 -0.40667254653E+01  0.37670173283E+02  0.10566000000E+00 0.  1.
         23    2    1    0    0    0  0.15039967720E+02  0.36705609358E+02 -0.12701593810E+02  0.83348675019E+02  0.72195351337E+02 0.  0.
         13    1    3    3    0    0 -0.22346005680E+02  0.38892279898E+02 -0.86348683447E+01  0.45678501736E+02  0.10566000000E+00 0. -1.
         22    1    1    0    0    0 -0.15039967720E+02 -0.36705609358E+02  0.12701593810E+02  0.41651324981E+02  0.00000000000E+00 0. -1.
</event>
<event>
 5    1  0.9041381E-005  0.9118800E+02  0.7818608E-02  0.1130116E+00
         25   -1    0    0    0    0  0.00000000000E+00  0.00000000000E+00  0.99999998245E-14  0.12500000000E+03  0.12500000000E+03 0.  0.
        -13    1    3    3    0    0  0.26286382574E+02  0.13272712034E+02 -0.31833118597E+02  0.43364702204E+02  0.10566000000E+00 0. -1.
         23    2    1    0    0    0  0.21690613039E+02 -0.11174258799E+02  0.14974478184E+02  0.96371661756E+02  0.92021277100E+02 0.  0.
         13    1    3    3    0    0 -0.45957695350E+01 -0.24446970833E+02  0.46807596782E+02  0.53006959553E+02  0.10566000000E+00 0.  1.
         22    1    1    0    0    0 -0.21690613039E+02  0.11174258799E+02 -0.14974478184E+02  0.28628338244E+02  0.00000000000E+00 0.  1.
</event>
<event>
 5    1  0.9041381E-005  0.9118800E+02  0.7818608E-02  0.1130116E+00
         25   -1    0    0    0    0  0.00000000000E+00  0.00000000000E+00  0.99999998245E-14  0.12500000000E+03  0.12500000000E+03 0.  0.
        -13    1    3    3    0    0  0.30451998203E+02  0.38512940230E+00 -0.54500841349E+02  0.62432566750E+02  0.10566000000E+00 0. -1.
         23    2    1    0    0    0  0.11063294494E+02  0.13895905941E+01 -0.23078430784E+02  0.99369131608E+02  0.96006681548E+02 0.  0.
         13    1    3    3    0    0 -0.19388703709E+02  0.10044611918E+01  0.31422410565E+02  0.36936564858E+02  0.10566000000E+00 0.  1.
         22    1    1    0    0    0 -0.11063294494E+02 -0.13895905941E+01  0.23078430784E+02  0.25630868392E+02  0.00000000000E+00 0. -1.
</event>
<event>
 5    1  0.9041381E-005  0.9118800E+02  0.7818608E-02  0.1130116E+00
         25   -1    0    0    0    0  0.00000000000E+00  0.00000000000E+00  0.99999998245E-14  0.12500000000E+03  0.12500000000E+03 0.  0.
        -13    1    3    3    0    0 -0.41989276322E+02 -0.26720084832E+02 -0.18734254329E+02  0.53179372963E+02  0.10566000000E+00 0. -1.
         23    2    1    0    0    0 -0.79333413389E+01 -0.29454916631E+02  0.40242215251E+01  0.94231113484E+02  0.89066146044E+02 0.  0.
         13    1    3    3    0    0  0.34055934984E+02 -0.27348317995E+01  0.22758475854E+02  0.41051740521E+02  0.10566000000E+00 0.  1.
         22    1    1    0    0    0  0.79333413389E+01  0.29454916631E+02 -0.40242215251E+01  0.30768886516E+02  0.00000000000E+00 0.  1.
</event>
<event>
 5    1  0.9041381E-005  0.9118800E+02  0.7818608E-02  0.1130116E+00
         25   -1    0    0    0    0  0.00000000000E+00  0.00000000000E+00  0.99999998245E-14  0.12500000000E+03  0.12500000000E+03 0.  0.
        -13    1    3    3    0    0  0.99392568502E+01 -0.53120613546E+02  0.33043826639E+00  0.54043582077E+02  0.10566000000E+00 0.  1.
         23    2    1    0    0    0  0.26924288740E+02 -0.19710470625E+02  0.21076245682E+01  0.91565555818E+02  0.85243116758E+02 0.  0.
         13    1    3    3    0    0  0.16985031890E+02  0.33410142921E+02  0.17771863018E+01  0.37521973742E+02  0.10566000000E+00 0. -1.
         22    1    1    0    0    0 -0.26924288740E+02  0.19710470625E+02 -0.21076245682E+01  0.33434444182E+02  0.00000000000E+00 0.  1.
</event>
<event>
 5    1  0.9041381E-005  0.9118800E+02  0.7818608E-02  0.1130116E+00
         25   -1    0    0    0    0  0.00000000000E+00  0.00000000000E+00  0.99999998245E-14  0.12500000000E+03  0.12500000000E+03 0.  0.
        -13    1    3    3    0    0 -0.27891310853E+02 -0.12432182124E+02 -0.31735450203E+02  0.44041279921E+02  0.10566000000E+00 0. -1.
         23    2    1    0    0    0 -0.10139723060E+02 -0.22978435677E+02  0.15426020118E+02  0.95524847980E+02  0.90863700095E+02 0.  0.
         13    1    3    3    0    0  0.17751587793E+02 -0.10546253554E+02  0.47161470321E+02  0.51483568059E+02  0.10566000000E+00 0.  1.
         22    1    1    0    0    0  0.10139723060E+02  0.22978435677E+02 -0.15426020118E+02  0.29475152020E+02  0.00000000000E+00 0.  1.
</event>
<event>
 5    1  0.9041381E-005  0.9118800E+02  0.7818608E-02  0.1130116E+00
         25   -1    0    0    0    0  0.00000000000E+00  0.00000000000E+00  0.99999998245E-14  0.12500000000E+03  0.12500000000E+03 0.  0.
        -13    1    3    3    0    0 -0.27470461570E+02  0.33845284714E+02  0.22888797522E+02  0.49234518097E+02  0.10566000000E+00 0.  1.
         23    2    1    0    0    0 -0.38552315639E+00  0.27948907949E+02 -0.12661530334E+02  0.94314426288E+02  0.89182994859E+02 0.  0.
         13    1    3    3    0    0  0.27084938413E+02 -0.58963767657E+01 -0.35550327856E+02  0.45079908191E+02  0.10566000000E+00 0. -1.
         22    1    1    0    0    0  0.38552315639E+00 -0.27948907949E+02  0.12661530334E+02  0.30685573712E+02  0.00000000000E+00 0. -1.
</event>
<event>
 5    1  0.9041381E-005  0.9118800E+02  0.7818608E-02  0.1130116E+00
         25   -1    0    0    0    0  0.00000000000E+00  0.00000000000E+00  0.99999998245E-14  0.12500000000E+03  0.12500000000E+03 0.  0.
        -13    1    3    3    0    0 -0.16487331008E+02 -0.22040254912E+02 -0.21445051061E+02  0.34892782913E+02  0.10566000000E+00 0. -1.
         23    2    1    0    0    0  0.90151965710E+01  0.26426126465E+02  0.64335808123E+01  0.96346817084E+02  0.91987522366E+02 0.  0.
         13    1    3    3    0    0  0.25502527579E+02  0.48466381377E+02  0.27878631874E+02  0.61454034171E+02  0.10566000000E+00 0.  1.
         22    1    1    0    0    0 -0.90151965710E+01 -0.26426126465E+02 -0.64335808123E+01  0.28653182916E+02  0.00000000000E+00 0.  1.
</event>
<event>
 5    1  0.9041381E-005  0.9118800E+02  0.7818608E-02  0.1130116E+00
         25   -1    0    0    0    0  0.00000000000E+00  0.00000000000E+00  0.99999998245E-14  0.12500000000E+03  0.12500000000E+03 0.  0.
        -13    1    3    3    0    0  0.30157548616E+02  0.23087722780E+02 -0.12245195789E+02  0.39905847512E+02  0.10566000000E+00 0.  1.
         23    2    1    0    0    0 -0.24583892280E+02  0.13715426397E+02 -0.86054175579E+01  0.95563052260E+02  0.90916242031E+02 0.  0.
         13    1    3    3    0    0 -0.54741440896E+02 -0.93722963828E+01  0.36397782309E+01  0.55657204749E+02  0.10566000000E+00 0. -1.
         22    1    1    0    0    0  0.24583892280E+02 -0.13715426397E+02  0.86054175579E+01  0.29436947740E+02  0.00000000000E+00 0. -1.
</event>
<event>
 5    1  0.9041381E-005  0.9118800E+02  0.7818608E-02  0.1130116E+00
         25   -1    0    0    0    0  0.00000000000E+00  0.00000000000E+00  0.99999998245E-14  0.12500000000E+03  0.12500000000E+03 0.  0.
        -13    1    3    3    0    0  0.26037248701E+02  0.14791103601E+01 -0.20886933380E+02  0.33412591001E+02  0.10566000000E+00 0. -1.
         23    2    1    0    0    0 -0.25889927922E+02 -0.17657833415E+02  0.26472208463E+01  0.93550115629E+02  0.88105214983E+02 0.  0.
         13    1    3    3    0    0 -0.51927176624E+02 -0.19136943775E+02  0.23534154226E+02  0.60137524628E+02  0.10566000000E+00 0.  1.
         22    1    1    0    0    0  0.25889927922E+02  0.17657833415E+02 -0.26472208463E+01  0.31449884371E+02  0.00000000000E+00 0.  1.
</event>
<event>
 5    1  0.9041381E-005  0.9118800E+02  0.7818608E-02  0.1130116E+00
         25   -1    0    0    0    0  0.00000000000E+00  0.00000000000E+00  0.99999998245E-14  0.12500000000E+03  0.12500000000E+03 0.  0.
        -13    1    3    3    0    0  0.25379456699E+02 -0.20147150815E+02  0.39257723751E+02  0.50903875554E+02  0.10566000000E+00 0.  1.
         23    2    1    0    0    0  0.23230348502E+02 -0.15821581778E+02 -0.58680578973E+01  0.96287535025E+02  0.91906929860E+02 0.  0.
         13    1    3    3    0    0 -0.21491081980E+01  0.43255690371E+01 -0.45125781648E+02  0.45383659470E+02  0.10566000000E+00 0. -1.
         22    1    1    0    0    0 -0.23230348502E+02  0.15821581778E+02  0.58680578973E+01  0.28712464975E+02  0.00000000000E+00 0.  1.
</event>
<event>
 5    1  0.9041381E-005  0.9118800E+02  0.7818608E-02  0.1130116E+00
         25   -1    0    0    0    0  0.00000000000E+00  0.00000000000E+00  0.99999998245E-14  0.12500000000E+03  0.12500000000E+03 0.  0.
        -13    1    3    3    0    0  0.44766261008E+02  0.91552330536E+01 -0.36969732636E+02  0.58775919492E+02  0.10566000000E+00 0. -1.
         23    2    1    0    0    0  0.16564407819E+02 -0.81067991310E+01 -0.24984028754E+02  0.93946795796E+02  0.88666222142E+02 0.  0.
         13    1    3    3    0    0 -0.28201853189E+02 -0.17262032185E+02  0.11985703882E+02  0.35170876304E+02  0.10566000000E+00 0.  1.
         22    1    1    0    0    0 -0.16564407819E+02  0.81067991310E+01  0.24984028754E+02  0.31053204204E+02  0.00000000000E+00 0. -1.
</event>
<event>
 5    1  0.9041381E-005  0.9118800E+02  0.7818608E-02  0.1130116E+00
         25   -1    0    0    0    0  0.00000000000E+00  0.00000000000E+00  0.99999998245E-14  0.12500000000E+03  0.12500000000E+03 0.  0.
        -13    1    3    3    0    0  0.10693092057E+02 -0.26486517242E+02 -0.20605370876E+02  0.35220310707E+02  0.10566000000E+00 0. -1.
         23    2    1    0    0    0 -0.11657462882E+01  0.27744591726E+02  0.57028282146E+01  0.96651391849E+02  0.92400475985E+02 0.  0.
         13    1    3    3    0    0 -0.11858838346E+02  0.54231108968E+02  0.26308199090E+02  0.61431081142E+02  0.10566000000E+00 0.  1.
         22    1    1    0    0    0  0.11657462882E+01 -0.27744591726E+02 -0.57028282146E+01  0.28348608151E+02  0.00000000000E+00 0.  1.
</event>
<event>
 5    1  0.9041381E-005  0.9118800E+02  0.7818608E-02  0.1130116E+00
         25   -1    0    0    0    0  0.00000000000E+00  0.00000000000E+00  0.99999998245E-14  0.12500000000E+03  0.12500000000E+03 0.  0.
        -13    1    3    3    0    0 -0.17170770741E+02 -0.11023519925E+02 -0.34512123816E+02  0.40093031984E+02  0.10566000000E+00 0.  1.
         23    2    1    0    0    0 -0.17841411808E+02 -0.63965032620E+01  0.21522018060E+02  0.96321985936E+02  0.91953773626E+02 0.  0.
         13    1    3    3    0    0 -0.67064106633E+00  0.46270166632E+01  0.56034141876E+02  0.56228953951E+02  0.10566000000E+00 0. -1.
         22    1    1    0    0    0  0.17841411808E+02  0.63965032620E+01 -0.21522018060E+02  0.28678014064E+02  0.00000000000E+00 0. -1.
</event>
<event>
 5    1  0.9041381E-005  0.9118800E+02  0.7818608E-02  0.1130116E+00
         25   -1    0    0    0    0  0.00000000000E+00  0.00000000000E+00  0.99999998245E-14  0.12500000000E+03  0.12500000000E+03 0.  0.
        -13    1    3    3    0    0  0.31526303417E+02 -0.31463458483E+02  0.45732911366E+01  0.44774805223E+02  0.10566000000E+00 0.  1.
         23    2    1    0    0    0 -0.17183403631E+02 -0.25831362024E+02  0.29402753770E+01  0.93836337769E+02  0.88510363473E+02 0.  0.
         13    1    3    3    0    0 -0.48709707048E+02  0.56320964588E+01 -0.16330157596E+01  0.49061532546E+02  0.10566000000E+00 0. -1.
         22    1    1    0    0    0  0.17183403631E+02  0.25831362024E+02 -0.29402753770E+01  0.31163662231E+02  0.00000000000E+00 0. -1.
</event>
<event>
 5    1  0.9041381E-005  0.9118800E+02  0.7818608E-02  0.1130116E+00
         25   -1    0    0    0    0  0.00000000000E+00  0.00000000000E+00  0.99999998245E-14  0.12500000000E+03  0.12500000000E+03 0.  0.
        -13    1    3    3    0    0 -0.19250158894E+02 -0.21110270327E+02  0.49253835527E+02  0.56940000078E+02  0.10566000000E+00 0. -1.
         23    2    1    0    0    0 -0.24246426032E+02 -0.11287383252E+02  0.12189464439E+02  0.95608211363E+02  0.90978309727E+02 0.  0.
         13    1    3    3    0    0 -0.49962671377E+01  0.98228870747E+01 -0.37064371088E+02  0.38668211285E+02  0.10566000000E+00 0.  1.
         22    1    1    0    0    0  0.24246426032E+02  0.11287383252E+02 -0.12189464439E+02  0.29391788637E+02  0.00000000000E+00 0. -1.
</event>
<event>
 5    1  0.9041381E-005  0.9118800E+02  0.7818608E-02  0.1130116E+00
         25   -1    0    0    0    0  0.00000000000E+00  0.00000000000E+00  0.99999998245E-14  0.12500000000E+03  0.12500000000E+03 0.  0.
        -13    1    3    3    0    0 -0.34448888719E+02  0.23984065257E+01  0.36625533644E+02  0.50338048895E+02  0.10566000000E+00 0. -1.
         23    2    1    0    0    0 -0.24860107646E+02  0.12913079662E+02 -0.69151664676E+01  0.96145327835E+02  0.91713313966E+02 0.  0.
         13    1    3    3    0    0  0.95887810734E+01  0.10514673136E+02 -0.43540700111E+02  0.45807278939E+02  0.10566000000E+00 0.  1.
         22    1    1    0    0    0  0.24860107646E+02 -0.12913079662E+02  0.69151664676E+01  0.28854672165E+02  0.00000000000E+00 0. -1.
</event>
<event>
 5    1  0.9041381E-005  0.9118800E+02  0.7818608E-02  0.1130116E+00
         25   -1    0    0    0    0  0.00000000000E+00  0.00000000000E+00  0.99999998245E-14  0.12500000000E+03  0.12500000000E+03 0.  0.
        -13    1    3    3    0    0  0.15508743139E+02 -0.53639846669E+02  0.23648243985E+02  0.60638311916E+02  0.10566000000E+00 0.  1.
         23    2    1    0    0    0  0.13508991126E+02 -0.19079031880E+02  0.17498260677E+02  0.95799119441E+02  0.91240231588E+02 0.  0.
         13    1    3    3    0    0 -0.19997520123E+01  0.34560814790E+02 -0.61499833079E+01  0.35160807524E+02  0.10566000000E+00 0. -1.
         22    1    1    0    0    0 -0.13508991126E+02  0.19079031880E+02 -0.17498260677E+02  0.29200880559E+02  0.00000000000E+00 0.  1.
</event>
<event>
 5    1  0.9041381E-005  0.9118800E+02  0.7818608E-02  0.1130116E+00
         25   -1    0    0    0    0  0.00000000000E+00  0.00000000000E+00  0.99999998245E-14  0.12500000000E+03  0.12500000000E+03 0.  0.
        -13    1    3    3    0    0 -0.59393016875E+01 -0.26696748185E+02 -0.27391921107E+02  0.38708140929E+02  0.10566000000E+00 0. -1.
         23    2    1    0    0    0 -0.19057636202E+02  0.84978337721E+01  0.17871817722E+02  0.97526220771E+02  0.93576467089E+02 0.  0.
         13    1    3    3    0    0 -0.13118334515E+02  0.35194581958E+02  0.45263738828E+02  0.58818079843E+02  0.10566000000E+00 0.  1.
         22    1    1    0    0    0  0.19057636202E+02 -0.84978337721E+01 -0.17871817722E+02  0.27473779229E+02  0.00000000000E+00 0.  1.
</event>
<event>
 5    1  0.9041381E-005  0.9118800E+02  0.7818608E-02  0.1130116E+00
         25   -1    0    0    0    0  0.00000000000E+00  0.00000000000E+00  0.99999998245E-14  0.12500000000E+03  0.12500000000E+03 0.  0.
        -13    1    3    3    0    0  0.46577935770E+02 -0.29044330179E+02 -0.25155057982E+02  0.60381001335E+02  0.10566000000E+00 0. -1.
         23    2    1    0    0    0  0.14337253864E+02 -0.20956564406E+02 -0.16462692812E+02  0.94738560928E+02  0.89775499063E+02 0.  0.
         13    1    3    3    0    0 -0.32240681905E+02  0.80877657731E+01  0.86923651694E+01  0.34357559593E+02  0.10566000000E+00 0.  1.
         22    1    1    0    0    0 -0.14337253864E+02  0.20956564406E+02  0.16462692812E+02  0.30261439072E+02  0.00000000000E+00 0. -1.
</event>
<event>
 5    1  0.9041381E-005  0.9118800E+02  0.7818608E-02  0.1130116E+00
         25   -1    0    0    0    0  0.00000000000E+00  0.00000000000E+00  0.99999998245E-14  0.12500000000E+03  0.12500000000E+03 0.  0.
        -13    1    3    3    0    0  0.11083629956E+02  0.41412889610E+02  0.89989314088E+01  0.43804865134E+02  0.10566000000E+00 0. -1.
         23    2    1    0    0    0  0.34484931447E+01 -0.95990758369E+01  0.25154670403E+02  0.97856090831E+02  0.94016076858E+02 0.  0.
         13    1    3    3    0    0 -0.76351368114E+01 -0.51011965447E+02  0.16155738994E+02  0.54051225697E+02  0.10566000000E+00 0.  1.
         22    1    1    0    0    0 -0.34484931447E+01  0.95990758369E+01 -0.25154670403E+02  0.27143909169E+02  0.00000000000E+00 0. -1.
</event>
<event>
 5    1  0.9041381E-005  0.9118800E+02  0.7818608E-02  0.1130116E+00
         25   -1    0    0    0    0  0.00000000000E+00  0.00000000000E+00  0.99999998245E-14  0.12500000000E+03  0.12500000000E+03 0.  0.
        -13    1    3    3    0    0  0.28114557765E+02  0.16464331871E+02 -0.19265128992E+02  0.37850481389E+02  0.10566000000E+00 0.  1.
         23    2    1    0    0    0 -0.20818042377E+02  0.11913497383E+02  0.14030983594E+02  0.97211678552E+02  0.93155352170E+02 0.  0.
         13    1    3    3    0    0 -0.48932600142E+02 -0.45508344879E+01  0.33296112586E+02  0.59361197162E+02  0.10566000000E+00 0. -1.
         22    1    1    0    0    0  0.20818042377E+02 -0.11913497383E+02 -0.14030983594E+02  0.27788321448E+02  0.00000000000E+00 0. -1.
</event>
<event>
 5    1  0.9041381E-005  0.9118800E+02  0.7818608E-02  0.1130116E+00
         25   -1    0    0    0    0  0.00000000000E+00  0.00000000000E+00  0.99999998245E-14  0.12500000000E+03  0.12500000000E+03 0.  0.
        -13    1    3    3    0    0  0.36108115566E+01 -0.23765731814E+02  0.26834805024E+02  0.36027293730E+02  0.10566000000E+00 0.  1.
         23    2    1    0    0    0  0.22629392318E+01  0.28331966656E+02 -0.35557322723E+01  0.96356249189E+02  0.92000338571E+02 0.  0.
         13    1    3    3    0    0 -0.13478723249E+01  0.52097698469E+02 -0.30390537297E+02  0.60328955459E+02  0.10566000000E+00 0. -1.
         22    1    1    0    0    0 -0.22629392318E+01 -0.28331966656E+02  0.35557322723E+01  0.28643750811E+02  0.00000000000E+00 0. -1.
</event>
<event>
 5    1  0.9041381E-005  0.9118800E+02  0.7818608E-02  0.1130116E+00
         25   -1    0    0    0    0  0.00000000000E+00  0.00000000000E+00  0.99999998245E-14  0.12500000000E+03  0.12500000000E+03 0.  0.
        -13    1    3    3    0    0 -0.30996990364E+02  0.94684338036E+00 -0.15157203890E+02  0.34517559557E+02  0.10566000000E+00 0.  1.
         23    2    1    0    0    0  0.98352587919E+01  0.22463525345E+02  0.20656249485E+02  0.92937203347E+02  0.87231306517E+02 0.  0.
         13    1    3    3    0    0  0.40832249156E+02  0.21516681965E+02  0.35813453375E+02  0.58419643790E+02  0.10566000000E+00 0. -1.
         22    1    1    0    0    0 -0.98352587919E+01 -0.22463525345E+02 -0.20656249485E+02  0.32062796653E+02  0.00000000000E+00 0. -1.
</event>
<event>
 5    1  0.9041381E-005  0.9118800E+02  0.7818608E-02  0.1130116E+00
         25   -1    0    0    0    0  0.00000000000E+00  0.00000000000E+00  0.99999998245E-14  0.12500000000E+03  0.12500000000E+03 0.  0.
        -13    1    3    3    0    0  0.23519885353E+01  0.32157451609E+02 -0.35153722973E+02  0.47701456445E+02  0.10566000000E+00 0.  1.
         23    2    1    0    0    0  0.32551075267E+01 -0.11523772247E+02 -0.31212180927E+02  0.91569575383E+02  0.85249010820E+02 0.  0.
         13    1    3    3    0    0  0.90311899137E+00 -0.43681223856E+02  0.39415420460E+01  0.43868118938E+02  0.10566000000E+00 0. -1.
         22    1    1    0    0    0 -0.32551075267E+01  0.11523772247E+02  0.31212180927E+02  0.33430424617E+02  0.00000000000E+00 0. -1.
</event>
<event>
 5    1  0.9041381E-005  0.9118800E+02  0.7818608E-02  0.1130116E+00
         25   -1    0    0    0    0  0.00000000000E+00  0.00000000000E+00  0.99999998245E-14  0.12500000000E+03  0.12500000000E+03 0.  0.
        -13    1    3    3    0    0  0.11000694920E+01 -0.57245971492E+02 -0.34552175470E+01  0.57360797565E+02  0.10566000000E+00 0.  1.
         23    2    1    0    0    0 -0.36526219767E+01 -0.21999588949E+02 -0.18545743770E+02  0.95995376692E+02  0.91508710913E+02 0.  0.
         13    1    3    3    0    0 -0.47526914687E+01  0.35246382543E+02 -0.15090526223E+02  0.38634579127E+02  0.10566000000E+00 0. -1.
         22    1    1    0    0    0  0.36526219767E+01  0.21999588949E+02  0.18545743770E+02  0.29004623308E+02  0.00000000000E+00 0.  1.
</event>
<event>
 5    1  0.9041381E-005  0.9118800E+02  0.7818608E-02  0.1130116E+00
         25   -1    0    0    0    0  0.00000000000E+00  0.00000000000E+00  0.99999998245E-14  0.12500000000E+03  0.12500000000E+03 0.  0.
        -13    1    3    3    0    0 -0.96422062202E+01  0.31830820208E+02  0.23638083501E+02  0.40803718110E+02  0.10566000000E+00 0. -1.
         23    2    1    0    0    0  0.22071185375E+02  0.15152991885E+02 -0.15659345683E+02  0.93984431423E+02  0.88719264288E+02 0.  0.
         13    1    3    3    0    0  0.31713391595E+02 -0.16677828323E+02 -0.39297429184E+02  0.53180713314E+02  0.10566000000E+00 0.  1.
         22    1    1    0    0    0 -0.22071185375E+02 -0.15152991885E+02  0.15659345683E+02  0.31015568577E+02  0.00000000000E+00 0.  1.
</event>
<event>
 5    1  0.9041381E-005  0.9118800E+02  0.7818608E-02  0.1130116E+00
         25   -1    0    0    0    0  0.00000000000E+00  0.00000000000E+00  0.99999998245E-14  0.12500000000E+03  0.12500000000E+03 0.  0.
        -13    1    3    3    0    0  0.47528841055E+02 -0.91781312247E+01 -0.14092353567E+01  0.48427532800E+02  0.10566000000E+00 0. -1.
         23    2    1    0    0    0  0.84562418798E+01 -0.25069796267E+02  0.16023220274E+02  0.94068684160E+02  0.88837891916E+02 0.  0.
         13    1    3    3    0    0 -0.39072599175E+02 -0.15891665042E+02  0.17432455631E+02  0.45641151360E+02  0.10566000000E+00 0.  1.
         22    1    1    0    0    0 -0.84562418798E+01  0.25069796267E+02 -0.16023220274E+02  0.30931315840E+02  0.00000000000E+00 0.  1.
</event>
<event>
 5    1  0.9041381E-005  0.9118800E+02  0.7818608E-02  0.1130116E+00
         25   -1    0    0    0    0  0.00000000000E+00  0.00000000000E+00  0.99999998245E-14  0.12500000000E+03  0.12500000000E+03 0.  0.
        -13    1    3    3    0    0  0.28280612291E+02  0.20700483483E+01 -0.20144623012E+02  0.34783546858E+02  0.10566000000E+00 0. -1.
         23    2    1    0    0    0 -0.22260261651E+02  0.17675369683E+02  0.90105693401E+01  0.95181745490E+02  0.90390466159E+02 0.  0.
         13    1    3    3    0    0 -0.50540873942E+02  0.15605321335E+02  0.29155192352E+02  0.60398198631E+02  0.10566000000E+00 0.  1.
         22    1    1    0    0    0  0.22260261651E+02 -0.17675369683E+02 -0.90105693401E+01  0.29818254510E+02  0.00000000000E+00 0.  1.
</event>
<event>
 5    1  0.9041381E-005  0.9118800E+02  0.7818608E-02  0.1130116E+00
         25   -1    0    0    0    0  0.00000000000E+00  0.00000000000E+00  0.99999998245E-14  0.12500000000E+03  0.12500000000E+03 0.  0.
        -13    1    3    3    0    0  0.39370132187E+02 -0.13793184937E+02 -0.17137451264E+02  0.45099475153E+02  0.10566000000E+00 0. -1.
         23    2    1    0    0    0  0.58981057555E+01 -0.21758588924E+02  0.19378779682E+02  0.95271882915E+02  0.90515030402E+02 0.  0.
         13    1    3    3    0    0 -0.33472026432E+02 -0.79654039868E+01  0.36516230946E+02  0.50172407762E+02  0.10566000000E+00 0.  1.
         22    1    1    0    0    0 -0.58981057555E+01  0.21758588924E+02 -0.19378779682E+02  0.29728117085E+02  0.00000000000E+00 0.  1.
</event>
<event>
 5    1  0.9041381E-005  0.9118800E+02  0.7818608E-02  0.1130116E+00
         25   -1    0    0    0    0  0.00000000000E+00  0.00000000000E+00  0.99999998245E-14  0.12500000000E+03  0.12500000000E+03 0.  0.
        -13    1    3    3    0    0  0.23421975670E+02 -0.43061102331E+02  0.15076708616E+02  0.51285141951E+02  0.10566000000E+00 0.  1.
         23    2    1    0    0    0 -0.14454298155E+02 -0.21079520446E+02  0.15553100204E+02  0.95080577490E+02  0.90250453586E+02 0.  0.
         13    1    3    3    0    0 -0.37876273825E+02  0.21981581885E+02  0.47639158828E+00  0.43795435539E+02  0.10566000000E+00 0. -1.
         22    1    1    0    0    0  0.14454298155E+02  0.21079520446E+02 -0.15553100204E+02  0.29919422510E+02  0.00000000000E+00 0.  1.
</event>
<event>
 5    1  0.9041381E-005  0.9118800E+02  0.7818608E-02  0.1130116E+00
         25   -1    0    0    0    0  0.00000000000E+00  0.00000000000E+00  0.99999998245E-14  0.12500000000E+03  0.12500000000E+03 0.  0.
        -13    1    3    3    0    0 -0.29028844488E+02 -0.42410090761E+02 -0.29493969334E+02  0.59255337327E+02  0.10566000000E+00 0.  1.
         23    2    1    0    0    0 -0.24741556709E+02 -0.11696537412E+02 -0.10116988786E+02  0.95822832935E+02  0.91272713523E+02 0.  0.
         13    1    3    3    0    0  0.42872877789E+01  0.30713553349E+02  0.19376980549E+02  0.36567495608E+02  0.10566000000E+00 0. -1.
         22    1    1    0    0    0  0.24741556709E+02  0.11696537412E+02  0.10116988786E+02  0.29177167065E+02  0.00000000000E+00 0.  1.
</event>
<event>
 5    1  0.9041381E-005  0.9118800E+02  0.7818608E-02  0.1130116E+00
         25   -1    0    0    0    0  0.00000000000E+00  0.00000000000E+00  0.99999998245E-14  0.12500000000E+03  0.12500000000E+03 0.  0.
        -13    1    3    3    0    0 -0.31431939436E+02 -0.15501422843E+01 -0.11001766984E+02  0.33337963324E+02  0.10566000000E+00 0. -1.
         23    2    1    0    0    0  0.26643964275E+02  0.33414247463E+01  0.11467922092E+02  0.95801041307E+02  0.91242864526E+02 0.  0.
         13    1    3    3    0    0  0.58075903711E+02  0.48915670306E+01  0.22469689077E+02  0.62463077983E+02  0.10566000000E+00 0.  1.
         22    1    1    0    0    0 -0.26643964275E+02 -0.33414247463E+01 -0.11467922092E+02  0.29198958693E+02  0.00000000000E+00 0.  1.
</event>
<event>
 5    1  0.9041381E-005  0.9118800E+02  0.7818608E-02  0.1130116E+00
         25   -1    0    0    0    0  0.00000000000E+00  0.00000000000E+00  0.99999998245E-14  0.12500000000E+03  0.12500000000E+03 0.  0.
        -13    1    3    3    0    0 -0.38690092218E+02 -0.17095430206E+02  0.33736433174E+02  0.54104852436E+02  0.10566000000E+00 0. -1.
         23    2    1    0    0    0 -0.51406008267E+01  0.59546353744E+01  0.28843814175E+02  0.95102691167E+02  0.90281076598E+02 0.  0.
         13    1    3    3    0    0  0.33549491391E+02  0.23050065581E+02 -0.48926189989E+01  0.40997838731E+02  0.10566000000E+00 0.  1.
         22    1    1    0    0    0  0.51406008267E+01 -0.59546353744E+01 -0.28843814175E+02  0.29897308833E+02  0.00000000000E+00 0. -1.
</event>
<event>
 5    1  0.9041381E-005  0.9118800E+02  0.7818608E-02  0.1130116E+00
         25   -1    0    0    0    0  0.00000000000E+00  0.00000000000E+00  0.99999998245E-14  0.12500000000E+03  0.12500000000E+03 0.  0.
        -13    1    3    3    0    0 -0.39070853133E+02 -0.15720721322E+02 -0.25358371498E+02  0.49160256433E+02  0.10566000000E+00 0.  1.
         23    2    1    0    0    0 -0.19836916216E+02  0.21625379061E+02 -0.12606479689E+02  0.93061252457E+02  0.87408884641E+02 0.  0.
         13    1    3    3    0    0  0.19233936918E+02  0.37346100383E+02  0.12751891809E+02  0.43900996024E+02  0.10566000000E+00 0. -1.
         22    1    1    0    0    0  0.19836916216E+02 -0.21625379061E+02  0.12606479689E+02  0.31938747543E+02  0.00000000000E+00 0.  1.
</event>
<event>
 5    1  0.9041381E-005  0.9118800E+02  0.7818608E-02  0.1130116E+00
         25   -1    0    0    0    0  0.00000000000E+00  0.00000000000E+00  0.99999998245E-14  0.12500000000E+03  0.12500000000E+03 0.  0.
        -13    1    3    3    0    0 -0.49470129215E+01 -0.27441963505E+02 -0.25440148324E+02  0.37745815776E+02  0.10566000000E+00 0. -1.
         23    2    1    0    0    0 -0.15736531172E+02  0.24618233129E+02 -0.24207880247E+01  0.95681814000E+02  0.91079380213E+02 0.  0.
         13    1    3    3    0    0 -0.10789518250E+02  0.52060196633E+02  0.23019360299E+02  0.57935998224E+02  0.10566000000E+00 0.  1.
         22    1    1    0    0    0  0.15736531172E+02 -0.24618233129E+02  0.24207880247E+01  0.29318186000E+02  0.00000000000E+00 0.  1.
</event>
<event>
 5    1  0.9041381E-005  0.9118800E+02  0.7818608E-02  0.1130116E+00
         25   -1    0    0    0    0  0.00000000000E+00  0.00000000000E+00  0.99999998245E-14  0.12500000000E+03  0.12500000000E+03 0.  0.
        -13    1    3    3    0    0  0.29606570482E+02 -0.18448466297E+02 -0.20158944205E+02  0.40290062297E+02  0.10566000000E+00 0.  1.
         23    2    1    0    0    0 -0.20983730978E+02  0.40692851100E+01 -0.20090656593E+02  0.95665540240E+02  0.91057042891E+02 0.  0.
         13    1    3    3    0    0 -0.50590301460E+02  0.22517751407E+02  0.68287611293E-01  0.55375477943E+02  0.10566000000E+00 0. -1.
         22    1    1    0    0    0  0.20983730978E+02 -0.40692851100E+01  0.20090656593E+02  0.29334459760E+02  0.00000000000E+00 0. -1.
</event>
<event>
 5    1  0.9041381E-005  0.9118800E+02  0.7818608E-02  0.1130116E+00
         25   -1    0    0    0    0  0.00000000000E+00  0.00000000000E+00  0.99999998245E-14  0.12500000000E+03  0.12500000000E+03 0.  0.
        -13    1    3    3    0    0 -0.30692219870E+02  0.40706252973E+01 -0.50223391009E+02  0.58999851859E+02  0.10566000000E+00 0.  1.
         23    2    1    0    0    0 -0.20117452188E+02 -0.10723697211E+02 -0.18190234792E+02  0.95835051754E+02  0.91289445931E+02 0.  0.
         13    1    3    3    0    0  0.10574767682E+02 -0.14794322509E+02  0.32033156218E+02  0.36835199895E+02  0.10566000000E+00 0. -1.
         22    1    1    0    0    0  0.20117452188E+02  0.10723697211E+02  0.18190234792E+02  0.29164948246E+02  0.00000000000E+00 0.  1.
</event>
<event>
 5    1  0.9041381E-005  0.9118800E+02  0.7818608E-02  0.1130116E+00
         25   -1    0    0    0    0  0.00000000000E+00  0.00000000000E+00  0.99999998245E-14  0.12500000000E+03  0.12500000000E+03 0.  0.
        -13    1    3    3    0    0 -0.20151190782E+02 -0.27596260590E+02  0.14047046967E+02  0.36945294437E+02  0.10566000000E+00 0.  1.
         23    2    1    0    0    0  0.29063898726E+02 -0.33298610298E+01 -0.55727517391E+01  0.95219910249E+02  0.90443228394E+02 0.  0.
         13    1    3    3    0    0  0.49215089508E+02  0.24266399560E+02 -0.19619798706E+02  0.58274615813E+02  0.10566000000E+00 0. -1.
         22    1    1    0    0    0 -0.29063898726E+02  0.33298610298E+01  0.55727517391E+01  0.29780089751E+02  0.00000000000E+00 0. -1.
</event>
<event>
 5    1  0.9041381E-005  0.9118800E+02  0.7818608E-02  0.1130116E+00
         25   -1    0    0    0    0  0.00000000000E+00  0.00000000000E+00  0.99999998245E-14  0.12500000000E+03  0.12500000000E+03 0.  0.
        -13    1    3    3    0    0 -0.86982899417E+01  0.18778625195E+02 -0.57196889795E+02  0.60825918639E+02  0.10566000000E+00 0.  1.
         23    2    1    0    0    0  0.50379043687E+01  0.38756334221E+01 -0.27465957911E+02  0.96808159712E+02  0.92612309808E+02 0.  0.
         13    1    3    3    0    0  0.13736194310E+02 -0.14902991772E+02  0.29730931883E+02  0.35982241072E+02  0.10566000000E+00 0. -1.
         22    1    1    0    0    0 -0.50379043687E+01 -0.38756334221E+01  0.27465957911E+02  0.28191840288E+02  0.00000000000E+00 0.  1.
</event>
<event>
 5    1  0.9041381E-005  0.9118800E+02  0.7818608E-02  0.1130116E+00
         25   -1    0    0    0    0  0.00000000000E+00  0.00000000000E+00  0.99999998245E-14  0.12500000000E+03  0.12500000000E+03 0.  0.
        -13    1    3    3    0    0 -0.99381268852E+01 -0.51441078839E+02  0.22709353157E+02  0.57102336581E+02  0.10566000000E+00 0. -1.
         23    2    1    0    0    0 -0.14930454672E+02 -0.13397055947E+02  0.21647075597E+02  0.95487367676E+02  0.90812124296E+02 0.  0.
         13    1    3    3    0    0 -0.49923277869E+01  0.38044022892E+02 -0.10622775596E+01  0.38385031096E+02  0.10566000000E+00 0.  1.
         22    1    1    0    0    0  0.14930454672E+02  0.13397055947E+02 -0.21647075597E+02  0.29512632324E+02  0.00000000000E+00 0. -1.
</event>
<event>
 5    1  0.9041381E-005  0.9118800E+02  0.7818608E-02  0.1130116E+00
         25   -1    0    0    0    0  0.00000000000E+00  0.00000000000E+00  0.99999998245E-14  0.12500000000E+03  0.12500000000E+03 0.  0.
        -13    1    3    3    0    0 -0.44280498932E+02  0.20379951125E+02  0.11744734936E+02  0.50140352574E+02  0.10566000000E+00 0.  1.
         23    2    1    0    0    0 -0.72900180861E+01  0.51789658784E+01 -0.21223384207E+02  0.10196962683E+03  0.99334821220E+02 0.  0.
         13    1    3    3    0    0  0.36990480846E+02 -0.15200985247E+02 -0.32968119143E+02  0.51829274253E+02  0.10566000000E+00 0. -1.
         22    1    1    0    0    0  0.72900180861E+01 -0.51789658784E+01  0.21223384207E+02  0.23030373173E+02  0.00000000000E+00 0. -1.
</event>
<event>
 5    1  0.9041381E-005  0.9118800E+02  0.7818608E-02  0.1130116E+00
         25   -1    0    0    0    0  0.00000000000E+00  0.00000000000E+00  0.99999998245E-14  0.12500000000E+03  0.12500000000E+03 0.  0.
        -13    1    3    3    0    0  0.83926308959E+01 -0.21681873361E+02  0.41255241261E+02  0.47355527463E+02  0.10566000000E+00 0.  1.
         23    2    1    0    0    0  0.15750754665E+02 -0.25268457894E+02 -0.54131030226E+01  0.94736442357E+02  0.89772549197E+02 0.  0.
         13    1    3    3    0    0  0.73581237691E+01 -0.35865845333E+01 -0.46668344283E+02  0.47380914894E+02  0.10566000000E+00 0. -1.
         22    1    1    0    0    0 -0.15750754665E+02  0.25268457894E+02  0.54131030226E+01  0.30263557643E+02  0.00000000000E+00 0. -1.
</event>
<event>
 5    1  0.9041381E-005  0.9118800E+02  0.7818608E-02  0.1130116E+00
         25   -1    0    0    0    0  0.00000000000E+00  0.00000000000E+00  0.99999998245E-14  0.12500000000E+03  0.12500000000E+03 0.  0.
        -13    1    3    3    0    0  0.38427163473E+02  0.12111105601E+02 -0.33221260726E+02  0.52220581189E+02  0.10566000000E+00 0. -1.
         23    2    1    0    0    0  0.19169917136E+02  0.27184291070E+02 -0.22814617993E+01  0.91658187333E+02  0.85378843007E+02 0.  0.
         13    1    3    3    0    0 -0.19257246337E+02  0.15073185469E+02  0.30939798927E+02  0.39437606144E+02  0.10566000000E+00 0.  1.
         22    1    1    0    0    0 -0.19169917136E+02 -0.27184291070E+02  0.22814617993E+01  0.33341812667E+02  0.00000000000E+00 0. -1.
</event>
<event>
 5    1  0.9041381E-005  0.9118800E+02  0.7818608E-02  0.1130116E+00
         25   -1    0    0    0    0  0.00000000000E+00  0.00000000000E+00  0.99999998245E-14  0.12500000000E+03  0.12500000000E+03 0.  0.
        -13    1    3    3    0    0  0.41261867740E+02 -0.28394944877E+02 -0.13412097756E+02  0.51852773833E+02  0.10566000000E+00 0.  1.
         23    2    1    0    0    0 -0.14234031608E+01 -0.29110830058E+02 -0.70295944989E+01  0.95018644093E+02  0.90164632885E+02 0.  0.
         13    1    3    3    0    0 -0.42685270900E+02 -0.71588518106E+00  0.63825032568E+01  0.43165870260E+02  0.10566000000E+00 0. -1.
         22    1    1    0    0    0  0.14234031608E+01  0.29110830058E+02  0.70295944989E+01  0.29981355907E+02  0.00000000000E+00 0.  1.
</event>
<event>
 5    1  0.9041381E-005  0.9118800E+02  0.7818608E-02  0.1130116E+00
         25   -1    0    0    0    0  0.00000000000E+00  0.00000000000E+00  0.99999998245E-14  0.12500000000E+03  0.12500000000E+03 0.  0.
        -13    1    3    3    0    0 -0.13294393531E+02  0.23075671771E+02 -0.45898273597E+02  0.53064962171E+02  0.10566000000E+00 0. -1.
         23    2    1    0    0    0 -0.13881685914E+02 -0.10965851345E+02 -0.28890900215E+02  0.91123234883E+02  0.84592013339E+02 0.  0.
         13    1    3    3    0    0 -0.58729238374E+00 -0.34041523116E+02  0.17007373381E+02  0.38058272712E+02  0.10566000000E+00 0.  1.
         22    1    1    0    0    0  0.13881685914E+02  0.10965851345E+02  0.28890900215E+02  0.33876765117E+02  0.00000000000E+00 0. -1.
</event>
<event>
 5    1  0.9041381E-005  0.9118800E+02  0.7818608E-02  0.1130116E+00
         25   -1    0    0    0    0  0.00000000000E+00  0.00000000000E+00  0.99999998245E-14  0.12500000000E+03  0.12500000000E+03 0.  0.
        -13    1    3    3    0    0 -0.25918840467E+02 -0.35235059725E+02  0.94528658771E+01  0.44751129174E+02  0.10566000000E+00 0.  1.
         23    2    1    0    0    0  0.22203525623E+02 -0.17264743689E+02  0.66172623691E+00  0.96866287014E+02  0.92690731757E+02 0.  0.
         13    1    3    3    0    0  0.48122366090E+02  0.17970316036E+02 -0.87911396402E+01  0.52115157841E+02  0.10566000000E+00 0. -1.
         22    1    1    0    0    0 -0.22203525623E+02  0.17264743689E+02 -0.66172623691E+00  0.28133712986E+02  0.00000000000E+00 0. -1.
</event>
<event>
 5    1  0.9041381E-005  0.9118800E+02  0.7818608E-02  0.1130116E+00
         25   -1    0    0    0    0  0.00000000000E+00  0.00000000000E+00  0.99999998245E-14  0.12500000000E+03  0.12500000000E+03 0.  0.
        -13    1    3    3    0    0  0.18031064512E+02 -0.35307028968E+02  0.59774786804E+01  0.40092979403E+02  0.10566000000E+00 0. -1.
         23    2    1    0    0    0 -0.86936692002E+01  0.12676729409E+02  0.22770329985E+02  0.97526971767E+02  0.93577470268E+02 0.  0.
         13    1    3    3    0    0 -0.26724733712E+02  0.47983758377E+02  0.16792851304E+02  0.57433992364E+02  0.10566000000E+00 0.  1.
         22    1    1    0    0    0  0.86936692002E+01 -0.12676729409E+02 -0.22770329985E+02  0.27473028233E+02  0.00000000000E+00 0.  1.
</event>
<event>
 5    1  0.9041381E-005  0.9118800E+02  0.7818608E-02  0.1130116E+00
         25   -1    0    0    0    0  0.00000000000E+00  0.00000000000E+00  0.99999998245E-14  0.12500000000E+03  0.12500000000E+03 0.  0.
        -13    1    3    3    0    0 -0.49281631270E+02 -0.29170570252E+02 -0.20942142807E+02  0.60976928907E+02  0.10566000000E+00 0.  1.
         23    2    1    0    0    0 -0.31391178634E+02 -0.73556694308E+01 -0.12422279683E+02  0.90448227233E+02  0.83588616500E+02 0.  0.
         13    1    3    3    0    0  0.17890452636E+02  0.21814900821E+02  0.85198631245E+01  0.29471298327E+02  0.10566000000E+00 0. -1.
         22    1    1    0    0    0  0.31391178634E+02  0.73556694308E+01  0.12422279683E+02  0.34551772767E+02  0.00000000000E+00 0.  1.
</event>
<event>
 5    1  0.9041381E-005  0.9118800E+02  0.7818608E-02  0.1130116E+00
         25   -1    0    0    0    0  0.00000000000E+00  0.00000000000E+00  0.99999998245E-14  0.12500000000E+03  0.12500000000E+03 0.  0.
        -13    1    3    3    0    0  0.26389765401E+02  0.11952437992E+02  0.36559052254E+02  0.46646071192E+02  0.10566000000E+00 0. -1.
         23    2    1    0    0    0  0.22228343926E+02  0.12923835152E+02 -0.12860943226E+02  0.96250588712E+02  0.91856666486E+02 0.  0.
         13    1    3    3    0    0 -0.41614214751E+01  0.97139715974E+00 -0.49419995480E+02  0.49604517520E+02  0.10566000000E+00 0.  1.
         22    1    1    0    0    0 -0.22228343926E+02 -0.12923835152E+02  0.12860943226E+02  0.28749411288E+02  0.00000000000E+00 0. -1.
</event>
<event>
 5    1  0.9041381E-005  0.9118800E+02  0.7818608E-02  0.1130116E+00
         25   -1    0    0    0    0  0.00000000000E+00  0.00000000000E+00  0.99999998245E-14  0.12500000000E+03  0.12500000000E+03 0.  0.
        -13    1    3    3    0    0  0.22403808544E+02 -0.28266292255E+02 -0.21320910884E+02  0.41898762751E+02  0.10566000000E+00 0.  1.
         23    2    1    0    0    0 -0.51356360782E+01  0.14954534798E+02 -0.27255227586E+02  0.93490314192E+02  0.88020330310E+02 0.  0.
         13    1    3    3    0    0 -0.27539444622E+02  0.43220827053E+02 -0.59343167023E+01  0.51591551440E+02  0.10566000000E+00 0. -1.
         22    1    1    0    0    0  0.51356360782E+01 -0.14954534798E+02  0.27255227586E+02  0.31509685808E+02  0.00000000000E+00 0. -1.
</event>
<event>
 5    1  0.9041381E-005  0.9118800E+02  0.7818608E-02  0.1130116E+00
         25   -1    0    0    0    0  0.00000000000E+00  0.00000000000E+00  0.99999998245E-14  0.12500000000E+03  0.12500000000E+03 0.  0.
        -13    1    3    3    0    0  0.30594519814E+02 -0.23452770120E+02 -0.37018908749E+02  0.53445933783E+02  0.10566000000E+00 0.  1.
         23    2    1    0    0    0  0.19229086488E+02 -0.22716218953E+02  0.30310075687E+01  0.95083927772E+02  0.90255093723E+02 0.  0.
         13    1    3    3    0    0 -0.11365433326E+02  0.73655116707E+00  0.40049916318E+02  0.41637993988E+02  0.10566000000E+00 0. -1.
         22    1    1    0    0    0 -0.19229086488E+02  0.22716218953E+02 -0.30310075687E+01  0.29916072228E+02  0.00000000000E+00 0.  1.
</event>
<event>
 5    1  0.9041381E-005  0.9118800E+02  0.7818608E-02  0.1130116E+00
         25   -1    0    0    0    0  0.00000000000E+00  0.00000000000E+00  0.99999998245E-14  0.12500000000E+03  0.12500000000E+03 0.  0.
        -13    1    3    3    0    0  0.18974806756E+02 -0.18596419032E+02  0.15149798189E+02  0.30584271144E+02  0.10566000000E+00 0. -1.
         23    2    1    0    0    0  0.16640096040E+02  0.28059416946E+02  0.31082215628E+02  0.79940841065E+02  0.66031888253E+02 0.  0.
         13    1    3    3    0    0 -0.23347107161E+01  0.46655835977E+02  0.15932417439E+02  0.49356569921E+02  0.10566000000E+00 0.  1.
         22    1    1    0    0    0 -0.16640096040E+02 -0.28059416946E+02 -0.31082215628E+02  0.45059158935E+02  0.00000000000E+00 0.  1.
</event>
<event>
 5    1  0.9041381E-005  0.9118800E+02  0.7818608E-02  0.1130116E+00
         25   -1    0    0    0    0  0.00000000000E+00  0.00000000000E+00  0.99999998245E-14  0.12500000000E+03  0.12500000000E+03 0.  0.
        -13    1    3    3    0    0 -0.28669589804E+02 -0.30734687849E+02  0.43763489340E+02  0.60678007382E+02  0.10566000000E+00 0. -1.
         23    2    1    0    0    0 -0.19378575378E+02 -0.16993889119E+02  0.11877433415E+02  0.96620520167E+02  0.92358703118E+02 0.  0.
         13    1    3    3    0    0  0.92910144255E+01  0.13740798729E+02 -0.31886055925E+02  0.35942512784E+02  0.10566000000E+00 0.  1.
         22    1    1    0    0    0  0.19378575378E+02  0.16993889119E+02 -0.11877433415E+02  0.28379479833E+02  0.00000000000E+00 0. -1.
</event>
<event>
 5    1  0.9041381E-005  0.9118800E+02  0.7818608E-02  0.1130116E+00
         25   -1    0    0    0    0  0.00000000000E+00  0.00000000000E+00  0.99999998245E-14  0.12500000000E+03  0.12500000000E+03 0.  0.
        -13    1    3    3    0    0 -0.51053516184E+00  0.11159111402E+02  0.47576968575E+02  0.48870906644E+02  0.10566000000E+00 0. -1.
         23    2    1    0    0    0  0.76758117989E+00 -0.22765185787E+02  0.30670660742E+02  0.86796174339E+02  0.77936150692E+02 0.  0.
         13    1    3    3    0    0  0.12781163417E+01 -0.33924297189E+02 -0.16906307833E+02  0.37925267695E+02  0.10566000000E+00 0.  1.
         22    1    1    0    0    0 -0.76758117989E+00  0.22765185787E+02 -0.30670660742E+02  0.38203825661E+02  0.00000000000E+00 0. -1.
</event>
<event>
 5    1  0.9041381E-005  0.9118800E+02  0.7818608E-02  0.1130116E+00
         25   -1    0    0    0    0  0.00000000000E+00  0.00000000000E+00  0.99999998245E-14  0.12500000000E+03  0.12500000000E+03 0.  0.
        -13    1    3    3    0    0 -0.21766114200E+02 -0.18622224911E+02  0.17901373586E+02  0.33779007213E+02  0.10566000000E+00 0. -1.
         23    2    1    0    0    0  0.17002268607E+02  0.17370414194E+02 -0.15340902772E+02  0.96257144803E+02  0.91865587685E+02 0.  0.
         13    1    3    3    0    0  0.38768382807E+02  0.35992639105E+02 -0.33242276357E+02  0.62478137590E+02  0.10566000000E+00 0.  1.
         22    1    1    0    0    0 -0.17002268607E+02 -0.17370414194E+02  0.15340902772E+02  0.28742855197E+02  0.00000000000E+00 0.  1.
</event>
<event>
 5    1  0.9041381E-005  0.9118800E+02  0.7818608E-02  0.1130116E+00
         25   -1    0    0    0    0  0.00000000000E+00  0.00000000000E+00  0.99999998245E-14  0.12500000000E+03  0.12500000000E+03 0.  0.
        -13    1    3    3    0    0 -0.34687244566E+02  0.12606312156E+02 -0.31560328502E+02  0.48561193776E+02  0.10566000000E+00 0.  1.
         23    2    1    0    0    0 -0.59957149595E+01 -0.22289008067E+02 -0.18002921212E+02  0.95727937369E+02  0.91142659289E+02 0.  0.
         13    1    3    3    0    0  0.28691529607E+02 -0.34895320223E+02  0.13557407290E+02  0.47166743593E+02  0.10566000000E+00 0. -1.
         22    1    1    0    0    0  0.59957149595E+01  0.22289008067E+02  0.18002921212E+02  0.29272062631E+02  0.00000000000E+00 0.  1.
</event>
<event>
 5    1  0.9041381E-005  0.9118800E+02  0.7818608E-02  0.1130116E+00
         25   -1    0    0    0    0  0.00000000000E+00  0.00000000000E+00  0.99999998245E-14  0.12500000000E+03  0.12500000000E+03 0.  0.
        -13    1    3    3    0    0  0.28942258830E+02 -0.17743339687E+02  0.30940453594E+02  0.45932594985E+02  0.10566000000E+00 0. -1.
         23    2    1    0    0    0  0.25376534853E+02  0.63561290630E+01 -0.12705498426E+02  0.95917383404E+02  0.91402110758E+02 0.  0.
         13    1    3    3    0    0 -0.35657239769E+01  0.24099468750E+02 -0.43645952020E+02  0.49984788419E+02  0.10566000000E+00 0.  1.
         22    1    1    0    0    0 -0.25376534853E+02 -0.63561290630E+01  0.12705498426E+02  0.29082616596E+02  0.00000000000E+00 0.  1.
</event>
<event>
 5    1  0.9041381E-005  0.9118800E+02  0.7818608E-02  0.1130116E+00
         25   -1    0    0    0    0  0.00000000000E+00  0.00000000000E+00  0.99999998245E-14  0.12500000000E+03  0.12500000000E+03 0.  0.
        -13    1    3    3    0    0 -0.14603407479E+01  0.30658967630E+02  0.24806872189E+02  0.39465136045E+02  0.10566000000E+00 0.  1.
         23    2    1    0    0    0  0.25963816502E+02  0.35372661597E+02 -0.56953738918E+01  0.80753166898E+02  0.67552140784E+02 0.  0.
         13    1    3    3    0    0  0.27424157249E+02  0.47136939673E+01 -0.30502246081E+02  0.41288030853E+02  0.10566000000E+00 0. -1.
         22    1    1    0    0    0 -0.25963816502E+02 -0.35372661597E+02  0.56953738918E+01  0.44246833102E+02  0.00000000000E+00 0.  1.
</event>
<event>
 5    1  0.9041381E-005  0.9118800E+02  0.7818608E-02  0.1130116E+00
         25   -1    0    0    0    0  0.00000000000E+00  0.00000000000E+00  0.99999998245E-14  0.12500000000E+03  0.12500000000E+03 0.  0.
        -13    1    3    3    0    0 -0.26606269594E+02 -0.12844057717E+02  0.18661230574E+02  0.34944471536E+02  0.10566000000E+00 0. -1.
         23    2    1    0    0    0  0.15532845496E+02  0.11288800286E+02 -0.20192330874E+02  0.97135389340E+02  0.93052927600E+02 0.  0.
         13    1    3    3    0    0  0.42139115090E+02  0.24132858003E+02 -0.38853561448E+02  0.62190917804E+02  0.10566000000E+00 0.  1.
         22    1    1    0    0    0 -0.15532845496E+02 -0.11288800286E+02  0.20192330874E+02  0.27864610660E+02  0.00000000000E+00 0.  1.
</event>
<event>
 5    1  0.9041381E-005  0.9118800E+02  0.7818608E-02  0.1130116E+00
         25   -1    0    0    0    0  0.00000000000E+00  0.00000000000E+00  0.99999998245E-14  0.12500000000E+03  0.12500000000E+03 0.  0.
        -13    1    3    3    0    0 -0.32709789015E+02 -0.25755303927E+02 -0.17035492686E+02  0.44983165217E+02  0.10566000000E+00 0.  1.
         23    2    1    0    0    0 -0.98599582052E+01  0.18591752029E+02 -0.21305654515E+02  0.95053331844E+02  0.90212709532E+02 0.  0.
         13    1    3    3    0    0  0.22849830810E+02  0.44347055956E+02 -0.42701618289E+01  0.50070166628E+02  0.10566000000E+00 0. -1.
         22    1    1    0    0    0  0.98599582052E+01 -0.18591752029E+02  0.21305654515E+02  0.29946668156E+02  0.00000000000E+00 0.  1.
</event>
<event>
 5    1  0.9041381E-005  0.9118800E+02  0.7818608E-02  0.1130116E+00
         25   -1    0    0    0    0  0.00000000000E+00  0.00000000000E+00  0.99999998245E-14  0.12500000000E+03  0.12500000000E+03 0.  0.
        -13    1    3    3    0    0  0.19022081767E+02  0.42781267526E+02  0.12045391094E+02  0.48344379782E+02  0.10566000000E+00 0.  1.
         23    2    1    0    0    0 -0.21600749475E+02  0.17254502726E+02  0.27137568848E+01  0.97220966204E+02  0.93167813922E+02 0.  0.
         13    1    3    3    0    0 -0.40622831242E+02 -0.25526764800E+02 -0.93316342088E+01  0.48876586422E+02  0.10566000000E+00 0. -1.
         22    1    1    0    0    0  0.21600749475E+02 -0.17254502726E+02 -0.27137568848E+01  0.27779033796E+02  0.00000000000E+00 0. -1.
</event>
<event>
 5    1  0.9041381E-005  0.9118800E+02  0.7818608E-02  0.1130116E+00
         25   -1    0    0    0    0  0.00000000000E+00  0.00000000000E+00  0.99999998245E-14  0.12500000000E+03  0.12500000000E+03 0.  0.
        -13    1    3    3    0    0 -0.25030851083E+02 -0.19201963918E+02  0.20850403918E+02  0.37815465511E+02  0.10566000000E+00 0.  1.
         23    2    1    0    0    0 -0.38885743688E+02  0.14688128633E+02 -0.57024543442E+01  0.83043353680E+02  0.71664764144E+02 0.  0.
         13    1    3    3    0    0 -0.13854892605E+02  0.33890092551E+02 -0.26552858263E+02  0.45227888168E+02  0.10566000000E+00 0. -1.
         22    1    1    0    0    0  0.38885743688E+02 -0.14688128633E+02  0.57024543442E+01  0.41956646320E+02  0.00000000000E+00 0.  1.
</event>
<event>
 4    1  0.9041381E-005  0.9118800E+02  0.7818608E-02  0.1130116E+00
         25   -1    0    0    0    0  0.00000000000E+00  0.00000000000E+00  0.99999998245E-14  0.12500000000E+03  0.12500000000E+03 0.  0.
        -13    1    1    0    0    0 -0.28775196607E+01  0.98053442746E+00  0.24454478958E+01  0.39029407641E+01  0.10566000000E+00 0. -1.
         13    1    1    0    0    0  0.27222404516E+02  0.53880524708E+02 -0.76589914159E+01  0.60850978333E+02  0.10566000000E+00 0.  1.
         22    1    1    0    0    0 -0.24344884856E+02 -0.54861059136E+02  0.52135435201E+01  0.60246080903E+02  0.00000000000E+00 0.  1.
</event>
<event>
 5    1  0.9041381E-005  0.9118800E+02  0.7818608E-02  0.1130116E+00
         25   -1    0    0    0    0  0.00000000000E+00  0.00000000000E+00  0.99999998245E-14  0.12500000000E+03  0.12500000000E+03 0.  0.
        -13    1    3    3    0    0  0.24280598950E+02 -0.12182218455E+02 -0.23466480036E+02  0.35897643114E+02  0.10566000000E+00 0. -1.
         23    2    1    0    0    0 -0.22873440168E+02 -0.12609388625E+02  0.13297221669E+02  0.95691177937E+02  0.91092230647E+02 0.  0.
         13    1    3    3    0    0 -0.47154039118E+02 -0.42717017029E+00  0.36763701705E+02  0.59793534823E+02  0.10566000000E+00 0.  1.
         22    1    1    0    0    0  0.22873440168E+02  0.12609388625E+02 -0.13297221669E+02  0.29308822063E+02  0.00000000000E+00 0.  1.
</event>
<event>
 5    1  0.9041381E-005  0.9118800E+02  0.7818608E-02  0.1130116E+00
         25   -1    0    0    0    0  0.00000000000E+00  0.00000000000E+00  0.99999998245E-14  0.12500000000E+03  0.12500000000E+03 0.  0.
        -13    1    3    3    0    0  0.32351800000E+02  0.42661277748E+01  0.39261003672E+02  0.51051703035E+02  0.10566000000E+00 0.  1.
         23    2    1    0    0    0  0.16398212276E+02 -0.21827817503E+02  0.45373116591E+01  0.97324339576E+02  0.93306403285E+02 0.  0.
         13    1    3    3    0    0 -0.15953587724E+02 -0.26093945278E+02 -0.34723692013E+02  0.46272636541E+02  0.10566000000E+00 0. -1.
         22    1    1    0    0    0 -0.16398212276E+02  0.21827817503E+02 -0.45373116591E+01  0.27675660424E+02  0.00000000000E+00 0. -1.
</event>
<event>
 5    1  0.9041381E-005  0.9118800E+02  0.7818608E-02  0.1130116E+00
         25   -1    0    0    0    0  0.00000000000E+00  0.00000000000E+00  0.99999998245E-14  0.12500000000E+03  0.12500000000E+03 0.  0.
        -13    1    3    3    0    0 -0.13959914830E+02  0.33517247680E+02  0.17461345344E+01  0.36350313121E+02  0.10566000000E+00 0. -1.
         23    2    1    0    0    0  0.20649662927E+02 -0.10943369230E+02 -0.17406255922E+02  0.95859930434E+02  0.91323505235E+02 0.  0.
         13    1    3    3    0    0  0.34609577756E+02 -0.44460616910E+02 -0.19152390457E+02  0.59509617313E+02  0.10566000000E+00 0.  1.
         22    1    1    0    0    0 -0.20649662927E+02  0.10943369230E+02  0.17406255922E+02  0.29140069566E+02  0.00000000000E+00 0.  1.
</event>
<event>
 5    1  0.9041381E-005  0.9118800E+02  0.7818608E-02  0.1130116E+00
         25   -1    0    0    0    0  0.00000000000E+00  0.00000000000E+00  0.99999998245E-14  0.12500000000E+03  0.12500000000E+03 0.  0.
        -13    1    3    3    0    0 -0.25315716907E+02 -0.55290784199E+02  0.12997634543E+02  0.62184451494E+02  0.10566000000E+00 0.  1.
         23    2    1    0    0    0 -0.11254428791E+02 -0.28051993443E+02  0.21623098716E+01  0.94697325407E+02  0.89718065916E+02 0.  0.
         13    1    3    3    0    0  0.14061288116E+02  0.27238790756E+02 -0.10835324671E+02  0.32512873913E+02  0.10566000000E+00 0. -1.
         22    1    1    0    0    0  0.11254428791E+02  0.28051993443E+02 -0.21623098716E+01  0.30302674593E+02  0.00000000000E+00 0.  1.
</event>
<event>
 5    1  0.9041381E-005  0.9118800E+02  0.7818608E-02  0.1130116E+00
         25   -1    0    0    0    0  0.00000000000E+00  0.00000000000E+00  0.99999998245E-14  0.12500000000E+03  0.12500000000E+03 0.  0.
        -13    1    3    3    0    0  0.49166602502E+02  0.28275139791E+02 -0.23419286847E+02  0.61362142174E+02  0.10566000000E+00 0.  1.
         23    2    1    0    0    0  0.24695055424E+02  0.15705593470E+02 -0.30866446087E+01  0.95571462769E+02  0.90927804836E+02 0.  0.
         13    1    3    3    0    0 -0.24471547078E+02 -0.12569546321E+02  0.20332642239E+02  0.34209320595E+02  0.10566000000E+00 0. -1.
         22    1    1    0    0    0 -0.24695055424E+02 -0.15705593470E+02  0.30866446087E+01  0.29428537231E+02  0.00000000000E+00 0.  1.
</event>
<event>
 5    1  0.9041381E-005  0.9118800E+02  0.7818608E-02  0.1130116E+00
         25   -1    0    0    0    0  0.00000000000E+00  0.00000000000E+00  0.99999998245E-14  0.12500000000E+03  0.12500000000E+03 0.  0.
        -13    1    3    3    0    0  0.14039808185E+02  0.84944341611E+01  0.48010620442E+02  0.50737584342E+02  0.10566000000E+00 0.  1.
         23    2    1    0    0    0 -0.20299359777E+02 -0.18375223056E+01  0.21802888558E+02  0.95153619231E+02  0.90351562287E+02 0.  0.
         13    1    3    3    0    0 -0.34339167962E+02 -0.10331956467E+02 -0.26207731884E+02  0.44416034889E+02  0.10566000000E+00 0. -1.
         22    1    1    0    0    0  0.20299359777E+02  0.18375223056E+01 -0.21802888558E+02  0.29846380769E+02  0.00000000000E+00 0. -1.
</event>
<event>
 5    1  0.9041381E-005  0.9118800E+02  0.7818608E-02  0.1130116E+00
         25   -1    0    0    0    0  0.00000000000E+00  0.00000000000E+00  0.99999998245E-14  0.12500000000E+03  0.12500000000E+03 0.  0.
        -13    1    3    3    0    0  0.43401477589E+02  0.20434893954E+02  0.87715781818E+01  0.48767047231E+02  0.10566000000E+00 0.  1.
         23    2    1    0    0    0 -0.17134668044E+01  0.95408877092E+01  0.25199468036E+02  0.98000413039E+02  0.94207766452E+02 0.  0.
         13    1    3    3    0    0 -0.45114944394E+02 -0.10894006245E+02  0.16427889854E+02  0.49233365808E+02  0.10566000000E+00 0. -1.
         22    1    1    0    0    0  0.17134668044E+01 -0.95408877092E+01 -0.25199468036E+02  0.26999586961E+02  0.00000000000E+00 0. -1.
</event>
<event>
 5    1  0.9041381E-005  0.9118800E+02  0.7818608E-02  0.1130116E+00
         25   -1    0    0    0    0  0.00000000000E+00  0.00000000000E+00  0.99999998245E-14  0.12500000000E+03  0.12500000000E+03 0.  0.
        -13    1    3    3    0    0 -0.33271912772E+02  0.43370073407E+01 -0.19170078399E+02  0.38643665484E+02  0.10566000000E+00 0.  1.
         23    2    1    0    0    0  0.14302089525E+02  0.25415141927E+02  0.39267059635E+01  0.95573851362E+02  0.90931088416E+02 0.  0.
         13    1    3    3    0    0  0.47574002297E+02  0.21078134586E+02  0.23096784363E+02  0.56930185878E+02  0.10566000000E+00 0. -1.
         22    1    1    0    0    0 -0.14302089525E+02 -0.25415141927E+02 -0.39267059635E+01  0.29426148638E+02  0.00000000000E+00 0. -1.
</event>
<event>
 5    1  0.9041381E-005  0.9118800E+02  0.7818608E-02  0.1130116E+00
         25   -1    0    0    0    0  0.00000000000E+00  0.00000000000E+00  0.99999998245E-14  0.12500000000E+03  0.12500000000E+03 0.  0.
        -13    1    3    3    0    0  0.31756756165E+01 -0.52562709941E+02  0.37973194999E+01  0.52795399339E+02  0.10566000000E+00 0.  1.
         23    2    1    0    0    0  0.24520997553E+01 -0.18828039799E+02  0.25717469441E+02  0.93032890178E+02  0.87368315450E+02 0.  0.
         13    1    3    3    0    0 -0.72357586120E+00  0.33734670142E+02  0.21920149941E+02  0.40237490840E+02  0.10566000000E+00 0. -1.
         22    1    1    0    0    0 -0.24520997553E+01  0.18828039799E+02 -0.25717469441E+02  0.31967109822E+02  0.00000000000E+00 0.  1.
</event>
<event>
 5    1  0.9041381E-005  0.9118800E+02  0.7818608E-02  0.1130116E+00
         25   -1    0    0    0    0  0.00000000000E+00  0.00000000000E+00  0.99999998245E-14  0.12500000000E+03  0.12500000000E+03 0.  0.
        -13    1    3    3    0    0 -0.15909651236E+02 -0.32300330676E+02  0.35952494239E+02  0.50882426930E+02  0.10566000000E+00 0. -1.
         23    2    1    0    0    0 -0.27872542166E+02 -0.44895285586E+01  0.15263484896E+01  0.96726970215E+02  0.92502662415E+02 0.  0.
         13    1    3    3    0    0 -0.11962890930E+02  0.27810802118E+02 -0.34426145749E+02  0.45844543285E+02  0.10566000000E+00 0.  1.
         22    1    1    0    0    0  0.27872542166E+02  0.44895285586E+01 -0.15263484896E+01  0.28273029785E+02  0.00000000000E+00 0.  1.
</event>
<event>
 5    1  0.9041381E-005  0.9118800E+02  0.7818608E-02  0.1130116E+00
         25   -1    0    0    0    0  0.00000000000E+00  0.00000000000E+00  0.99999998245E-14  0.12500000000E+03  0.12500000000E+03 0.  0.
        -13    1    3    3    0    0  0.17361424682E+02  0.12421183952E+02 -0.52616821583E+02  0.56782444076E+02  0.10566000000E+00 0.  1.
         23    2    1    0    0    0  0.16870401428E+02  0.19302995628E+02 -0.14442242618E+02  0.95575614596E+02  0.90933512244E+02 0.  0.
         13    1    3    3    0    0 -0.49102325334E+00  0.68818116754E+01  0.38174578965E+02  0.38793170520E+02  0.10566000000E+00 0. -1.
         22    1    1    0    0    0 -0.16870401428E+02 -0.19302995628E+02  0.14442242618E+02  0.29424385404E+02  0.00000000000E+00 0.  1.
</event>
<event>
 5    1  0.9041381E-005  0.9118800E+02  0.7818608E-02  0.1130116E+00
         25   -1    0    0    0    0  0.00000000000E+00  0.00000000000E+00  0.99999998245E-14  0.12500000000E+03  0.12500000000E+03 0.  0.
        -13    1    3    3    0    0 -0.45648508699E+02 -0.16880486294E+02 -0.29784973099E+02  0.57060432443E+02  0.10566000000E+00 0. -1.
         23    2    1    0    0    0 -0.18050626087E+02 -0.19861812844E+02  0.51890556808E+00  0.98156267499E+02  0.94414336171E+02 0.  0.
         13    1    3    3    0    0  0.27597882612E+02 -0.29813265504E+01  0.30303878667E+02  0.41095835056E+02  0.10566000000E+00 0.  1.
         22    1    1    0    0    0  0.18050626087E+02  0.19861812844E+02 -0.51890556808E+00  0.26843732501E+02  0.00000000000E+00 0. -1.
</event>
<event>
 5    1  0.9041381E-005  0.9118800E+02  0.7818608E-02  0.1130116E+00
         25   -1    0    0    0    0  0.00000000000E+00  0.00000000000E+00  0.99999998245E-14  0.12500000000E+03  0.12500000000E+03 0.  0.
        -13    1    3    3    0    0  0.14600789078E+02 -0.19407748859E+02  0.28127500733E+02  0.37161959300E+02  0.10566000000E+00 0.  1.
         23    2    1    0    0    0 -0.96151970916E+01  0.25451227094E+02 -0.41195207056E+01  0.97482961160E+02  0.93518662790E+02 0.  0.
         13    1    3    3    0    0 -0.24215986169E+02  0.44858975953E+02 -0.32247021439E+02  0.60321001860E+02  0.10566000000E+00 0. -1.
         22    1    1    0    0    0  0.96151970916E+01 -0.25451227094E+02  0.41195207056E+01  0.27517038840E+02  0.00000000000E+00 0. -1.
</event>
<event>
 5    1  0.9041381E-005  0.9118800E+02  0.7818608E-02  0.1130116E+00
         25   -1    0    0    0    0  0.00000000000E+00  0.00000000000E+00  0.99999998245E-14  0.12500000000E+03  0.12500000000E+03 0.  0.
        -13    1    3    3    0    0 -0.35600474941E+02  0.37825655279E+02  0.11911562069E+01  0.51957713869E+02  0.10566000000E+00 0.  1.
         23    2    1    0    0    0 -0.26655139104E+02 -0.44417620127E+01  0.10245843377E+02  0.96100121161E+02  0.91651679145E+02 0.  0.
         13    1    3    3    0    0  0.89453358371E+01 -0.42267417292E+02  0.90546871697E+01  0.44142407292E+02  0.10566000000E+00 0. -1.
         22    1    1    0    0    0  0.26655139104E+02  0.44417620127E+01 -0.10245843377E+02  0.28899878839E+02  0.00000000000E+00 0.  1.
</event>
<event>
 5    1  0.9041381E-005  0.9118800E+02  0.7818608E-02  0.1130116E+00
         25   -1    0    0    0    0  0.00000000000E+00  0.00000000000E+00  0.99999998245E-14  0.12500000000E+03  0.12500000000E+03 0.  0.
        -13    1    3    3    0    0  0.39239524585E+02 -0.24679810943E+02  0.14546201750E+02  0.48584323678E+02  0.10566000000E+00 0.  1.
         23    2    1    0    0    0  0.21110600991E+02  0.13194965545E+02  0.22642860385E+02  0.91347901754E+02  0.84923350373E+02 0.  0.
         13    1    3    3    0    0 -0.18128923595E+02  0.37874776488E+02  0.80966586350E+01  0.42763578076E+02  0.10566000000E+00 0. -1.
         22    1    1    0    0    0 -0.21110600991E+02 -0.13194965545E+02 -0.22642860385E+02  0.33652098246E+02  0.00000000000E+00 0.  1.
</event>
<event>
 5    1  0.9041381E-005  0.9118800E+02  0.7818608E-02  0.1130116E+00
         25   -1    0    0    0    0  0.00000000000E+00  0.00000000000E+00  0.99999998245E-14  0.12500000000E+03  0.12500000000E+03 0.  0.
        -13    1    3    3    0    0  0.42527251418E+02 -0.39852450506E+01 -0.25273516385E+02  0.49630747383E+02  0.10566000000E+00 0.  1.
         23    2    1    0    0    0  0.26875850633E+01 -0.25386451208E+02 -0.12197675727E+02  0.96707274583E+02  0.92476043631E+02 0.  0.
         13    1    3    3    0    0 -0.39839666355E+02 -0.21401206157E+02  0.13075840658E+02  0.47076527200E+02  0.10566000000E+00 0. -1.
         22    1    1    0    0    0 -0.26875850633E+01  0.25386451208E+02  0.12197675727E+02  0.28292725417E+02  0.00000000000E+00 0. -1.
</event>
<event>
 5    1  0.9041381E-005  0.9118800E+02  0.7818608E-02  0.1130116E+00
         25   -1    0    0    0    0  0.00000000000E+00  0.00000000000E+00  0.99999998245E-14  0.12500000000E+03  0.12500000000E+03 0.  0.
        -13    1    3    3    0    0  0.38863898697E+02  0.16427935088E+02  0.43778921508E+02  0.60802013172E+02  0.10566000000E+00 0.  1.
         23    2    1    0    0    0  0.20351280922E+02 -0.24213323288E+01  0.20447300165E+02  0.96049532483E+02  0.91582657314E+02 0.  0.
         13    1    3    3    0    0 -0.18512617775E+02 -0.18849267417E+02 -0.23331621344E+02  0.35247519312E+02  0.10566000000E+00 0. -1.
         22    1    1    0    0    0 -0.20351280922E+02  0.24213323288E+01 -0.20447300165E+02  0.28950467517E+02  0.00000000000E+00 0.  1.
</event>
<event>
 5    1  0.9041381E-005  0.9118800E+02  0.7818608E-02  0.1130116E+00
         25   -1    0    0    0    0  0.00000000000E+00  0.00000000000E+00  0.99999998245E-14  0.12500000000E+03  0.12500000000E+03 0.  0.
        -13    1    3    3    0    0  0.34176501884E+01  0.17090178410E+02  0.38278800056E+02  0.42059864820E+02  0.10566000000E+00 0.  1.
         23    2    1    0    0    0 -0.26547611392E+02 -0.10298115202E+02  0.20832528329E+01  0.96448874108E+02  0.92126101226E+02 0.  0.
         13    1    3    3    0    0 -0.29965261580E+02 -0.27388293613E+02 -0.36195547223E+02  0.54389009288E+02  0.10566000000E+00 0. -1.
         22    1    1    0    0    0  0.26547611392E+02  0.10298115202E+02 -0.20832528329E+01  0.28551125892E+02  0.00000000000E+00 0. -1.
</event>
<event>
 5    1  0.9041381E-005  0.9118800E+02  0.7818608E-02  0.1130116E+00
         25   -1    0    0    0    0  0.00000000000E+00  0.00000000000E+00  0.99999998245E-14  0.12500000000E+03  0.12500000000E+03 0.  0.
        -13    1    3    3    0    0  0.19056994301E+02  0.26290614671E+02  0.38372007594E+02  0.50267162068E+02  0.10566000000E+00 0.  1.
         23    2    1    0    0    0  0.12634744602E+02 -0.15708597208E+02  0.51718037281E+01  0.10418787970E+03  0.10208804987E+03 0.  0.
         13    1    3    3    0    0 -0.64222496990E+01 -0.41999211879E+02 -0.33200203866E+02  0.53920717636E+02  0.10566000000E+00 0. -1.
         22    1    1    0    0    0 -0.12634744602E+02  0.15708597208E+02 -0.51718037281E+01  0.20812120296E+02  0.00000000000E+00 0.  1.
</event>
<event>
 5    1  0.9041381E-005  0.9118800E+02  0.7818608E-02  0.1130116E+00
         25   -1    0    0    0    0  0.00000000000E+00  0.00000000000E+00  0.99999998245E-14  0.12500000000E+03  0.12500000000E+03 0.  0.
        -13    1    3    3    0    0 -0.48403647732E+02 -0.55141549953E+00  0.84520035775E+01  0.49139237899E+02  0.10566000000E+00 0. -1.
         23    2    1    0    0    0 -0.15703001587E+02 -0.24589918246E+02  0.17847150464E+02  0.90798112364E+02  0.84110213952E+02 0.  0.
         13    1    3    3    0    0  0.32700646145E+02 -0.24038502746E+02  0.93951468869E+01  0.41658874465E+02  0.10566000000E+00 0.  1.
         22    1    1    0    0    0  0.15703001587E+02  0.24589918246E+02 -0.17847150464E+02  0.34201887636E+02  0.00000000000E+00 0.  1.
</event>
<event>
 5    1  0.9041381E-005  0.9118800E+02  0.7818608E-02  0.1130116E+00
         25   -1    0    0    0    0  0.00000000000E+00  0.00000000000E+00  0.99999998245E-14  0.12500000000E+03  0.12500000000E+03 0.  0.
        -13    1    3    3    0    0 -0.18956294441E+02 -0.46893622296E+02 -0.24027988384E+02  0.55997395482E+02  0.10566000000E+00 0.  1.
         23    2    1    0    0    0  0.10758191542E+02 -0.26189713949E+02 -0.12915076002E+02  0.93880247589E+02  0.88572354024E+02 0.  0.
         13    1    3    3    0    0  0.29714485984E+02  0.20703908347E+02  0.11112912381E+02  0.37882852107E+02  0.10566000000E+00 0. -1.
         22    1    1    0    0    0 -0.10758191542E+02  0.26189713949E+02  0.12915076002E+02  0.31119752411E+02  0.00000000000E+00 0.  1.
</event>
<event>
 5    1  0.9041381E-005  0.9118800E+02  0.7818608E-02  0.1130116E+00
         25   -1    0    0    0    0  0.00000000000E+00  0.00000000000E+00  0.99999998245E-14  0.12500000000E+03  0.12500000000E+03 0.  0.
        -13    1    3    3    0    0  0.83088231924E+00 -0.10677751290E+02  0.58049063143E+02  0.59028888130E+02  0.10566000000E+00 0.  1.
         23    2    1    0    0    0  0.46680402789E+01  0.86140131272E+01  0.31102031687E+02  0.92391286483E+02  0.86445483518E+02 0.  0.
         13    1    3    3    0    0  0.38371579596E+01  0.19291764417E+02 -0.26947031456E+02  0.33362398353E+02  0.10566000000E+00 0. -1.
         22    1    1    0    0    0 -0.46680402789E+01 -0.86140131272E+01 -0.31102031687E+02  0.32608713517E+02  0.00000000000E+00 0.  1.
</event>
<event>
 5    1  0.9041381E-005  0.9118800E+02  0.7818608E-02  0.1130116E+00
         25   -1    0    0    0    0  0.00000000000E+00  0.00000000000E+00  0.99999998245E-14  0.12500000000E+03  0.12500000000E+03 0.  0.
        -13    1    3    3    0    0 -0.33892756545E+02 -0.25565575927E+02  0.36075372508E+02  0.55711410719E+02  0.10566000000E+00 0.  1.
         23    2    1    0    0    0 -0.32631401148E+01 -0.27086187027E+02  0.10075785787E+02  0.95916824962E+02  0.91401347039E+02 0.  0.
         13    1    3    3    0    0  0.30629616430E+02 -0.15206110994E+01 -0.25999586721E+02  0.40205414243E+02  0.10566000000E+00 0. -1.
         22    1    1    0    0    0  0.32631401148E+01  0.27086187027E+02 -0.10075785787E+02  0.29083175038E+02  0.00000000000E+00 0.  1.
</event>
<event>
 5    1  0.9041381E-005  0.9118800E+02  0.7818608E-02  0.1130116E+00
         25   -1    0    0    0    0  0.00000000000E+00  0.00000000000E+00  0.99999998245E-14  0.12500000000E+03  0.12500000000E+03 0.  0.
        -13    1    3    3    0    0  0.91519617101E+01 -0.57824969666E+02  0.58705136934E+01  0.58838419549E+02  0.10566000000E+00 0. -1.
         23    2    1    0    0    0  0.11193438091E+02 -0.25520921521E+02 -0.10634350559E+02  0.95172162274E+02  0.90377212662E+02 0.  0.
         13    1    3    3    0    0  0.20414763811E+01  0.32304048145E+02 -0.16504864252E+02  0.36333742725E+02  0.10566000000E+00 0.  1.
         22    1    1    0    0    0 -0.11193438091E+02  0.25520921521E+02  0.10634350559E+02  0.29827837726E+02  0.00000000000E+00 0. -1.
</event>
<event>
 5    1  0.9041381E-005  0.9118800E+02  0.7818608E-02  0.1130116E+00
         25   -1    0    0    0    0  0.00000000000E+00  0.00000000000E+00  0.99999998245E-14  0.12500000000E+03  0.12500000000E+03 0.  0.
        -13    1    3    3    0    0  0.17700450349E+02  0.38330561966E+02 -0.29803044201E+02  0.51679498168E+02  0.10566000000E+00 0. -1.
         23    2    1    0    0    0  0.14053980561E+02 -0.55281606729E+01 -0.24787080783E+02  0.95974592100E+02  0.91480314959E+02 0.  0.
         13    1    3    3    0    0 -0.36464697885E+01 -0.43858722639E+02  0.50159634180E+01  0.44295093932E+02  0.10566000000E+00 0.  1.
         22    1    1    0    0    0 -0.14053980561E+02  0.55281606729E+01  0.24787080783E+02  0.29025407900E+02  0.00000000000E+00 0.  1.
</event>
<event>
 5    1  0.9041381E-005  0.9118800E+02  0.7818608E-02  0.1130116E+00
         25   -1    0    0    0    0  0.00000000000E+00  0.00000000000E+00  0.99999998245E-14  0.12500000000E+03  0.12500000000E+03 0.  0.
        -13    1    3    3    0    0 -0.22558281981E+02  0.17976803686E+02 -0.21256796588E+02  0.35831607861E+02  0.10566000000E+00 0.  1.
         23    2    1    0    0    0 -0.96214526067E+01 -0.14295240707E+02  0.25576645389E+02  0.94160235953E+02  0.88966617268E+02 0.  0.
         13    1    3    3    0    0  0.12936829374E+02 -0.32272044394E+02  0.46833441977E+02  0.58328628091E+02  0.10566000000E+00 0. -1.
         22    1    1    0    0    0  0.96214526067E+01  0.14295240707E+02 -0.25576645389E+02  0.30839764047E+02  0.00000000000E+00 0. -1.
</event>
<event>
 5    1  0.9041381E-005  0.9118800E+02  0.7818608E-02  0.1130116E+00
         25   -1    0    0    0    0  0.00000000000E+00  0.00000000000E+00  0.99999998245E-14  0.12500000000E+03  0.12500000000E+03 0.  0.
        -13    1    3    3    0    0  0.12300475181E+02 -0.55353271267E+01  0.51837212310E+02  0.53563506982E+02  0.10566000000E+00 0.  1.
         23    2    1    0    0    0  0.10513658101E+02  0.20136189512E+02  0.18337533009E+02  0.95806366249E+02  0.91250159245E+02 0.  0.
         13    1    3    3    0    0 -0.17868170801E+01  0.25671516639E+02 -0.33499679301E+02  0.42242859267E+02  0.10566000000E+00 0. -1.
         22    1    1    0    0    0 -0.10513658101E+02 -0.20136189512E+02 -0.18337533009E+02  0.29193633751E+02  0.00000000000E+00 0.  1.
</event>
<event>
 5    1  0.9041381E-005  0.9118800E+02  0.7818608E-02  0.1130116E+00
         25   -1    0    0    0    0  0.00000000000E+00  0.00000000000E+00  0.99999998245E-14  0.12500000000E+03  0.12500000000E+03 0.  0.
        -13    1    3    3    0    0 -0.74270052972E+01 -0.41717523120E+02 -0.41439447068E+02  0.59268466155E+02  0.10566000000E+00 0.  1.
         23    2    1    0    0    0 -0.11471873048E+02 -0.91792304802E+01 -0.25131388226E+02  0.95889025822E+02  0.91363321171E+02 0.  0.
         13    1    3    3    0    0 -0.40448677509E+01  0.32538292640E+02  0.16308058842E+02  0.36620559667E+02  0.10566000000E+00 0. -1.
         22    1    1    0    0    0  0.11471873048E+02  0.91792304802E+01  0.25131388226E+02  0.29110974178E+02  0.00000000000E+00 0. -1.
</event>
<event>
 5    1  0.9041381E-005  0.9118800E+02  0.7818608E-02  0.1130116E+00
         25   -1    0    0    0    0  0.00000000000E+00  0.00000000000E+00  0.99999998245E-14  0.12500000000E+03  0.12500000000E+03 0.  0.
        -13    1    3    3    0    0 -0.28019105697E+01  0.55652225177E+02  0.21975998023E+02  0.59899720560E+02  0.10566000000E+00 0. -1.
         23    2    1    0    0    0  0.11328392854E+02  0.21983041546E+02  0.78066826296E+01  0.99066799388E+02  0.95612236911E+02 0.  0.
         13    1    3    3    0    0  0.14130303424E+02 -0.33669183631E+02 -0.14169315394E+02  0.39167078829E+02  0.10566000000E+00 0.  1.
         22    1    1    0    0    0 -0.11328392854E+02 -0.21983041546E+02 -0.78066826296E+01  0.25933200612E+02  0.00000000000E+00 0. -1.
</event>
<event>
 5    1  0.9041381E-005  0.9118800E+02  0.7818608E-02  0.1130116E+00
         25   -1    0    0    0    0  0.00000000000E+00  0.00000000000E+00  0.99999998245E-14  0.12500000000E+03  0.12500000000E+03 0.  0.
        -13    1    3    3    0    0 -0.90387022780E+00  0.20704882816E+01 -0.37530238126E+02  0.37598322315E+02  0.10566000000E+00 0. -1.
         23    2    1    0    0    0  0.21495079368E+02  0.17968779171E+02  0.12225492307E+02  0.94432400747E+02  0.89348196326E+02 0.  0.
         13    1    3    3    0    0  0.22398949596E+02  0.15898290890E+02  0.49755730433E+02  0.56834078432E+02  0.10566000000E+00 0.  1.
         22    1    1    0    0    0 -0.21495079368E+02 -0.17968779171E+02 -0.12225492307E+02  0.30567599253E+02  0.00000000000E+00 0.  1.
</event>
<event>
 5    1  0.9041381E-005  0.9118800E+02  0.7818608E-02  0.1130116E+00
         25   -1    0    0    0    0  0.00000000000E+00  0.00000000000E+00  0.99999998245E-14  0.12500000000E+03  0.12500000000E+03 0.  0.
        -13    1    3    3    0    0  0.30607455495E+02  0.90287126544E+01  0.49354464743E+02  0.58772513458E+02  0.10566000000E+00 0. -1.
         23    2    1    0    0    0  0.91040050618E+01 -0.10123552962E+02  0.25197344507E+02  0.96359549533E+02  0.92004822609E+02 0.  0.
         13    1    3    3    0    0 -0.21503450433E+02 -0.19152265617E+02 -0.24157120237E+02  0.37587036075E+02  0.10566000000E+00 0.  1.
         22    1    1    0    0    0 -0.91040050618E+01  0.10123552962E+02 -0.25197344507E+02  0.28640450467E+02  0.00000000000E+00 0. -1.
</event>
<event>
 5    1  0.9041381E-005  0.9118800E+02  0.7818608E-02  0.1130116E+00
         25   -1    0    0    0    0  0.00000000000E+00  0.00000000000E+00  0.99999998245E-14  0.12500000000E+03  0.12500000000E+03 0.  0.
        -13    1    3    3    0    0  0.76882689898E+01 -0.21277666869E+02  0.28403962415E+02  0.36313149579E+02  0.10566000000E+00 0. -1.
         23    2    1    0    0    0 -0.21894840252E+02  0.16525299915E+02 -0.78498531580E+01  0.96467741737E+02  0.92151697946E+02 0.  0.
         13    1    3    3    0    0 -0.29583109242E+02  0.37802966784E+02 -0.36253815573E+02  0.60154592158E+02  0.10566000000E+00 0.  1.
         22    1    1    0    0    0  0.21894840252E+02 -0.16525299915E+02  0.78498531580E+01  0.28532258263E+02  0.00000000000E+00 0.  1.
</event>
<event>
 5    1  0.9041381E-005  0.9118800E+02  0.7818608E-02  0.1130116E+00
         25   -1    0    0    0    0  0.00000000000E+00  0.00000000000E+00  0.99999998245E-14  0.12500000000E+03  0.12500000000E+03 0.  0.
        -13    1    3    3    0    0  0.23098873975E+02 -0.29310200584E+02 -0.47713020629E+02  0.60573833779E+02  0.10566000000E+00 0. -1.
         23    2    1    0    0    0  0.37015645583E+00 -0.15130298682E+02 -0.25373572379E+02  0.95455438245E+02  0.90768163809E+02 0.  0.
         13    1    3    3    0    0 -0.22728717519E+02  0.14179901901E+02  0.22339448250E+02  0.34881604466E+02  0.10566000000E+00 0.  1.
         22    1    1    0    0    0 -0.37015645583E+00  0.15130298682E+02  0.25373572379E+02  0.29544561755E+02  0.00000000000E+00 0. -1.
</event>
<event>
 5    1  0.9041381E-005  0.9118800E+02  0.7818608E-02  0.1130116E+00
         25   -1    0    0    0    0  0.00000000000E+00  0.00000000000E+00  0.99999998245E-14  0.12500000000E+03  0.12500000000E+03 0.  0.
        -13    1    3    3    0    0  0.86612706599E+01 -0.28788434944E+02  0.18983597407E+02  0.35555305237E+02  0.10566000000E+00 0.  1.
         23    2    1    0    0    0  0.68889234290E+01  0.23234196654E+02 -0.13839418664E+02  0.97092748807E+02  0.92995630015E+02 0.  0.
         13    1    3    3    0    0 -0.17723472310E+01  0.52022631598E+02 -0.32823016071E+02  0.61537443570E+02  0.10566000000E+00 0. -1.
         22    1    1    0    0    0 -0.68889234290E+01 -0.23234196654E+02  0.13839418664E+02  0.27907251193E+02  0.00000000000E+00 0. -1.
</event>
<event>
 5    1  0.9041381E-005  0.9118800E+02  0.7818608E-02  0.1130116E+00
         25   -1    0    0    0    0  0.00000000000E+00  0.00000000000E+00  0.99999998245E-14  0.12500000000E+03  0.12500000000E+03 0.  0.
        -13    1    3    3    0    0 -0.48749079375E+02 -0.81952556253E+01  0.28584625889E+02  0.57102775378E+02  0.10566000000E+00 0.  1.
         23    2    1    0    0    0 -0.25325611656E+02  0.12219334690E+02  0.42670094339E+01  0.96558725143E+02  0.92275030673E+02 0.  0.
         13    1    3    3    0    0  0.23423467719E+02  0.20414590315E+02 -0.24317616455E+02  0.39455949764E+02  0.10566000000E+00 0. -1.
         22    1    1    0    0    0  0.25325611656E+02 -0.12219334690E+02 -0.42670094339E+01  0.28441274857E+02  0.00000000000E+00 0.  1.
</event>
<event>
 5    1  0.9041381E-005  0.9118800E+02  0.7818608E-02  0.1130116E+00
         25   -1    0    0    0    0  0.00000000000E+00  0.00000000000E+00  0.99999998245E-14  0.12500000000E+03  0.12500000000E+03 0.  0.
        -13    1    3    3    0    0  0.40618861532E+02 -0.13271880428E+02  0.14356336094E+02  0.45079377461E+02  0.10566000000E+00 0.  1.
         23    2    1    0    0    0 -0.54493256588E+01 -0.19077897881E+02 -0.15099417312E+02  0.10006701500E+03  0.96911061034E+02 0.  0.
         13    1    3    3    0    0 -0.46068187190E+02 -0.58060174524E+01 -0.29455753406E+02  0.54987637542E+02  0.10566000000E+00 0. -1.
         22    1    1    0    0    0  0.54493256588E+01  0.19077897881E+02  0.15099417312E+02  0.24932984997E+02  0.00000000000E+00 0. -1.
</event>
<event>
 5    1  0.9041381E-005  0.9118800E+02  0.7818608E-02  0.1130116E+00
         25   -1    0    0    0    0  0.00000000000E+00  0.00000000000E+00  0.99999998245E-14  0.12500000000E+03  0.12500000000E+03 0.  0.
        -13    1    3    3    0    0 -0.36294145443E+02 -0.49241053308E+02  0.10937860139E+02  0.62141727308E+02  0.10566000000E+00 0. -1.
         23    2    1    0    0    0 -0.20509465817E+02 -0.20719778706E+02  0.30006776326E+01  0.95692125905E+02  0.91093531473E+02 0.  0.
         13    1    3    3    0    0  0.15784679626E+02  0.28521274602E+02 -0.79371825064E+01  0.33550398597E+02  0.10566000000E+00 0.  1.
         22    1    1    0    0    0  0.20509465817E+02  0.20719778706E+02 -0.30006776326E+01  0.29307874095E+02  0.00000000000E+00 0. -1.
</event>
<event>
 5    1  0.9041381E-005  0.9118800E+02  0.7818608E-02  0.1130116E+00
         25   -1    0    0    0    0  0.00000000000E+00  0.00000000000E+00  0.99999998245E-14  0.12500000000E+03  0.12500000000E+03 0.  0.
        -13    1    3    3    0    0 -0.14563266276E+02 -0.35748481913E+02 -0.47412193345E+02  0.61138939519E+02  0.10566000000E+00 0. -1.
         23    2    1    0    0    0  0.14442086294E+01 -0.20564668300E+02 -0.20688243052E+02  0.95793926634E+02  0.91233117115E+02 0.  0.
         13    1    3    3    0    0  0.16007474906E+02  0.15183813612E+02  0.26723950293E+02  0.34654987115E+02  0.10566000000E+00 0.  1.
         22    1    1    0    0    0 -0.14442086294E+01  0.20564668300E+02  0.20688243052E+02  0.29206073366E+02  0.00000000000E+00 0. -1.
</event>
<event>
 5    1  0.9041381E-005  0.9118800E+02  0.7818608E-02  0.1130116E+00
         25   -1    0    0    0    0  0.00000000000E+00  0.00000000000E+00  0.99999998245E-14  0.12500000000E+03  0.12500000000E+03 0.  0.
        -13    1    3    3    0    0  0.21769590044E+02 -0.19867994796E+01 -0.18009995463E+02  0.28323727217E+02  0.10566000000E+00 0. -1.
         23    2    1    0    0    0 -0.27969598752E+02 -0.34607663079E+01  0.19576645311E+02  0.90684982888E+02  0.83941918742E+02 0.  0.
         13    1    3    3    0    0 -0.49739188795E+02 -0.14739668282E+01  0.37586640774E+02  0.62361255671E+02  0.10566000000E+00 0.  1.
         22    1    1    0    0    0  0.27969598752E+02  0.34607663079E+01 -0.19576645311E+02  0.34315017112E+02  0.00000000000E+00 0.  1.
</event>
<event>
 5    1  0.9041381E-005  0.9118800E+02  0.7818608E-02  0.1130116E+00
         25   -1    0    0    0    0  0.00000000000E+00  0.00000000000E+00  0.99999998245E-14  0.12500000000E+03  0.12500000000E+03 0.  0.
        -13    1    3    3    0    0  0.20595787814E+02  0.34787858396E+02  0.21586260541E+02  0.45829677891E+02  0.10566000000E+00 0.  1.
         23    2    1    0    0    0  0.50477488541E+01 -0.16015496216E+02  0.19867216252E+02  0.98986884671E+02  0.95507702138E+02 0.  0.
         13    1    3    3    0    0 -0.15548038960E+02 -0.50803354612E+02 -0.17190442897E+01  0.53157206780E+02  0.10566000000E+00 0. -1.
         22    1    1    0    0    0 -0.50477488541E+01  0.16015496216E+02 -0.19867216252E+02  0.26013115329E+02  0.00000000000E+00 0. -1.
</event>
<event>
 5    1  0.9041381E-005  0.9118800E+02  0.7818608E-02  0.1130116E+00
         25   -1    0    0    0    0  0.00000000000E+00  0.00000000000E+00  0.99999998245E-14  0.12500000000E+03  0.12500000000E+03 0.  0.
        -13    1    3    3    0    0 -0.12299119004E+02  0.14203595839E+02 -0.32693975452E+02  0.37708323456E+02  0.10566000000E+00 0.  1.
         23    2    1    0    0    0 -0.54634310724E+01  0.11706001236E+02  0.25531215574E+02  0.96386672464E+02  0.92041665109E+02 0.  0.
         13    1    3    3    0    0  0.68356879313E+01 -0.24975946027E+01  0.58225191025E+02  0.58678349008E+02  0.10566000000E+00 0. -1.
         22    1    1    0    0    0  0.54634310724E+01 -0.11706001236E+02 -0.25531215574E+02  0.28613327536E+02  0.00000000000E+00 0. -1.
</event>
<event>
 5    1  0.9041381E-005  0.9118800E+02  0.7818608E-02  0.1130116E+00
         25   -1    0    0    0    0  0.00000000000E+00  0.00000000000E+00  0.99999998245E-14  0.12500000000E+03  0.12500000000E+03 0.  0.
        -13    1    3    3    0    0  0.10021343789E+02 -0.12773027973E+02  0.56356153066E+02  0.58648143427E+02  0.10566000000E+00 0. -1.
         23    2    1    0    0    0  0.13949062423E+02  0.64695136438E+01  0.24125256435E+02  0.96391278475E+02  0.92047920230E+02 0.  0.
         13    1    3    3    0    0  0.39277186343E+01  0.19242541617E+02 -0.32230896632E+02  0.37743135048E+02  0.10566000000E+00 0.  1.
         22    1    1    0    0    0 -0.13949062423E+02 -0.64695136438E+01 -0.24125256435E+02  0.28608721525E+02  0.00000000000E+00 0. -1.
</event>
<event>
 5    1  0.9041381E-005  0.9118800E+02  0.7818608E-02  0.1130116E+00
         25   -1    0    0    0    0  0.00000000000E+00  0.00000000000E+00  0.99999998245E-14  0.12500000000E+03  0.12500000000E+03 0.  0.
        -13    1    3    3    0    0  0.31280092253E+02 -0.38053038479E+02  0.23842490275E+02  0.54726167556E+02  0.10566000000E+00 0.  1.
         23    2    1    0    0    0 -0.23724073784E+01 -0.15169523503E+02  0.25252081102E+02  0.95446483119E+02  0.90755830555E+02 0.  0.
         13    1    3    3    0    0 -0.33652499631E+02  0.22883514977E+02  0.14095908274E+01  0.40720315562E+02  0.10566000000E+00 0. -1.
         22    1    1    0    0    0  0.23724073784E+01  0.15169523503E+02 -0.25252081102E+02  0.29553516881E+02  0.00000000000E+00 0.  1.
</event>
<event>
 5    1  0.9041381E-005  0.9118800E+02  0.7818608E-02  0.1130116E+00
         25   -1    0    0    0    0  0.00000000000E+00  0.00000000000E+00  0.99999998245E-14  0.12500000000E+03  0.12500000000E+03 0.  0.
        -13    1    3    3    0    0  0.27644369993E+02  0.14069798092E+02 -0.38663743001E+02  0.49568806699E+02  0.10566000000E+00 0. -1.
         23    2    1    0    0    0  0.30336973724E+02 -0.95962837686E+00  0.35327495135E+01  0.94442952033E+02  0.89362956577E+02 0.  0.
         13    1    3    3    0    0  0.26926037310E+01 -0.15029426469E+02  0.42196492515E+02  0.44874145334E+02  0.10566000000E+00 0.  1.
         22    1    1    0    0    0 -0.30336973724E+02  0.95962837686E+00 -0.35327495135E+01  0.30557047967E+02  0.00000000000E+00 0. -1.
</event>
<event>
 5    1  0.9041381E-005  0.9118800E+02  0.7818608E-02  0.1130116E+00
         25   -1    0    0    0    0  0.00000000000E+00  0.00000000000E+00  0.99999998245E-14  0.12500000000E+03  0.12500000000E+03 0.  0.
        -13    1    3    3    0    0 -0.45456512460E+02 -0.17892522100E+02  0.32111298739E+02  0.58460102145E+02  0.10566000000E+00 0. -1.
         23    2    1    0    0    0 -0.29711972308E+02 -0.11237330563E+02  0.18935533055E+01  0.93177611015E+02  0.87575126341E+02 0.  0.
         13    1    3    3    0    0  0.15744540152E+02  0.66551915372E+01 -0.30217745433E+02  0.34717508869E+02  0.10566000000E+00 0.  1.
         22    1    1    0    0    0  0.29711972308E+02  0.11237330563E+02 -0.18935533055E+01  0.31822388985E+02  0.00000000000E+00 0. -1.
</event>
<event>
 5    1  0.9041381E-005  0.9118800E+02  0.7818608E-02  0.1130116E+00
         25   -1    0    0    0    0  0.00000000000E+00  0.00000000000E+00  0.99999998245E-14  0.12500000000E+03  0.12500000000E+03 0.  0.
        -13    1    3    3    0    0 -0.27581480044E+02 -0.11021937852E+02 -0.34043500301E+02  0.45179555467E+02  0.10566000000E+00 0.  1.
         23    2    1    0    0    0  0.17320371884E+02 -0.19943657033E+02 -0.12739781947E+02  0.95673445785E+02  0.91067894707E+02 0.  0.
         13    1    3    3    0    0  0.44901851928E+02 -0.89217191810E+01  0.21303718354E+02  0.50493890318E+02  0.10566000000E+00 0. -1.
         22    1    1    0    0    0 -0.17320371884E+02  0.19943657033E+02  0.12739781947E+02  0.29326554215E+02  0.00000000000E+00 0. -1.
</event>
<event>
 5    1  0.9041381E-005  0.9118800E+02  0.7818608E-02  0.1130116E+00
         25   -1    0    0    0    0  0.00000000000E+00  0.00000000000E+00  0.99999998245E-14  0.12500000000E+03  0.12500000000E+03 0.  0.
        -13    1    3    3    0    0 -0.26998326963E+02 -0.26357992887E+02  0.12665712845E+02  0.39800563988E+02  0.10566000000E+00 0. -1.
         23    2    1    0    0    0  0.10245328604E+02  0.18881093915E+02  0.15568514269E+02  0.98469996189E+02  0.94828788073E+02 0.  0.
         13    1    3    3    0    0  0.37243655567E+02  0.45239086802E+02  0.29028014243E+01  0.58669432201E+02  0.10566000000E+00 0.  1.
         22    1    1    0    0    0 -0.10245328604E+02 -0.18881093915E+02 -0.15568514269E+02  0.26530003811E+02  0.00000000000E+00 0.  1.
</event>
<event>
 5    1  0.9041381E-005  0.9118800E+02  0.7818608E-02  0.1130116E+00
         25   -1    0    0    0    0  0.00000000000E+00  0.00000000000E+00  0.99999998245E-14  0.12500000000E+03  0.12500000000E+03 0.  0.
        -13    1    3    3    0    0  0.30719666250E+02 -0.49514237139E+01 -0.19336942327E+02  0.36635269808E+02  0.10566000000E+00 0. -1.
         23    2    1    0    0    0  0.89263664465E+01  0.87776206789E+01  0.30111335170E+02  0.92389891928E+02  0.86443466972E+02 0.  0.
         13    1    3    3    0    0 -0.21793299804E+02  0.13729044393E+02  0.49448277497E+02  0.55754622120E+02  0.10566000000E+00 0.  1.
         22    1    1    0    0    0 -0.89263664465E+01 -0.87776206789E+01 -0.30111335170E+02  0.32610108072E+02  0.00000000000E+00 0.  1.
</event>
<event>
 5    1  0.9041381E-005  0.9118800E+02  0.7818608E-02  0.1130116E+00
         25   -1    0    0    0    0  0.00000000000E+00  0.00000000000E+00  0.99999998245E-14  0.12500000000E+03  0.12500000000E+03 0.  0.
        -13    1    3    3    0    0  0.29748268751E+02  0.29911744535E+02  0.30854430430E+02  0.52265466572E+02  0.10566000000E+00 0.  1.
         23    2    1    0    0    0  0.28867190744E+02  0.13826362354E+01 -0.22935163731E+01  0.96008853045E+02  0.91527117628E+02 0.  0.
         13    1    3    3    0    0 -0.88107800663E+00 -0.28529108300E+02 -0.33147946803E+02  0.43743386473E+02  0.10566000000E+00 0. -1.
         22    1    1    0    0    0 -0.28867190744E+02 -0.13826362354E+01  0.22935163731E+01  0.28991146955E+02  0.00000000000E+00 0.  1.
</event>
<event>
 4    1  0.9041381E-005  0.9118800E+02  0.7818608E-02  0.1130116E+00
         25   -1    0    0    0    0  0.00000000000E+00  0.00000000000E+00  0.99999998245E-14  0.12500000000E+03  0.12500000000E+03 0.  0.
        -13    1    1    0    0    0  0.13639688196E+02 -0.49381510447E+01 -0.28031341334E+01  0.14774814883E+02  0.10566000000E+00 0.  1.
         13    1    1    0    0    0 -0.60568917631E+01  0.55174919272E+02  0.15937199073E+02  0.57749139672E+02  0.10566000000E+00 0. -1.
         22    1    1    0    0    0 -0.75827964333E+01 -0.50236768228E+02 -0.13134064939E+02  0.52476045445E+02  0.00000000000E+00 0. -1.
</event>
<event>
 5    1  0.9041381E-005  0.9118800E+02  0.7818608E-02  0.1130116E+00
         25   -1    0    0    0    0  0.00000000000E+00  0.00000000000E+00  0.99999998245E-14  0.12500000000E+03  0.12500000000E+03 0.  0.
        -13    1    3    3    0    0 -0.39530661518E+02 -0.45082942737E+02 -0.15655432686E+02  0.61969739894E+02  0.10566000000E+00 0.  1.
         23    2    1    0    0    0 -0.18340593951E+02 -0.17182538428E+02 -0.11860774960E+02  0.97209803960E+02  0.93152836726E+02 0.  0.
         13    1    3    3    0    0  0.21190067567E+02  0.27900404309E+02  0.37946577258E+01  0.35240064067E+02  0.10566000000E+00 0. -1.
         22    1    1    0    0    0  0.18340593951E+02  0.17182538428E+02  0.11860774960E+02  0.27790196040E+02  0.00000000000E+00 0.  1.
</event>
<event>
 5    1  0.9041381E-005  0.9118800E+02  0.7818608E-02  0.1130116E+00
         25   -1    0    0    0    0  0.00000000000E+00  0.00000000000E+00  0.99999998245E-14  0.12500000000E+03  0.12500000000E+03 0.  0.
        -13    1    3    3    0    0 -0.35194379429E+02  0.11222352807E+00  0.28438280824E+02  0.45248247677E+02  0.10566000000E+00 0.  1.
         23    2    1    0    0    0 -0.33688095672E+01 -0.29162873221E+02  0.28237679983E+01  0.95507700698E+02  0.90840107742E+02 0.  0.
         13    1    3    3    0    0  0.31825569862E+02 -0.29275096749E+02 -0.25614512826E+02  0.50259453022E+02  0.10566000000E+00 0. -1.
         22    1    1    0    0    0  0.33688095672E+01  0.29162873221E+02 -0.28237679983E+01  0.29492299302E+02  0.00000000000E+00 0.  1.
</event>
<event>
 5    1  0.9041381E-005  0.9118800E+02  0.7818608E-02  0.1130116E+00
         25   -1    0    0    0    0  0.00000000000E+00  0.00000000000E+00  0.99999998245E-14  0.12500000000E+03  0.12500000000E+03 0.  0.
        -13    1    3    3    0    0 -0.20033247315E+02 -0.26733607985E+02  0.11411011108E+02  0.35302112294E+02  0.10566000000E+00 0. -1.
         23    2    1    0    0    0 -0.32328468962E+01  0.24671187792E+02 -0.15475972534E+02  0.95697704323E+02  0.91101185945E+02 0.  0.
         13    1    3    3    0    0  0.16800400419E+02  0.51404795777E+02 -0.26886983641E+02  0.60395592028E+02  0.10566000000E+00 0.  1.
         22    1    1    0    0    0  0.32328468962E+01 -0.24671187792E+02  0.15475972534E+02  0.29302295677E+02  0.00000000000E+00 0.  1.
</event>
<event>
 5    1  0.9041381E-005  0.9118800E+02  0.7818608E-02  0.1130116E+00
         25   -1    0    0    0    0  0.00000000000E+00  0.00000000000E+00  0.99999998245E-14  0.12500000000E+03  0.12500000000E+03 0.  0.
        -13    1    3    3    0    0 -0.28043784344E+02  0.11471537629E+02 -0.23883240141E+02  0.38580699055E+02  0.10566000000E+00 0.  1.
         23    2    1    0    0    0 -0.12941350946E+01  0.15417576309E+02  0.25668158614E+02  0.95029500980E+02  0.90179683106E+02 0.  0.
         13    1    3    3    0    0  0.26749649249E+02  0.39460386795E+01  0.49551398755E+02  0.56448801925E+02  0.10566000000E+00 0. -1.
         22    1    1    0    0    0  0.12941350946E+01 -0.15417576309E+02 -0.25668158614E+02  0.29970499020E+02  0.00000000000E+00 0. -1.
</event>
<event>
 5    1  0.9041381E-005  0.9118800E+02  0.7818608E-02  0.1130116E+00
         25   -1    0    0    0    0  0.00000000000E+00  0.00000000000E+00  0.99999998245E-14  0.12500000000E+03  0.12500000000E+03 0.  0.
        -13    1    3    3    0    0 -0.15191051732E+02 -0.56044378026E+02 -0.26880733092E+01  0.58128970946E+02  0.10566000000E+00 0.  1.
         23    2    1    0    0    0  0.33426333254E+01 -0.25331736027E+02  0.11849858638E+02  0.96834609936E+02  0.92648003131E+02 0.  0.
         13    1    3    3    0    0  0.18533685058E+02  0.30712641999E+02  0.14537931947E+02  0.38705638991E+02  0.10566000000E+00 0. -1.
         22    1    1    0    0    0 -0.33426333254E+01  0.25331736027E+02 -0.11849858638E+02  0.28165390064E+02  0.00000000000E+00 0.  1.
</event>
<event>
 5    1  0.9041381E-005  0.9118800E+02  0.7818608E-02  0.1130116E+00
         25   -1    0    0    0    0  0.00000000000E+00  0.00000000000E+00  0.99999998245E-14  0.12500000000E+03  0.12500000000E+03 0.  0.
        -13    1    3    3    0    0 -0.49414849074E+02 -0.63614866564E+01 -0.10474929227E+02  0.50911993948E+02  0.10566000000E+00 0.  1.
         23    2    1    0    0    0 -0.20409243925E+02 -0.67669444541E+01  0.21849942725E+02  0.94344677918E+02  0.89225385847E+02 0.  0.
         13    1    3    3    0    0  0.29005605149E+02 -0.40545779769E+00  0.32324871952E+02  0.43432683970E+02  0.10566000000E+00 0. -1.
         22    1    1    0    0    0  0.20409243925E+02  0.67669444541E+01 -0.21849942725E+02  0.30655322082E+02  0.00000000000E+00 0.  1.
</event>
<event>
 5    1  0.9041381E-005  0.9118800E+02  0.7818608E-02  0.1130116E+00
         25   -1    0    0    0    0  0.00000000000E+00  0.00000000000E+00  0.99999998245E-14  0.12500000000E+03  0.12500000000E+03 0.  0.
        -13    1    3    3    0    0 -0.38404400843E+02  0.14828216740E+02  0.20063156452E+02  0.45796456486E+02  0.10566000000E+00 0.  1.
         23    2    1    0    0    0  0.46159082930E+01 -0.46609812224E+01  0.30195475814E+02  0.94100192315E+02  0.88882214637E+02 0.  0.
         13    1    3    3    0    0  0.43020309136E+02 -0.19489197963E+02  0.10132319362E+02  0.48303735829E+02  0.10566000000E+00 0. -1.
         22    1    1    0    0    0 -0.46159082930E+01  0.46609812224E+01 -0.30195475814E+02  0.30899807685E+02  0.00000000000E+00 0.  1.
</event>
<event>
 5    1  0.9041381E-005  0.9118800E+02  0.7818608E-02  0.1130116E+00
         25   -1    0    0    0    0  0.00000000000E+00  0.00000000000E+00  0.99999998245E-14  0.12500000000E+03  0.12500000000E+03 0.  0.
        -13    1    3    3    0    0 -0.99558224641E+01  0.34897075290E+02 -0.81263015671E+01  0.37188334272E+02  0.10566000000E+00 0.  1.
         23    2    1    0    0    0 -0.21750734421E+02 -0.17028927710E+02  0.12993755248E+02  0.94472692516E+02  0.89404547586E+02 0.  0.
         13    1    3    3    0    0 -0.11794911956E+02 -0.51926002999E+02  0.21120056815E+02  0.57284358244E+02  0.10566000000E+00 0. -1.
         22    1    1    0    0    0  0.21750734421E+02  0.17028927710E+02 -0.12993755248E+02  0.30527307484E+02  0.00000000000E+00 0. -1.
</event>
<event>
 5    1  0.9041381E-005  0.9118800E+02  0.7818608E-02  0.1130116E+00
         25   -1    0    0    0    0  0.00000000000E+00  0.00000000000E+00  0.99999998245E-14  0.12500000000E+03  0.12500000000E+03 0.  0.
        -13    1    3    3    0    0  0.27623926355E+02  0.12493578367E+02  0.23877013650E+02  0.38591368887E+02  0.10566000000E+00 0. -1.
         23    2    1    0    0    0 -0.20442757869E+02  0.22369235812E+02 -0.30137239288E+01  0.94547223574E+02  0.89508691721E+02 0.  0.
         13    1    3    3    0    0 -0.48066684224E+02  0.98756574448E+01 -0.26890737579E+02  0.55955854688E+02  0.10566000000E+00 0.  1.
         22    1    1    0    0    0  0.20442757869E+02 -0.22369235812E+02  0.30137239288E+01  0.30452776426E+02  0.00000000000E+00 0. -1.
</event>
<event>
 5    1  0.9041381E-005  0.9118800E+02  0.7818608E-02  0.1130116E+00
         25   -1    0    0    0    0  0.00000000000E+00  0.00000000000E+00  0.99999998245E-14  0.12500000000E+03  0.12500000000E+03 0.  0.
        -13    1    3    3    0    0 -0.76739530532E+01  0.49458085767E+02  0.13875775625E+02  0.51937848592E+02  0.10566000000E+00 0.  1.
         23    2    1    0    0    0  0.21066585338E+02  0.16976079741E+02  0.12144123783E+02  0.95344173530E+02  0.90614807744E+02 0.  0.
         13    1    3    3    0    0  0.28740538391E+02 -0.32482006026E+02 -0.17316518424E+01  0.43406324938E+02  0.10566000000E+00 0. -1.
         22    1    1    0    0    0 -0.21066585338E+02 -0.16976079741E+02 -0.12144123783E+02  0.29655826470E+02  0.00000000000E+00 0.  1.
</event>
<event>
 5    1  0.9041381E-005  0.9118800E+02  0.7818608E-02  0.1130116E+00
         25   -1    0    0    0    0  0.00000000000E+00  0.00000000000E+00  0.99999998245E-14  0.12500000000E+03  0.12500000000E+03 0.  0.
        -13    1    3    3    0    0 -0.40569136572E+02 -0.15368655641E+02 -0.39759201725E+02  0.58846033887E+02  0.10566000000E+00 0.  1.
         23    2    1    0    0    0 -0.26316156930E+02 -0.11811577484E+02 -0.61772172244E+01  0.95500652705E+02  0.90830408874E+02 0.  0.
         13    1    3    3    0    0  0.14252979642E+02  0.35570781569E+01  0.33581984500E+02  0.36654618818E+02  0.10566000000E+00 0. -1.
         22    1    1    0    0    0  0.26316156930E+02  0.11811577484E+02  0.61772172244E+01  0.29499347295E+02  0.00000000000E+00 0.  1.
</event>
<event>
 5    1  0.9041381E-005  0.9118800E+02  0.7818608E-02  0.1130116E+00
         25   -1    0    0    0    0  0.00000000000E+00  0.00000000000E+00  0.99999998245E-14  0.12500000000E+03  0.12500000000E+03 0.  0.
        -13    1    3    3    0    0 -0.25740524006E+01  0.17896744531E+02 -0.28870408607E+02  0.34065097501E+02  0.10566000000E+00 0. -1.
         23    2    1    0    0    0  0.16187154092E+02 -0.18544658918E+02  0.16621484223E+02  0.95298113364E+02  0.90551247043E+02 0.  0.
         13    1    3    3    0    0  0.18761206492E+02 -0.36441403449E+02  0.45491892830E+02  0.61233015863E+02  0.10566000000E+00 0.  1.
         22    1    1    0    0    0 -0.16187154092E+02  0.18544658918E+02 -0.16621484223E+02  0.29701886636E+02  0.00000000000E+00 0.  1.
</event>
<event>
 5    1  0.9041381E-005  0.9118800E+02  0.7818608E-02  0.1130116E+00
         25   -1    0    0    0    0  0.00000000000E+00  0.00000000000E+00  0.99999998245E-14  0.12500000000E+03  0.12500000000E+03 0.  0.
        -13    1    3    3    0    0 -0.38570167395E+02  0.11348201316E+02 -0.38305755801E+01  0.40387175679E+02  0.10566000000E+00 0. -1.
         23    2    1    0    0    0 -0.24435055787E+00 -0.25975176654E+02 -0.14951994149E+02  0.95027818925E+02  0.90177351542E+02 0.  0.
         13    1    3    3    0    0  0.38325816837E+02 -0.37323377970E+02 -0.11121418569E+02  0.54640643246E+02  0.10566000000E+00 0.  1.
         22    1    1    0    0    0  0.24435055787E+00  0.25975176654E+02  0.14951994149E+02  0.29972181075E+02  0.00000000000E+00 0.  1.
</event>
<event>
 5    1  0.9041381E-005  0.9118800E+02  0.7818608E-02  0.1130116E+00
         25   -1    0    0    0    0  0.00000000000E+00  0.00000000000E+00  0.99999998245E-14  0.12500000000E+03  0.12500000000E+03 0.  0.
        -13    1    3    3    0    0 -0.16775245642E+02  0.25666812247E+02 -0.36706778739E+02  0.47828787218E+02  0.10566000000E+00 0. -1.
         23    2    1    0    0    0  0.22523986448E+02  0.47875576387E+01 -0.16309041584E+02  0.96782354616E+02  0.92577473793E+02 0.  0.
         13    1    3    3    0    0  0.39299232090E+02 -0.20879254609E+02  0.20397737156E+02  0.48953567398E+02  0.10566000000E+00 0.  1.
         22    1    1    0    0    0 -0.22523986448E+02 -0.47875576387E+01  0.16309041584E+02  0.28217645384E+02  0.00000000000E+00 0. -1.
</event>
<event>
 5    1  0.9041381E-005  0.9118800E+02  0.7818608E-02  0.1130116E+00
         25   -1    0    0    0    0  0.00000000000E+00  0.00000000000E+00  0.99999998245E-14  0.12500000000E+03  0.12500000000E+03 0.  0.
        -13    1    3    3    0    0 -0.33609048125E+02 -0.85125377992E+01  0.17998446541E+02  0.39063879193E+02  0.10566000000E+00 0. -1.
         23    2    1    0    0    0  0.14991504471E+02  0.15082623876E+02  0.23425928944E+02  0.93361338584E+02  0.87836977669E+02 0.  0.
         13    1    3    3    0    0  0.48600552596E+02  0.23595161675E+02  0.54274824029E+01  0.54297459391E+02  0.10566000000E+00 0.  1.
         22    1    1    0    0    0 -0.14991504471E+02 -0.15082623876E+02 -0.23425928944E+02  0.31638661416E+02  0.00000000000E+00 0.  1.
</event>
<event>
 5    1  0.9041381E-005  0.9118800E+02  0.7818608E-02  0.1130116E+00
         25   -1    0    0    0    0  0.00000000000E+00  0.00000000000E+00  0.99999998245E-14  0.12500000000E+03  0.12500000000E+03 0.  0.
        -13    1    3    3    0    0 -0.24130178430E+02  0.45887835312E+02  0.71615510020E+01  0.52337920454E+02  0.10566000000E+00 0.  1.
         23    2    1    0    0    0 -0.14056943018E+02  0.16674652282E+02 -0.21420334195E+02  0.94430858815E+02  0.89346039105E+02 0.  0.
         13    1    3    3    0    0  0.10073235412E+02 -0.29213183030E+02 -0.28581885197E+02  0.42092938361E+02  0.10566000000E+00 0. -1.
         22    1    1    0    0    0  0.14056943018E+02 -0.16674652282E+02  0.21420334195E+02  0.30569141185E+02  0.00000000000E+00 0. -1.
</event>
<event>
 5    1  0.9041381E-005  0.9118800E+02  0.7818608E-02  0.1130116E+00
         25   -1    0    0    0    0  0.00000000000E+00  0.00000000000E+00  0.99999998245E-14  0.12500000000E+03  0.12500000000E+03 0.  0.
        -13    1    3    3    0    0  0.73543599751E+01 -0.59180354488E+02 -0.86546504172E+01  0.60260394173E+02  0.10566000000E+00 0. -1.
         23    2    1    0    0    0  0.10386931322E+02 -0.26589934912E+02  0.55120295745E+01  0.95926034826E+02  0.91413941532E+02 0.  0.
         13    1    3    3    0    0  0.30325713470E+01  0.32590419576E+02  0.14166679992E+02  0.35665640653E+02  0.10566000000E+00 0.  1.
         22    1    1    0    0    0 -0.10386931322E+02  0.26589934912E+02 -0.55120295745E+01  0.29073965174E+02  0.00000000000E+00 0. -1.
</event>
<event>
 5    1  0.9041381E-005  0.9118800E+02  0.7818608E-02  0.1130116E+00
         25   -1    0    0    0    0  0.00000000000E+00  0.00000000000E+00  0.99999998245E-14  0.12500000000E+03  0.12500000000E+03 0.  0.
        -13    1    3    3    0    0 -0.27206872479E+02  0.34524518523E+02 -0.70861947101E+01  0.44523944219E+02  0.10566000000E+00 0.  1.
         23    2    1    0    0    0 -0.22207977291E+02 -0.10823175402E+02  0.15910821000E+02  0.95614806347E+02  0.90987370479E+02 0.  0.
         13    1    3    3    0    0  0.49988951880E+01 -0.45347693924E+02  0.22997015710E+02  0.51090862128E+02  0.10566000000E+00 0. -1.
         22    1    1    0    0    0  0.22207977291E+02  0.10823175402E+02 -0.15910821000E+02  0.29385193653E+02  0.00000000000E+00 0. -1.
</event>
<event>
 5    1  0.9041381E-005  0.9118800E+02  0.7818608E-02  0.1130116E+00
         25   -1    0    0    0    0  0.00000000000E+00  0.00000000000E+00  0.99999998245E-14  0.12500000000E+03  0.12500000000E+03 0.  0.
        -13    1    3    3    0    0 -0.18570602423E+02  0.32896311847E+02 -0.43643214694E+02  0.57721538098E+02  0.10566000000E+00 0. -1.
         23    2    1    0    0    0  0.13433179106E+01  0.47238058698E+01 -0.29640914735E+02  0.94954989245E+02  0.90076341574E+02 0.  0.
         13    1    3    3    0    0  0.19913920334E+02 -0.28172505978E+02  0.14002299959E+02  0.37233451147E+02  0.10566000000E+00 0.  1.
         22    1    1    0    0    0 -0.13433179106E+01 -0.47238058698E+01  0.29640914735E+02  0.30045010755E+02  0.00000000000E+00 0. -1.
</event>
<event>
 5    1  0.9041381E-005  0.9118800E+02  0.7818608E-02  0.1130116E+00
         25   -1    0    0    0    0  0.00000000000E+00  0.00000000000E+00  0.99999998245E-14  0.12500000000E+03  0.12500000000E+03 0.  0.
        -13    1    3    3    0    0 -0.38956938153E+02 -0.13214806280E+02  0.11552048823E+02  0.42728621921E+02  0.10566000000E+00 0.  1.
         23    2    1    0    0    0  0.90963325278E+01 -0.28478105586E+02 -0.23000613468E+01  0.95016070214E+02  0.90161064510E+02 0.  0.
         13    1    3    3    0    0  0.48053270680E+02 -0.15263299306E+02 -0.13852110170E+02  0.52287448293E+02  0.10566000000E+00 0. -1.
         22    1    1    0    0    0 -0.90963325278E+01  0.28478105586E+02  0.23000613468E+01  0.29983929786E+02  0.00000000000E+00 0.  1.
</event>
<event>
 5    1  0.9041381E-005  0.9118800E+02  0.7818608E-02  0.1130116E+00
         25   -1    0    0    0    0  0.00000000000E+00  0.00000000000E+00  0.99999998245E-14  0.12500000000E+03  0.12500000000E+03 0.  0.
        -13    1    3    3    0    0  0.16942014027E+02  0.24486803622E+02 -0.35819749274E+02  0.46580049302E+02  0.10566000000E+00 0.  1.
         23    2    1    0    0    0  0.18914316414E+02 -0.18494702692E+02 -0.10259693977E+02  0.96626302434E+02  0.92366528615E+02 0.  0.
         13    1    3    3    0    0  0.19723023874E+01 -0.42981506313E+02  0.25560055297E+02  0.50046253131E+02  0.10566000000E+00 0. -1.
         22    1    1    0    0    0 -0.18914316414E+02  0.18494702692E+02  0.10259693977E+02  0.28373697566E+02  0.00000000000E+00 0. -1.
</event>
<event>
 5    1  0.9041381E-005  0.9118800E+02  0.7818608E-02  0.1130116E+00
         25   -1    0    0    0    0  0.00000000000E+00  0.00000000000E+00  0.99999998245E-14  0.12500000000E+03  0.12500000000E+03 0.  0.
        -13    1    3    3    0    0 -0.25221914014E+02 -0.82108867255E+01  0.35776802698E+02  0.44537112419E+02  0.10566000000E+00 0.  1.
         23    2    1    0    0    0  0.21997413941E+02  0.48868459877E+00  0.20510971310E+02  0.94919691211E+02  0.90027344750E+02 0.  0.
         13    1    3    3    0    0  0.47219327955E+02  0.86995713242E+01 -0.15265831388E+02  0.50382578792E+02  0.10566000000E+00 0. -1.
         22    1    1    0    0    0 -0.21997413941E+02 -0.48868459877E+00 -0.20510971310E+02  0.30080308789E+02  0.00000000000E+00 0. -1.
</event>
<event>
 5    1  0.9041381E-005  0.9118800E+02  0.7818608E-02  0.1130116E+00
         25   -1    0    0    0    0  0.00000000000E+00  0.00000000000E+00  0.99999998245E-14  0.12500000000E+03  0.12500000000E+03 0.  0.
        -13    1    3    3    0    0 -0.16655480390E+02 -0.27578942833E+02 -0.49421455207E+02  0.58995716062E+02  0.10566000000E+00 0.  1.
         23    2    1    0    0    0 -0.91029379970E+01  0.34238742445E+01 -0.21523830658E+02  0.10138090431E+03  0.98591206897E+02 0.  0.
         13    1    3    3    0    0  0.75525423930E+01  0.31002817077E+02  0.27897624549E+02  0.42385188248E+02  0.10566000000E+00 0. -1.
         22    1    1    0    0    0  0.91029379970E+01 -0.34238742445E+01  0.21523830658E+02  0.23619095690E+02  0.00000000000E+00 0.  1.
</event>
<event>
 5    1  0.9041381E-005  0.9118800E+02  0.7818608E-02  0.1130116E+00
         25   -1    0    0    0    0  0.00000000000E+00  0.00000000000E+00  0.99999998245E-14  0.12500000000E+03  0.12500000000E+03 0.  0.
        -13    1    3    3    0    0 -0.24027002417E+02  0.54172941781E+02 -0.55955375319E+01  0.59525840361E+02  0.10566000000E+00 0. -1.
         23    2    1    0    0    0  0.42697858324E+00  0.25266697427E+02 -0.10362841115E+02  0.97687424407E+02  0.93791556665E+02 0.  0.
         13    1    3    3    0    0  0.24453981000E+02 -0.28906244354E+02 -0.47673035827E+01  0.38161584046E+02  0.10566000000E+00 0.  1.
         22    1    1    0    0    0 -0.42697858324E+00 -0.25266697427E+02  0.10362841115E+02  0.27312575593E+02  0.00000000000E+00 0. -1.
</event>
<event>
 5    1  0.9041381E-005  0.9118800E+02  0.7818608E-02  0.1130116E+00
         25   -1    0    0    0    0  0.00000000000E+00  0.00000000000E+00  0.99999998245E-14  0.12500000000E+03  0.12500000000E+03 0.  0.
        -13    1    3    3    0    0 -0.27230333819E+02  0.23505831634E+02  0.29830291617E+02  0.46731923379E+02  0.10566000000E+00 0.  1.
         23    2    1    0    0    0 -0.71642873773E+01  0.42605470676E+02  0.25670292967E+02  0.74745476958E+02  0.55329641600E+02 0.  0.
         13    1    3    3    0    0  0.20066046442E+02  0.19099639042E+02 -0.41599986509E+01  0.28013553579E+02  0.10566000000E+00 0. -1.
         22    1    1    0    0    0  0.71642873773E+01 -0.42605470676E+02 -0.25670292967E+02  0.50254523042E+02  0.00000000000E+00 0. -1.
</event>
<event>
 5    1  0.9041381E-005  0.9118800E+02  0.7818608E-02  0.1130116E+00
         25   -1    0    0    0    0  0.00000000000E+00  0.00000000000E+00  0.99999998245E-14  0.12500000000E+03  0.12500000000E+03 0.  0.
        -13    1    3    3    0    0  0.12984913864E+01 -0.65458370887E+01 -0.35531395813E+02  0.36152805085E+02  0.10566000000E+00 0.  1.
         23    2    1    0    0    0 -0.12349638260E+02  0.73242550806E+00  0.24182069660E+02  0.97837111616E+02  0.93990839469E+02 0.  0.
         13    1    3    3    0    0 -0.13648129647E+02  0.72782625968E+01  0.59713465474E+02  0.61684306531E+02  0.10566000000E+00 0. -1.
         22    1    1    0    0    0  0.12349638260E+02 -0.73242550806E+00 -0.24182069660E+02  0.27162888384E+02  0.00000000000E+00 0. -1.
</event>
<event>
 5    1  0.9041381E-005  0.9118800E+02  0.7818608E-02  0.1130116E+00
         25   -1    0    0    0    0  0.00000000000E+00  0.00000000000E+00  0.99999998245E-14  0.12500000000E+03  0.12500000000E+03 0.  0.
        -13    1    3    3    0    0  0.49317077094E+02 -0.20337733369E+02  0.31614739813E+02  0.62010486445E+02  0.10566000000E+00 0. -1.
         23    2    1    0    0    0  0.11388533356E+02 -0.67681867565E+01  0.13184611788E+02  0.10630933302E+03  0.10465339582E+03 0.  0.
         13    1    3    3    0    0 -0.37928543737E+02  0.13569546612E+02 -0.18430128024E+02  0.44298846580E+02  0.10566000000E+00 0.  1.
         22    1    1    0    0    0 -0.11388533356E+02  0.67681867565E+01 -0.13184611788E+02  0.18690666975E+02  0.00000000000E+00 0. -1.
</event>
<event>
 5    1  0.9041381E-005  0.9118800E+02  0.7818608E-02  0.1130116E+00
         25   -1    0    0    0    0  0.00000000000E+00  0.00000000000E+00  0.99999998245E-14  0.12500000000E+03  0.12500000000E+03 0.  0.
        -13    1    3    3    0    0 -0.47335659310E+02  0.13778017816E+02  0.25660795229E+02  0.55578646916E+02  0.10566000000E+00 0.  1.
         23    2    1    0    0    0 -0.24763580843E+02  0.96695279440E+01 -0.88161500504E+01  0.96991801048E+02  0.92859842031E+02 0.  0.
         13    1    3    3    0    0  0.22572078467E+02 -0.41084898723E+01 -0.34476945279E+02  0.41413154132E+02  0.10566000000E+00 0. -1.
         22    1    1    0    0    0  0.24763580843E+02 -0.96695279440E+01  0.88161500504E+01  0.28008198952E+02  0.00000000000E+00 0.  1.
</event>
<event>
 5    1  0.9041381E-005  0.9118800E+02  0.7818608E-02  0.1130116E+00
         25   -1    0    0    0    0  0.00000000000E+00  0.00000000000E+00  0.99999998245E-14  0.12500000000E+03  0.12500000000E+03 0.  0.
        -13    1    3    3    0    0 -0.33203640069E+01  0.43231840229E+02 -0.32063760205E+02  0.53926920079E+02  0.10566000000E+00 0.  1.
         23    2    1    0    0    0 -0.16798639564E+02  0.24003663433E+02  0.23712253477E+01  0.95606244557E+02  0.90975607386E+02 0.  0.
         13    1    3    3    0    0 -0.13478275557E+02 -0.19228176797E+02  0.34434985552E+02  0.41679324478E+02  0.10566000000E+00 0. -1.
         22    1    1    0    0    0  0.16798639564E+02 -0.24003663433E+02 -0.23712253477E+01  0.29393755443E+02  0.00000000000E+00 0.  1.
</event>
<event>
 5    1  0.9041381E-005  0.9118800E+02  0.7818608E-02  0.1130116E+00
         25   -1    0    0    0    0  0.00000000000E+00  0.00000000000E+00  0.99999998245E-14  0.12500000000E+03  0.12500000000E+03 0.  0.
        -13    1    3    3    0    0 -0.11583108260E+02  0.24277676210E+02  0.24277372520E+02  0.36235009861E+02  0.10566000000E+00 0. -1.
         23    2    1    0    0    0  0.12979386816E+02 -0.26108337388E+02  0.56682514175E+01  0.95297494425E+02  0.90550392635E+02 0.  0.
         13    1    3    3    0    0  0.24562495076E+02 -0.50386013598E+02 -0.18609121103E+02  0.59062484564E+02  0.10566000000E+00 0.  1.
         22    1    1    0    0    0 -0.12979386816E+02  0.26108337388E+02 -0.56682514175E+01  0.29702505575E+02  0.00000000000E+00 0.  1.
</event>
<event>
 5    1  0.9041381E-005  0.9118800E+02  0.7818608E-02  0.1130116E+00
         25   -1    0    0    0    0  0.00000000000E+00  0.00000000000E+00  0.99999998245E-14  0.12500000000E+03  0.12500000000E+03 0.  0.
        -13    1    3    3    0    0 -0.13848644264E+02 -0.17828008983E+02  0.27570859183E+02  0.35634060846E+02  0.10566000000E+00 0.  1.
         23    2    1    0    0    0  0.63858886381E+01 -0.88697494621E+01 -0.27727691536E+02  0.95196025313E+02  0.90410211415E+02 0.  0.
         13    1    3    3    0    0  0.20234532902E+02  0.89582595205E+01 -0.55298550720E+02  0.59561964467E+02  0.10566000000E+00 0. -1.
         22    1    1    0    0    0 -0.63858886381E+01  0.88697494621E+01  0.27727691536E+02  0.29803974687E+02  0.00000000000E+00 0. -1.
</event>
<event>
 5    1  0.9041381E-005  0.9118800E+02  0.7818608E-02  0.1130116E+00
         25   -1    0    0    0    0  0.00000000000E+00  0.00000000000E+00  0.99999998245E-14  0.12500000000E+03  0.12500000000E+03 0.  0.
        -13    1    3    3    0    0  0.19174215879E+02 -0.43741349838E+02  0.35372561788E+02  0.59432192721E+02  0.10566000000E+00 0. -1.
         23    2    1    0    0    0  0.19790345414E+02 -0.22792226660E+02  0.82521323225E+01  0.93707172458E+02  0.88327759591E+02 0.  0.
         13    1    3    3    0    0  0.61612953520E+00  0.20949123178E+02 -0.27120429465E+02  0.34274979736E+02  0.10566000000E+00 0.  1.
         22    1    1    0    0    0 -0.19790345414E+02  0.22792226660E+02 -0.82521323225E+01  0.31292827542E+02  0.00000000000E+00 0. -1.
</event>
<event>
 5    1  0.9041381E-005  0.9118800E+02  0.7818608E-02  0.1130116E+00
         25   -1    0    0    0    0  0.00000000000E+00  0.00000000000E+00  0.99999998245E-14  0.12500000000E+03  0.12500000000E+03 0.  0.
        -13    1    3    3    0    0 -0.20255361196E+02  0.16266052578E+02 -0.33546822357E+02  0.42429524838E+02  0.10566000000E+00 0.  1.
         23    2    1    0    0    0  0.61954105807E+01  0.27426149389E+02  0.10483030363E+02  0.94992155889E+02  0.90127903405E+02 0.  0.
         13    1    3    3    0    0  0.26450771777E+02  0.11160096811E+02  0.44029852720E+02  0.52562631051E+02  0.10566000000E+00 0. -1.
         22    1    1    0    0    0 -0.61954105807E+01 -0.27426149389E+02 -0.10483030363E+02  0.30007844111E+02  0.00000000000E+00 0. -1.
</event>
<event>
 5    1  0.9041381E-005  0.9118800E+02  0.7818608E-02  0.1130116E+00
         25   -1    0    0    0    0  0.00000000000E+00  0.00000000000E+00  0.99999998245E-14  0.12500000000E+03  0.12500000000E+03 0.  0.
        -13    1    3    3    0    0  0.14851015241E+02 -0.18287877874E+02  0.51613659602E+02  0.56736056898E+02  0.10566000000E+00 0. -1.
         23    2    1    0    0    0 -0.34364991299E+01 -0.23449910058E+02  0.18423128006E+02  0.94981348240E+02  0.90112912837E+02 0.  0.
         13    1    3    3    0    0 -0.18287514371E+02 -0.51620321837E+01 -0.33190531596E+02  0.38245291341E+02  0.10566000000E+00 0.  1.
         22    1    1    0    0    0  0.34364991299E+01  0.23449910058E+02 -0.18423128006E+02  0.30018651760E+02  0.00000000000E+00 0. -1.
</event>
<event>
 5    1  0.9041381E-005  0.9118800E+02  0.7818608E-02  0.1130116E+00
         25   -1    0    0    0    0  0.00000000000E+00  0.00000000000E+00  0.99999998245E-14  0.12500000000E+03  0.12500000000E+03 0.  0.
        -13    1    3    3    0    0  0.56253017771E+02  0.10779193786E+02 -0.15557794717E+02  0.59351909552E+02  0.10566000000E+00 0. -1.
         23    2    1    0    0    0  0.27567773853E+02  0.11225005781E+02  0.52274287098E+01  0.94778998678E+02  0.89831785408E+02 0.  0.
         13    1    3    3    0    0 -0.28685243918E+02  0.44581199499E+00  0.20785223427E+02  0.35427089126E+02  0.10566000000E+00 0.  1.
         22    1    1    0    0    0 -0.27567773853E+02 -0.11225005781E+02 -0.52274287098E+01  0.30221001322E+02  0.00000000000E+00 0. -1.
</event>
<event>
 5    1  0.9041381E-005  0.9118800E+02  0.7818608E-02  0.1130116E+00
         25   -1    0    0    0    0  0.00000000000E+00  0.00000000000E+00  0.99999998245E-14  0.12500000000E+03  0.12500000000E+03 0.  0.
        -13    1    3    3    0    0  0.62584244794E+01 -0.27539131111E+02  0.49074903043E+02  0.56620922740E+02  0.10566000000E+00 0.  1.
         23    2    1    0    0    0  0.18418380266E+02 -0.14631305117E+01  0.23416275944E+02  0.95172169680E+02  0.90377222905E+02 0.  0.
         13    1    3    3    0    0  0.12159955786E+02  0.26076000599E+02 -0.25658627099E+02  0.38551246939E+02  0.10566000000E+00 0. -1.
         22    1    1    0    0    0 -0.18418380266E+02  0.14631305117E+01 -0.23416275944E+02  0.29827830320E+02  0.00000000000E+00 0.  1.
</event>
<event>
 5    1  0.9041381E-005  0.9118800E+02  0.7818608E-02  0.1130116E+00
         25   -1    0    0    0    0  0.00000000000E+00  0.00000000000E+00  0.99999998245E-14  0.12500000000E+03  0.12500000000E+03 0.  0.
        -13    1    3    3    0    0 -0.20514963614E+02  0.41538708188E+02 -0.58880060818E+01  0.46701261114E+02  0.10566000000E+00 0. -1.
         23    2    1    0    0    0  0.79022930726E+01 -0.22173882623E+01 -0.22172036731E+02  0.10135761731E+03  0.98561677782E+02 0.  0.
         13    1    3    3    0    0  0.28417256687E+02 -0.43756096450E+02 -0.16284030650E+02  0.54656356194E+02  0.10566000000E+00 0.  1.
         22    1    1    0    0    0 -0.79022930726E+01  0.22173882623E+01  0.22172036731E+02  0.23642382691E+02  0.00000000000E+00 0.  1.
</event>
<event>
 5    1  0.9041381E-005  0.9118800E+02  0.7818608E-02  0.1130116E+00
         25   -1    0    0    0    0  0.00000000000E+00  0.00000000000E+00  0.99999998245E-14  0.12500000000E+03  0.12500000000E+03 0.  0.
        -13    1    3    3    0    0  0.12609685263E+02  0.21445585647E+02 -0.50365168196E+02  0.56174537271E+02  0.10566000000E+00 0.  1.
         23    2    1    0    0    0 -0.13119989290E+02  0.25101390111E+01 -0.23732988215E+02  0.97766020371E+02  0.93896246425E+02 0.  0.
         13    1    3    3    0    0 -0.25729674553E+02 -0.18935446636E+02  0.26632179980E+02  0.41591483100E+02  0.10566000000E+00 0. -1.
         22    1    1    0    0    0  0.13119989290E+02 -0.25101390111E+01  0.23732988215E+02  0.27233979629E+02  0.00000000000E+00 0.  1.
</event>
<event>
 5    1  0.9041381E-005  0.9118800E+02  0.7818608E-02  0.1130116E+00
         25   -1    0    0    0    0  0.00000000000E+00  0.00000000000E+00  0.99999998245E-14  0.12500000000E+03  0.12500000000E+03 0.  0.
        -13    1    3    3    0    0  0.24457165377E+01  0.57596625135E+02 -0.19703176222E+02  0.60922730352E+02  0.10566000000E+00 0. -1.
         23    2    1    0    0    0 -0.73895275262E+01  0.28301711937E+02 -0.43526637025E+01  0.95427416465E+02  0.90729565833E+02 0.  0.
         13    1    3    3    0    0 -0.98352440639E+01 -0.29294913198E+02  0.15350512520E+02  0.34504686112E+02  0.10566000000E+00 0.  1.
         22    1    1    0    0    0  0.73895275262E+01 -0.28301711937E+02  0.43526637025E+01  0.29572583535E+02  0.00000000000E+00 0. -1.
</event>
<event>
 5    1  0.9041381E-005  0.9118800E+02  0.7818608E-02  0.1130116E+00
         25   -1    0    0    0    0  0.00000000000E+00  0.00000000000E+00  0.99999998245E-14  0.12500000000E+03  0.12500000000E+03 0.  0.
        -13    1    3    3    0    0  0.33183344886E+01  0.27007622106E+02 -0.55527710910E+02  0.61836565546E+02  0.10566000000E+00 0. -1.
         23    2    1    0    0    0 -0.48412429790E+01  0.12181307728E+02 -0.26433448330E+02  0.95494931246E+02  0.90822534712E+02 0.  0.
         13    1    3    3    0    0 -0.81595774676E+01 -0.14826314378E+02  0.29094262580E+02  0.33658365700E+02  0.10566000000E+00 0.  1.
         22    1    1    0    0    0  0.48412429790E+01 -0.12181307728E+02  0.26433448330E+02  0.29505068754E+02  0.00000000000E+00 0. -1.
</event>
<event>
 5    1  0.9041381E-005  0.9118800E+02  0.7818608E-02  0.1130116E+00
         25   -1    0    0    0    0  0.00000000000E+00  0.00000000000E+00  0.99999998245E-14  0.12500000000E+03  0.12500000000E+03 0.  0.
        -13    1    3    3    0    0  0.79049132161E+01 -0.76633419047E+01  0.56724553809E+02  0.57783221016E+02  0.10566000000E+00 0. -1.
         23    2    1    0    0    0 -0.69938944532E+01  0.93220647608E+01  0.30217943966E+02  0.92612663145E+02  0.86765003235E+02 0.  0.
         13    1    3    3    0    0 -0.14898807669E+02  0.16985406666E+02 -0.26506609844E+02  0.34829442129E+02  0.10566000000E+00 0.  1.
         22    1    1    0    0    0  0.69938944532E+01 -0.93220647608E+01 -0.30217943966E+02  0.32387336855E+02  0.00000000000E+00 0.  1.
</event>
<event>
 5    1  0.9041381E-005  0.9118800E+02  0.7818608E-02  0.1130116E+00
         25   -1    0    0    0    0  0.00000000000E+00  0.00000000000E+00  0.99999998245E-14  0.12500000000E+03  0.12500000000E+03 0.  0.
        -13    1    3    3    0    0 -0.23505547103E+02 -0.23319253002E+02 -0.29312993431E+02  0.44221726030E+02  0.10566000000E+00 0.  1.
         23    2    1    0    0    0 -0.21993364717E+01  0.22584530034E+02 -0.17895166300E+02  0.96101296661E+02  0.91653282349E+02 0.  0.
         13    1    3    3    0    0  0.21306210631E+02  0.45903783036E+02  0.11417827131E+02  0.51879570631E+02  0.10566000000E+00 0. -1.
         22    1    1    0    0    0  0.21993364717E+01 -0.22584530034E+02  0.17895166300E+02  0.28898703339E+02  0.00000000000E+00 0.  1.
</event>
<event>
 5    1  0.9041381E-005  0.9118800E+02  0.7818608E-02  0.1130116E+00
         25   -1    0    0    0    0  0.00000000000E+00  0.00000000000E+00  0.99999998245E-14  0.12500000000E+03  0.12500000000E+03 0.  0.
        -13    1    3    3    0    0 -0.57632786893E+01  0.39993204514E+02  0.18716456060E+02  0.44530761054E+02  0.10566000000E+00 0. -1.
         23    2    1    0    0    0  0.28787900596E+01  0.14032110290E+02 -0.25048366859E+02  0.96145048368E+02  0.91712933068E+02 0.  0.
         13    1    3    3    0    0  0.86420687489E+01 -0.25961094225E+02 -0.43764822920E+02  0.51614287313E+02  0.10566000000E+00 0.  1.
         22    1    1    0    0    0 -0.28787900596E+01 -0.14032110290E+02  0.25048366859E+02  0.28854951632E+02  0.00000000000E+00 0.  1.
</event>
<event>
 5    1  0.9041381E-005  0.9118800E+02  0.7818608E-02  0.1130116E+00
         25   -1    0    0    0    0  0.00000000000E+00  0.00000000000E+00  0.99999998245E-14  0.12500000000E+03  0.12500000000E+03 0.  0.
        -13    1    3    3    0    0 -0.11153784085E+02 -0.86499216700E+01  0.13742434285E+02  0.19700094122E+02  0.10566000000E+00 0. -1.
         23    2    1    0    0    0  0.24695750517E+02  0.38099036289E+02  0.38873058485E+01  0.79431065335E+02  0.65059713600E+02 0.  0.
         13    1    3    3    0    0  0.35849534602E+02  0.46748957959E+02 -0.98551284364E+01  0.59730971213E+02  0.10566000000E+00 0.  1.
         22    1    1    0    0    0 -0.24695750517E+02 -0.38099036289E+02 -0.38873058485E+01  0.45568934665E+02  0.00000000000E+00 0.  1.
</event>
<event>
 5    1  0.9041381E-005  0.9118800E+02  0.7818608E-02  0.1130116E+00
         25   -1    0    0    0    0  0.00000000000E+00  0.00000000000E+00  0.99999998245E-14  0.12500000000E+03  0.12500000000E+03 0.  0.
        -13    1    3    3    0    0 -0.52769099124E+02 -0.18540160076E+02 -0.20131008889E+02  0.59443957144E+02  0.10566000000E+00 0.  1.
         23    2    1    0    0    0 -0.17730098202E+02 -0.87647956244E+01 -0.21421754920E+02  0.95844046775E+02  0.91301761724E+02 0.  0.
         13    1    3    3    0    0  0.35039000922E+02  0.97753644518E+01 -0.12907460307E+01  0.36400089631E+02  0.10566000000E+00 0. -1.
         22    1    1    0    0    0  0.17730098202E+02  0.87647956244E+01  0.21421754920E+02  0.29155953225E+02  0.00000000000E+00 0.  1.
</event>
<event>
 5    1  0.9041381E-005  0.9118800E+02  0.7818608E-02  0.1130116E+00
         25   -1    0    0    0    0  0.00000000000E+00  0.00000000000E+00  0.99999998245E-14  0.12500000000E+03  0.12500000000E+03 0.  0.
        -13    1    3    3    0    0  0.20544392373E+01 -0.30291492126E+02  0.11956931541E+02  0.32630884017E+02  0.10566000000E+00 0. -1.
         23    2    1    0    0    0  0.89020710764E+01  0.29050078193E+02  0.11908038052E+02  0.92366347390E+02  0.86409414113E+02 0.  0.
         13    1    3    3    0    0  0.68476318392E+01  0.59341570319E+02 -0.48893488828E-01  0.59735463373E+02  0.10566000000E+00 0.  1.
         22    1    1    0    0    0 -0.89020710764E+01 -0.29050078193E+02 -0.11908038052E+02  0.32633652610E+02  0.00000000000E+00 0.  1.
</event>
<event>
 5    1  0.9041381E-005  0.9118800E+02  0.7818608E-02  0.1130116E+00
         25   -1    0    0    0    0  0.00000000000E+00  0.00000000000E+00  0.99999998245E-14  0.12500000000E+03  0.12500000000E+03 0.  0.
        -13    1    3    3    0    0 -0.41350973114E+02 -0.31424117609E+01 -0.43436907430E+02  0.60054590335E+02  0.10566000000E+00 0. -1.
         23    2    1    0    0    0 -0.20510928160E+02 -0.12707926632E+02 -0.14984625245E+02  0.96597032426E+02  0.92326908898E+02 0.  0.
         13    1    3    3    0    0  0.20840044954E+02 -0.95655148712E+01  0.28452282185E+02  0.36542442092E+02  0.10566000000E+00 0.  1.
         22    1    1    0    0    0  0.20510928160E+02  0.12707926632E+02  0.14984625245E+02  0.28402967574E+02  0.00000000000E+00 0. -1.
</event>
<event>
 5    1  0.9041381E-005  0.9118800E+02  0.7818608E-02  0.1130116E+00
         25   -1    0    0    0    0  0.00000000000E+00  0.00000000000E+00  0.99999998245E-14  0.12500000000E+03  0.12500000000E+03 0.  0.
        -13    1    3    3    0    0 -0.42005850722E+01  0.27880009449E+02  0.40952019507E+02  0.49719401722E+02  0.10566000000E+00 0. -1.
         23    2    1    0    0    0 -0.26250629132E+02  0.12636921652E+02  0.36731808656E+01  0.95635402670E+02  0.91015661661E+02 0.  0.
         13    1    3    3    0    0 -0.22050044060E+02 -0.15243087797E+02 -0.37278838641E+02  0.45916000949E+02  0.10566000000E+00 0.  1.
         22    1    1    0    0    0  0.26250629132E+02 -0.12636921652E+02 -0.36731808656E+01  0.29364597330E+02  0.00000000000E+00 0. -1.
</event>
<event>
 5    1  0.9041381E-005  0.9118800E+02  0.7818608E-02  0.1130116E+00
         25   -1    0    0    0    0  0.00000000000E+00  0.00000000000E+00  0.99999998245E-14  0.12500000000E+03  0.12500000000E+03 0.  0.
        -13    1    3    3    0    0 -0.16868932196E+02 -0.38015479968E+02 -0.17600538490E+02  0.45161130519E+02  0.10566000000E+00 0. -1.
         23    2    1    0    0    0  0.22899231255E+02 -0.75589762745E+01 -0.17418328388E+02  0.95252545013E+02  0.90488321087E+02 0.  0.
         13    1    3    3    0    0  0.39768163451E+02  0.30456503693E+02  0.18221010164E+00  0.50091414494E+02  0.10566000000E+00 0.  1.
         22    1    1    0    0    0 -0.22899231255E+02  0.75589762745E+01  0.17418328388E+02  0.29747454987E+02  0.00000000000E+00 0. -1.
</event>
<event>
 5    1  0.9041381E-005  0.9118800E+02  0.7818608E-02  0.1130116E+00
         25   -1    0    0    0    0  0.00000000000E+00  0.00000000000E+00  0.99999998245E-14  0.12500000000E+03  0.12500000000E+03 0.  0.
        -13    1    3    3    0    0  0.16555434106E+02  0.23497822194E+02 -0.22205673555E+02  0.36322625847E+02  0.10566000000E+00 0.  1.
         23    2    1    0    0    0 -0.24383299027E+02 -0.53027407208E+01  0.12361072739E+02  0.97152909490E+02  0.93076459820E+02 0.  0.
         13    1    3    3    0    0 -0.40938733133E+02 -0.28800562915E+02  0.34566746294E+02  0.60830283644E+02  0.10566000000E+00 0. -1.
         22    1    1    0    0    0  0.24383299027E+02  0.53027407208E+01 -0.12361072739E+02  0.27847090510E+02  0.00000000000E+00 0. -1.
</event>
<event>
 5    1  0.9041381E-005  0.9118800E+02  0.7818608E-02  0.1130116E+00
         25   -1    0    0    0    0  0.00000000000E+00  0.00000000000E+00  0.99999998245E-14  0.12500000000E+03  0.12500000000E+03 0.  0.
        -13    1    3    3    0    0  0.25086687332E+02 -0.29419463304E+02  0.47194447330E+00  0.38666272098E+02  0.10566000000E+00 0.  1.
         23    2    1    0    0    0  0.12042543611E+01  0.13504392613E+02 -0.26884016025E+02  0.94890712960E+02  0.89987100409E+02 0.  0.
         13    1    3    3    0    0 -0.23882432970E+02  0.42923855917E+02 -0.27355960499E+02  0.56224440862E+02  0.10566000000E+00 0. -1.
         22    1    1    0    0    0 -0.12042543611E+01 -0.13504392613E+02  0.26884016025E+02  0.30109287040E+02  0.00000000000E+00 0. -1.
</event>
<event>
 5    1  0.9041381E-005  0.9118800E+02  0.7818608E-02  0.1130116E+00
         25   -1    0    0    0    0  0.00000000000E+00  0.00000000000E+00  0.99999998245E-14  0.12500000000E+03  0.12500000000E+03 0.  0.
        -13    1    3    3    0    0  0.24079598345E+02 -0.21688636957E+02  0.15417575465E+02  0.35887836752E+02  0.10566000000E+00 0. -1.
         23    2    1    0    0    0 -0.10020428233E+02  0.21076962633E+02  0.24308184706E+02  0.91302297118E+02  0.84856197649E+02 0.  0.
         13    1    3    3    0    0 -0.34100026578E+02  0.42765599590E+02  0.88906092416E+01  0.55414460366E+02  0.10566000000E+00 0.  1.
         22    1    1    0    0    0  0.10020428233E+02 -0.21076962633E+02 -0.24308184706E+02  0.33697702882E+02  0.00000000000E+00 0.  1.
</event>
<event>
 5    1  0.9041381E-005  0.9118800E+02  0.7818608E-02  0.1130116E+00
         25   -1    0    0    0    0  0.00000000000E+00  0.00000000000E+00  0.99999998245E-14  0.12500000000E+03  0.12500000000E+03 0.  0.
        -13    1    3    3    0    0 -0.13891783877E+01 -0.20097256627E+02  0.47842567039E+02  0.51911000043E+02  0.10566000000E+00 0. -1.
         23    2    1    0    0    0  0.23731947933E+02 -0.11020623601E+01  0.20206364289E+02  0.93811587859E+02  0.88475403162E+02 0.  0.
         13    1    3    3    0    0  0.25121126321E+02  0.18995194267E+02 -0.27636202750E+02  0.41900587816E+02  0.10566000000E+00 0.  1.
         22    1    1    0    0    0 -0.23731947933E+02  0.11020623601E+01 -0.20206364289E+02  0.31188412141E+02  0.00000000000E+00 0. -1.
</event>
<event>
 5    1  0.9041381E-005  0.9118800E+02  0.7818608E-02  0.1130116E+00
         25   -1    0    0    0    0  0.00000000000E+00  0.00000000000E+00  0.99999998245E-14  0.12500000000E+03  0.12500000000E+03 0.  0.
        -13    1    3    3    0    0 -0.31505943308E+02 -0.38824212992E+02 -0.13094836197E+02  0.51685876961E+02  0.10566000000E+00 0. -1.
         23    2    1    0    0    0  0.63600963071E+01 -0.10217562702E+02 -0.21954519945E+02  0.99963020178E+02  0.96776831134E+02 0.  0.
         13    1    3    3    0    0  0.37866039615E+02  0.28606650290E+02 -0.88596837480E+01  0.48277143216E+02  0.10566000000E+00 0.  1.
         22    1    1    0    0    0 -0.63600963071E+01  0.10217562702E+02  0.21954519945E+02  0.25036979822E+02  0.00000000000E+00 0.  1.
</event>
<event>
 5    1  0.9041381E-005  0.9118800E+02  0.7818608E-02  0.1130116E+00
         25   -1    0    0    0    0  0.00000000000E+00  0.00000000000E+00  0.99999998245E-14  0.12500000000E+03  0.12500000000E+03 0.  0.
        -13    1    3    3    0    0  0.14933572437E+02  0.22850230317E+02  0.26902111802E+02  0.38325962411E+02  0.10566000000E+00 0.  1.
         23    2    1    0    0    0 -0.28952626745E+01 -0.26570482627E+02 -0.18336297704E+01  0.98209417865E+02  0.94484678474E+02 0.  0.
         13    1    3    3    0    0 -0.17828835111E+02 -0.49420712944E+02 -0.28735741573E+02  0.59883455454E+02  0.10566000000E+00 0. -1.
         22    1    1    0    0    0  0.28952626745E+01  0.26570482627E+02  0.18336297704E+01  0.26790582135E+02  0.00000000000E+00 0. -1.
</event>
<event>
 5    1  0.9041381E-005  0.9118800E+02  0.7818608E-02  0.1130116E+00
         25   -1    0    0    0    0  0.00000000000E+00  0.00000000000E+00  0.99999998245E-14  0.12500000000E+03  0.12500000000E+03 0.  0.
        -13    1    3    3    0    0 -0.10918738742E+02  0.21693820761E+01 -0.42931944592E+02  0.44351866982E+02  0.10566000000E+00 0. -1.
         23    2    1    0    0    0 -0.31114786304E+02 -0.35336486030E+01  0.16661866076E+01  0.93640905992E+02  0.88233930537E+02 0.  0.
         13    1    3    3    0    0 -0.20196047562E+02 -0.57030306791E+01  0.44598131199E+02  0.49289039010E+02  0.10566000000E+00 0.  1.
         22    1    1    0    0    0  0.31114786304E+02  0.35336486030E+01 -0.16661866076E+01  0.31359094008E+02  0.00000000000E+00 0. -1.
</event>
<event>
 5    1  0.9041381E-005  0.9118800E+02  0.7818608E-02  0.1130116E+00
         25   -1    0    0    0    0  0.00000000000E+00  0.00000000000E+00  0.99999998245E-14  0.12500000000E+03  0.12500000000E+03 0.  0.
        -13    1    3    3    0    0  0.34934352967E+02  0.22069397300E+02  0.37674588285E+02  0.55918271441E+02  0.10566000000E+00 0. -1.
         23    2    1    0    0    0  0.13407733412E+01  0.24109162369E+02  0.13724894691E+02  0.97225513190E+02  0.93173914254E+02 0.  0.
         13    1    3    3    0    0 -0.33593579626E+02  0.20397650693E+01 -0.23949693594E+02  0.41307241749E+02  0.10566000000E+00 0.  1.
         22    1    1    0    0    0 -0.13407733412E+01 -0.24109162369E+02 -0.13724894691E+02  0.27774486810E+02  0.00000000000E+00 0. -1.
</event>
<event>
 5    1  0.9041381E-005  0.9118800E+02  0.7818608E-02  0.1130116E+00
         25   -1    0    0    0    0  0.00000000000E+00  0.00000000000E+00  0.99999998245E-14  0.12500000000E+03  0.12500000000E+03 0.  0.
        -13    1    3    3    0    0  0.21471202601E+02 -0.33865404851E+02  0.16045321593E+02  0.43189601711E+02  0.10566000000E+00 0.  1.
         23    2    1    0    0    0 -0.24452478488E+02 -0.10157310627E+02  0.14312708147E+02  0.94901025302E+02  0.90001424020E+02 0.  0.
         13    1    3    3    0    0 -0.45923681089E+02  0.23708094224E+02 -0.17326134462E+01  0.51711423591E+02  0.10566000000E+00 0. -1.
         22    1    1    0    0    0  0.24452478488E+02  0.10157310627E+02 -0.14312708147E+02  0.30098974698E+02  0.00000000000E+00 0. -1.
</event>
<event>
 5    1  0.9041381E-005  0.9118800E+02  0.7818608E-02  0.1130116E+00
         25   -1    0    0    0    0  0.00000000000E+00  0.00000000000E+00  0.99999998245E-14  0.12500000000E+03  0.12500000000E+03 0.  0.
        -13    1    3    3    0    0  0.43088000310E+01 -0.27864001109E+01 -0.33357430849E+02  0.33749950225E+02  0.10566000000E+00 0. -1.
         23    2    1    0    0    0  0.10548413141E+02 -0.24838542081E+01  0.27767179228E+02  0.95193041186E+02  0.90406085505E+02 0.  0.
         13    1    3    3    0    0  0.62396131096E+01  0.30254590282E+00  0.61124610077E+02  0.61443090961E+02  0.10566000000E+00 0.  1.
         22    1    1    0    0    0 -0.10548413141E+02  0.24838542081E+01 -0.27767179228E+02  0.29806958814E+02  0.00000000000E+00 0.  1.
</event>
<event>
 5    1  0.9041381E-005  0.9118800E+02  0.7818608E-02  0.1130116E+00
         25   -1    0    0    0    0  0.00000000000E+00  0.00000000000E+00  0.99999998245E-14  0.12500000000E+03  0.12500000000E+03 0.  0.
        -13    1    3    3    0    0 -0.30145833301E+01 -0.48602422628E+02 -0.19353815672E+01  0.48734382768E+02  0.10566000000E+00 0. -1.
         23    2    1    0    0    0  0.25953067790E+02 -0.10366308325E+02 -0.41037857223E+01  0.96753528835E+02  0.92538544450E+02 0.  0.
         13    1    3    3    0    0  0.28967651120E+02  0.38236114303E+02 -0.21684041551E+01  0.48019146067E+02  0.10566000000E+00 0.  1.
         22    1    1    0    0    0 -0.25953067790E+02  0.10366308325E+02  0.41037857223E+01  0.28246471165E+02  0.00000000000E+00 0. -1.
</event>
<event>
 5    1  0.9041381E-005  0.9118800E+02  0.7818608E-02  0.1130116E+00
         25   -1    0    0    0    0  0.00000000000E+00  0.00000000000E+00  0.99999998245E-14  0.12500000000E+03  0.12500000000E+03 0.  0.
        -13    1    3    3    0    0 -0.44517536468E+02 -0.38161503530E+01  0.37077251280E+02  0.58061241661E+02  0.10566000000E+00 0. -1.
         23    2    1    0    0    0 -0.21926541255E+02  0.14382604299E+02  0.13153254933E+02  0.95663322732E+02  0.91053998720E+02 0.  0.
         13    1    3    3    0    0  0.22590995213E+02  0.18198754652E+02 -0.23923996348E+02  0.37602081071E+02  0.10566000000E+00 0.  1.
         22    1    1    0    0    0  0.21926541255E+02 -0.14382604299E+02 -0.13153254933E+02  0.29336677268E+02  0.00000000000E+00 0. -1.
</event>
<event>
 5    1  0.9041381E-005  0.9118800E+02  0.7818608E-02  0.1130116E+00
         25   -1    0    0    0    0  0.00000000000E+00  0.00000000000E+00  0.99999998245E-14  0.12500000000E+03  0.12500000000E+03 0.  0.
        -13    1    3    3    0    0 -0.34771265100E+02 -0.28699834521E+02  0.38891096215E+02  0.59542001201E+02  0.10566000000E+00 0. -1.
         23    2    1    0    0    0 -0.86455114544E+01 -0.68109743429E+01  0.27336848925E+02  0.95530735521E+02  0.90871799147E+02 0.  0.
         13    1    3    3    0    0  0.26125753646E+02  0.21888860178E+02 -0.11554247290E+02  0.35988734320E+02  0.10566000000E+00 0.  1.
         22    1    1    0    0    0  0.86455114544E+01  0.68109743429E+01 -0.27336848925E+02  0.29469264479E+02  0.00000000000E+00 0. -1.
</event>
<event>
 5    1  0.9041381E-005  0.9118800E+02  0.7818608E-02  0.1130116E+00
         25   -1    0    0    0    0  0.00000000000E+00  0.00000000000E+00  0.99999998245E-14  0.12500000000E+03  0.12500000000E+03 0.  0.
        -13    1    3    3    0    0  0.23074586708E+02 -0.31863472101E+02  0.40480909100E+02  0.56448494857E+02  0.10566000000E+00 0.  1.
         23    2    1    0    0    0  0.25066205407E+02 -0.80253488299E+01  0.67009239588E+01  0.97840779480E+02  0.93995717296E+02 0.  0.
         13    1    3    3    0    0  0.19916187000E+01  0.23838123271E+02 -0.33779985141E+02  0.41392284623E+02  0.10566000000E+00 0. -1.
         22    1    1    0    0    0 -0.25066205407E+02  0.80253488299E+01 -0.67009239588E+01  0.27159220520E+02  0.00000000000E+00 0.  1.
</event>
<event>
 5    1  0.9041381E-005  0.9118800E+02  0.7818608E-02  0.1130116E+00
         25   -1    0    0    0    0  0.00000000000E+00  0.00000000000E+00  0.99999998245E-14  0.12500000000E+03  0.12500000000E+03 0.  0.
        -13    1    3    3    0    0  0.49501491719E+02  0.10165090554E+02  0.14526556280E+02  0.52580973268E+02  0.10566000000E+00 0. -1.
         23    2    1    0    0    0  0.14167370013E+02  0.25910418577E+02 -0.35072884127E+01  0.95261721033E+02  0.90500995896E+02 0.  0.
         13    1    3    3    0    0 -0.35334121707E+02  0.15745328024E+02 -0.18033844692E+02  0.42680747765E+02  0.10566000000E+00 0.  1.
         22    1    1    0    0    0 -0.14167370013E+02 -0.25910418577E+02  0.35072884127E+01  0.29738278967E+02  0.00000000000E+00 0. -1.
</event>
<event>
 5    1  0.9041381E-005  0.9118800E+02  0.7818608E-02  0.1130116E+00
         25   -1    0    0    0    0  0.00000000000E+00  0.00000000000E+00  0.99999998245E-14  0.12500000000E+03  0.12500000000E+03 0.  0.
        -13    1    3    3    0    0 -0.21817298348E+02  0.23550744557E+02 -0.20455963657E+02  0.38066910691E+02  0.10566000000E+00 0.  1.
         23    2    1    0    0    0  0.11709398422E+02 -0.90273998541E+01  0.20163267294E+02  0.99996774058E+02  0.96820418893E+02 0.  0.
         13    1    3    3    0    0  0.33526696770E+02 -0.32578144411E+02  0.40619230951E+02  0.61929863367E+02  0.10566000000E+00 0. -1.
         22    1    1    0    0    0 -0.11709398422E+02  0.90273998541E+01 -0.20163267294E+02  0.25003225942E+02  0.00000000000E+00 0. -1.
</event>
<event>
 5    1  0.9041381E-005  0.9118800E+02  0.7818608E-02  0.1130116E+00
         25   -1    0    0    0    0  0.00000000000E+00  0.00000000000E+00  0.99999998245E-14  0.12500000000E+03  0.12500000000E+03 0.  0.
        -13    1    3    3    0    0 -0.19171329352E+00  0.73716291211E+01 -0.20640013850E+02  0.21918006426E+02  0.10566000000E+00 0.  1.
         23    2    1    0    0    0  0.30925958281E+02 -0.28885939691E+02  0.13431158278E+02  0.80601707013E+02  0.67271292193E+02 0.  0.
         13    1    3    3    0    0  0.31117671574E+02 -0.36257568812E+02  0.34071172129E+02  0.58683700588E+02  0.10566000000E+00 0. -1.
         22    1    1    0    0    0 -0.30925958281E+02  0.28885939691E+02 -0.13431158278E+02  0.44398292987E+02  0.00000000000E+00 0. -1.
</event>
<event>
 5    1  0.9041381E-005  0.9118800E+02  0.7818608E-02  0.1130116E+00
         25   -1    0    0    0    0  0.00000000000E+00  0.00000000000E+00  0.99999998245E-14  0.12500000000E+03  0.12500000000E+03 0.  0.
        -13    1    3    3    0    0 -0.29751410230E+02  0.33617978298E+02  0.21605729016E+02  0.49821015304E+02  0.10566000000E+00 0.  1.
         23    2    1    0    0    0  0.24446368619E+01  0.23567896076E+01  0.29430609837E+02  0.95374141328E+02  0.90656137862E+02 0.  0.
         13    1    3    3    0    0  0.32196047092E+02 -0.31261188691E+02  0.78248808213E+01  0.45553126025E+02  0.10566000000E+00 0. -1.
         22    1    1    0    0    0 -0.24446368619E+01 -0.23567896076E+01 -0.29430609837E+02  0.29625858672E+02  0.00000000000E+00 0. -1.
</event>
<event>
 5    1  0.9041381E-005  0.9118800E+02  0.7818608E-02  0.1130116E+00
         25   -1    0    0    0    0  0.00000000000E+00  0.00000000000E+00  0.99999998245E-14  0.12500000000E+03  0.12500000000E+03 0.  0.
        -13    1    3    3    0    0 -0.51112980250E+02 -0.31684840088E+02  0.71673827078E+01  0.60562763976E+02  0.10566000000E+00 0.  1.
         23    2    1    0    0    0 -0.17599167075E+02 -0.23071536476E+02 -0.38180942980E+00  0.95979795735E+02  0.91487425004E+02 0.  0.
         13    1    3    3    0    0  0.33513813175E+02  0.86133036121E+01 -0.75491921376E+01  0.35417031759E+02  0.10566000000E+00 0. -1.
         22    1    1    0    0    0  0.17599167075E+02  0.23071536476E+02  0.38180942980E+00  0.29020204265E+02  0.00000000000E+00 0.  1.
</event>
<event>
 5    1  0.9041381E-005  0.9118800E+02  0.7818608E-02  0.1130116E+00
         25   -1    0    0    0    0  0.00000000000E+00  0.00000000000E+00  0.99999998245E-14  0.12500000000E+03  0.12500000000E+03 0.  0.
        -13    1    3    3    0    0 -0.16994493049E+02 -0.18755245933E+02  0.28405475382E+02  0.38045423374E+02  0.10566000000E+00 0.  1.
         23    2    1    0    0    0 -0.14055382106E+02  0.17407764360E+02 -0.17526511398E+02  0.96578834860E+02  0.92302268200E+02 0.  0.
         13    1    3    3    0    0  0.29391109425E+01  0.36163010292E+02 -0.45931986780E+02  0.58533411486E+02  0.10566000000E+00 0. -1.
         22    1    1    0    0    0  0.14055382106E+02 -0.17407764360E+02  0.17526511398E+02  0.28421165140E+02  0.00000000000E+00 0. -1.
</event>
<event>
 5    1  0.9041381E-005  0.9118800E+02  0.7818608E-02  0.1130116E+00
         25   -1    0    0    0    0  0.00000000000E+00  0.00000000000E+00  0.99999998245E-14  0.12500000000E+03  0.12500000000E+03 0.  0.
        -13    1    3    3    0    0  0.11500811249E+02 -0.39721564362E+02  0.27352370732E+02  0.49580587768E+02  0.10566000000E+00 0. -1.
         23    2    1    0    0    0 -0.12206317014E+02 -0.24637887959E+02 -0.94874398700E+01  0.95913384291E+02  0.91396641474E+02 0.  0.
         13    1    3    3    0    0 -0.23707128263E+02  0.15083676403E+02 -0.36839810602E+02  0.46332796522E+02  0.10566000000E+00 0.  1.
         22    1    1    0    0    0  0.12206317014E+02  0.24637887959E+02  0.94874398700E+01  0.29086615709E+02  0.00000000000E+00 0. -1.
</event>
<event>
 5    1  0.9041381E-005  0.9118800E+02  0.7818608E-02  0.1130116E+00
         25   -1    0    0    0    0  0.00000000000E+00  0.00000000000E+00  0.99999998245E-14  0.12500000000E+03  0.12500000000E+03 0.  0.
        -13    1    3    3    0    0 -0.34412451189E+02  0.57015934812E+00  0.50769401029E+02  0.61335838818E+02  0.10566000000E+00 0.  1.
         23    2    1    0    0    0 -0.12566170211E+02  0.79766630225E+01  0.24848010176E+02  0.96035204187E+02  0.91563098718E+02 0.  0.
         13    1    3    3    0    0  0.21846280979E+02  0.74065036744E+01 -0.25921390853E+02  0.34699365370E+02  0.10566000000E+00 0. -1.
         22    1    1    0    0    0  0.12566170211E+02 -0.79766630225E+01 -0.24848010176E+02  0.28964795813E+02  0.00000000000E+00 0.  1.
</event>
<event>
 5    1  0.9041381E-005  0.9118800E+02  0.7818608E-02  0.1130116E+00
         25   -1    0    0    0    0  0.00000000000E+00  0.00000000000E+00  0.99999998245E-14  0.12500000000E+03  0.12500000000E+03 0.  0.
        -13    1    3    3    0    0  0.22789749958E+02 -0.37115659268E+02 -0.36537223910E+02  0.56850019887E+02  0.10566000000E+00 0.  1.
         23    2    1    0    0    0 -0.31447539699E+01 -0.61351950649E+01 -0.25286969018E+02  0.98790061081E+02  0.95249752075E+02 0.  0.
         13    1    3    3    0    0 -0.25934503928E+02  0.30980464203E+02  0.11250254893E+02  0.41940041195E+02  0.10566000000E+00 0. -1.
         22    1    1    0    0    0  0.31447539699E+01  0.61351950649E+01  0.25286969018E+02  0.26209938919E+02  0.00000000000E+00 0.  1.
</event>
<event>
 5    1  0.9041381E-005  0.9118800E+02  0.7818608E-02  0.1130116E+00
         25   -1    0    0    0    0  0.00000000000E+00  0.00000000000E+00  0.99999998245E-14  0.12500000000E+03  0.12500000000E+03 0.  0.
        -13    1    3    3    0    0  0.52897979924E+02  0.29347804010E+02  0.64785201191E+00  0.60497278919E+02  0.10566000000E+00 0.  1.
         23    2    1    0    0    0  0.22753815266E+02  0.16491013080E+02 -0.10332082886E+02  0.95059366100E+02  0.90221070294E+02 0.  0.
         13    1    3    3    0    0 -0.30144164658E+02 -0.12856790930E+02 -0.10979934898E+02  0.34562087181E+02  0.10566000000E+00 0. -1.
         22    1    1    0    0    0 -0.22753815266E+02 -0.16491013080E+02  0.10332082886E+02  0.29940633900E+02  0.00000000000E+00 0. -1.
</event>
<event>
 5    1  0.9041381E-005  0.9118800E+02  0.7818608E-02  0.1130116E+00
         25   -1    0    0    0    0  0.00000000000E+00  0.00000000000E+00  0.99999998245E-14  0.12500000000E+03  0.12500000000E+03 0.  0.
        -13    1    3    3    0    0 -0.29233341991E+02  0.10631105550E+01  0.18242752202E+02  0.34475029514E+02  0.10566000000E+00 0. -1.
         23    2    1    0    0    0  0.22785259272E+02 -0.17431674518E+02 -0.74359715260E+01  0.95363451801E+02  0.90641397553E+02 0.  0.
         13    1    3    3    0    0  0.52018601263E+02 -0.18494785073E+02 -0.25678723728E+02  0.60888422287E+02  0.10566000000E+00 0.  1.
         22    1    1    0    0    0 -0.22785259272E+02  0.17431674518E+02  0.74359715260E+01  0.29636548199E+02  0.00000000000E+00 0.  1.
</event>
<event>
 5    1  0.9041381E-005  0.9118800E+02  0.7818608E-02  0.1130116E+00
         25   -1    0    0    0    0  0.00000000000E+00  0.00000000000E+00  0.99999998245E-14  0.12500000000E+03  0.12500000000E+03 0.  0.
        -13    1    3    3    0    0 -0.55326704806E+01  0.35872741800E+02 -0.38281063141E+01  0.36498350770E+02  0.10566000000E+00 0. -1.
         23    2    1    0    0    0 -0.19835756251E+02 -0.19710869422E+02  0.95845574125E+01  0.95439226326E+02  0.90745835064E+02 0.  0.
         13    1    3    3    0    0 -0.14303085770E+02 -0.55583611222E+02  0.13412663727E+02  0.58940875556E+02  0.10566000000E+00 0.  1.
         22    1    1    0    0    0  0.19835756251E+02  0.19710869422E+02 -0.95845574125E+01  0.29560773674E+02  0.00000000000E+00 0.  1.
</event>
<event>
 5    1  0.9041381E-005  0.9118800E+02  0.7818608E-02  0.1130116E+00
         25   -1    0    0    0    0  0.00000000000E+00  0.00000000000E+00  0.99999998245E-14  0.12500000000E+03  0.12500000000E+03 0.  0.
        -13    1    3    3    0    0  0.30545591249E+02  0.19748428195E+02 -0.71157599620E+01  0.37063172621E+02  0.10566000000E+00 0. -1.
         23    2    1    0    0    0 -0.22739611997E+02  0.85574517579E+01  0.15672269602E+02  0.96087373539E+02  0.91634291534E+02 0.  0.
         13    1    3    3    0    0 -0.53285203246E+02 -0.11190976437E+02  0.22788029564E+02  0.59024200918E+02  0.10566000000E+00 0.  1.
         22    1    1    0    0    0  0.22739611997E+02 -0.85574517579E+01 -0.15672269602E+02  0.28912626461E+02  0.00000000000E+00 0.  1.
</event>
<event>
 5    1  0.9041381E-005  0.9118800E+02  0.7818608E-02  0.1130116E+00
         25   -1    0    0    0    0  0.00000000000E+00  0.00000000000E+00  0.99999998245E-14  0.12500000000E+03  0.12500000000E+03 0.  0.
        -13    1    3    3    0    0 -0.25596408839E+01 -0.60609138696E+02  0.58616576502E+01  0.60945792712E+02  0.10566000000E+00 0. -1.
         23    2    1    0    0    0  0.81314577330E+01 -0.28716732700E+02 -0.35409745182E+00  0.95152106828E+02  0.90349469876E+02 0.  0.
         13    1    3    3    0    0  0.10691098617E+02  0.31892405996E+02 -0.62157551020E+01  0.34206314115E+02  0.10566000000E+00 0.  1.
         22    1    1    0    0    0 -0.81314577330E+01  0.28716732700E+02  0.35409745182E+00  0.29847893172E+02  0.00000000000E+00 0. -1.
</event>
<event>
 5    1  0.9041381E-005  0.9118800E+02  0.7818608E-02  0.1130116E+00
         25   -1    0    0    0    0  0.00000000000E+00  0.00000000000E+00  0.99999998245E-14  0.12500000000E+03  0.12500000000E+03 0.  0.
        -13    1    3    3    0    0 -0.20039951386E+02  0.26635450926E+02 -0.11440278421E+01  0.33352164267E+02  0.10566000000E+00 0. -1.
         23    2    1    0    0    0  0.93335693316E+01 -0.27996160024E+02  0.16518621577E+01  0.95442781911E+02  0.90750732657E+02 0.  0.
         13    1    3    3    0    0  0.29373520717E+02 -0.54631610951E+02  0.27958899999E+01  0.62090617643E+02  0.10566000000E+00 0.  1.
         22    1    1    0    0    0 -0.93335693316E+01  0.27996160024E+02 -0.16518621577E+01  0.29557218089E+02  0.00000000000E+00 0.  1.
</event>
<event>
 5    1  0.9041381E-005  0.9118800E+02  0.7818608E-02  0.1130116E+00
         25   -1    0    0    0    0  0.00000000000E+00  0.00000000000E+00  0.99999998245E-14  0.12500000000E+03  0.12500000000E+03 0.  0.
        -13    1    3    3    0    0 -0.33071456324E+02  0.12413929062E+02 -0.19805008013E+02  0.40497856297E+02  0.10566000000E+00 0.  1.
         23    2    1    0    0    0  0.22254003658E+02  0.40953542000E+01 -0.17327121916E+02  0.96500144585E+02  0.92195640603E+02 0.  0.
         13    1    3    3    0    0  0.55325459982E+02 -0.83185748625E+01  0.24778860973E+01  0.56002288288E+02  0.10566000000E+00 0. -1.
         22    1    1    0    0    0 -0.22254003658E+02 -0.40953542000E+01  0.17327121916E+02  0.28499855415E+02  0.00000000000E+00 0. -1.
</event>
<event>
 5    1  0.9041381E-005  0.9118800E+02  0.7818608E-02  0.1130116E+00
         25   -1    0    0    0    0  0.00000000000E+00  0.00000000000E+00  0.99999998245E-14  0.12500000000E+03  0.12500000000E+03 0.  0.
        -13    1    3    3    0    0  0.25915684472E+02  0.60103897607E+01  0.41615854058E+02  0.49392691359E+02  0.10566000000E+00 0. -1.
         23    2    1    0    0    0  0.88031661442E+01  0.27687406817E+02  0.45865145430E+01  0.95587003790E+02  0.90949166832E+02 0.  0.
         13    1    3    3    0    0 -0.17112518328E+02  0.21677017056E+02 -0.37029339515E+02  0.46194312430E+02  0.10566000000E+00 0.  1.
         22    1    1    0    0    0 -0.88031661442E+01 -0.27687406817E+02 -0.45865145430E+01  0.29412996210E+02  0.00000000000E+00 0. -1.
</event>
<event>
 5    1  0.9041381E-005  0.9118800E+02  0.7818608E-02  0.1130116E+00
         25   -1    0    0    0    0  0.00000000000E+00  0.00000000000E+00  0.99999998245E-14  0.12500000000E+03  0.12500000000E+03 0.  0.
        -13    1    3    3    0    0  0.15856944176E+02 -0.38481306910E+02 -0.27471234130E+02  0.49869164107E+02  0.10566000000E+00 0. -1.
         23    2    1    0    0    0  0.27516246796E+02  0.21231904711E+01 -0.90526705490E+01  0.95955161911E+02  0.91453761420E+02 0.  0.
         13    1    3    3    0    0  0.11659302620E+02  0.40604497381E+02  0.18418563581E+02  0.46085997804E+02  0.10566000000E+00 0.  1.
         22    1    1    0    0    0 -0.27516246796E+02 -0.21231904711E+01  0.90526705490E+01  0.29044838089E+02  0.00000000000E+00 0.  1.
</event>
<event>
 5    1  0.9041381E-005  0.9118800E+02  0.7818608E-02  0.1130116E+00
         25   -1    0    0    0    0  0.00000000000E+00  0.00000000000E+00  0.99999998245E-14  0.12500000000E+03  0.12500000000E+03 0.  0.
        -13    1    3    3    0    0 -0.20852354257E+02  0.31499687760E+01  0.36337348541E+02  0.42013772079E+02  0.10566000000E+00 0.  1.
         23    2    1    0    0    0 -0.84464141267E+01  0.27880562585E+02 -0.84581642062E+01  0.94665065957E+02  0.89673109064E+02 0.  0.
         13    1    3    3    0    0  0.12405940130E+02  0.24730593809E+02 -0.44795512747E+02  0.52651293877E+02  0.10566000000E+00 0. -1.
         22    1    1    0    0    0  0.84464141267E+01 -0.27880562585E+02  0.84581642062E+01  0.30334934043E+02  0.00000000000E+00 0.  1.
</event>
<event>
 5    1  0.9041381E-005  0.9118800E+02  0.7818608E-02  0.1130116E+00
         25   -1    0    0    0    0  0.00000000000E+00  0.00000000000E+00  0.99999998245E-14  0.12500000000E+03  0.12500000000E+03 0.  0.
        -13    1    3    3    0    0  0.21357764221E+02 -0.10329804427E+02  0.31312788082E+02  0.39285631133E+02  0.10566000000E+00 0.  1.
         23    2    1    0    0    0  0.24927970881E+01  0.30504110558E+02 -0.51747797329E+00  0.94389828787E+02  0.89288617397E+02 0.  0.
         13    1    3    3    0    0 -0.18864967133E+02  0.40833914985E+02 -0.31830266055E+02  0.55104197654E+02  0.10566000000E+00 0. -1.
         22    1    1    0    0    0 -0.24927970881E+01 -0.30504110558E+02  0.51747797329E+00  0.30610171213E+02  0.00000000000E+00 0. -1.
</event>
<event>
 5    1  0.9041381E-005  0.9118800E+02  0.7818608E-02  0.1130116E+00
         25   -1    0    0    0    0  0.00000000000E+00  0.00000000000E+00  0.99999998245E-14  0.12500000000E+03  0.12500000000E+03 0.  0.
        -13    1    3    3    0    0 -0.26350023424E+02  0.52807638582E+02 -0.43591651897E+01  0.59177562574E+02  0.10566000000E+00 0.  1.
         23    2    1    0    0    0 -0.94088814917E+01  0.23393235511E+02 -0.16086931358E+02  0.95090806111E+02  0.90264619468E+02 0.  0.
         13    1    3    3    0    0  0.16941141932E+02 -0.29414403071E+02 -0.11727766169E+02  0.35913243537E+02  0.10566000000E+00 0. -1.
         22    1    1    0    0    0  0.94088814917E+01 -0.23393235511E+02  0.16086931358E+02  0.29909193889E+02  0.00000000000E+00 0.  1.
</event>
<event>
 5    1  0.9041381E-005  0.9118800E+02  0.7818608E-02  0.1130116E+00
         25   -1    0    0    0    0  0.00000000000E+00  0.00000000000E+00  0.99999998245E-14  0.12500000000E+03  0.12500000000E+03 0.  0.
        -13    1    3    3    0    0 -0.25444926257E+02  0.37132699379E+02 -0.26971874741E+01  0.45095095296E+02  0.10566000000E+00 0. -1.
         23    2    1    0    0    0  0.21581574586E+02  0.17894742324E+02 -0.70531796447E+01  0.96090944195E+02  0.91639162200E+02 0.  0.
         13    1    3    3    0    0  0.47026500843E+02 -0.19237957055E+02 -0.43559921706E+01  0.50995848899E+02  0.10566000000E+00 0.  1.
         22    1    1    0    0    0 -0.21581574586E+02 -0.17894742324E+02  0.70531796447E+01  0.28909055805E+02  0.00000000000E+00 0.  1.
</event>
<event>
 5    1  0.9041381E-005  0.9118800E+02  0.7818608E-02  0.1130116E+00
         25   -1    0    0    0    0  0.00000000000E+00  0.00000000000E+00  0.99999998245E-14  0.12500000000E+03  0.12500000000E+03 0.  0.
        -13    1    3    3    0    0  0.58991971879E+02  0.13395747199E+02  0.13909459473E+02  0.62072401404E+02  0.10566000000E+00 0. -1.
         23    2    1    0    0    0  0.26482824803E+02  0.92862375494E+01  0.10576068470E+02  0.95009544157E+02  0.90152016280E+02 0.  0.
         13    1    3    3    0    0 -0.32509147076E+02 -0.41095096492E+01 -0.33333910031E+01  0.32937142753E+02  0.10566000000E+00 0.  1.
         22    1    1    0    0    0 -0.26482824803E+02 -0.92862375494E+01 -0.10576068470E+02  0.29990455843E+02  0.00000000000E+00 0. -1.
</event>
<event>
 5    1  0.9041381E-005  0.9118800E+02  0.7818608E-02  0.1130116E+00
         25   -1    0    0    0    0  0.00000000000E+00  0.00000000000E+00  0.99999998245E-14  0.12500000000E+03  0.12500000000E+03 0.  0.
        -13    1    3    3    0    0 -0.29722829855E+02 -0.44976514138E+01  0.18470201271E+02  0.35282219061E+02  0.10566000000E+00 0.  1.
         23    2    1    0    0    0  0.55591032414E+01  0.31837676709E+01 -0.29212011442E+02  0.95093786299E+02  0.90268746390E+02 0.  0.
         13    1    3    3    0    0  0.35281933096E+02  0.76814190848E+01 -0.47682212714E+02  0.59811567238E+02  0.10566000000E+00 0. -1.
         22    1    1    0    0    0 -0.55591032414E+01 -0.31837676709E+01  0.29212011442E+02  0.29906213701E+02  0.00000000000E+00 0. -1.
</event>
<event>
 5    1  0.9041381E-005  0.9118800E+02  0.7818608E-02  0.1130116E+00
         25   -1    0    0    0    0  0.00000000000E+00  0.00000000000E+00  0.99999998245E-14  0.12500000000E+03  0.12500000000E+03 0.  0.
        -13    1    3    3    0    0 -0.10906895156E+02  0.30122880667E+01 -0.55413008358E+02  0.56556581409E+02  0.10566000000E+00 0.  1.
         23    2    1    0    0    0 -0.70537527994E+00  0.19516443215E+02 -0.19349551048E+02  0.97508287870E+02  0.93552509146E+02 0.  0.
         13    1    3    3    0    0  0.10201519876E+02  0.16504155148E+02  0.36063457310E+02  0.40951706461E+02  0.10566000000E+00 0. -1.
         22    1    1    0    0    0  0.70537527994E+00 -0.19516443215E+02  0.19349551048E+02  0.27491712130E+02  0.00000000000E+00 0.  1.
</event>
<event>
 5    1  0.9041381E-005  0.9118800E+02  0.7818608E-02  0.1130116E+00
         25   -1    0    0    0    0  0.00000000000E+00  0.00000000000E+00  0.99999998245E-14  0.12500000000E+03  0.12500000000E+03 0.  0.
        -13    1    3    3    0    0 -0.98343957932E+01  0.56039498342E+02  0.70148980074E+01  0.57326788443E+02  0.10566000000E+00 0.  1.
         23    2    1    0    0    0  0.33571873271E+01  0.26485076334E+02  0.19419118794E+02  0.91987394076E+02  0.85859469594E+02 0.  0.
         13    1    3    3    0    0  0.13191583120E+02 -0.29554422009E+02  0.12404220787E+02  0.34660605633E+02  0.10566000000E+00 0. -1.
         22    1    1    0    0    0 -0.33571873271E+01 -0.26485076334E+02 -0.19419118794E+02  0.33012605924E+02  0.00000000000E+00 0.  1.
</event>
<event>
 5    1  0.9041381E-005  0.9118800E+02  0.7818608E-02  0.1130116E+00
         25   -1    0    0    0    0  0.00000000000E+00  0.00000000000E+00  0.99999998245E-14  0.12500000000E+03  0.12500000000E+03 0.  0.
        -13    1    3    3    0    0  0.44413160934E+02  0.27378323577E+02  0.34232695102E+02  0.62401843275E+02  0.10566000000E+00 0.  1.
         23    2    1    0    0    0  0.19887171056E+02  0.14003720907E+02  0.18298000411E+02  0.94562841938E+02  0.89530500303E+02 0.  0.
         13    1    3    3    0    0 -0.24525989879E+02 -0.13374602670E+02 -0.15934694691E+02  0.32160998663E+02  0.10566000000E+00 0. -1.
         22    1    1    0    0    0 -0.19887171056E+02 -0.14003720907E+02 -0.18298000411E+02  0.30437158062E+02  0.00000000000E+00 0.  1.
</event>
<event>
 5    1  0.9041381E-005  0.9118800E+02  0.7818608E-02  0.1130116E+00
         25   -1    0    0    0    0  0.00000000000E+00  0.00000000000E+00  0.99999998245E-14  0.12500000000E+03  0.12500000000E+03 0.  0.
        -13    1    3    3    0    0 -0.52272273531E+02 -0.31910989833E+02  0.35244785706E+01  0.61344396365E+02  0.10566000000E+00 0.  1.
         23    2    1    0    0    0 -0.26998513203E+02 -0.10087023428E+02  0.81323603587E+01  0.95053330038E+02  0.90212707029E+02 0.  0.
         13    1    3    3    0    0  0.25273760328E+02  0.21823966405E+02  0.46078817881E+01  0.33708933673E+02  0.10566000000E+00 0. -1.
         22    1    1    0    0    0  0.26998513203E+02  0.10087023428E+02 -0.81323603587E+01  0.29946669962E+02  0.00000000000E+00 0.  1.
</event>
<event>
 5    1  0.9041381E-005  0.9118800E+02  0.7818608E-02  0.1130116E+00
         25   -1    0    0    0    0  0.00000000000E+00  0.00000000000E+00  0.99999998245E-14  0.12500000000E+03  0.12500000000E+03 0.  0.
        -13    1    3    3    0    0  0.11668317064E+02 -0.24052011769E+02 -0.50325756383E+02  0.56985452641E+02  0.10566000000E+00 0.  1.
         23    2    1    0    0    0 -0.56345319366E+01  0.28398009735E+01 -0.28761079453E+02  0.95554930616E+02  0.90905074963E+02 0.  0.
         13    1    3    3    0    0 -0.17302849001E+02  0.26891812742E+02  0.21564676929E+02  0.38569477974E+02  0.10566000000E+00 0. -1.
         22    1    1    0    0    0  0.56345319366E+01 -0.28398009735E+01  0.28761079453E+02  0.29445069384E+02  0.00000000000E+00 0.  1.
</event>
<event>
 5    1  0.9041381E-005  0.9118800E+02  0.7818608E-02  0.1130116E+00
         25   -1    0    0    0    0  0.00000000000E+00  0.00000000000E+00  0.99999998245E-14  0.12500000000E+03  0.12500000000E+03 0.  0.
        -13    1    3    3    0    0  0.54715834690E+02  0.26308481282E+01  0.16736136270E+02  0.57278733828E+02  0.10566000000E+00 0.  1.
         23    2    1    0    0    0  0.29067647660E+02 -0.15472023625E+02  0.18597749658E+01  0.92018635285E+02  0.85904940611E+02 0.  0.
         13    1    3    3    0    0 -0.25648187030E+02 -0.18102871753E+02 -0.14876361304E+02  0.34739901458E+02  0.10566000000E+00 0. -1.
         22    1    1    0    0    0 -0.29067647660E+02  0.15472023625E+02 -0.18597749658E+01  0.32981364715E+02  0.00000000000E+00 0.  1.
</event>
<event>
 5    1  0.9041381E-005  0.9118800E+02  0.7818608E-02  0.1130116E+00
         25   -1    0    0    0    0  0.00000000000E+00  0.00000000000E+00  0.99999998245E-14  0.12500000000E+03  0.12500000000E+03 0.  0.
        -13    1    3    3    0    0  0.43172365411E+02 -0.18771999712E+02  0.38651916351E+02  0.60911599142E+02  0.10566000000E+00 0. -1.
         23    2    1    0    0    0  0.19659523603E+02  0.23407620331E+00  0.22249708317E+02  0.95308230430E+02  0.90565211906E+02 0.  0.
         13    1    3    3    0    0 -0.23512841808E+02  0.19006075916E+02 -0.16402208033E+02  0.34396631288E+02  0.10566000000E+00 0.  1.
         22    1    1    0    0    0 -0.19659523603E+02 -0.23407620331E+00 -0.22249708317E+02  0.29691769570E+02  0.00000000000E+00 0. -1.
</event>
<event>
 5    1  0.9041381E-005  0.9118800E+02  0.7818608E-02  0.1130116E+00
         25   -1    0    0    0    0  0.00000000000E+00  0.00000000000E+00  0.99999998245E-14  0.12500000000E+03  0.12500000000E+03 0.  0.
        -13    1    3    3    0    0  0.72856330913E+01  0.48921055396E+02  0.27969009316E+02  0.56821006298E+02  0.10566000000E+00 0. -1.
         23    2    1    0    0    0  0.21135306342E+02  0.17987214419E+02  0.81875660458E+01  0.96064255764E+02  0.91602750729E+02 0.  0.
         13    1    3    3    0    0  0.13849673251E+02 -0.30933840977E+02 -0.19781443271E+02  0.39243249466E+02  0.10566000000E+00 0.  1.
         22    1    1    0    0    0 -0.21135306342E+02 -0.17987214419E+02 -0.81875660458E+01  0.28935744236E+02  0.00000000000E+00 0. -1.
</event>
<event>
 5    1  0.9041381E-005  0.9118800E+02  0.7818608E-02  0.1130116E+00
         25   -1    0    0    0    0  0.00000000000E+00  0.00000000000E+00  0.99999998245E-14  0.12500000000E+03  0.12500000000E+03 0.  0.
        -13    1    3    3    0    0  0.20954780127E+02 -0.34523659008E+02  0.47430639449E+02  0.62294964195E+02  0.10566000000E+00 0.  1.
         23    2    1    0    0    0  0.12562298840E+02 -0.14269224133E+02  0.23981830761E+02  0.94396890417E+02  0.89298502811E+02 0.  0.
         13    1    3    3    0    0 -0.83924812869E+01  0.20254434875E+02 -0.23448808688E+02  0.32101926222E+02  0.10566000000E+00 0. -1.
         22    1    1    0    0    0 -0.12562298840E+02  0.14269224133E+02 -0.23981830761E+02  0.30603109583E+02  0.00000000000E+00 0.  1.
</event>
<event>
 5    1  0.9041381E-005  0.9118800E+02  0.7818608E-02  0.1130116E+00
         25   -1    0    0    0    0  0.00000000000E+00  0.00000000000E+00  0.99999998245E-14  0.12500000000E+03  0.12500000000E+03 0.  0.
        -13    1    3    3    0    0  0.40466678370E+02 -0.43381345470E+02 -0.16142051253E+02  0.61482275298E+02  0.10566000000E+00 0.  1.
         23    2    1    0    0    0  0.24137159003E+02 -0.14246518108E+02 -0.69506137135E+01  0.96123075754E+02  0.91682980637E+02 0.  0.
         13    1    3    3    0    0 -0.16329519367E+02  0.29134827362E+02  0.91914375397E+01  0.34640800456E+02  0.10566000000E+00 0. -1.
         22    1    1    0    0    0 -0.24137159003E+02  0.14246518108E+02  0.69506137135E+01  0.28876924246E+02  0.00000000000E+00 0.  1.
</event>
<event>
 5    1  0.9041381E-005  0.9118800E+02  0.7818608E-02  0.1130116E+00
         25   -1    0    0    0    0  0.00000000000E+00  0.00000000000E+00  0.99999998245E-14  0.12500000000E+03  0.12500000000E+03 0.  0.
        -13    1    3    3    0    0 -0.27003436366E+02  0.17583774027E+02  0.52489225377E+02  0.61591433084E+02  0.10566000000E+00 0. -1.
         23    2    1    0    0    0 -0.52185800946E+01  0.11741539098E+02  0.22099859333E+02  0.99436332400E+02  0.96094136658E+02 0.  0.
         13    1    3    3    0    0  0.21784856272E+02 -0.58422349298E+01 -0.30389366043E+02  0.37844899317E+02  0.10566000000E+00 0.  1.
         22    1    1    0    0    0  0.52185800946E+01 -0.11741539098E+02 -0.22099859333E+02  0.25563667600E+02  0.00000000000E+00 0. -1.
</event>
<event>
 5    1  0.9041381E-005  0.9118800E+02  0.7818608E-02  0.1130116E+00
         25   -1    0    0    0    0  0.00000000000E+00  0.00000000000E+00  0.99999998245E-14  0.12500000000E+03  0.12500000000E+03 0.  0.
        -13    1    3    3    0    0  0.73944933651E+01 -0.33280331510E+02 -0.11119208992E+02  0.35859545036E+02  0.10566000000E+00 0.  1.
         23    2    1    0    0    0  0.11571373953E+02  0.23218770747E+02  0.11189917473E+02  0.96747172474E+02  0.92529957951E+02 0.  0.
         13    1    3    3    0    0  0.41768805880E+01  0.56499102257E+02  0.22309126465E+02  0.60887627438E+02  0.10566000000E+00 0. -1.
         22    1    1    0    0    0 -0.11571373953E+02 -0.23218770747E+02 -0.11189917473E+02  0.28252827526E+02  0.00000000000E+00 0. -1.
</event>
<event>
 5    1  0.9041381E-005  0.9118800E+02  0.7818608E-02  0.1130116E+00
         25   -1    0    0    0    0  0.00000000000E+00  0.00000000000E+00  0.99999998245E-14  0.12500000000E+03  0.12500000000E+03 0.  0.
        -13    1    3    3    0    0 -0.14066666771E+02 -0.14341572175E+02 -0.26849005747E+02  0.33532552545E+02  0.10566000000E+00 0.  1.
         23    2    1    0    0    0  0.15107044857E+02 -0.32932868679E+01  0.25911624225E+02  0.94825825402E+02  0.89896920695E+02 0.  0.
         13    1    3    3    0    0  0.29173711628E+02  0.11048285308E+02  0.52760629972E+02  0.61293272857E+02  0.10566000000E+00 0. -1.
         22    1    1    0    0    0 -0.15107044857E+02  0.32932868679E+01 -0.25911624225E+02  0.30174174598E+02  0.00000000000E+00 0. -1.
</event>
<event>
 5    1  0.9041381E-005  0.9118800E+02  0.7818608E-02  0.1130116E+00
         25   -1    0    0    0    0  0.00000000000E+00  0.00000000000E+00  0.99999998245E-14  0.12500000000E+03  0.12500000000E+03 0.  0.
        -13    1    3    3    0    0 -0.12941824538E+02  0.21937776951E+02  0.45184164942E+02  0.51868842338E+02  0.10566000000E+00 0.  1.
         23    2    1    0    0    0  0.70126158140E+01  0.26906611612E+02  0.53690429695E+01  0.96680940139E+02  0.92440440473E+02 0.  0.
         13    1    3    3    0    0  0.19954440352E+02  0.49688346610E+01 -0.39815121973E+02  0.44812097802E+02  0.10566000000E+00 0. -1.
         22    1    1    0    0    0 -0.70126158140E+01 -0.26906611612E+02 -0.53690429695E+01  0.28319059861E+02  0.00000000000E+00 0.  1.
</event>
<event>
 5    1  0.9041381E-005  0.9118800E+02  0.7818608E-02  0.1130116E+00
         25   -1    0    0    0    0  0.00000000000E+00  0.00000000000E+00  0.99999998245E-14  0.12500000000E+03  0.12500000000E+03 0.  0.
        -13    1    3    3    0    0  0.15428748619E+02  0.29305246923E+02 -0.83342588142E+01  0.34151351587E+02  0.10566000000E+00 0.  1.
         23    2    1    0    0    0  0.13007663009E+02 -0.27022920979E+02  0.99171782422E+01  0.93412217877E+02  0.87909353707E+02 0.  0.
         13    1    3    3    0    0 -0.24210856101E+01 -0.56328167902E+02  0.18251437056E+02  0.59260866290E+02  0.10566000000E+00 0. -1.
         22    1    1    0    0    0 -0.13007663009E+02  0.27022920979E+02 -0.99171782422E+01  0.31587782123E+02  0.00000000000E+00 0. -1.
</event>
<event>
 5    1  0.9041381E-005  0.9118800E+02  0.7818608E-02  0.1130116E+00
         25   -1    0    0    0    0  0.00000000000E+00  0.00000000000E+00  0.99999998245E-14  0.12500000000E+03  0.12500000000E+03 0.  0.
        -13    1    3    3    0    0  0.55670882889E+02  0.13023079707E+02  0.51563968202E+00  0.57176261289E+02  0.10566000000E+00 0.  1.
         23    2    1    0    0    0  0.19672623175E+02  0.33186286353E+01  0.17792286624E+02  0.98268167629E+02  0.94562370462E+02 0.  0.
         13    1    3    3    0    0 -0.35998259714E+02 -0.97044510716E+01  0.17276646942E+02  0.41091906340E+02  0.10566000000E+00 0. -1.
         22    1    1    0    0    0 -0.19672623175E+02 -0.33186286353E+01 -0.17792286624E+02  0.26731832371E+02  0.00000000000E+00 0.  1.
</event>
<event>
 5    1  0.9041381E-005  0.9118800E+02  0.7818608E-02  0.1130116E+00
         25   -1    0    0    0    0  0.00000000000E+00  0.00000000000E+00  0.99999998245E-14  0.12500000000E+03  0.12500000000E+03 0.  0.
        -13    1    3    3    0    0 -0.51804396810E+00 -0.32973769935E+02  0.10941647218E+02  0.34745772133E+02  0.10566000000E+00 0.  1.
         23    2    1    0    0    0 -0.22369248724E+02  0.20821981397E+02 -0.24733961876E+01  0.94339669172E+02  0.89218368585E+02 0.  0.
         13    1    3    3    0    0 -0.21851204756E+02  0.53795751332E+02 -0.13415043406E+02  0.59593897039E+02  0.10566000000E+00 0. -1.
         22    1    1    0    0    0  0.22369248724E+02 -0.20821981397E+02  0.24733961876E+01  0.30660330828E+02  0.00000000000E+00 0. -1.
</event>
<event>
 5    1  0.9041381E-005  0.9118800E+02  0.7818608E-02  0.1130116E+00
         25   -1    0    0    0    0  0.00000000000E+00  0.00000000000E+00  0.99999998245E-14  0.12500000000E+03  0.12500000000E+03 0.  0.
        -13    1    3    3    0    0  0.33022726690E+02  0.29589458430E+02  0.38795345620E+02  0.58916267143E+02  0.10566000000E+00 0.  1.
         23    2    1    0    0    0  0.24048116317E+02  0.17708207562E+01  0.15056891131E+02  0.96571885833E+02  0.92292857027E+02 0.  0.
         13    1    3    3    0    0 -0.89746103726E+01 -0.27818637674E+02 -0.23738454489E+02  0.37655618690E+02  0.10566000000E+00 0. -1.
         22    1    1    0    0    0 -0.24048116317E+02 -0.17708207562E+01 -0.15056891131E+02  0.28428114167E+02  0.00000000000E+00 0.  1.
</event>
<event>
 5    1  0.9041381E-005  0.9118800E+02  0.7818608E-02  0.1130116E+00
         25   -1    0    0    0    0  0.00000000000E+00  0.00000000000E+00  0.99999998245E-14  0.12500000000E+03  0.12500000000E+03 0.  0.
        -13    1    3    3    0    0 -0.15475542321E+02  0.48955086088E+02  0.44678414412E+01  0.51537031688E+02  0.10566000000E+00 0.  1.
         23    2    1    0    0    0 -0.16714508605E+02  0.89349490626E+01  0.22611866146E+02  0.95495685006E+02  0.90823572114E+02 0.  0.
         13    1    3    3    0    0 -0.12389662844E+01 -0.40020137026E+02  0.18144024705E+02  0.43958653318E+02  0.10566000000E+00 0. -1.
         22    1    1    0    0    0  0.16714508605E+02 -0.89349490626E+01 -0.22611866146E+02  0.29504314994E+02  0.00000000000E+00 0.  1.
</event>
<event>
 4    1  0.9041381E-005  0.9118800E+02  0.7818608E-02  0.1130116E+00
         25   -1    0    0    0    0  0.00000000000E+00  0.00000000000E+00  0.99999998245E-14  0.12500000000E+03  0.12500000000E+03 0.  0.
        -13    1    1    0    0    0 -0.66084169620E+01 -0.48332585558E+01  0.96837768723E+01  0.12681414020E+02  0.10566000000E+00 0.  1.
         13    1    1    0    0    0  0.11886458943E+02  0.57544218798E+02 -0.81516718740E+01  0.59321884171E+02  0.10566000000E+00 0. -1.
         22    1    1    0    0    0 -0.52780419810E+01 -0.52710960242E+02 -0.15321049983E+01  0.52996701808E+02  0.00000000000E+00 0. -1.
</event>
<event>
 5    1  0.9041381E-005  0.9118800E+02  0.7818608E-02  0.1130116E+00
         25   -1    0    0    0    0  0.00000000000E+00  0.00000000000E+00  0.99999998245E-14  0.12500000000E+03  0.12500000000E+03 0.  0.
        -13    1    3    3    0    0  0.56412552580E+01 -0.40341971243E+02 -0.47207224640E+02  0.62352478915E+02  0.10566000000E+00 0.  1.
         23    2    1    0    0    0 -0.40979475076E+00 -0.18444253745E+02 -0.20252426754E+02  0.97604394196E+02  0.93680833413E+02 0.  0.
         13    1    3    3    0    0 -0.60510500088E+01  0.21897717498E+02  0.26954797886E+02  0.35251915281E+02  0.10566000000E+00 0. -1.
         22    1    1    0    0    0  0.40979475076E+00  0.18444253745E+02  0.20252426754E+02  0.27395605804E+02  0.00000000000E+00 0.  1.
</event>
<event>
 5    1  0.9041381E-005  0.9118800E+02  0.7818608E-02  0.1130116E+00
         25   -1    0    0    0    0  0.00000000000E+00  0.00000000000E+00  0.99999998245E-14  0.12500000000E+03  0.12500000000E+03 0.  0.
        -13    1    3    3    0    0 -0.29165202249E+02 -0.40548300059E+01 -0.13587173849E+02  0.32429510108E+02  0.10566000000E+00 0.  1.
         23    2    1    0    0    0  0.18202017911E+02  0.19103317982E+02  0.17216366241E+02  0.93493596198E+02  0.88024991052E+02 0.  0.
         13    1    3    3    0    0  0.47367220160E+02  0.23158147988E+02  0.30803540090E+02  0.61064086090E+02  0.10566000000E+00 0. -1.
         22    1    1    0    0    0 -0.18202017911E+02 -0.19103317982E+02 -0.17216366241E+02  0.31506403802E+02  0.00000000000E+00 0. -1.
</event>
<event>
 5    1  0.9041381E-005  0.9118800E+02  0.7818608E-02  0.1130116E+00
         25   -1    0    0    0    0  0.00000000000E+00  0.00000000000E+00  0.99999998245E-14  0.12500000000E+03  0.12500000000E+03 0.  0.
        -13    1    3    3    0    0  0.19721975948E+02  0.43277553332E+01  0.40643491537E+02  0.45382710033E+02  0.10566000000E+00 0.  1.
         23    2    1    0    0    0  0.81476397243E+01 -0.26764645099E+02  0.10992903840E+01  0.97001094670E+02  0.92872351469E+02 0.  0.
         13    1    3    3    0    0 -0.11574336224E+02 -0.31092400432E+02 -0.39544201153E+02  0.51618384637E+02  0.10566000000E+00 0. -1.
         22    1    1    0    0    0 -0.81476397243E+01  0.26764645099E+02 -0.10992903840E+01  0.27998905330E+02  0.00000000000E+00 0. -1.
</event>
<event>
 5    1  0.9041381E-005  0.9118800E+02  0.7818608E-02  0.1130116E+00
         25   -1    0    0    0    0  0.00000000000E+00  0.00000000000E+00  0.99999998245E-14  0.12500000000E+03  0.12500000000E+03 0.  0.
        -13    1    3    3    0    0  0.17145363703E+02  0.25603541076E+01 -0.37501761639E+02  0.41314793958E+02  0.10566000000E+00 0.  1.
         23    2    1    0    0    0 -0.59762120012E+01  0.27079062952E+02  0.62817004436E+01  0.96566735665E+02  0.92285881457E+02 0.  0.
         13    1    3    3    0    0 -0.23121575704E+02  0.24518708845E+02  0.43783462083E+02  0.55251941708E+02  0.10566000000E+00 0. -1.
         22    1    1    0    0    0  0.59762120012E+01 -0.27079062952E+02 -0.62817004436E+01  0.28433264335E+02  0.00000000000E+00 0. -1.
</event>
<event>
 5    1  0.9041381E-005  0.9118800E+02  0.7818608E-02  0.1130116E+00
         25   -1    0    0    0    0  0.00000000000E+00  0.00000000000E+00  0.99999998245E-14  0.12500000000E+03  0.12500000000E+03 0.  0.
        -13    1    3    3    0    0 -0.14503811038E+02  0.40649586051E+02  0.40944122534E+02  0.59491022136E+02  0.10566000000E+00 0.  1.
         23    2    1    0    0    0 -0.99027419645E+01  0.26893247857E+02  0.83775590841E+01  0.95142093595E+02  0.90335615339E+02 0.  0.
         13    1    3    3    0    0  0.46010690731E+01 -0.13756338194E+02 -0.32566563450E+02  0.35651071458E+02  0.10566000000E+00 0. -1.
         22    1    1    0    0    0  0.99027419645E+01 -0.26893247857E+02 -0.83775590841E+01  0.29857906405E+02  0.00000000000E+00 0.  1.
</event>
<event>
 5    1  0.9041381E-005  0.9118800E+02  0.7818608E-02  0.1130116E+00
         25   -1    0    0    0    0  0.00000000000E+00  0.00000000000E+00  0.99999998245E-14  0.12500000000E+03  0.12500000000E+03 0.  0.
        -13    1    3    3    0    0 -0.82794487693E+01  0.58295183244E+02 -0.20625907073E+02  0.62388435371E+02  0.10566000000E+00 0.  1.
         23    2    1    0    0    0 -0.56571260632E+01  0.27682108511E+02 -0.77542213799E+01  0.95701021245E+02  0.91105736983E+02 0.  0.
         13    1    3    3    0    0  0.26223227061E+01 -0.30613074733E+02  0.12871685693E+02  0.33312585874E+02  0.10566000000E+00 0. -1.
         22    1    1    0    0    0  0.56571260632E+01 -0.27682108511E+02  0.77542213799E+01  0.29298978755E+02  0.00000000000E+00 0.  1.
</event>
<event>
 5    1  0.9041381E-005  0.9118800E+02  0.7818608E-02  0.1130116E+00
         25   -1    0    0    0    0  0.00000000000E+00  0.00000000000E+00  0.99999998245E-14  0.12500000000E+03  0.12500000000E+03 0.  0.
        -13    1    3    3    0    0 -0.24518829659E+02  0.50304952204E+01  0.27530771505E+02  0.37207975405E+02  0.10566000000E+00 0.  1.
         23    2    1    0    0    0  0.18087284995E+02 -0.23482587108E+02  0.85311249177E-01  0.95358997085E+02  0.90635254020E+02 0.  0.
         13    1    3    3    0    0  0.42606114654E+02 -0.28513082328E+02 -0.27445460256E+02  0.58151021681E+02  0.10566000000E+00 0. -1.
         22    1    1    0    0    0 -0.18087284995E+02  0.23482587108E+02 -0.85311249177E-01  0.29641002915E+02  0.00000000000E+00 0. -1.
</event>
<event>
 5    1  0.9041381E-005  0.9118800E+02  0.7818608E-02  0.1130116E+00
         25   -1    0    0    0    0  0.00000000000E+00  0.00000000000E+00  0.99999998245E-14  0.12500000000E+03  0.12500000000E+03 0.  0.
        -13    1    3    3    0    0 -0.37198430120E+02 -0.40627396113E+00 -0.17928120317E+02  0.41295483095E+02  0.10566000000E+00 0.  1.
         23    2    1    0    0    0 -0.16198844904E+02  0.20256467048E+01  0.28413133070E+02  0.92230929955E+02  0.86213296472E+02 0.  0.
         13    1    3    3    0    0  0.20999585216E+02  0.24319206660E+01  0.46341253386E+02  0.50935446860E+02  0.10566000000E+00 0. -1.
         22    1    1    0    0    0  0.16198844904E+02 -0.20256467048E+01 -0.28413133070E+02  0.32769070045E+02  0.00000000000E+00 0. -1.
</event>
<event>
 5    1  0.9041381E-005  0.9118800E+02  0.7818608E-02  0.1130116E+00
         25   -1    0    0    0    0  0.00000000000E+00  0.00000000000E+00  0.99999998245E-14  0.12500000000E+03  0.12500000000E+03 0.  0.
        -13    1    3    3    0    0  0.25492271492E+02  0.26450156240E+02  0.36961857604E+02  0.52111963622E+02  0.10566000000E+00 0. -1.
         23    2    1    0    0    0  0.57674477543E+01  0.28905140084E+02 -0.15854454881E+01  0.95482476149E+02  0.90805391015E+02 0.  0.
         13    1    3    3    0    0 -0.19724823738E+02  0.24549838439E+01 -0.38547303092E+02  0.43370512527E+02  0.10566000000E+00 0.  1.
         22    1    1    0    0    0 -0.57674477543E+01 -0.28905140084E+02  0.15854454881E+01  0.29517523851E+02  0.00000000000E+00 0. -1.
</event>
<event>
 5    1  0.9041381E-005  0.9118800E+02  0.7818608E-02  0.1130116E+00
         25   -1    0    0    0    0  0.00000000000E+00  0.00000000000E+00  0.99999998245E-14  0.12500000000E+03  0.12500000000E+03 0.  0.
        -13    1    3    3    0    0  0.38298478792E+02 -0.34073583348E+01  0.39279540482E+01  0.38650013657E+02  0.10566000000E+00 0.  1.
         23    2    1    0    0    0 -0.14932383200E+02  0.12191429682E+02 -0.18311909790E+02  0.98411787088E+02  0.94752027798E+02 0.  0.
         13    1    3    3    0    0 -0.53230861992E+02  0.15598788017E+02 -0.22239863838E+02  0.59761773431E+02  0.10566000000E+00 0. -1.
         22    1    1    0    0    0  0.14932383200E+02 -0.12191429682E+02  0.18311909790E+02  0.26588212912E+02  0.00000000000E+00 0. -1.
</event>
<event>
 5    1  0.9041381E-005  0.9118800E+02  0.7818608E-02  0.1130116E+00
         25   -1    0    0    0    0  0.00000000000E+00  0.00000000000E+00  0.99999998245E-14  0.12500000000E+03  0.12500000000E+03 0.  0.
        -13    1    3    3    0    0  0.16142447391E+02 -0.40934170629E+02  0.14182776567E+02  0.46231453017E+02  0.10566000000E+00 0. -1.
         23    2    1    0    0    0 -0.19094905455E+02 -0.91693374615E+01  0.22166377088E+02  0.94339921118E+02  0.89218721575E+02 0.  0.
         13    1    3    3    0    0 -0.35237352846E+02  0.31764833167E+02  0.79836005206E+01  0.48108468101E+02  0.10566000000E+00 0.  1.
         22    1    1    0    0    0  0.19094905455E+02  0.91693374615E+01 -0.22166377088E+02  0.30660078882E+02  0.00000000000E+00 0.  1.
</event>
<event>
 5    1  0.9041381E-005  0.9118800E+02  0.7818608E-02  0.1130116E+00
         25   -1    0    0    0    0  0.00000000000E+00  0.00000000000E+00  0.99999998245E-14  0.12500000000E+03  0.12500000000E+03 0.  0.
        -13    1    3    3    0    0 -0.27692696996E+02  0.33539313878E+02 -0.31394921798E+02  0.53641619300E+02  0.10566000000E+00 0. -1.
         23    2    1    0    0    0  0.94276368656E+01  0.23933960489E+02 -0.13340824192E+02  0.96022553741E+02  0.91545826968E+02 0.  0.
         13    1    3    3    0    0  0.37120333861E+02 -0.96053533891E+01  0.18054097606E+02  0.42380934441E+02  0.10566000000E+00 0.  1.
         22    1    1    0    0    0 -0.94276368656E+01 -0.23933960489E+02  0.13340824192E+02  0.28977446259E+02  0.00000000000E+00 0. -1.
</event>
<event>
 5    1  0.9041381E-005  0.9118800E+02  0.7818608E-02  0.1130116E+00
         25   -1    0    0    0    0  0.00000000000E+00  0.00000000000E+00  0.99999998245E-14  0.12500000000E+03  0.12500000000E+03 0.  0.
        -13    1    3    3    0    0  0.42401769457E+02  0.42250859328E+02  0.11737121987E+02  0.60998494765E+02  0.10566000000E+00 0. -1.
         23    2    1    0    0    0  0.21545712834E+02  0.15408910874E+02  0.13949507206E+02  0.95062715101E+02  0.90225710167E+02 0.  0.
         13    1    3    3    0    0 -0.20856056622E+02 -0.26841948454E+02  0.22123852194E+01  0.34064220336E+02  0.10566000000E+00 0.  1.
         22    1    1    0    0    0 -0.21545712834E+02 -0.15408910874E+02 -0.13949507206E+02  0.29937284899E+02  0.00000000000E+00 0. -1.
</event>
<event>
 5    1  0.9041381E-005  0.9118800E+02  0.7818608E-02  0.1130116E+00
         25   -1    0    0    0    0  0.00000000000E+00  0.00000000000E+00  0.99999998245E-14  0.12500000000E+03  0.12500000000E+03 0.  0.
        -13    1    3    3    0    0 -0.27448078418E+02  0.27884835636E+02  0.45086139980E+02  0.59697003690E+02  0.10566000000E+00 0.  1.
         23    2    1    0    0    0 -0.18624022011E+01  0.95586771363E+01  0.27669470719E+02  0.95666802758E+02  0.91058776016E+02 0.  0.
         13    1    3    3    0    0  0.25585676217E+02 -0.18326158499E+02 -0.17416669260E+02  0.35969799068E+02  0.10566000000E+00 0. -1.
         22    1    1    0    0    0  0.18624022011E+01 -0.95586771363E+01 -0.27669470719E+02  0.29333197242E+02  0.00000000000E+00 0.  1.
</event>
<event>
 5    1  0.9041381E-005  0.9118800E+02  0.7818608E-02  0.1130116E+00
         25   -1    0    0    0    0  0.00000000000E+00  0.00000000000E+00  0.99999998245E-14  0.12500000000E+03  0.12500000000E+03 0.  0.
        -13    1    3    3    0    0 -0.16995143646E+02  0.39992339317E+02 -0.44532083610E+02  0.62220091179E+02  0.10566000000E+00 0.  1.
         23    2    1    0    0    0 -0.82105588244E+01  0.19824694192E+02 -0.27925425626E+02  0.89782658073E+02  0.82587314511E+02 0.  0.
         13    1    3    3    0    0  0.87845848212E+01 -0.20167645125E+02  0.16606657984E+02  0.27562566894E+02  0.10566000000E+00 0. -1.
         22    1    1    0    0    0  0.82105588244E+01 -0.19824694192E+02  0.27925425626E+02  0.35217341927E+02  0.00000000000E+00 0.  1.
</event>
<event>
 5    1  0.9041381E-005  0.9118800E+02  0.7818608E-02  0.1130116E+00
         25   -1    0    0    0    0  0.00000000000E+00  0.00000000000E+00  0.99999998245E-14  0.12500000000E+03  0.12500000000E+03 0.  0.
        -13    1    3    3    0    0  0.30580587070E+02 -0.22698411042E+02 -0.28002016106E+02  0.47270648816E+02  0.10566000000E+00 0.  1.
         23    2    1    0    0    0 -0.99750168840E+01 -0.29331699705E+02 -0.78546363073E+01  0.93038384257E+02  0.87376175610E+02 0.  0.
         13    1    3    3    0    0 -0.40555603954E+02 -0.66332886627E+01  0.20147379799E+02  0.45767735441E+02  0.10566000000E+00 0. -1.
         22    1    1    0    0    0  0.99750168840E+01  0.29331699705E+02  0.78546363073E+01  0.31961615743E+02  0.00000000000E+00 0.  1.
</event>
<event>
 5    1  0.9041381E-005  0.9118800E+02  0.7818608E-02  0.1130116E+00
         25   -1    0    0    0    0  0.00000000000E+00  0.00000000000E+00  0.99999998245E-14  0.12500000000E+03  0.12500000000E+03 0.  0.
        -13    1    3    3    0    0  0.33143111653E+02  0.15793854695E+02 -0.37297162334E+02  0.52335467690E+02  0.10566000000E+00 0.  1.
         23    2    1    0    0    0  0.46179059266E+00 -0.15021453010E+02 -0.18845078207E+02  0.10089617720E+03  0.97974712550E+02 0.  0.
         13    1    3    3    0    0 -0.32681321060E+02 -0.30815307705E+02  0.18452084126E+02  0.48560709507E+02  0.10566000000E+00 0. -1.
         22    1    1    0    0    0 -0.46179059266E+00  0.15021453010E+02  0.18845078207E+02  0.24103822803E+02  0.00000000000E+00 0.  1.
</event>
<event>
 5    1  0.9041381E-005  0.9118800E+02  0.7818608E-02  0.1130116E+00
         25   -1    0    0    0    0  0.00000000000E+00  0.00000000000E+00  0.99999998245E-14  0.12500000000E+03  0.12500000000E+03 0.  0.
        -13    1    3    3    0    0 -0.37076409914E+02  0.27134254023E+02  0.40277329800E+02  0.61099937589E+02  0.10566000000E+00 0.  1.
         23    2    1    0    0    0 -0.21621990033E+02  0.13911443958E+02  0.10350960033E+02  0.97283919837E+02  0.93252238360E+02 0.  0.
         13    1    3    3    0    0  0.15454419881E+02 -0.13222810065E+02 -0.29926369767E+02  0.36183982248E+02  0.10566000000E+00 0. -1.
         22    1    1    0    0    0  0.21621990033E+02 -0.13911443958E+02 -0.10350960033E+02  0.27716080163E+02  0.00000000000E+00 0.  1.
</event>
<event>
 5    1  0.9041381E-005  0.9118800E+02  0.7818608E-02  0.1130116E+00
         25   -1    0    0    0    0  0.00000000000E+00  0.00000000000E+00  0.99999998245E-14  0.12500000000E+03  0.12500000000E+03 0.  0.
        -13    1    3    3    0    0  0.20510552909E+02  0.28557191082E+02 -0.21163336065E+02  0.41037713150E+02  0.10566000000E+00 0.  1.
         23    2    1    0    0    0  0.93660476473E+01 -0.23276164299E+02 -0.17944788371E+02  0.94153312938E+02  0.88956889753E+02 0.  0.
         13    1    3    3    0    0 -0.11144505262E+02 -0.51833355381E+02  0.32185476938E+01  0.53115599788E+02  0.10566000000E+00 0. -1.
         22    1    1    0    0    0 -0.93660476473E+01  0.23276164299E+02  0.17944788371E+02  0.30846687062E+02  0.00000000000E+00 0. -1.
</event>
<event>
 5    1  0.9041381E-005  0.9118800E+02  0.7818608E-02  0.1130116E+00
         25   -1    0    0    0    0  0.00000000000E+00  0.00000000000E+00  0.99999998245E-14  0.12500000000E+03  0.12500000000E+03 0.  0.
        -13    1    3    3    0    0 -0.49872123175E+02  0.12522854383E+02 -0.78344712436E+01  0.52013850613E+02  0.10566000000E+00 0.  1.
         23    2    1    0    0    0 -0.13375542387E+02  0.23438684720E+02  0.12571086456E+02  0.95229052917E+02  0.90455863432E+02 0.  0.
         13    1    3    3    0    0  0.36496580788E+02  0.10915830336E+02  0.20405557700E+02  0.43215202304E+02  0.10566000000E+00 0. -1.
         22    1    1    0    0    0  0.13375542387E+02 -0.23438684720E+02 -0.12571086456E+02  0.29770947083E+02  0.00000000000E+00 0. -1.
</event>
<event>
 5    1  0.9041381E-005  0.9118800E+02  0.7818608E-02  0.1130116E+00
         25   -1    0    0    0    0  0.00000000000E+00  0.00000000000E+00  0.99999998245E-14  0.12500000000E+03  0.12500000000E+03 0.  0.
        -13    1    3    3    0    0  0.63207181542E+01 -0.16022514370E+02 -0.27617910017E+02  0.32548925673E+02  0.10566000000E+00 0. -1.
         23    2    1    0    0    0 -0.49868692462E+01  0.15908341674E+02  0.24894330942E+02  0.95038826579E+02  0.90192608592E+02 0.  0.
         13    1    3    3    0    0 -0.11307587400E+02  0.31930856044E+02  0.52512240960E+02  0.62489900906E+02  0.10566000000E+00 0.  1.
         22    1    1    0    0    0  0.49868692462E+01 -0.15908341674E+02 -0.24894330942E+02  0.29961173421E+02  0.00000000000E+00 0.  1.
</event>
<event>
 5    1  0.9041381E-005  0.9118800E+02  0.7818608E-02  0.1130116E+00
         25   -1    0    0    0    0  0.00000000000E+00  0.00000000000E+00  0.99999998245E-14  0.12500000000E+03  0.12500000000E+03 0.  0.
        -13    1    3    3    0    0 -0.32417061167E+01 -0.17134139326E+02 -0.59371518447E+02  0.61879526144E+02  0.10566000000E+00 0. -1.
         23    2    1    0    0    0 -0.32139601038E+01 -0.13828549234E+02 -0.26328490906E+02  0.95087665640E+02  0.90260270386E+02 0.  0.
         13    1    3    3    0    0  0.27746012952E-01  0.33055900918E+01  0.33043027541E+02  0.33208139497E+02  0.10566000000E+00 0.  1.
         22    1    1    0    0    0  0.32139601038E+01  0.13828549234E+02  0.26328490906E+02  0.29912334360E+02  0.00000000000E+00 0. -1.
</event>
<event>
 5    1  0.9041381E-005  0.9118800E+02  0.7818608E-02  0.1130116E+00
         25   -1    0    0    0    0  0.00000000000E+00  0.00000000000E+00  0.99999998245E-14  0.12500000000E+03  0.12500000000E+03 0.  0.
        -13    1    3    3    0    0 -0.16097094891E+02 -0.54749755150E+01 -0.34476447789E+02  0.38441233553E+02  0.10566000000E+00 0.  1.
         23    2    1    0    0    0 -0.84975268205E+01  0.20854893969E+01  0.24811666118E+02  0.98690762010E+02  0.95119348728E+02 0.  0.
         13    1    3    3    0    0  0.75995680710E+01  0.75604649119E+01  0.59288113907E+02  0.60249528457E+02  0.10566000000E+00 0. -1.
         22    1    1    0    0    0  0.84975268205E+01 -0.20854893969E+01 -0.24811666118E+02  0.26309237990E+02  0.00000000000E+00 0. -1.
</event>
<event>
 5    1  0.9041381E-005  0.9118800E+02  0.7818608E-02  0.1130116E+00
         25   -1    0    0    0    0  0.00000000000E+00  0.00000000000E+00  0.99999998245E-14  0.12500000000E+03  0.12500000000E+03 0.  0.
        -13    1    3    3    0    0 -0.18320792643E+02 -0.63604160341E+01  0.49198725924E+02  0.52883193283E+02  0.10566000000E+00 0. -1.
         23    2    1    0    0    0  0.12715068109E+02 -0.15677986043E+02  0.21452614361E+02  0.95543474979E+02  0.90889321401E+02 0.  0.
         13    1    3    3    0    0  0.31035860752E+02 -0.93175700090E+01 -0.27746111563E+02  0.42660281697E+02  0.10566000000E+00 0.  1.
         22    1    1    0    0    0 -0.12715068109E+02  0.15677986043E+02 -0.21452614361E+02  0.29456525021E+02  0.00000000000E+00 0. -1.
</event>
<event>
 5    1  0.9041381E-005  0.9118800E+02  0.7818608E-02  0.1130116E+00
         25   -1    0    0    0    0  0.00000000000E+00  0.00000000000E+00  0.99999998245E-14  0.12500000000E+03  0.12500000000E+03 0.  0.
        -13    1    3    3    0    0 -0.19433670947E+02 -0.92809697276E+01 -0.24659783233E+02  0.32740189961E+02  0.10566000000E+00 0. -1.
         23    2    1    0    0    0  0.88601997766E+00  0.75689740718E+01  0.30324422225E+02  0.93732685066E+02  0.88363857241E+02 0.  0.
         13    1    3    3    0    0  0.20319690925E+02  0.16849943799E+02  0.54984205458E+02  0.60992495105E+02  0.10566000000E+00 0.  1.
         22    1    1    0    0    0 -0.88601997766E+00 -0.75689740718E+01 -0.30324422225E+02  0.31267314934E+02  0.00000000000E+00 0.  1.
</event>
<event>
 5    1  0.9041381E-005  0.9118800E+02  0.7818608E-02  0.1130116E+00
         25   -1    0    0    0    0  0.00000000000E+00  0.00000000000E+00  0.99999998245E-14  0.12500000000E+03  0.12500000000E+03 0.  0.
        -13    1    3    3    0    0 -0.26563845438E+02  0.47659550841E+02  0.11926895443E+02  0.55850986292E+02  0.10566000000E+00 0.  1.
         23    2    1    0    0    0  0.62039254832E+01  0.30088455118E+02  0.27018582124E+01  0.94160028201E+02  0.88966325372E+02 0.  0.
         13    1    3    3    0    0  0.32767770921E+02 -0.17571095723E+02 -0.92250372303E+01  0.38309041909E+02  0.10566000000E+00 0. -1.
         22    1    1    0    0    0 -0.62039254832E+01 -0.30088455118E+02 -0.27018582124E+01  0.30839971799E+02  0.00000000000E+00 0. -1.
</event>
<event>
 5    1  0.9041381E-005  0.9118800E+02  0.7818608E-02  0.1130116E+00
         25   -1    0    0    0    0  0.00000000000E+00  0.00000000000E+00  0.99999998245E-14  0.12500000000E+03  0.12500000000E+03 0.  0.
        -13    1    3    3    0    0 -0.22863946412E+02  0.26263624440E+02 -0.15650950222E+02  0.38177236950E+02  0.10566000000E+00 0. -1.
         23    2    1    0    0    0  0.20365383642E+02 -0.10545817694E+02 -0.19234342933E+02  0.95068025963E+02  0.90233067612E+02 0.  0.
         13    1    3    3    0    0  0.43229330054E+02 -0.36809442134E+02 -0.35833927109E+01  0.56890789012E+02  0.10566000000E+00 0.  1.
         22    1    1    0    0    0 -0.20365383642E+02  0.10545817694E+02  0.19234342933E+02  0.29931974037E+02  0.00000000000E+00 0.  1.
</event>
<event>
 5    1  0.9041381E-005  0.9118800E+02  0.7818608E-02  0.1130116E+00
         25   -1    0    0    0    0  0.00000000000E+00  0.00000000000E+00  0.99999998245E-14  0.12500000000E+03  0.12500000000E+03 0.  0.
        -13    1    3    3    0    0 -0.43785939507E+02 -0.85905935861E+00 -0.21559020211E+02  0.48813410022E+02  0.10566000000E+00 0. -1.
         23    2    1    0    0    0 -0.11924567449E+02 -0.19349341629E+02  0.12566276484E+02  0.99028792192E+02  0.95562534751E+02 0.  0.
         13    1    3    3    0    0  0.31861372058E+02 -0.18490282270E+02  0.34125296695E+02  0.50215382170E+02  0.10566000000E+00 0.  1.
         22    1    1    0    0    0  0.11924567449E+02  0.19349341629E+02 -0.12566276484E+02  0.25971207808E+02  0.00000000000E+00 0.  1.
</event>
<event>
 5    1  0.9041381E-005  0.9118800E+02  0.7818608E-02  0.1130116E+00
         25   -1    0    0    0    0  0.00000000000E+00  0.00000000000E+00  0.99999998245E-14  0.12500000000E+03  0.12500000000E+03 0.  0.
        -13    1    3    3    0    0  0.34457766689E+02  0.24206091928E+02 -0.37957229903E+02  0.56692460148E+02  0.10566000000E+00 0. -1.
         23    2    1    0    0    0  0.26001194696E+02 -0.38351452700E+01 -0.10966341404E+02  0.96521392087E+02  0.92224443733E+02 0.  0.
         13    1    3    3    0    0 -0.84565719934E+01 -0.28041237198E+02  0.26990888499E+02  0.39828931940E+02  0.10566000000E+00 0.  1.
         22    1    1    0    0    0 -0.26001194696E+02  0.38351452700E+01  0.10966341404E+02  0.28478607913E+02  0.00000000000E+00 0. -1.
</event>
<event>
 5    1  0.9041381E-005  0.9118800E+02  0.7818608E-02  0.1130116E+00
         25   -1    0    0    0    0  0.00000000000E+00  0.00000000000E+00  0.99999998245E-14  0.12500000000E+03  0.12500000000E+03 0.  0.
        -13    1    3    3    0    0  0.17382171178E+02 -0.28257905411E+02  0.60374590081E+01  0.33721078992E+02  0.10566000000E+00 0. -1.
         23    2    1    0    0    0 -0.27007758480E+02  0.13394148792E+02  0.35680774019E+01  0.94642901714E+02  0.89642207852E+02 0.  0.
         13    1    3    3    0    0 -0.44389929658E+02  0.41652054202E+02 -0.24693816063E+01  0.60921822723E+02  0.10566000000E+00 0.  1.
         22    1    1    0    0    0  0.27007758480E+02 -0.13394148792E+02 -0.35680774019E+01  0.30357098286E+02  0.00000000000E+00 0.  1.
</event>
<event>
 5    1  0.9041381E-005  0.9118800E+02  0.7818608E-02  0.1130116E+00
         25   -1    0    0    0    0  0.00000000000E+00  0.00000000000E+00  0.99999998245E-14  0.12500000000E+03  0.12500000000E+03 0.  0.
        -13    1    3    3    0    0 -0.19049928323E+02 -0.26821248477E+02  0.42412433396E+02  0.53675923928E+02  0.10566000000E+00 0. -1.
         23    2    1    0    0    0 -0.23372331391E+01 -0.30526343535E+02  0.61546513132E+01  0.93771806950E+02  0.88419181955E+02 0.  0.
         13    1    3    3    0    0  0.16712695184E+02 -0.37050950581E+01 -0.36257782083E+02  0.40095883022E+02  0.10566000000E+00 0.  1.
         22    1    1    0    0    0  0.23372331391E+01  0.30526343535E+02 -0.61546513132E+01  0.31228193050E+02  0.00000000000E+00 0. -1.
</event>
<event>
 5    1  0.9041381E-005  0.9118800E+02  0.7818608E-02  0.1130116E+00
         25   -1    0    0    0    0  0.00000000000E+00  0.00000000000E+00  0.99999998245E-14  0.12500000000E+03  0.12500000000E+03 0.  0.
        -13    1    3    3    0    0 -0.75240258619E+01 -0.38652286944E+02  0.13147889404E+01  0.39399874177E+02  0.10566000000E+00 0.  1.
         23    2    1    0    0    0 -0.25896227780E+02  0.86534023458E+01 -0.16398111463E+02  0.93150446707E+02  0.87536344890E+02 0.  0.
         13    1    3    3    0    0 -0.18372201919E+02  0.47305689290E+02 -0.17712900403E+02  0.53750572530E+02  0.10566000000E+00 0. -1.
         22    1    1    0    0    0  0.25896227780E+02 -0.86534023458E+01  0.16398111463E+02  0.31849553293E+02  0.00000000000E+00 0.  1.
</event>
<event>
 5    1  0.9041381E-005  0.9118800E+02  0.7818608E-02  0.1130116E+00
         25   -1    0    0    0    0  0.00000000000E+00  0.00000000000E+00  0.99999998245E-14  0.12500000000E+03  0.12500000000E+03 0.  0.
        -13    1    3    3    0    0  0.60427919931E+01 -0.61489746093E+01  0.49168914237E+02  0.49919119735E+02  0.10566000000E+00 0. -1.
         23    2    1    0    0    0  0.29653044876E+01  0.25130222096E+02  0.22480752780E+02  0.91151730637E+02  0.84634110495E+02 0.  0.
         13    1    3    3    0    0 -0.30774875055E+01  0.31279196705E+02 -0.26688161456E+02  0.41232610902E+02  0.10566000000E+00 0.  1.
         22    1    1    0    0    0 -0.29653044876E+01 -0.25130222096E+02 -0.22480752780E+02  0.33848269363E+02  0.00000000000E+00 0. -1.
</event>
<event>
 5    1  0.9041381E-005  0.9118800E+02  0.7818608E-02  0.1130116E+00
         25   -1    0    0    0    0  0.00000000000E+00  0.00000000000E+00  0.99999998245E-14  0.12500000000E+03  0.12500000000E+03 0.  0.
        -13    1    3    3    0    0  0.49876907398E+02  0.47824021703E+01 -0.66250925048E+01  0.50541866574E+02  0.10566000000E+00 0.  1.
         23    2    1    0    0    0  0.10315720643E+02  0.23394467418E+02 -0.15425130869E+02  0.95139493299E+02  0.90332017163E+02 0.  0.
         13    1    3    3    0    0 -0.39561186755E+02  0.18612065247E+02 -0.88000383640E+01  0.44597626724E+02  0.10566000000E+00 0. -1.
         22    1    1    0    0    0 -0.10315720643E+02 -0.23394467418E+02  0.15425130869E+02  0.29860506701E+02  0.00000000000E+00 0.  1.
</event>
<event>
 5    1  0.9041381E-005  0.9118800E+02  0.7818608E-02  0.1130116E+00
         25   -1    0    0    0    0  0.00000000000E+00  0.00000000000E+00  0.99999998245E-14  0.12500000000E+03  0.12500000000E+03 0.  0.
        -13    1    3    3    0    0  0.44738850865E+01 -0.28728168744E+02 -0.37243428484E+02  0.47248359298E+02  0.10566000000E+00 0.  1.
         23    2    1    0    0    0  0.22483461019E+02  0.10702728505E+02 -0.13360951084E+02  0.96741029199E+02  0.92521658544E+02 0.  0.
         13    1    3    3    0    0  0.18009575933E+02  0.39430897249E+02  0.23882477399E+02  0.49492669901E+02  0.10566000000E+00 0. -1.
         22    1    1    0    0    0 -0.22483461019E+02 -0.10702728505E+02  0.13360951084E+02  0.28258970801E+02  0.00000000000E+00 0.  1.
</event>
<event>
 5    1  0.9041381E-005  0.9118800E+02  0.7818608E-02  0.1130116E+00
         25   -1    0    0    0    0  0.00000000000E+00  0.00000000000E+00  0.99999998245E-14  0.12500000000E+03  0.12500000000E+03 0.  0.
        -13    1    3    3    0    0  0.15353367670E+02 -0.42328901771E+02 -0.39575211970E+02  0.59947230048E+02  0.10566000000E+00 0. -1.
         23    2    1    0    0    0  0.12918881840E+02 -0.12806653871E+02 -0.27698738036E+02  0.91861985875E+02  0.85676697350E+02 0.  0.
         13    1    3    3    0    0 -0.24344858302E+01  0.29522247900E+02  0.11876473934E+02  0.31914755827E+02  0.10566000000E+00 0.  1.
         22    1    1    0    0    0 -0.12918881840E+02  0.12806653871E+02  0.27698738036E+02  0.33138014125E+02  0.00000000000E+00 0. -1.
</event>
<event>
 5    1  0.9041381E-005  0.9118800E+02  0.7818608E-02  0.1130116E+00
         25   -1    0    0    0    0  0.00000000000E+00  0.00000000000E+00  0.99999998245E-14  0.12500000000E+03  0.12500000000E+03 0.  0.
        -13    1    3    3    0    0 -0.35377346193E+02  0.11345640955E+02 -0.81779642459E+01  0.38041693648E+02  0.10566000000E+00 0. -1.
         23    2    1    0    0    0  0.15993720721E+02  0.15913617650E+02  0.18239316137E+02  0.95987675337E+02  0.91498190333E+02 0.  0.
         13    1    3    3    0    0  0.51371066915E+02  0.45679766951E+01  0.26417280383E+02  0.57945981689E+02  0.10566000000E+00 0.  1.
         22    1    1    0    0    0 -0.15993720721E+02 -0.15913617650E+02 -0.18239316137E+02  0.29012324663E+02  0.00000000000E+00 0.  1.
</event>
<event>
 5    1  0.9041381E-005  0.9118800E+02  0.7818608E-02  0.1130116E+00
         25   -1    0    0    0    0  0.00000000000E+00  0.00000000000E+00  0.99999998245E-14  0.12500000000E+03  0.12500000000E+03 0.  0.
        -13    1    3    3    0    0 -0.23435704556E+02  0.52244890153E+01 -0.33128123543E+02  0.40914682781E+02  0.10566000000E+00 0.  1.
         23    2    1    0    0    0  0.43855288228E+01 -0.16124733032E+02 -0.44245962707E+02  0.77703646078E+02  0.61651532986E+02 0.  0.
         13    1    3    3    0    0  0.27821233379E+02 -0.21349222048E+02 -0.11117839164E+02  0.36788963297E+02  0.10566000000E+00 0. -1.
         22    1    1    0    0    0 -0.43855288228E+01  0.16124733032E+02  0.44245962707E+02  0.47296353922E+02  0.00000000000E+00 0.  1.
</event>
<event>
 5    1  0.9041381E-005  0.9118800E+02  0.7818608E-02  0.1130116E+00
         25   -1    0    0    0    0  0.00000000000E+00  0.00000000000E+00  0.99999998245E-14  0.12500000000E+03  0.12500000000E+03 0.  0.
        -13    1    3    3    0    0 -0.19840596020E+02 -0.19965758002E+02  0.48649814264E+02  0.56205838976E+02  0.10566000000E+00 0. -1.
         23    2    1    0    0    0  0.67849452504E+01 -0.24069637995E+00  0.30023775397E+02  0.94218178971E+02  0.89047991233E+02 0.  0.
         13    1    3    3    0    0  0.26625541271E+02  0.19725061622E+02 -0.18626038867E+02  0.38012339995E+02  0.10566000000E+00 0.  1.
         22    1    1    0    0    0 -0.67849452504E+01  0.24069637995E+00 -0.30023775397E+02  0.30781821029E+02  0.00000000000E+00 0. -1.
</event>
<event>
 5    1  0.9041381E-005  0.9118800E+02  0.7818608E-02  0.1130116E+00
         25   -1    0    0    0    0  0.00000000000E+00  0.00000000000E+00  0.99999998245E-14  0.12500000000E+03  0.12500000000E+03 0.  0.
        -13    1    3    3    0    0  0.40315875439E+02 -0.18170811804E+02  0.69562068594E+01  0.44765479914E+02  0.10566000000E+00 0.  1.
         23    2    1    0    0    0 -0.10248781333E+02 -0.21914234672E+02 -0.10825116267E+02  0.98496144766E+02  0.94863249953E+02 0.  0.
         13    1    3    3    0    0 -0.50564656772E+02 -0.37434228676E+01 -0.17781323126E+02  0.53730664852E+02  0.10566000000E+00 0. -1.
         22    1    1    0    0    0  0.10248781333E+02  0.21914234672E+02  0.10825116267E+02  0.26503855234E+02  0.00000000000E+00 0. -1.
</event>
<event>
 5    1  0.9041381E-005  0.9118800E+02  0.7818608E-02  0.1130116E+00
         25   -1    0    0    0    0  0.00000000000E+00  0.00000000000E+00  0.99999998245E-14  0.12500000000E+03  0.12500000000E+03 0.  0.
        -13    1    3    3    0    0 -0.30910977615E+02 -0.18860986321E+02  0.14942207483E+02  0.39172772057E+02  0.10566000000E+00 0.  1.
         23    2    1    0    0    0 -0.35921980894E+01 -0.37087550432E+00 -0.29922775790E+02  0.94860093783E+02  0.89944557622E+02 0.  0.
         13    1    3    3    0    0  0.27318779526E+02  0.18490110817E+02 -0.44864983274E+02  0.55687321726E+02  0.10566000000E+00 0. -1.
         22    1    1    0    0    0  0.35921980894E+01  0.37087550432E+00  0.29922775790E+02  0.30139906217E+02  0.00000000000E+00 0. -1.
</event>
<event>
 5    1  0.9041381E-005  0.9118800E+02  0.7818608E-02  0.1130116E+00
         25   -1    0    0    0    0  0.00000000000E+00  0.00000000000E+00  0.99999998245E-14  0.12500000000E+03  0.12500000000E+03 0.  0.
        -13    1    3    3    0    0  0.36758141314E+02 -0.37422856105E+02  0.17620498433E+02  0.55336463937E+02  0.10566000000E+00 0. -1.
         23    2    1    0    0    0  0.76615176830E+01 -0.13872427561E+02  0.26787527554E+02  0.93875817568E+02  0.88566101822E+02 0.  0.
         13    1    3    3    0    0 -0.29096623631E+02  0.23550428544E+02  0.91670291202E+01  0.38539353631E+02  0.10566000000E+00 0.  1.
         22    1    1    0    0    0 -0.76615176830E+01  0.13872427561E+02 -0.26787527554E+02  0.31124182432E+02  0.00000000000E+00 0. -1.
</event>
<event>
 5    1  0.9041381E-005  0.9118800E+02  0.7818608E-02  0.1130116E+00
         25   -1    0    0    0    0  0.00000000000E+00  0.00000000000E+00  0.99999998245E-14  0.12500000000E+03  0.12500000000E+03 0.  0.
        -13    1    3    3    0    0 -0.41060817897E+02  0.44273659961E+02  0.90809453708E+01  0.61062447261E+02  0.10566000000E+00 0.  1.
         23    2    1    0    0    0 -0.22406670856E+02  0.18054505515E+02 -0.42872356427E+01  0.95906968915E+02  0.91387866967E+02 0.  0.
         13    1    3    3    0    0  0.18654147040E+02 -0.26219154446E+02 -0.13368181013E+02  0.34844521654E+02  0.10566000000E+00 0. -1.
         22    1    1    0    0    0  0.22406670856E+02 -0.18054505515E+02  0.42872356427E+01  0.29093031085E+02  0.00000000000E+00 0.  1.
</event>
<event>
 5    1  0.9041381E-005  0.9118800E+02  0.7818608E-02  0.1130116E+00
         25   -1    0    0    0    0  0.00000000000E+00  0.00000000000E+00  0.99999998245E-14  0.12500000000E+03  0.12500000000E+03 0.  0.
        -13    1    3    3    0    0 -0.50273496841E+02  0.15245152868E+02 -0.27182793368E+02  0.59150271259E+02  0.10566000000E+00 0.  1.
         23    2    1    0    0    0 -0.15514302884E+02  0.95726869101E+01 -0.24486722476E+02  0.94472479526E+02  0.89404249796E+02 0.  0.
         13    1    3    3    0    0  0.34759193957E+02 -0.56724659582E+01  0.26960708926E+01  0.35322208267E+02  0.10566000000E+00 0. -1.
         22    1    1    0    0    0  0.15514302884E+02 -0.95726869101E+01  0.24486722476E+02  0.30527520474E+02  0.00000000000E+00 0.  1.
</event>
<event>
 5    1  0.9041381E-005  0.9118800E+02  0.7818608E-02  0.1130116E+00
         25   -1    0    0    0    0  0.00000000000E+00  0.00000000000E+00  0.99999998245E-14  0.12500000000E+03  0.12500000000E+03 0.  0.
        -13    1    3    3    0    0  0.42536963610E+02  0.11311641955E+02 -0.65642941343E+01  0.44502220601E+02  0.10566000000E+00 0.  1.
         23    2    1    0    0    0 -0.46282143427E+01  0.98076623730E+01 -0.26982670797E+02  0.95919505978E+02  0.91405013508E+02 0.  0.
         13    1    3    3    0    0 -0.47165177953E+02 -0.15039795816E+01 -0.20418376663E+02  0.51417285377E+02  0.10566000000E+00 0. -1.
         22    1    1    0    0    0  0.46282143427E+01 -0.98076623730E+01  0.26982670797E+02  0.29080494022E+02  0.00000000000E+00 0. -1.
</event>
<event>
 5    1  0.9041381E-005  0.9118800E+02  0.7818608E-02  0.1130116E+00
         25   -1    0    0    0    0  0.00000000000E+00  0.00000000000E+00  0.99999998245E-14  0.12500000000E+03  0.12500000000E+03 0.  0.
        -13    1    3    3    0    0 -0.48771148917E+02 -0.18253013808E+02  0.25301451473E+02  0.57896218274E+02  0.10566000000E+00 0.  1.
         23    2    1    0    0    0 -0.27192905765E+02 -0.96475185620E+01 -0.46216350621E+01  0.95778633691E+02  0.91212161594E+02 0.  0.
         13    1    3    3    0    0  0.21578243152E+02  0.86054952457E+01 -0.29923086535E+02  0.37882415416E+02  0.10566000000E+00 0. -1.
         22    1    1    0    0    0  0.27192905765E+02  0.96475185620E+01  0.46216350621E+01  0.29221366309E+02  0.00000000000E+00 0.  1.
</event>
<event>
 5    1  0.9041381E-005  0.9118800E+02  0.7818608E-02  0.1130116E+00
         25   -1    0    0    0    0  0.00000000000E+00  0.00000000000E+00  0.99999998245E-14  0.12500000000E+03  0.12500000000E+03 0.  0.
        -13    1    3    3    0    0  0.23119427529E+02 -0.41908802752E+02  0.71764505055E+01  0.48398019415E+02  0.10566000000E+00 0. -1.
         23    2    1    0    0    0 -0.38264708396E+01 -0.70729306411E+01  0.27096966480E+02  0.96734936417E+02  0.92513426616E+02 0.  0.
         13    1    3    3    0    0 -0.26945898368E+02  0.34835872111E+02  0.19920515974E+02  0.48336917003E+02  0.10566000000E+00 0.  1.
         22    1    1    0    0    0  0.38264708396E+01  0.70729306411E+01 -0.27096966480E+02  0.28265063583E+02  0.00000000000E+00 0.  1.
</event>
<event>
 5    1  0.9041381E-005  0.9118800E+02  0.7818608E-02  0.1130116E+00
         25   -1    0    0    0    0  0.00000000000E+00  0.00000000000E+00  0.99999998245E-14  0.12500000000E+03  0.12500000000E+03 0.  0.
        -13    1    3    3    0    0 -0.20585774347E+02 -0.20099959746E+02  0.21045702648E+02  0.35647093167E+02  0.10566000000E+00 0.  1.
         23    2    1    0    0    0  0.23765039533E+02  0.15598164721E+02 -0.62888421672E+00  0.96566299186E+02  0.92285290249E+02 0.  0.
         13    1    3    3    0    0  0.44350813879E+02  0.35698124467E+02 -0.21674586865E+02  0.60919206019E+02  0.10566000000E+00 0. -1.
         22    1    1    0    0    0 -0.23765039533E+02 -0.15598164721E+02  0.62888421672E+00  0.28433700814E+02  0.00000000000E+00 0. -1.
</event>
<event>
 5    1  0.9041381E-005  0.9118800E+02  0.7818608E-02  0.1130116E+00
         25   -1    0    0    0    0  0.00000000000E+00  0.00000000000E+00  0.99999998245E-14  0.12500000000E+03  0.12500000000E+03 0.  0.
        -13    1    3    3    0    0 -0.14563019423E+02 -0.50745710905E+02  0.73739722277E+01  0.53306616291E+02  0.10566000000E+00 0. -1.
         23    2    1    0    0    0 -0.17463235567E+02 -0.16284262562E+02 -0.17062766367E+02  0.95652431110E+02  0.91039045346E+02 0.  0.
         13    1    3    3    0    0 -0.29002161446E+01  0.34461448343E+02 -0.24436738594E+02  0.42345814819E+02  0.10566000000E+00 0.  1.
         22    1    1    0    0    0  0.17463235567E+02  0.16284262562E+02  0.17062766367E+02  0.29347568890E+02  0.00000000000E+00 0. -1.
</event>
<event>
 5    1  0.9041381E-005  0.9118800E+02  0.7818608E-02  0.1130116E+00
         25   -1    0    0    0    0  0.00000000000E+00  0.00000000000E+00  0.99999998245E-14  0.12500000000E+03  0.12500000000E+03 0.  0.
        -13    1    3    3    0    0  0.39921794629E+02 -0.16136025031E+02 -0.43393396410E+02  0.61131980225E+02  0.10566000000E+00 0.  1.
         23    2    1    0    0    0  0.11663661469E+02 -0.88192561857E+01 -0.26162308220E+02  0.95028569438E+02  0.90178391865E+02 0.  0.
         13    1    3    3    0    0 -0.28258133160E+02  0.73167688455E+01  0.17231088189E+02  0.33896589213E+02  0.10566000000E+00 0. -1.
         22    1    1    0    0    0 -0.11663661469E+02  0.88192561857E+01  0.26162308220E+02  0.29971430562E+02  0.00000000000E+00 0.  1.
</event>
<event>
 5    1  0.9041381E-005  0.9118800E+02  0.7818608E-02  0.1130116E+00
         25   -1    0    0    0    0  0.00000000000E+00  0.00000000000E+00  0.99999998245E-14  0.12500000000E+03  0.12500000000E+03 0.  0.
        -13    1    3    3    0    0 -0.44858913440E+02 -0.14407683123E+02 -0.28998658033E+02  0.55324829686E+02  0.10566000000E+00 0. -1.
         23    2    1    0    0    0 -0.32170523162E+01 -0.44641796810E+01 -0.26199428690E+02  0.98228963607E+02  0.94510533285E+02 0.  0.
         13    1    3    3    0    0  0.41641861124E+02  0.99435034423E+01  0.27992293428E+01  0.42904133921E+02  0.10566000000E+00 0.  1.
         22    1    1    0    0    0  0.32170523162E+01  0.44641796810E+01  0.26199428690E+02  0.26771036393E+02  0.00000000000E+00 0. -1.
</event>
<event>
 5    1  0.9041381E-005  0.9118800E+02  0.7818608E-02  0.1130116E+00
         25   -1    0    0    0    0  0.00000000000E+00  0.00000000000E+00  0.99999998245E-14  0.12500000000E+03  0.12500000000E+03 0.  0.
        -13    1    3    3    0    0 -0.45755905399E+02 -0.13648571518E+02  0.24016529936E+02  0.53448023888E+02  0.10566000000E+00 0.  1.
         23    2    1    0    0    0 -0.66486746306E+01  0.70944018778E+01  0.25467284108E+02  0.97739809755E+02  0.93861346884E+02 0.  0.
         13    1    3    3    0    0  0.39107230768E+02  0.20742973395E+02  0.14507541714E+01  0.44291785867E+02  0.10566000000E+00 0. -1.
         22    1    1    0    0    0  0.66486746306E+01 -0.70944018778E+01 -0.25467284108E+02  0.27260190245E+02  0.00000000000E+00 0.  1.
</event>
<event>
 5    1  0.9041381E-005  0.9118800E+02  0.7818608E-02  0.1130116E+00
         25   -1    0    0    0    0  0.00000000000E+00  0.00000000000E+00  0.99999998245E-14  0.12500000000E+03  0.12500000000E+03 0.  0.
        -13    1    3    3    0    0  0.20158206317E+02 -0.25871388185E+02 -0.85381677844E+01  0.33890905590E+02  0.10566000000E+00 0. -1.
         23    2    1    0    0    0 -0.27912242984E+02  0.76468004618E+01  0.83508788692E+01  0.94878511929E+02  0.89970150508E+02 0.  0.
         13    1    3    3    0    0 -0.48070449301E+02  0.33518188646E+02  0.16889046654E+02  0.60987606340E+02  0.10566000000E+00 0.  1.
         22    1    1    0    0    0  0.27912242984E+02 -0.76468004618E+01 -0.83508788692E+01  0.30121488071E+02  0.00000000000E+00 0.  1.
</event>
<event>
 5    1  0.9041381E-005  0.9118800E+02  0.7818608E-02  0.1130116E+00
         25   -1    0    0    0    0  0.00000000000E+00  0.00000000000E+00  0.99999998245E-14  0.12500000000E+03  0.12500000000E+03 0.  0.
        -13    1    3    3    0    0  0.43420569623E+02 -0.87650410583E+01  0.13221605963E+02  0.46227630693E+02  0.10566000000E+00 0. -1.
         23    2    1    0    0    0 -0.71500029283E+00  0.21791483925E+01  0.30160459780E+02  0.94752467088E+02  0.89794859385E+02 0.  0.
         13    1    3    3    0    0 -0.44135569916E+02  0.10944189451E+02  0.16938853816E+02  0.48524836396E+02  0.10566000000E+00 0.  1.
         22    1    1    0    0    0  0.71500029283E+00 -0.21791483925E+01 -0.30160459780E+02  0.30247532912E+02  0.00000000000E+00 0.  1.
</event>
<event>
 5    1  0.9041381E-005  0.9118800E+02  0.7818608E-02  0.1130116E+00
         25   -1    0    0    0    0  0.00000000000E+00  0.00000000000E+00  0.99999998245E-14  0.12500000000E+03  0.12500000000E+03 0.  0.
        -13    1    3    3    0    0 -0.94173445163E+01 -0.25640646495E+02  0.46212695845E+02  0.53681966727E+02  0.10566000000E+00 0.  1.
         23    2    1    0    0    0  0.17966838943E+02 -0.17090139600E+02  0.15264686218E+02  0.95881435157E+02  0.91352935307E+02 0.  0.
         13    1    3    3    0    0  0.27384183460E+02  0.85505068950E+01 -0.30948009626E+02  0.42199468430E+02  0.10566000000E+00 0. -1.
         22    1    1    0    0    0 -0.17966838943E+02  0.17090139600E+02 -0.15264686218E+02  0.29118564843E+02  0.00000000000E+00 0.  1.
</event>
<event>
 5    1  0.9041381E-005  0.9118800E+02  0.7818608E-02  0.1130116E+00
         25   -1    0    0    0    0  0.00000000000E+00  0.00000000000E+00  0.99999998245E-14  0.12500000000E+03  0.12500000000E+03 0.  0.
        -13    1    3    3    0    0 -0.14031858238E+02  0.17355061728E+02  0.35917437887E+02  0.42286696744E+02  0.10566000000E+00 0.  1.
         23    2    1    0    0    0  0.20498087892E+02  0.18512893023E+02 -0.61295201887E+01  0.96707424418E+02  0.92476246163E+02 0.  0.
         13    1    3    3    0    0  0.34529946130E+02  0.11578312957E+01 -0.42046958075E+02  0.54420727673E+02  0.10566000000E+00 0. -1.
         22    1    1    0    0    0 -0.20498087892E+02 -0.18512893023E+02  0.61295201887E+01  0.28292575582E+02  0.00000000000E+00 0. -1.
</event>
<event>
 5    1  0.9041381E-005  0.9118800E+02  0.7818608E-02  0.1130116E+00
         25   -1    0    0    0    0  0.00000000000E+00  0.00000000000E+00  0.99999998245E-14  0.12500000000E+03  0.12500000000E+03 0.  0.
        -13    1    3    3    0    0  0.30112522429E+02  0.15468109451E+02  0.23111603142E+02  0.40990044899E+02  0.10566000000E+00 0.  1.
         23    2    1    0    0    0 -0.20816293070E+02  0.20505297470E+02  0.45570007320E+01  0.95427182461E+02  0.90729243440E+02 0.  0.
         13    1    3    3    0    0 -0.50928815499E+02  0.50371880189E+01 -0.18554602410E+02  0.54437137562E+02  0.10566000000E+00 0. -1.
         22    1    1    0    0    0  0.20816293070E+02 -0.20505297470E+02 -0.45570007320E+01  0.29572817539E+02  0.00000000000E+00 0. -1.
</event>
<event>
 5    1  0.9041381E-005  0.9118800E+02  0.7818608E-02  0.1130116E+00
         25   -1    0    0    0    0  0.00000000000E+00  0.00000000000E+00  0.99999998245E-14  0.12500000000E+03  0.12500000000E+03 0.  0.
        -13    1    3    3    0    0 -0.45040295403E+02  0.10709335369E+02  0.35132813460E+02  0.58117500116E+02  0.10566000000E+00 0.  1.
         23    2    1    0    0    0 -0.89564622778E+01  0.12017012501E+02  0.25389908187E+02  0.95516542881E+02  0.90852274161E+02 0.  0.
         13    1    3    3    0    0  0.36083833126E+02  0.13076771317E+01 -0.97429052734E+01  0.37399042765E+02  0.10566000000E+00 0. -1.
         22    1    1    0    0    0  0.89564622778E+01 -0.12017012501E+02 -0.25389908187E+02  0.29483457119E+02  0.00000000000E+00 0.  1.
</event>
<event>
 5    1  0.9041381E-005  0.9118800E+02  0.7818608E-02  0.1130116E+00
         25   -1    0    0    0    0  0.00000000000E+00  0.00000000000E+00  0.99999998245E-14  0.12500000000E+03  0.12500000000E+03 0.  0.
        -13    1    3    3    0    0 -0.51529829085E+02  0.74135148230E+01 -0.27904307636E+02  0.59067292440E+02  0.10566000000E+00 0. -1.
         23    2    1    0    0    0 -0.26673220135E+02 -0.91848748038E+01 -0.59089241707E+01  0.96177474392E+02  0.91757117425E+02 0.  0.
         13    1    3    3    0    0  0.24856608950E+02 -0.16598389627E+02  0.21995383465E+02  0.37110181952E+02  0.10566000000E+00 0.  1.
         22    1    1    0    0    0  0.26673220135E+02  0.91848748038E+01  0.59089241707E+01  0.28822525608E+02  0.00000000000E+00 0. -1.
</event>
<event>
 5    1  0.9041381E-005  0.9118800E+02  0.7818608E-02  0.1130116E+00
         25   -1    0    0    0    0  0.00000000000E+00  0.00000000000E+00  0.99999998245E-14  0.12500000000E+03  0.12500000000E+03 0.  0.
        -13    1    3    3    0    0  0.20798880693E+02 -0.35698831897E+02 -0.22857349514E+01  0.41379170910E+02  0.10566000000E+00 0.  1.
         23    2    1    0    0    0 -0.26371338698E+02 -0.19644761690E+02 -0.68323527478E+01  0.91413615696E+02  0.85020020724E+02 0.  0.
         13    1    3    3    0    0 -0.47170219391E+02  0.16054070208E+02 -0.45466177964E+01  0.50034444786E+02  0.10566000000E+00 0. -1.
         22    1    1    0    0    0  0.26371338698E+02  0.19644761690E+02  0.68323527478E+01  0.33586384304E+02  0.00000000000E+00 0. -1.
</event>
<event>
 5    1  0.9041381E-005  0.9118800E+02  0.7818608E-02  0.1130116E+00
         25   -1    0    0    0    0  0.00000000000E+00  0.00000000000E+00  0.99999998245E-14  0.12500000000E+03  0.12500000000E+03 0.  0.
        -13    1    3    3    0    0  0.78074656459E+01 -0.42234685939E+02  0.23672823190E+02  0.49042215876E+02  0.10566000000E+00 0.  1.
         23    2    1    0    0    0 -0.24535624501E+02 -0.10339562504E+02  0.66022741840E+01  0.97568385997E+02  0.93632774707E+02 0.  0.
         13    1    3    3    0    0 -0.32343090147E+02  0.31895123436E+02 -0.17070549006E+02  0.48526170121E+02  0.10566000000E+00 0. -1.
         22    1    1    0    0    0  0.24535624501E+02  0.10339562504E+02 -0.66022741840E+01  0.27431614003E+02  0.00000000000E+00 0.  1.
</event>
<event>
 5    1  0.9041381E-005  0.9118800E+02  0.7818608E-02  0.1130116E+00
         25   -1    0    0    0    0  0.00000000000E+00  0.00000000000E+00  0.99999998245E-14  0.12500000000E+03  0.12500000000E+03 0.  0.
        -13    1    3    3    0    0  0.28379661945E+02  0.11959129852E+02  0.43107620327E+01  0.31096942491E+02  0.10566000000E+00 0.  1.
         23    2    1    0    0    0 -0.24063728715E+02 -0.19836201462E+02 -0.58741971564E+01  0.93266041527E+02  0.87701256444E+02 0.  0.
         13    1    3    3    0    0 -0.52443390660E+02 -0.31795331315E+02 -0.10184959189E+02  0.62169099037E+02  0.10566000000E+00 0. -1.
         22    1    1    0    0    0  0.24063728715E+02  0.19836201462E+02  0.58741971564E+01  0.31733958473E+02  0.00000000000E+00 0. -1.
</event>
<event>
 5    1  0.9041381E-005  0.9118800E+02  0.7818608E-02  0.1130116E+00
         25   -1    0    0    0    0  0.00000000000E+00  0.00000000000E+00  0.99999998245E-14  0.12500000000E+03  0.12500000000E+03 0.  0.
        -13    1    3    3    0    0 -0.25746290094E+01  0.47668019621E+02  0.91606419446E+00  0.47746404543E+02  0.10566000000E+00 0. -1.
         23    2    1    0    0    0 -0.23352479779E+02  0.56330360832E+01  0.14967327171E+02  0.96696461529E+02  0.92461426456E+02 0.  0.
         13    1    3    3    0    0 -0.20777850769E+02 -0.42034983538E+02  0.14051262977E+02  0.48950056986E+02  0.10566000000E+00 0.  1.
         22    1    1    0    0    0  0.23352479779E+02 -0.56330360832E+01 -0.14967327171E+02  0.28303538471E+02  0.00000000000E+00 0.  1.
</event>
<event>
 5    1  0.9041381E-005  0.9118800E+02  0.7818608E-02  0.1130116E+00
         25   -1    0    0    0    0  0.00000000000E+00  0.00000000000E+00  0.99999998245E-14  0.12500000000E+03  0.12500000000E+03 0.  0.
        -13    1    3    3    0    0  0.52564289306E+02  0.57133594501E+01  0.26514205035E+02  0.59149481985E+02  0.10566000000E+00 0.  1.
         23    2    1    0    0    0  0.15493264923E+02  0.81998931533E+01  0.22437350489E+02  0.96526956561E+02  0.92231985452E+02 0.  0.
         13    1    3    3    0    0 -0.37071024383E+02  0.24865337032E+01 -0.40768545465E+01  0.37377474576E+02  0.10566000000E+00 0. -1.
         22    1    1    0    0    0 -0.15493264923E+02 -0.81998931533E+01 -0.22437350489E+02  0.28473043439E+02  0.00000000000E+00 0.  1.
</event>
<event>
 5    1  0.9041381E-005  0.9118800E+02  0.7818608E-02  0.1130116E+00
         25   -1    0    0    0    0  0.00000000000E+00  0.00000000000E+00  0.99999998245E-14  0.12500000000E+03  0.12500000000E+03 0.  0.
        -13    1    3    3    0    0 -0.30561166572E+02 -0.22757827645E+02  0.18122828958E+02  0.42194214234E+02  0.10566000000E+00 0. -1.
         23    2    1    0    0    0  0.21498364380E+02 -0.91731796752E+00  0.15065459137E+02  0.98732354459E+02  0.95173991273E+02 0.  0.
         13    1    3    3    0    0  0.52059530952E+02  0.21840509677E+02 -0.30573698210E+01  0.56538140225E+02  0.10566000000E+00 0.  1.
         22    1    1    0    0    0 -0.21498364380E+02  0.91731796752E+00 -0.15065459137E+02  0.26267645541E+02  0.00000000000E+00 0.  1.
</event>
<event>
 5    1  0.9041381E-005  0.9118800E+02  0.7818608E-02  0.1130116E+00
         25   -1    0    0    0    0  0.00000000000E+00  0.00000000000E+00  0.99999998245E-14  0.12500000000E+03  0.12500000000E+03 0.  0.
        -13    1    3    3    0    0  0.75143319509E+01  0.25615618971E+01  0.34109686898E+02  0.35021546058E+02  0.10566000000E+00 0.  1.
         23    2    1    0    0    0 -0.79719314544E+00 -0.22631951323E+02 -0.19679960504E+02  0.94997640375E+02  0.90135509616E+02 0.  0.
         13    1    3    3    0    0 -0.83115250964E+01 -0.25193513220E+02 -0.53789647402E+02  0.59976094317E+02  0.10566000000E+00 0. -1.
         22    1    1    0    0    0  0.79719314544E+00  0.22631951323E+02  0.19679960504E+02  0.30002359625E+02  0.00000000000E+00 0. -1.
</event>
<event>
 5    1  0.9041381E-005  0.9118800E+02  0.7818608E-02  0.1130116E+00
         25   -1    0    0    0    0  0.00000000000E+00  0.00000000000E+00  0.99999998245E-14  0.12500000000E+03  0.12500000000E+03 0.  0.
        -13    1    3    3    0    0 -0.21520849127E+01  0.26238864482E+02  0.33996092453E+02  0.42998313279E+02  0.10566000000E+00 0. -1.
         23    2    1    0    0    0  0.61867888402E+00 -0.23592013657E+02  0.17701621601E+02  0.95498927490E+02  0.90828034618E+02 0.  0.
         13    1    3    3    0    0  0.27707637967E+01 -0.49830878139E+02 -0.16294470852E+02  0.52500614211E+02  0.10566000000E+00 0.  1.
         22    1    1    0    0    0 -0.61867888402E+00  0.23592013657E+02 -0.17701621601E+02  0.29501072510E+02  0.00000000000E+00 0.  1.
</event>
<event>
 5    1  0.9041381E-005  0.9118800E+02  0.7818608E-02  0.1130116E+00
         25   -1    0    0    0    0  0.00000000000E+00  0.00000000000E+00  0.99999998245E-14  0.12500000000E+03  0.12500000000E+03 0.  0.
        -13    1    3    3    0    0 -0.28201381606E+02 -0.13917348033E+02 -0.19847324240E+02  0.37187873618E+02  0.10566000000E+00 0.  1.
         23    2    1    0    0    0 -0.49977324543E+01  0.25110518089E+02  0.15800015415E+02  0.94914190463E+02  0.90019706819E+02 0.  0.
         13    1    3    3    0    0  0.23203649152E+02  0.39027866122E+02  0.35647339655E+02  0.57726316845E+02  0.10566000000E+00 0. -1.
         22    1    1    0    0    0  0.49977324543E+01 -0.25110518089E+02 -0.15800015415E+02  0.30085809537E+02  0.00000000000E+00 0. -1.
</event>
<event>
 5    1  0.9041381E-005  0.9118800E+02  0.7818608E-02  0.1130116E+00
         25   -1    0    0    0    0  0.00000000000E+00  0.00000000000E+00  0.99999998245E-14  0.12500000000E+03  0.12500000000E+03 0.  0.
        -13    1    3    3    0    0  0.34887598094E+02  0.95409329652E+01 -0.28990489168E+02  0.46353355098E+02  0.10566000000E+00 0. -1.
         23    2    1    0    0    0 -0.57583127122E+01 -0.16131998498E+02 -0.25136036565E+02  0.94582572840E+02  0.89558043804E+02 0.  0.
         13    1    3    3    0    0 -0.40645910806E+02 -0.25672931463E+02  0.38544526030E+01  0.48229217742E+02  0.10566000000E+00 0.  1.
         22    1    1    0    0    0  0.57583127122E+01  0.16131998498E+02  0.25136036565E+02  0.30417427160E+02  0.00000000000E+00 0. -1.
</event>
<event>
 5    1  0.9041381E-005  0.9118800E+02  0.7818608E-02  0.1130116E+00
         25   -1    0    0    0    0  0.00000000000E+00  0.00000000000E+00  0.99999998245E-14  0.12500000000E+03  0.12500000000E+03 0.  0.
        -13    1    3    3    0    0 -0.33091804247E+02 -0.25585661120E+01 -0.37752500622E+01  0.33404751847E+02  0.10566000000E+00 0.  1.
         23    2    1    0    0    0  0.27035337849E+02  0.78060234376E+01  0.84240839313E+01  0.95626394763E+02  0.91003289450E+02 0.  0.
         13    1    3    3    0    0  0.60127142097E+02  0.10364589550E+02  0.12199333993E+02  0.62221642916E+02  0.10566000000E+00 0. -1.
         22    1    1    0    0    0 -0.27035337849E+02 -0.78060234376E+01 -0.84240839313E+01  0.29373605237E+02  0.00000000000E+00 0. -1.
</event>
<event>
 5    1  0.9041381E-005  0.9118800E+02  0.7818608E-02  0.1130116E+00
         25   -1    0    0    0    0  0.00000000000E+00  0.00000000000E+00  0.99999998245E-14  0.12500000000E+03  0.12500000000E+03 0.  0.
        -13    1    3    3    0    0  0.17663302231E+02  0.57566187533E+02 -0.13022213172E+02  0.61607202442E+02  0.10566000000E+00 0.  1.
         23    2    1    0    0    0  0.90170950556E+01  0.35492812445E+02 -0.59211260000E+00  0.88374894733E+02  0.80428376107E+02 0.  0.
         13    1    3    3    0    0 -0.86462071751E+01 -0.22073375088E+02  0.12430100572E+02  0.26767692291E+02  0.10566000000E+00 0. -1.
         22    1    1    0    0    0 -0.90170950556E+01 -0.35492812445E+02  0.59211260000E+00  0.36625105267E+02  0.00000000000E+00 0.  1.
</event>
<event>
 5    1  0.9041381E-005  0.9118800E+02  0.7818608E-02  0.1130116E+00
         25   -1    0    0    0    0  0.00000000000E+00  0.00000000000E+00  0.99999998245E-14  0.12500000000E+03  0.12500000000E+03 0.  0.
        -13    1    3    3    0    0 -0.47991588091E+02 -0.25784039271E+02  0.21331844503E+02  0.58506990715E+02  0.10566000000E+00 0. -1.
         23    2    1    0    0    0 -0.17703605459E+02 -0.12841232307E+02 -0.70868936169E+01  0.10201002491E+03  0.99385643973E+02 0.  0.
         13    1    3    3    0    0  0.30287982631E+02  0.12942806964E+02 -0.28418738120E+02  0.43503034197E+02  0.10566000000E+00 0.  1.
         22    1    1    0    0    0  0.17703605459E+02  0.12841232307E+02  0.70868936169E+01  0.22989975088E+02  0.00000000000E+00 0.  1.
</event>
<event>
 5    1  0.9041381E-005  0.9118800E+02  0.7818608E-02  0.1130116E+00
         25   -1    0    0    0    0  0.00000000000E+00  0.00000000000E+00  0.99999998245E-14  0.12500000000E+03  0.12500000000E+03 0.  0.
        -13    1    3    3    0    0 -0.75947821801E+01 -0.53873084870E+02  0.42453828824E+01  0.54571278432E+02  0.10566000000E+00 0.  1.
         23    2    1    0    0    0 -0.12676219554E+01 -0.20865256556E+02 -0.20044508020E+02  0.96038851916E+02  0.91568078384E+02 0.  0.
         13    1    3    3    0    0  0.63271602247E+01  0.33007828314E+02 -0.24289890903E+02  0.41467573484E+02  0.10566000000E+00 0. -1.
         22    1    1    0    0    0  0.12676219554E+01  0.20865256556E+02  0.20044508020E+02  0.28961148084E+02  0.00000000000E+00 0.  1.
</event>
<event>
 5    1  0.9041381E-005  0.9118800E+02  0.7818608E-02  0.1130116E+00
         25   -1    0    0    0    0  0.00000000000E+00  0.00000000000E+00  0.99999998245E-14  0.12500000000E+03  0.12500000000E+03 0.  0.
        -13    1    3    3    0    0  0.15635494307E+02 -0.12759961731E+02 -0.55043704196E+02  0.58626835504E+02  0.10566000000E+00 0. -1.
         23    2    1    0    0    0 -0.80951314532E+01 -0.57343303996E+01 -0.28042939306E+02  0.95254073501E+02  0.90490432507E+02 0.  0.
         13    1    3    3    0    0 -0.23730625760E+02  0.70256313311E+01  0.27000764890E+02  0.36627237997E+02  0.10566000000E+00 0.  1.
         22    1    1    0    0    0  0.80951314532E+01  0.57343303996E+01  0.28042939306E+02  0.29745926499E+02  0.00000000000E+00 0. -1.
</event>
<event>
 5    1  0.9041381E-005  0.9118800E+02  0.7818608E-02  0.1130116E+00
         25   -1    0    0    0    0  0.00000000000E+00  0.00000000000E+00  0.99999998245E-14  0.12500000000E+03  0.12500000000E+03 0.  0.
        -13    1    3    3    0    0  0.13002500123E+02  0.34109756196E+02  0.54658185698E+00  0.36508223634E+02  0.10566000000E+00 0. -1.
         23    2    1    0    0    0 -0.19932521102E+02 -0.11237310752E+02 -0.18366437103E+02  0.95658756634E+02  0.91047730111E+02 0.  0.
         13    1    3    3    0    0 -0.32935021225E+02 -0.45347066948E+02 -0.18913018960E+02  0.59150532999E+02  0.10566000000E+00 0.  1.
         22    1    1    0    0    0  0.19932521102E+02  0.11237310752E+02  0.18366437103E+02  0.29341243366E+02  0.00000000000E+00 0.  1.
</event>
<event>
 5    1  0.9041381E-005  0.9118800E+02  0.7818608E-02  0.1130116E+00
         25   -1    0    0    0    0  0.00000000000E+00  0.00000000000E+00  0.99999998245E-14  0.12500000000E+03  0.12500000000E+03 0.  0.
        -13    1    3    3    0    0  0.12548910330E+02  0.48743224201E+02 -0.34455591138E+01  0.50450570836E+02  0.10566000000E+00 0.  1.
         23    2    1    0    0    0  0.89252711364E+01  0.35037492873E+02  0.24181274607E+02  0.81502639007E+02  0.68925029937E+02 0.  0.
         13    1    3    3    0    0 -0.36236391938E+01 -0.13705731328E+02  0.27626833721E+02  0.31052068171E+02  0.10566000000E+00 0. -1.
         22    1    1    0    0    0 -0.89252711364E+01 -0.35037492873E+02 -0.24181274607E+02  0.43497360993E+02  0.00000000000E+00 0. -1.
</event>
<event>
 5    1  0.9041381E-005  0.9118800E+02  0.7818608E-02  0.1130116E+00
         25   -1    0    0    0    0  0.00000000000E+00  0.00000000000E+00  0.99999998245E-14  0.12500000000E+03  0.12500000000E+03 0.  0.
        -13    1    3    3    0    0  0.68972198824E+01  0.48791831573E+01 -0.48803518681E+02  0.49529513122E+02  0.10566000000E+00 0.  1.
         23    2    1    0    0    0 -0.18836272199E+01  0.12616987020E+02  0.95622174830E+01  0.10905721429E+03  0.10788560410E+03 0.  0.
         13    1    3    3    0    0 -0.87808471023E+01  0.77378038627E+01  0.58365736164E+02  0.59527701169E+02  0.10566000000E+00 0. -1.
         22    1    1    0    0    0  0.18836272199E+01 -0.12616987020E+02 -0.95622174830E+01  0.15942785709E+02  0.00000000000E+00 0. -1.
</event>
<event>
 5    1  0.9041381E-005  0.9118800E+02  0.7818608E-02  0.1130116E+00
         25   -1    0    0    0    0  0.00000000000E+00  0.00000000000E+00  0.99999998245E-14  0.12500000000E+03  0.12500000000E+03 0.  0.
        -13    1    3    3    0    0  0.20002339025E+02  0.34838740824E+02  0.95366064992E+01  0.41289096094E+02  0.10566000000E+00 0. -1.
         23    2    1    0    0    0  0.15399596500E+02 -0.20661555773E+02  0.10957052355E+02  0.96998134783E+02  0.92868367573E+02 0.  0.
         13    1    3    3    0    0 -0.46027425253E+01 -0.55500296598E+02  0.14204458560E+01  0.55709038689E+02  0.10566000000E+00 0.  1.
         22    1    1    0    0    0 -0.15399596500E+02  0.20661555773E+02 -0.10957052355E+02  0.28001865217E+02  0.00000000000E+00 0.  1.
</event>
<event>
 5    1  0.9041381E-005  0.9118800E+02  0.7818608E-02  0.1130116E+00
         25   -1    0    0    0    0  0.00000000000E+00  0.00000000000E+00  0.99999998245E-14  0.12500000000E+03  0.12500000000E+03 0.  0.
        -13    1    3    3    0    0 -0.21547157826E+02  0.68972830903E+01 -0.27729021822E+02  0.35787740074E+02  0.10566000000E+00 0. -1.
         23    2    1    0    0    0  0.30386812925E+01  0.13636955438E+02  0.26126583295E+02  0.95372335693E+02  0.90653648152E+02 0.  0.
         13    1    3    3    0    0  0.24585839118E+02  0.67396723475E+01  0.53855605117E+02  0.59584595619E+02  0.10566000000E+00 0.  1.
         22    1    1    0    0    0 -0.30386812925E+01 -0.13636955438E+02 -0.26126583295E+02  0.29627664307E+02  0.00000000000E+00 0.  1.
</event>
<event>
 5    1  0.9041381E-005  0.9118800E+02  0.7818608E-02  0.1130116E+00
         25   -1    0    0    0    0  0.00000000000E+00  0.00000000000E+00  0.99999998245E-14  0.12500000000E+03  0.12500000000E+03 0.  0.
        -13    1    3    3    0    0  0.59898470845E+01 -0.35111386966E+01  0.38886492523E+02  0.39501605383E+02  0.10566000000E+00 0. -1.
         23    2    1    0    0    0 -0.28394010694E+02  0.66650124043E+01 -0.41735282461E+01  0.95537132325E+02  0.90880597936E+02 0.  0.
         13    1    3    3    0    0 -0.34383857778E+02  0.10176151101E+02 -0.43060020769E+02  0.56035526942E+02  0.10566000000E+00 0.  1.
         22    1    1    0    0    0  0.28394010694E+02 -0.66650124043E+01  0.41735282461E+01  0.29462867675E+02  0.00000000000E+00 0.  1.
</event>
<event>
 5    1  0.9041381E-005  0.9118800E+02  0.7818608E-02  0.1130116E+00
         25   -1    0    0    0    0  0.00000000000E+00  0.00000000000E+00  0.99999998245E-14  0.12500000000E+03  0.12500000000E+03 0.  0.
        -13    1    3    3    0    0  0.30649084282E+02 -0.18886360262E+02 -0.18568620945E+02  0.40507601991E+02  0.10566000000E+00 0. -1.
         23    2    1    0    0    0 -0.11258734894E+02 -0.20576909338E+02  0.17427760467E+02  0.95778515708E+02  0.91211999907E+02 0.  0.
         13    1    3    3    0    0 -0.41907819176E+02 -0.16905490762E+01  0.35996381413E+02  0.55270913717E+02  0.10566000000E+00 0.  1.
         22    1    1    0    0    0  0.11258734894E+02  0.20576909338E+02 -0.17427760467E+02  0.29221484292E+02  0.00000000000E+00 0.  1.
</event>
<event>
 5    1  0.9041381E-005  0.9118800E+02  0.7818608E-02  0.1130116E+00
         25   -1    0    0    0    0  0.00000000000E+00  0.00000000000E+00  0.99999998245E-14  0.12500000000E+03  0.12500000000E+03 0.  0.
        -13    1    3    3    0    0 -0.33828763711E+02 -0.48749210138E+02  0.16029633503E+01  0.59358667428E+02  0.10566000000E+00 0. -1.
         23    2    1    0    0    0 -0.18580105821E+02 -0.24634162936E+02  0.14781022150E+02  0.90786831020E+02  0.84093446564E+02 0.  0.
         13    1    3    3    0    0  0.15248657891E+02  0.24115047202E+02  0.13178058799E+02  0.31428163592E+02  0.10566000000E+00 0.  1.
         22    1    1    0    0    0  0.18580105821E+02  0.24634162936E+02 -0.14781022150E+02  0.34213168980E+02  0.00000000000E+00 0. -1.
</event>
<event>
 5    1  0.9041381E-005  0.9118800E+02  0.7818608E-02  0.1130116E+00
         25   -1    0    0    0    0  0.00000000000E+00  0.00000000000E+00  0.99999998245E-14  0.12500000000E+03  0.12500000000E+03 0.  0.
        -13    1    3    3    0    0  0.54875474495E+02 -0.10536994692E+02  0.68311220679E+01  0.56294061418E+02  0.10566000000E+00 0.  1.
         23    2    1    0    0    0  0.15725552071E+02 -0.22447481920E+02  0.16469614302E+01  0.97542853126E+02  0.93598682050E+02 0.  0.
         13    1    3    3    0    0 -0.39149922424E+02 -0.11910487228E+02 -0.51841606376E+01  0.41248791708E+02  0.10566000000E+00 0. -1.
         22    1    1    0    0    0 -0.15725552071E+02  0.22447481920E+02 -0.16469614302E+01  0.27457146874E+02  0.00000000000E+00 0.  1.
</event>
<event>
 5    1  0.9041381E-005  0.9118800E+02  0.7818608E-02  0.1130116E+00
         25   -1    0    0    0    0  0.00000000000E+00  0.00000000000E+00  0.99999998245E-14  0.12500000000E+03  0.12500000000E+03 0.  0.
        -13    1    3    3    0    0  0.26487017637E+02  0.54013345357E+02 -0.15047029112E+02  0.62011513681E+02  0.10566000000E+00 0.  1.
         23    2    1    0    0    0  0.11172565376E+02  0.31238870261E+02 -0.40524242036E+01  0.91576724065E+02  0.85259492236E+02 0.  0.
         13    1    3    3    0    0 -0.15314452262E+02 -0.22774475095E+02  0.10994604908E+02  0.29565210384E+02  0.10566000000E+00 0. -1.
         22    1    1    0    0    0 -0.11172565376E+02 -0.31238870261E+02  0.40524242036E+01  0.33423275935E+02  0.00000000000E+00 0.  1.
</event>
<event>
 5    1  0.9041381E-005  0.9118800E+02  0.7818608E-02  0.1130116E+00
         25   -1    0    0    0    0  0.00000000000E+00  0.00000000000E+00  0.99999998245E-14  0.12500000000E+03  0.12500000000E+03 0.  0.
        -13    1    3    3    0    0  0.14997379534E+02 -0.19624773861E+02  0.21073431125E+02  0.32467734836E+02  0.10566000000E+00 0. -1.
         23    2    1    0    0    0 -0.18659897085E+01  0.19516877217E+02 -0.23672359512E+02  0.94262872308E+02  0.89110706859E+02 0.  0.
         13    1    3    3    0    0 -0.16863369242E+02  0.39141651078E+02 -0.44745790637E+02  0.61795137471E+02  0.10566000000E+00 0.  1.
         22    1    1    0    0    0  0.18659897085E+01 -0.19516877217E+02  0.23672359512E+02  0.30737127692E+02  0.00000000000E+00 0.  1.
</event>
<event>
 5    1  0.9041381E-005  0.9118800E+02  0.7818608E-02  0.1130116E+00
         25   -1    0    0    0    0  0.00000000000E+00  0.00000000000E+00  0.99999998245E-14  0.12500000000E+03  0.12500000000E+03 0.  0.
        -13    1    3    3    0    0 -0.20034369350E+02 -0.18865340484E+02 -0.21625129520E+02  0.34999063097E+02  0.10566000000E+00 0. -1.
         23    2    1    0    0    0  0.30071092008E+02  0.66323581580E+01 -0.11530296799E+02  0.92118295459E+02  0.86049833612E+02 0.  0.
         13    1    3    3    0    0  0.50105461358E+02  0.25497698642E+02  0.10094832721E+02  0.57119232362E+02  0.10566000000E+00 0.  1.
         22    1    1    0    0    0 -0.30071092008E+02 -0.66323581580E+01  0.11530296799E+02  0.32881704541E+02  0.00000000000E+00 0.  1.
</event>
<event>
 5    1  0.9041381E-005  0.9118800E+02  0.7818608E-02  0.1130116E+00
         25   -1    0    0    0    0  0.00000000000E+00  0.00000000000E+00  0.99999998245E-14  0.12500000000E+03  0.12500000000E+03 0.  0.
        -13    1    3    3    0    0  0.30328507218E+02 -0.45076043651E+02 -0.99845969391E+01  0.55239219775E+02  0.10566000000E+00 0.  1.
         23    2    1    0    0    0  0.16647682273E+02 -0.17001802039E+02  0.16381623500E+02  0.96111175411E+02  0.91666754348E+02 0.  0.
         13    1    3    3    0    0 -0.13680824944E+02  0.28074241612E+02  0.26366220439E+02  0.40871955636E+02  0.10566000000E+00 0. -1.
         22    1    1    0    0    0 -0.16647682273E+02  0.17001802039E+02 -0.16381623500E+02  0.28888824589E+02  0.00000000000E+00 0.  1.
</event>
<event>
 5    1  0.9041381E-005  0.9118800E+02  0.7818608E-02  0.1130116E+00
         25   -1    0    0    0    0  0.00000000000E+00  0.00000000000E+00  0.99999998245E-14  0.12500000000E+03  0.12500000000E+03 0.  0.
        -13    1    3    3    0    0  0.27760484010E+02  0.51956566592E+02  0.17069524638E+02  0.61331143149E+02  0.10566000000E+00 0.  1.
         23    2    1    0    0    0  0.14183917215E+02  0.24613018178E+02 -0.56470066621E+00  0.96586921000E+02  0.92313218176E+02 0.  0.
         13    1    3    3    0    0 -0.13576566794E+02 -0.27343548414E+02 -0.17634225304E+02  0.35255777852E+02  0.10566000000E+00 0. -1.
         22    1    1    0    0    0 -0.14183917215E+02 -0.24613018178E+02  0.56470066621E+00  0.28413079000E+02  0.00000000000E+00 0.  1.
</event>
<event>
 5    1  0.9041381E-005  0.9118800E+02  0.7818608E-02  0.1130116E+00
         25   -1    0    0    0    0  0.00000000000E+00  0.00000000000E+00  0.99999998245E-14  0.12500000000E+03  0.12500000000E+03 0.  0.
        -13    1    3    3    0    0 -0.17121946931E+02 -0.46986561608E+02  0.32276796263E+02  0.59520591222E+02  0.10566000000E+00 0. -1.
         23    2    1    0    0    0 -0.21118743009E+02 -0.22991360088E+02  0.10813920944E+02  0.91961464452E+02  0.85821711198E+02 0.  0.
         13    1    3    3    0    0 -0.39967960783E+01  0.23995201520E+02 -0.21462875320E+02  0.32440873230E+02  0.10566000000E+00 0.  1.
         22    1    1    0    0    0  0.21118743009E+02  0.22991360088E+02 -0.10813920944E+02  0.33038535548E+02  0.00000000000E+00 0. -1.
</event>
<event>
 5    1  0.9041381E-005  0.9118800E+02  0.7818608E-02  0.1130116E+00
         25   -1    0    0    0    0  0.00000000000E+00  0.00000000000E+00  0.99999998245E-14  0.12500000000E+03  0.12500000000E+03 0.  0.
        -13    1    3    3    0    0  0.35045965519E+02 -0.47602034094E+01 -0.41609586877E+02  0.54609963558E+02  0.10566000000E+00 0.  1.
         23    2    1    0    0    0  0.28458965672E+02  0.75666759727E+01 -0.33260995843E+01  0.95365050180E+02  0.90643601788E+02 0.  0.
         13    1    3    3    0    0 -0.65869998474E+01  0.12326879382E+02  0.38283487293E+02  0.40755086623E+02  0.10566000000E+00 0. -1.
         22    1    1    0    0    0 -0.28458965672E+02 -0.75666759727E+01  0.33260995843E+01  0.29634949820E+02  0.00000000000E+00 0.  1.
</event>
<event>
 5    1  0.9041381E-005  0.9118800E+02  0.7818608E-02  0.1130116E+00
         25   -1    0    0    0    0  0.00000000000E+00  0.00000000000E+00  0.99999998245E-14  0.12500000000E+03  0.12500000000E+03 0.  0.
        -13    1    3    3    0    0  0.39686366448E+01 -0.45518865218E+02 -0.98858818206E+01  0.46748892938E+02  0.10566000000E+00 0.  1.
         23    2    1    0    0    0 -0.28332463323E+02 -0.18068814953E+02  0.35313449086E+01  0.91211230437E+02  0.84721942903E+02 0.  0.
         13    1    3    3    0    0 -0.32301099968E+02  0.27450050265E+02  0.13417226729E+02  0.44462337498E+02  0.10566000000E+00 0. -1.
         22    1    1    0    0    0  0.28332463323E+02  0.18068814953E+02 -0.35313449086E+01  0.33788769563E+02  0.00000000000E+00 0. -1.
</event>
<event>
 5    1  0.9041381E-005  0.9118800E+02  0.7818608E-02  0.1130116E+00
         25   -1    0    0    0    0  0.00000000000E+00  0.00000000000E+00  0.99999998245E-14  0.12500000000E+03  0.12500000000E+03 0.  0.
        -13    1    3    3    0    0  0.21288935690E+02  0.46859045333E+01 -0.42531540265E+02  0.47792463480E+02  0.10566000000E+00 0.  1.
         23    2    1    0    0    0 -0.17363536561E+02 -0.10456629508E+02 -0.24896784816E+02  0.92895741766E+02  0.87171872995E+02 0.  0.
         13    1    3    3    0    0 -0.38652472251E+02 -0.15142534042E+02  0.17634755449E+02  0.45103278286E+02  0.10566000000E+00 0. -1.
         22    1    1    0    0    0  0.17363536561E+02  0.10456629508E+02  0.24896784816E+02  0.32104258234E+02  0.00000000000E+00 0.  1.
</event>
<event>
 5    1  0.9041381E-005  0.9118800E+02  0.7818608E-02  0.1130116E+00
         25   -1    0    0    0    0  0.00000000000E+00  0.00000000000E+00  0.99999998245E-14  0.12500000000E+03  0.12500000000E+03 0.  0.
        -13    1    3    3    0    0  0.13980351683E+02  0.47680017585E+02  0.21181164821E+02  0.54013768775E+02  0.10566000000E+00 0. -1.
         23    2    1    0    0    0 -0.16401703966E+02  0.22657833534E+02  0.12718027654E+02  0.94273113714E+02  0.89125071829E+02 0.  0.
         13    1    3    3    0    0 -0.30382055649E+02 -0.25022184051E+02 -0.84631371670E+01  0.40259344939E+02  0.10566000000E+00 0.  1.
         22    1    1    0    0    0  0.16401703966E+02 -0.22657833534E+02 -0.12718027654E+02  0.30726886286E+02  0.00000000000E+00 0.  1.
</event>
<event>
 5    1  0.9041381E-005  0.9118800E+02  0.7818608E-02  0.1130116E+00
         25   -1    0    0    0    0  0.00000000000E+00  0.00000000000E+00  0.99999998245E-14  0.12500000000E+03  0.12500000000E+03 0.  0.
        -13    1    3    3    0    0  0.37232604511E+02 -0.63226343165E+01 -0.10383858874E+02  0.39167310765E+02  0.10566000000E+00 0.  1.
         23    2    1    0    0    0 -0.12873556113E+02 -0.15317987843E+02  0.18543509834E+02  0.97719403315E+02  0.93834166638E+02 0.  0.
         13    1    3    3    0    0 -0.50106160624E+02 -0.89953535262E+01  0.28927368709E+02  0.58552092550E+02  0.10566000000E+00 0. -1.
         22    1    1    0    0    0  0.12873556113E+02  0.15317987843E+02 -0.18543509834E+02  0.27280596685E+02  0.00000000000E+00 0. -1.
</event>
<event>
 5    1  0.9041381E-005  0.9118800E+02  0.7818608E-02  0.1130116E+00
         25   -1    0    0    0    0  0.00000000000E+00  0.00000000000E+00  0.99999998245E-14  0.12500000000E+03  0.12500000000E+03 0.  0.
        -13    1    3    3    0    0 -0.28413726817E+02  0.17585741556E+02 -0.62386086427E+01  0.33993081348E+02  0.10566000000E+00 0. -1.
         23    2    1    0    0    0  0.19597674277E+02 -0.12190243740E+02 -0.22485233332E+02  0.92778010652E+02  0.87002888820E+02 0.  0.
         13    1    3    3    0    0  0.48011401095E+02 -0.29775985296E+02 -0.16246624689E+02  0.58784929304E+02  0.10566000000E+00 0.  1.
         22    1    1    0    0    0 -0.19597674277E+02  0.12190243740E+02  0.22485233332E+02  0.32221989348E+02  0.00000000000E+00 0.  1.
</event>
<event>
 5    1  0.9041381E-005  0.9118800E+02  0.7818608E-02  0.1130116E+00
         25   -1    0    0    0    0  0.00000000000E+00  0.00000000000E+00  0.99999998245E-14  0.12500000000E+03  0.12500000000E+03 0.  0.
        -13    1    3    3    0    0  0.38895164734E+02 -0.21487557748E+02 -0.14212394458E+02  0.46653534678E+02  0.10566000000E+00 0.  1.
         23    2    1    0    0    0  0.20626852019E+02  0.17183445960E+02  0.10643295467E+02  0.96120637513E+02  0.91679656294E+02 0.  0.
         13    1    3    3    0    0 -0.18268312715E+02  0.38671003708E+02  0.24855689925E+02  0.49467102835E+02  0.10566000000E+00 0. -1.
         22    1    1    0    0    0 -0.20626852019E+02 -0.17183445960E+02 -0.10643295467E+02  0.28879362487E+02  0.00000000000E+00 0. -1.
</event>
<event>
 5    1  0.9041381E-005  0.9118800E+02  0.7818608E-02  0.1130116E+00
         25   -1    0    0    0    0  0.00000000000E+00  0.00000000000E+00  0.99999998245E-14  0.12500000000E+03  0.12500000000E+03 0.  0.
        -13    1    3    3    0    0 -0.19441764851E+01 -0.37432509144E+02  0.24685299714E+02  0.44881485593E+02  0.10566000000E+00 0.  1.
         23    2    1    0    0    0 -0.30894569539E+01  0.13608199598E+02  0.25488630040E+02  0.95941471099E+02  0.91435046753E+02 0.  0.
         13    1    3    3    0    0 -0.11452804689E+01  0.51040708742E+02  0.80333032655E+00  0.51059985506E+02  0.10566000000E+00 0. -1.
         22    1    1    0    0    0  0.30894569539E+01 -0.13608199598E+02 -0.25488630040E+02  0.29058528901E+02  0.00000000000E+00 0. -1.
</event>
<event>
 5    1  0.9041381E-005  0.9118800E+02  0.7818608E-02  0.1130116E+00
         25   -1    0    0    0    0  0.00000000000E+00  0.00000000000E+00  0.99999998245E-14  0.12500000000E+03  0.12500000000E+03 0.  0.
        -13    1    3    3    0    0 -0.40643305976E+02 -0.12064970444E+02 -0.11188187236E+02  0.43847788201E+02  0.10566000000E+00 0. -1.
         23    2    1    0    0    0  0.16273636025E+02  0.10097157754E+02 -0.59471209506E+00  0.10583916738E+03  0.10409030620E+03 0.  0.
         13    1    3    3    0    0  0.56916942001E+02  0.22162128198E+02  0.10593475141E+02  0.61991379180E+02  0.10566000000E+00 0.  1.
         22    1    1    0    0    0 -0.16273636025E+02 -0.10097157754E+02  0.59471209506E+00  0.19160832619E+02  0.00000000000E+00 0.  1.
</event>
<event>
 5    1  0.9041381E-005  0.9118800E+02  0.7818608E-02  0.1130116E+00
         25   -1    0    0    0    0  0.00000000000E+00  0.00000000000E+00  0.99999998245E-14  0.12500000000E+03  0.12500000000E+03 0.  0.
        -13    1    3    3    0    0 -0.46909249509E+01 -0.51385452728E+02 -0.13238285420E+02  0.53270375386E+02  0.10566000000E+00 0. -1.
         23    2    1    0    0    0  0.15491356339E+02 -0.15591181586E+02 -0.20436274788E+02  0.94988195795E+02  0.90122410912E+02 0.  0.
         13    1    3    3    0    0  0.20182281290E+02  0.35794271142E+02 -0.71979893679E+01  0.41717820408E+02  0.10566000000E+00 0.  1.
         22    1    1    0    0    0 -0.15491356339E+02  0.15591181586E+02  0.20436274788E+02  0.30011804205E+02  0.00000000000E+00 0. -1.
</event>
<event>
 5    1  0.9041381E-005  0.9118800E+02  0.7818608E-02  0.1130116E+00
         25   -1    0    0    0    0  0.00000000000E+00  0.00000000000E+00  0.99999998245E-14  0.12500000000E+03  0.12500000000E+03 0.  0.
        -13    1    3    3    0    0 -0.13123317504E+02 -0.12222710919E+02 -0.45257967368E+02  0.48681730647E+02  0.10566000000E+00 0. -1.
         23    2    1    0    0    0 -0.53773209800E+01  0.19518307330E+02  0.30942731459E+00  0.10475214463E+03  0.10277663235E+03 0.  0.
         13    1    3    3    0    0  0.77459965244E+01  0.31741018249E+02  0.45567394683E+02  0.56070413979E+02  0.10566000000E+00 0.  1.
         22    1    1    0    0    0  0.53773209800E+01 -0.19518307330E+02 -0.30942731459E+00  0.20247855373E+02  0.00000000000E+00 0. -1.
</event>
<event>
 5    1  0.9041381E-005  0.9118800E+02  0.7818608E-02  0.1130116E+00
         25   -1    0    0    0    0  0.00000000000E+00  0.00000000000E+00  0.99999998245E-14  0.12500000000E+03  0.12500000000E+03 0.  0.
        -13    1    3    3    0    0  0.44080326647E+02 -0.18761900941E+02 -0.30619445757E+02  0.56856360653E+02  0.10566000000E+00 0. -1.
         23    2    1    0    0    0  0.14873327950E+02  0.68493168099E+01 -0.23513403598E+02  0.96346742352E+02  0.91987420814E+02 0.  0.
         13    1    3    3    0    0 -0.29206998696E+02  0.25611217751E+02  0.71060421588E+01  0.39490381699E+02  0.10566000000E+00 0.  1.
         22    1    1    0    0    0 -0.14873327950E+02 -0.68493168099E+01  0.23513403598E+02  0.28653257648E+02  0.00000000000E+00 0. -1.
</event>
<event>
 5    1  0.9041381E-005  0.9118800E+02  0.7818608E-02  0.1130116E+00
         25   -1    0    0    0    0  0.00000000000E+00  0.00000000000E+00  0.99999998245E-14  0.12500000000E+03  0.12500000000E+03 0.  0.
        -13    1    3    3    0    0  0.14623898707E+02 -0.82907682291E+01 -0.42032683738E+02  0.45269779295E+02  0.10566000000E+00 0.  1.
         23    2    1    0    0    0  0.29341388414E+02  0.14969921002E+02 -0.45891529273E+01  0.91742280093E+02  0.85501871460E+02 0.  0.
         13    1    3    3    0    0  0.14717489707E+02  0.23260689231E+02  0.37443530810E+02  0.46472500797E+02  0.10566000000E+00 0. -1.
         22    1    1    0    0    0 -0.29341388414E+02 -0.14969921002E+02  0.45891529273E+01  0.33257719907E+02  0.00000000000E+00 0.  1.
</event>
<event>
 5    1  0.9041381E-005  0.9118800E+02  0.7818608E-02  0.1130116E+00
         25   -1    0    0    0    0  0.00000000000E+00  0.00000000000E+00  0.99999998245E-14  0.12500000000E+03  0.12500000000E+03 0.  0.
        -13    1    3    3    0    0  0.22287147644E+02  0.48019415068E+02 -0.66121356925E+00  0.52943644954E+02  0.10566000000E+00 0.  1.
         23    2    1    0    0    0  0.13056939645E+02  0.12035997412E+02 -0.22731994652E+02  0.96153986629E+02  0.91725114648E+02 0.  0.
         13    1    3    3    0    0 -0.92302079996E+01 -0.35983417657E+02 -0.22070781082E+02  0.43210341674E+02  0.10566000000E+00 0. -1.
         22    1    1    0    0    0 -0.13056939645E+02 -0.12035997412E+02  0.22731994652E+02  0.28846013371E+02  0.00000000000E+00 0.  1.
</event>
<event>
 5    1  0.9041381E-005  0.9118800E+02  0.7818608E-02  0.1130116E+00
         25   -1    0    0    0    0  0.00000000000E+00  0.00000000000E+00  0.99999998245E-14  0.12500000000E+03  0.12500000000E+03 0.  0.
        -13    1    3    3    0    0 -0.35363816014E+02 -0.39862827492E+02  0.26897086908E+02  0.59691782910E+02  0.10566000000E+00 0. -1.
         23    2    1    0    0    0 -0.26646590708E+02 -0.11371504735E+02  0.81130102326E+01  0.94913909338E+02  0.90019316452E+02 0.  0.
         13    1    3    3    0    0  0.87172253063E+01  0.28491322758E+02 -0.18784076676E+02  0.35222126428E+02  0.10566000000E+00 0.  1.
         22    1    1    0    0    0  0.26646590708E+02  0.11371504735E+02 -0.81130102326E+01  0.30086090662E+02  0.00000000000E+00 0. -1.
</event>
<event>
 5    1  0.9041381E-005  0.9118800E+02  0.7818608E-02  0.1130116E+00
         25   -1    0    0    0    0  0.00000000000E+00  0.00000000000E+00  0.99999998245E-14  0.12500000000E+03  0.12500000000E+03 0.  0.
        -13    1    3    3    0    0 -0.33160446916E+02 -0.39052106702E+01 -0.23720895216E+01  0.33473928404E+02  0.10566000000E+00 0.  1.
         23    2    1    0    0    0  0.18183751401E+02  0.24922499686E+02  0.76755449830E+01  0.93208589267E+02  0.87619331866E+02 0.  0.
         13    1    3    3    0    0  0.51344198317E+02  0.28827710357E+02  0.10047634505E+02  0.59734660863E+02  0.10566000000E+00 0. -1.
         22    1    1    0    0    0 -0.18183751401E+02 -0.24922499686E+02 -0.76755449830E+01  0.31791410733E+02  0.00000000000E+00 0. -1.
</event>
<event>
 5    1  0.9041381E-005  0.9118800E+02  0.7818608E-02  0.1130116E+00
         25   -1    0    0    0    0  0.00000000000E+00  0.00000000000E+00  0.99999998245E-14  0.12500000000E+03  0.12500000000E+03 0.  0.
        -13    1    3    3    0    0 -0.15660452846E+02  0.24144338344E+02 -0.16367048183E+02  0.33107254306E+02  0.10566000000E+00 0.  1.
         23    2    1    0    0    0  0.44534247283E+01 -0.18221708220E+02 -0.36357747078E+02  0.84088517323E+02  0.73465157257E+02 0.  0.
         13    1    3    3    0    0  0.20113877574E+02 -0.42366046564E+02 -0.19990698895E+02  0.50981263017E+02  0.10566000000E+00 0. -1.
         22    1    1    0    0    0 -0.44534247283E+01  0.18221708220E+02  0.36357747078E+02  0.40911482677E+02  0.00000000000E+00 0. -1.
</event>
<event>
 5    1  0.9041381E-005  0.9118800E+02  0.7818608E-02  0.1130116E+00
         25   -1    0    0    0    0  0.00000000000E+00  0.00000000000E+00  0.99999998245E-14  0.12500000000E+03  0.12500000000E+03 0.  0.
        -13    1    3    3    0    0 -0.91753235731E+01 -0.35139437947E+02  0.11582269688E+02  0.38119900276E+02  0.10566000000E+00 0.  1.
         23    2    1    0    0    0  0.12289470880E+01  0.25008865971E+02  0.43009891140E+01  0.99594248772E+02  0.96299336410E+02 0.  0.
         13    1    3    3    0    0  0.10404270661E+02  0.60148303918E+02 -0.72812805739E+01  0.61474348496E+02  0.10566000000E+00 0. -1.
         22    1    1    0    0    0 -0.12289470880E+01 -0.25008865971E+02 -0.43009891140E+01  0.25405751228E+02  0.00000000000E+00 0. -1.
</event>
<event>
 5    1  0.9041381E-005  0.9118800E+02  0.7818608E-02  0.1130116E+00
         25   -1    0    0    0    0  0.00000000000E+00  0.00000000000E+00  0.99999998245E-14  0.12500000000E+03  0.12500000000E+03 0.  0.
        -13    1    3    3    0    0 -0.48562396307E+02  0.18302091485E+02 -0.27391411894E+00  0.51897582610E+02  0.10566000000E+00 0.  1.
         23    2    1    0    0    0 -0.22508735687E+02 -0.14415558651E+02  0.12308052922E+02  0.95573146954E+02  0.90930120085E+02 0.  0.
         13    1    3    3    0    0  0.26053660620E+02 -0.32717650136E+02  0.12581967041E+02  0.43675564344E+02  0.10566000000E+00 0. -1.
         22    1    1    0    0    0  0.22508735687E+02  0.14415558651E+02 -0.12308052922E+02  0.29426853046E+02  0.00000000000E+00 0.  1.
</event>
<event>
 5    1  0.9041381E-005  0.9118800E+02  0.7818608E-02  0.1130116E+00
         25   -1    0    0    0    0  0.00000000000E+00  0.00000000000E+00  0.99999998245E-14  0.12500000000E+03  0.12500000000E+03 0.  0.
        -13    1    3    3    0    0  0.40228766296E+02 -0.25027824904E+02  0.20725228273E+02  0.51713556328E+02  0.10566000000E+00 0.  1.
         23    2    1    0    0    0  0.10298719773E+02 -0.24960882659E+02 -0.11461711774E+02  0.95666058415E+02  0.91057754221E+02 0.  0.
         13    1    3    3    0    0 -0.29930046523E+02  0.66942244413E-01 -0.32186940047E+02  0.43952502087E+02  0.10566000000E+00 0. -1.
         22    1    1    0    0    0 -0.10298719773E+02  0.24960882659E+02  0.11461711774E+02  0.29333941585E+02  0.00000000000E+00 0.  1.
</event>
<event>
 5    1  0.9041381E-005  0.9118800E+02  0.7818608E-02  0.1130116E+00
         25   -1    0    0    0    0  0.00000000000E+00  0.00000000000E+00  0.99999998245E-14  0.12500000000E+03  0.12500000000E+03 0.  0.
        -13    1    3    3    0    0  0.47026231941E+02  0.29314965234E+02  0.16554217001E+02  0.57834997552E+02  0.10566000000E+00 0.  1.
         23    2    1    0    0    0  0.15790122586E+02  0.20534457415E+02 -0.72775286307E+01  0.98093600472E+02  0.94331331581E+02 0.  0.
         13    1    3    3    0    0 -0.31236109355E+02 -0.87805078189E+01 -0.23831745631E+02  0.40258602920E+02  0.10566000000E+00 0. -1.
         22    1    1    0    0    0 -0.15790122586E+02 -0.20534457415E+02  0.72775286307E+01  0.26906399528E+02  0.00000000000E+00 0.  1.
</event>
<event>
 5    1  0.9041381E-005  0.9118800E+02  0.7818608E-02  0.1130116E+00
         25   -1    0    0    0    0  0.00000000000E+00  0.00000000000E+00  0.99999998245E-14  0.12500000000E+03  0.12500000000E+03 0.  0.
        -13    1    3    3    0    0 -0.33575050305E+02  0.42297966477E+01 -0.27767026634E+01  0.33954328507E+02  0.10566000000E+00 0.  1.
         23    2    1    0    0    0  0.20751643858E+02  0.10153284239E+01  0.22857398303E+02  0.94111130292E+02  0.88897595991E+02 0.  0.
         13    1    3    3    0    0  0.54326694163E+02 -0.32144682239E+01  0.25634100967E+02  0.60156801785E+02  0.10566000000E+00 0. -1.
         22    1    1    0    0    0 -0.20751643858E+02 -0.10153284239E+01 -0.22857398303E+02  0.30888869708E+02  0.00000000000E+00 0. -1.
</event>
<event>
 5    1  0.9041381E-005  0.9118800E+02  0.7818608E-02  0.1130116E+00
         25   -1    0    0    0    0  0.00000000000E+00  0.00000000000E+00  0.99999998245E-14  0.12500000000E+03  0.12500000000E+03 0.  0.
        -13    1    3    3    0    0  0.12708991362E+02 -0.24749574744E+02 -0.32331505730E+02  0.42654394126E+02  0.10566000000E+00 0.  1.
         23    2    1    0    0    0  0.38931407294E+02 -0.94933762770E+01 -0.30601030094E+01  0.84811159541E+02  0.74684602732E+02 0.  0.
         13    1    3    3    0    0  0.26222415932E+02  0.15256198467E+02  0.29271402721E+02  0.42156765415E+02  0.10566000000E+00 0. -1.
         22    1    1    0    0    0 -0.38931407294E+02  0.94933762770E+01  0.30601030094E+01  0.40188840459E+02  0.00000000000E+00 0.  1.
</event>
<event>
 5    1  0.9041381E-005  0.9118800E+02  0.7818608E-02  0.1130116E+00
         25   -1    0    0    0    0  0.00000000000E+00  0.00000000000E+00  0.99999998245E-14  0.12500000000E+03  0.12500000000E+03 0.  0.
        -13    1    3    3    0    0 -0.42995741561E+02 -0.62970986769E+01  0.21034969149E+02  0.48278031601E+02  0.10566000000E+00 0.  1.
         23    2    1    0    0    0 -0.17514589246E+02 -0.12724912044E+02 -0.19018790250E+02  0.96183362349E+02  0.91765138191E+02 0.  0.
         13    1    3    3    0    0  0.25481152315E+02 -0.64278133670E+01 -0.40053759399E+02  0.47905330747E+02  0.10566000000E+00 0. -1.
         22    1    1    0    0    0  0.17514589246E+02  0.12724912044E+02  0.19018790250E+02  0.28816637651E+02  0.00000000000E+00 0.  1.
</event>
<event>
 5    1  0.9041381E-005  0.9118800E+02  0.7818608E-02  0.1130116E+00
         25   -1    0    0    0    0  0.00000000000E+00  0.00000000000E+00  0.99999998245E-14  0.12500000000E+03  0.12500000000E+03 0.  0.
        -13    1    3    3    0    0 -0.35310465767E+02  0.24267417957E+01 -0.34768864375E+02  0.49614545875E+02  0.10566000000E+00 0.  1.
         23    2    1    0    0    0  0.65064773272E+01  0.17029953515E+02 -0.23386620105E+02  0.95347216592E+02  0.90619005445E+02 0.  0.
         13    1    3    3    0    0  0.41816943094E+02  0.14603211719E+02  0.11382244270E+02  0.45732670717E+02  0.10566000000E+00 0. -1.
         22    1    1    0    0    0 -0.65064773272E+01 -0.17029953515E+02  0.23386620105E+02  0.29652783408E+02  0.00000000000E+00 0.  1.
</event>
<event>
 5    1  0.9041381E-005  0.9118800E+02  0.7818608E-02  0.1130116E+00
         25   -1    0    0    0    0  0.00000000000E+00  0.00000000000E+00  0.99999998245E-14  0.12500000000E+03  0.12500000000E+03 0.  0.
        -13    1    3    3    0    0 -0.41167894061E+02 -0.43040190296E+00 -0.24625672097E+02  0.47973072004E+02  0.10566000000E+00 0.  1.
         23    2    1    0    0    0 -0.10596616380E+02 -0.27614314231E+02 -0.20333978296E+02  0.89106974180E+02  0.81558221812E+02 0.  0.
         13    1    3    3    0    0  0.30571277682E+02 -0.27183912328E+02  0.42916938011E+01  0.41133902177E+02  0.10566000000E+00 0. -1.
         22    1    1    0    0    0  0.10596616380E+02  0.27614314231E+02  0.20333978296E+02  0.35893025820E+02  0.00000000000E+00 0.  1.
</event>
<event>
 5    1  0.9041381E-005  0.9118800E+02  0.7818608E-02  0.1130116E+00
         25   -1    0    0    0    0  0.00000000000E+00  0.00000000000E+00  0.99999998245E-14  0.12500000000E+03  0.12500000000E+03 0.  0.
        -13    1    3    3    0    0  0.11260112980E+02  0.31150942868E+02  0.20934313228E+02  0.39184538025E+02  0.10566000000E+00 0.  1.
         23    2    1    0    0    0  0.35948283366E+01 -0.24639764050E+02  0.15285523239E+02  0.95782060580E+02  0.91216857790E+02 0.  0.
         13    1    3    3    0    0 -0.76652846435E+01 -0.55790706918E+02 -0.56487899886E+01  0.56597522556E+02  0.10566000000E+00 0. -1.
         22    1    1    0    0    0 -0.35948283366E+01  0.24639764050E+02 -0.15285523239E+02  0.29217939420E+02  0.00000000000E+00 0. -1.
</event>
<event>
 5    1  0.9041381E-005  0.9118800E+02  0.7818608E-02  0.1130116E+00
         25   -1    0    0    0    0  0.00000000000E+00  0.00000000000E+00  0.99999998245E-14  0.12500000000E+03  0.12500000000E+03 0.  0.
        -13    1    3    3    0    0  0.48214696837E+02  0.11311976086E+02  0.36630793435E+02  0.61599058319E+02  0.10566000000E+00 0. -1.
         23    2    1    0    0    0  0.16876311375E+02  0.66255823401E+01  0.21975041682E+02  0.96511218280E+02  0.92210653235E+02 0.  0.
         13    1    3    3    0    0 -0.31338385462E+02 -0.46863937462E+01 -0.14655751753E+02  0.34912159961E+02  0.10566000000E+00 0.  1.
         22    1    1    0    0    0 -0.16876311375E+02 -0.66255823401E+01 -0.21975041682E+02  0.28488781720E+02  0.00000000000E+00 0. -1.
</event>
<event>
 5    1  0.9041381E-005  0.9118800E+02  0.7818608E-02  0.1130116E+00
         25   -1    0    0    0    0  0.00000000000E+00  0.00000000000E+00  0.99999998245E-14  0.12500000000E+03  0.12500000000E+03 0.  0.
        -13    1    3    3    0    0  0.11998723502E+02  0.14912560661E+01 -0.53708309493E+02  0.55052582891E+02  0.10566000000E+00 0.  1.
         23    2    1    0    0    0  0.20093358483E+02 -0.12462413864E+02 -0.14971368727E+02  0.97014348391E+02  0.92890188382E+02 0.  0.
         13    1    3    3    0    0  0.80946349808E+01 -0.13953669930E+02  0.38736940765E+02  0.41961765500E+02  0.10566000000E+00 0. -1.
         22    1    1    0    0    0 -0.20093358483E+02  0.12462413864E+02  0.14971368727E+02  0.27985651609E+02  0.00000000000E+00 0.  1.
</event>
<event>
 5    1  0.9041381E-005  0.9118800E+02  0.7818608E-02  0.1130116E+00
         25   -1    0    0    0    0  0.00000000000E+00  0.00000000000E+00  0.99999998245E-14  0.12500000000E+03  0.12500000000E+03 0.  0.
        -13    1    3    3    0    0 -0.17639468690E+02 -0.42040371338E+02 -0.35252042562E+02  0.57630385620E+02  0.10566000000E+00 0. -1.
         23    2    1    0    0    0 -0.20451646293E+02 -0.68759251876E+01 -0.18006211479E+02  0.96897120520E+02  0.92732303595E+02 0.  0.
         13    1    3    3    0    0 -0.28121776024E+01  0.35164446150E+02  0.17245831083E+02  0.39266734900E+02  0.10566000000E+00 0.  1.
         22    1    1    0    0    0  0.20451646293E+02  0.68759251876E+01  0.18006211479E+02  0.28102879480E+02  0.00000000000E+00 0. -1.
</event>
<event>
 5    1  0.9041381E-005  0.9118800E+02  0.7818608E-02  0.1130116E+00
         25   -1    0    0    0    0  0.00000000000E+00  0.00000000000E+00  0.99999998245E-14  0.12500000000E+03  0.12500000000E+03 0.  0.
        -13    1    3    3    0    0  0.32736647417E+02 -0.21601858495E+02  0.41596379907E+02  0.57171656964E+02  0.10566000000E+00 0.  1.
         23    2    1    0    0    0  0.20819035798E+02  0.74848736585E+01  0.18074457754E+02  0.96431807752E+02  0.92102942070E+02 0.  0.
         13    1    3    3    0    0 -0.11917611619E+02  0.29086732154E+02 -0.23521922153E+02  0.39260150788E+02  0.10566000000E+00 0. -1.
         22    1    1    0    0    0 -0.20819035798E+02 -0.74848736585E+01 -0.18074457754E+02  0.28568192248E+02  0.00000000000E+00 0.  1.
</event>
<event>
 5    1  0.9041381E-005  0.9118800E+02  0.7818608E-02  0.1130116E+00
         25   -1    0    0    0    0  0.00000000000E+00  0.00000000000E+00  0.99999998245E-14  0.12500000000E+03  0.12500000000E+03 0.  0.
        -13    1    3    3    0    0 -0.68357523264E+01  0.48564200826E+01 -0.48034162970E+02  0.48760683979E+02  0.10566000000E+00 0. -1.
         23    2    1    0    0    0  0.24862350053E+02 -0.50520969482E+01 -0.15402903623E+02  0.95319879148E+02  0.90581288283E+02 0.  0.
         13    1    3    3    0    0  0.31698102380E+02 -0.99085170308E+01  0.32631259347E+02  0.46559195169E+02  0.10566000000E+00 0.  1.
         22    1    1    0    0    0 -0.24862350053E+02  0.50520969482E+01  0.15402903623E+02  0.29680120852E+02  0.00000000000E+00 0.  1.
</event>
<event>
 5    1  0.9041381E-005  0.9118800E+02  0.7818608E-02  0.1130116E+00
         25   -1    0    0    0    0  0.00000000000E+00  0.00000000000E+00  0.99999998245E-14  0.12500000000E+03  0.12500000000E+03 0.  0.
        -13    1    3    3    0    0 -0.21771421767E+02 -0.16488694565E+02 -0.20294840445E+02  0.34025924924E+02  0.10566000000E+00 0.  1.
         23    2    1    0    0    0  0.22383119782E+02  0.10176411225E+02  0.14695197941E+02  0.96355415187E+02  0.91999205413E+02 0.  0.
         13    1    3    3    0    0  0.44154541549E+02  0.26665105790E+02  0.34990038386E+02  0.62329490263E+02  0.10566000000E+00 0. -1.
         22    1    1    0    0    0 -0.22383119782E+02 -0.10176411225E+02 -0.14695197941E+02  0.28644584813E+02  0.00000000000E+00 0. -1.
</event>
<event>
 5    1  0.9041381E-005  0.9118800E+02  0.7818608E-02  0.1130116E+00
         25   -1    0    0    0    0  0.00000000000E+00  0.00000000000E+00  0.99999998245E-14  0.12500000000E+03  0.12500000000E+03 0.  0.
        -13    1    3    3    0    0 -0.29275428562E+02 -0.39986586414E+02  0.23258948240E+02  0.54744567291E+02  0.10566000000E+00 0. -1.
         23    2    1    0    0    0 -0.25685740439E+02  0.81760091828E-01  0.12751396286E+02  0.96323144282E+02  0.91955348244E+02 0.  0.
         13    1    3    3    0    0  0.35896881231E+01  0.40068346506E+02 -0.10507551954E+02  0.41578576992E+02  0.10566000000E+00 0.  1.
         22    1    1    0    0    0  0.25685740439E+02 -0.81760091828E-01 -0.12751396286E+02  0.28676855718E+02  0.00000000000E+00 0. -1.
</event>
<event>
 5    1  0.9041381E-005  0.9118800E+02  0.7818608E-02  0.1130116E+00
         25   -1    0    0    0    0  0.00000000000E+00  0.00000000000E+00  0.99999998245E-14  0.12500000000E+03  0.12500000000E+03 0.  0.
        -13    1    3    3    0    0  0.35378235105E+02  0.45084569956E+02 -0.13381065129E+01  0.57323988524E+02  0.10566000000E+00 0. -1.
         23    2    1    0    0    0  0.28963391883E+02  0.81767516163E+01 -0.24785830280E+01  0.94802637364E+02  0.89864672375E+02 0.  0.
         13    1    3    3    0    0 -0.64148432224E+01 -0.36907818339E+02 -0.11404765151E+01  0.37478648840E+02  0.10566000000E+00 0.  1.
         22    1    1    0    0    0 -0.28963391883E+02 -0.81767516163E+01  0.24785830280E+01  0.30197362636E+02  0.00000000000E+00 0. -1.
</event>
<event>
 5    1  0.9041381E-005  0.9118800E+02  0.7818608E-02  0.1130116E+00
         25   -1    0    0    0    0  0.00000000000E+00  0.00000000000E+00  0.99999998245E-14  0.12500000000E+03  0.12500000000E+03 0.  0.
        -13    1    3    3    0    0 -0.31650847039E+02  0.32745099720E+02  0.21632073967E+02  0.50418007320E+02  0.10566000000E+00 0. -1.
         23    2    1    0    0    0 -0.27037176394E+02 -0.61813835524E+01 -0.35950291319E+01  0.97033186731E+02  0.92915535206E+02 0.  0.
         13    1    3    3    0    0  0.46136706455E+01 -0.38926483272E+02 -0.25227103099E+02  0.46615179411E+02  0.10566000000E+00 0.  1.
         22    1    1    0    0    0  0.27037176394E+02  0.61813835524E+01  0.35950291319E+01  0.27966813269E+02  0.00000000000E+00 0. -1.
</event>
<event>
 5    1  0.9041381E-005  0.9118800E+02  0.7818608E-02  0.1130116E+00
         25   -1    0    0    0    0  0.00000000000E+00  0.00000000000E+00  0.99999998245E-14  0.12500000000E+03  0.12500000000E+03 0.  0.
        -13    1    3    3    0    0 -0.72855253729E+01 -0.46942817574E+02 -0.26597279576E+02  0.54443855913E+02  0.10566000000E+00 0.  1.
         23    2    1    0    0    0  0.64003526592E+01 -0.26352132375E+02  0.77791549226E+01  0.96788040724E+02  0.92585150975E+02 0.  0.
         13    1    3    3    0    0  0.13685878032E+02  0.20590685199E+02  0.34376434498E+02  0.42344184811E+02  0.10566000000E+00 0. -1.
         22    1    1    0    0    0 -0.64003526592E+01  0.26352132375E+02 -0.77791549226E+01  0.28211959276E+02  0.00000000000E+00 0.  1.
</event>
<event>
 5    1  0.9041381E-005  0.9118800E+02  0.7818608E-02  0.1130116E+00
         25   -1    0    0    0    0  0.00000000000E+00  0.00000000000E+00  0.99999998245E-14  0.12500000000E+03  0.12500000000E+03 0.  0.
        -13    1    3    3    0    0 -0.32623359598E+02 -0.98041438246E+01  0.47305565410E+02  0.58294360880E+02  0.10566000000E+00 0.  1.
         23    2    1    0    0    0 -0.75149865068E+01 -0.18883874609E+02  0.19922559047E+02  0.96539780369E+02  0.92249363642E+02 0.  0.
         13    1    3    3    0    0  0.25108373091E+02 -0.90797307843E+01 -0.27383006363E+02  0.38245419489E+02  0.10566000000E+00 0. -1.
         22    1    1    0    0    0  0.75149865068E+01  0.18883874609E+02 -0.19922559047E+02  0.28460219631E+02  0.00000000000E+00 0.  1.
</event>
<event>
 5    1  0.9041381E-005  0.9118800E+02  0.7818608E-02  0.1130116E+00
         25   -1    0    0    0    0  0.00000000000E+00  0.00000000000E+00  0.99999998245E-14  0.12500000000E+03  0.12500000000E+03 0.  0.
        -13    1    3    3    0    0  0.87369542506E+01  0.50732684684E+02 -0.13810555440E+02  0.53299927490E+02  0.10566000000E+00 0. -1.
         23    2    1    0    0    0  0.22418617560E+02  0.15805891488E+02  0.76589647606E+01  0.96520527388E+02  0.92223271721E+02 0.  0.
         13    1    3    3    0    0  0.13681663310E+02 -0.34926793196E+02  0.21469520201E+02  0.43220599898E+02  0.10566000000E+00 0.  1.
         22    1    1    0    0    0 -0.22418617560E+02 -0.15805891488E+02 -0.76589647606E+01  0.28479472612E+02  0.00000000000E+00 0. -1.
</event>
<event>
 5    1  0.9041381E-005  0.9118800E+02  0.7818608E-02  0.1130116E+00
         25   -1    0    0    0    0  0.00000000000E+00  0.00000000000E+00  0.99999998245E-14  0.12500000000E+03  0.12500000000E+03 0.  0.
        -13    1    3    3    0    0 -0.33968213376E+01  0.38580700525E+02 -0.33853767183E+02  0.51440232938E+02  0.10566000000E+00 0. -1.
         23    2    1    0    0    0  0.63088146920E+01 -0.24616879082E+01 -0.30510429991E+02  0.93747041925E+02  0.88384164200E+02 0.  0.
         13    1    3    3    0    0  0.97056360296E+01 -0.41042388433E+02  0.33433371918E+01  0.42306808987E+02  0.10566000000E+00 0.  1.
         22    1    1    0    0    0 -0.63088146920E+01  0.24616879082E+01  0.30510429991E+02  0.31252958075E+02  0.00000000000E+00 0. -1.
</event>
<event>
 5    1  0.9041381E-005  0.9118800E+02  0.7818608E-02  0.1130116E+00
         25   -1    0    0    0    0  0.00000000000E+00  0.00000000000E+00  0.99999998245E-14  0.12500000000E+03  0.12500000000E+03 0.  0.
        -13    1    3    3    0    0  0.30969341639E+02  0.17873484030E+02 -0.68040994907E+01  0.36398742929E+02  0.10566000000E+00 0. -1.
         23    2    1    0    0    0 -0.21173098895E+02  0.79751406503E+01  0.19038983110E+02  0.95429983716E+02  0.90733102718E+02 0.  0.
         13    1    3    3    0    0 -0.52142440534E+02 -0.98983433800E+01  0.25843082600E+02  0.59031240786E+02  0.10566000000E+00 0.  1.
         22    1    1    0    0    0  0.21173098895E+02 -0.79751406503E+01 -0.19038983110E+02  0.29570016284E+02  0.00000000000E+00 0.  1.
</event>
<event>
 5    1  0.9041381E-005  0.9118800E+02  0.7818608E-02  0.1130116E+00
         25   -1    0    0    0    0  0.00000000000E+00  0.00000000000E+00  0.99999998245E-14  0.12500000000E+03  0.12500000000E+03 0.  0.
        -13    1    3    3    0    0  0.35821613906E+02 -0.80040630194E+01 -0.64291935032E+01  0.37263906676E+02  0.10566000000E+00 0. -1.
         23    2    1    0    0    0 -0.17350020796E+02  0.20266614240E+02 -0.67325218182E+01  0.97484809207E+02  0.93521132915E+02 0.  0.
         13    1    3    3    0    0 -0.53171634701E+02  0.28270677260E+02 -0.30332831504E+00  0.60220902531E+02  0.10566000000E+00 0.  1.
         22    1    1    0    0    0  0.17350020796E+02 -0.20266614240E+02  0.67325218182E+01  0.27515190793E+02  0.00000000000E+00 0.  1.
</event>
<event>
 5    1  0.9041381E-005  0.9118800E+02  0.7818608E-02  0.1130116E+00
         25   -1    0    0    0    0  0.00000000000E+00  0.00000000000E+00  0.99999998245E-14  0.12500000000E+03  0.12500000000E+03 0.  0.
        -13    1    3    3    0    0 -0.12293173735E+02  0.26859091244E+02 -0.15492941169E+02  0.33355288832E+02  0.10566000000E+00 0.  1.
         23    2    1    0    0    0  0.64646115583E+01 -0.23562492981E+02  0.16095760895E+02  0.95741568790E+02  0.91161352543E+02 0.  0.
         13    1    3    3    0    0  0.18757785294E+02 -0.50421584225E+02  0.31588702064E+02  0.62386279958E+02  0.10566000000E+00 0. -1.
         22    1    1    0    0    0 -0.64646115583E+01  0.23562492981E+02 -0.16095760895E+02  0.29258431210E+02  0.00000000000E+00 0. -1.
</event>
<event>
 5    1  0.9041381E-005  0.9118800E+02  0.7818608E-02  0.1130116E+00
         25   -1    0    0    0    0  0.00000000000E+00  0.00000000000E+00  0.99999998245E-14  0.12500000000E+03  0.12500000000E+03 0.  0.
        -13    1    3    3    0    0  0.17240445345E+02 -0.41368773176E+02 -0.19059903028E+02  0.48702150027E+02  0.10566000000E+00 0. -1.
         23    2    1    0    0    0 -0.17042261141E+02 -0.16265777666E+02  0.91739393695E+01  0.99718082520E+02  0.96459943138E+02 0.  0.
         13    1    3    3    0    0 -0.34282706487E+02  0.25102995510E+02  0.28233842397E+02  0.51015932494E+02  0.10566000000E+00 0.  1.
         22    1    1    0    0    0  0.17042261141E+02  0.16265777666E+02 -0.91739393695E+01  0.25281917480E+02  0.00000000000E+00 0.  1.
</event>
<event>
 5    1  0.9041381E-005  0.9118800E+02  0.7818608E-02  0.1130116E+00
         25   -1    0    0    0    0  0.00000000000E+00  0.00000000000E+00  0.99999998245E-14  0.12500000000E+03  0.12500000000E+03 0.  0.
        -13    1    3    3    0    0 -0.29382957955E+02  0.96265818275E-01  0.19035906153E+02  0.35010632276E+02  0.10566000000E+00 0.  1.
         23    2    1    0    0    0  0.24144904949E+02 -0.18177603929E+02 -0.27086542328E+00  0.94776249610E+02  0.89827960026E+02 0.  0.
         13    1    3    3    0    0  0.53527862903E+02 -0.18273869747E+02 -0.19306771576E+02  0.59765617334E+02  0.10566000000E+00 0. -1.
         22    1    1    0    0    0 -0.24144904949E+02  0.18177603929E+02  0.27086542328E+00  0.30223750390E+02  0.00000000000E+00 0. -1.
</event>
<event>
 5    1  0.9041381E-005  0.9118800E+02  0.7818608E-02  0.1130116E+00
         25   -1    0    0    0    0  0.00000000000E+00  0.00000000000E+00  0.99999998245E-14  0.12500000000E+03  0.12500000000E+03 0.  0.
        -13    1    3    3    0    0  0.18385952677E+02  0.94598135327E+01 -0.28490367956E+02  0.35202891333E+02  0.10566000000E+00 0.  1.
         23    2    1    0    0    0 -0.63492004473E+01  0.61922757949E+01  0.27287837234E+02  0.96307096927E+02  0.91933531596E+02 0.  0.
         13    1    3    3    0    0 -0.24735153125E+02 -0.32675377377E+01  0.55778205190E+02  0.61104205594E+02  0.10566000000E+00 0. -1.
         22    1    1    0    0    0  0.63492004473E+01 -0.61922757949E+01 -0.27287837234E+02  0.28692903073E+02  0.00000000000E+00 0. -1.
</event>
<event>
 4    1  0.9041381E-005  0.9118800E+02  0.7818608E-02  0.1130116E+00
         25   -1    0    0    0    0  0.00000000000E+00  0.00000000000E+00  0.99999998245E-14  0.12500000000E+03  0.12500000000E+03 0.  0.
        -13    1    1    0    0    0 -0.14291760514E+01  0.80508734993E+01  0.40384901979E+01  0.91202892170E+01  0.10566000000E+00 0.  1.
         13    1    1    0    0    0 -0.49822286868E+01 -0.57535047340E+02  0.19169412266E+02  0.60848843915E+02  0.10566000000E+00 0. -1.
         22    1    1    0    0    0  0.64114047382E+01  0.49484173841E+02 -0.23207902464E+02  0.55030866868E+02  0.00000000000E+00 0. -1.
</event>
<event>
 5    1  0.9041381E-005  0.9118800E+02  0.7818608E-02  0.1130116E+00
         25   -1    0    0    0    0  0.00000000000E+00  0.00000000000E+00  0.99999998245E-14  0.12500000000E+03  0.12500000000E+03 0.  0.
        -13    1    3    3    0    0  0.16251049641E+02 -0.41876185621E+02  0.71888189094E+01  0.45490678363E+02  0.10566000000E+00 0.  1.
         23    2    1    0    0    0 -0.14283099771E+02 -0.82821629997E+01  0.25647946199E+02  0.94497240990E+02  0.89438863183E+02 0.  0.
         13    1    3    3    0    0 -0.30534149411E+02  0.33594022622E+02  0.18459127289E+02  0.49006562627E+02  0.10566000000E+00 0. -1.
         22    1    1    0    0    0  0.14283099771E+02  0.82821629997E+01 -0.25647946199E+02  0.30502759010E+02  0.00000000000E+00 0.  1.
</event>
<event>
 5    1  0.9041381E-005  0.9118800E+02  0.7818608E-02  0.1130116E+00
         25   -1    0    0    0    0  0.00000000000E+00  0.00000000000E+00  0.99999998245E-14  0.12500000000E+03  0.12500000000E+03 0.  0.
        -13    1    3    3    0    0  0.31665682854E+02  0.93408588933E+01  0.29865427795E+01  0.33149626201E+02  0.10566000000E+00 0. -1.
         23    2    1    0    0    0  0.16214173443E+02  0.24680618279E+02 -0.36384377552E+02  0.78140046213E+02  0.62530085185E+02 0.  0.
         13    1    3    3    0    0 -0.15451509410E+02  0.15339759385E+02 -0.39370920332E+02  0.44990420012E+02  0.10566000000E+00 0.  1.
         22    1    1    0    0    0 -0.16214173443E+02 -0.24680618279E+02  0.36384377552E+02  0.46859953787E+02  0.00000000000E+00 0.  1.
</event>
<event>
 5    1  0.9041381E-005  0.9118800E+02  0.7818608E-02  0.1130116E+00
         25   -1    0    0    0    0  0.00000000000E+00  0.00000000000E+00  0.99999998245E-14  0.12500000000E+03  0.12500000000E+03 0.  0.
        -13    1    3    3    0    0 -0.31178863784E+02  0.24815689277E+02 -0.41353417314E+01  0.40063102681E+02  0.10566000000E+00 0.  1.
         23    2    1    0    0    0  0.24753985793E+00  0.35260313450E+02 -0.27239501226E+02  0.80442829896E+02  0.66975424404E+02 0.  0.
         13    1    3    3    0    0  0.31426403642E+02  0.10444624174E+02 -0.23104159495E+02  0.40379727216E+02  0.10566000000E+00 0. -1.
         22    1    1    0    0    0 -0.24753985793E+00 -0.35260313450E+02  0.27239501226E+02  0.44557170104E+02  0.00000000000E+00 0.  1.
</event>
<event>
 5    1  0.9041381E-005  0.9118800E+02  0.7818608E-02  0.1130116E+00
         25   -1    0    0    0    0  0.00000000000E+00  0.00000000000E+00  0.99999998245E-14  0.12500000000E+03  0.12500000000E+03 0.  0.
        -13    1    3    3    0    0 -0.21244107334E+02  0.27786013032E+02  0.95053370314E+01  0.36245513001E+02  0.10566000000E+00 0. -1.
         23    2    1    0    0    0  0.11526013663E+02 -0.13219455478E+02 -0.21534077916E+02  0.97227360482E+02  0.93176392507E+02 0.  0.
         13    1    3    3    0    0  0.32770120997E+02 -0.41005468509E+02 -0.31039414948E+02  0.60981847481E+02  0.10566000000E+00 0.  1.
         22    1    1    0    0    0 -0.11526013663E+02  0.13219455478E+02  0.21534077916E+02  0.27772639518E+02  0.00000000000E+00 0.  1.
</event>
<event>
 5    1  0.9041381E-005  0.9118800E+02  0.7818608E-02  0.1130116E+00
         25   -1    0    0    0    0  0.00000000000E+00  0.00000000000E+00  0.99999998245E-14  0.12500000000E+03  0.12500000000E+03 0.  0.
        -13    1    3    3    0    0  0.26208878086E+01 -0.21765605330E+02  0.41816620591E+02  0.47214950492E+02  0.10566000000E+00 0.  1.
         23    2    1    0    0    0 -0.25931837090E+02  0.38224782681E+01  0.10336815506E+02  0.96823391443E+02  0.92632865986E+02 0.  0.
         13    1    3    3    0    0 -0.28552724898E+02  0.25588083598E+02 -0.31479805085E+02  0.49608440951E+02  0.10566000000E+00 0. -1.
         22    1    1    0    0    0  0.25931837090E+02 -0.38224782681E+01 -0.10336815506E+02  0.28176608557E+02  0.00000000000E+00 0. -1.
</event>
<event>
 5    1  0.9041381E-005  0.9118800E+02  0.7818608E-02  0.1130116E+00
         25   -1    0    0    0    0  0.00000000000E+00  0.00000000000E+00  0.99999998245E-14  0.12500000000E+03  0.12500000000E+03 0.  0.
        -13    1    3    3    0    0 -0.18819462864E+02 -0.25655229528E+02  0.10515744999E+02  0.33510521356E+02  0.10566000000E+00 0.  1.
         23    2    1    0    0    0 -0.14911803672E+02  0.26676707899E+02 -0.13942861120E+02  0.91408155613E+02  0.85011992702E+02 0.  0.
         13    1    3    3    0    0  0.39076591913E+01  0.52331937427E+02 -0.24458606119E+02  0.57897634257E+02  0.10566000000E+00 0. -1.
         22    1    1    0    0    0  0.14911803672E+02 -0.26676707899E+02  0.13942861120E+02  0.33591844387E+02  0.00000000000E+00 0. -1.
</event>
<event>
 5    1  0.9041381E-005  0.9118800E+02  0.7818608E-02  0.1130116E+00
         25   -1    0    0    0    0  0.00000000000E+00  0.00000000000E+00  0.99999998245E-14  0.12500000000E+03  0.12500000000E+03 0.  0.
        -13    1    3    3    0    0 -0.42626446887E+02 -0.53509534725E+01 -0.21697023645E+02  0.48129187364E+02  0.10566000000E+00 0. -1.
         23    2    1    0    0    0 -0.20691094821E+02  0.69537492903E+01  0.19059667081E+02  0.96021612479E+02  0.91544541725E+02 0.  0.
         13    1    3    3    0    0  0.21935352066E+02  0.12304702763E+02  0.40756690726E+02  0.47892425114E+02  0.10566000000E+00 0.  1.
         22    1    1    0    0    0  0.20691094821E+02 -0.69537492903E+01 -0.19059667081E+02  0.28978387521E+02  0.00000000000E+00 0.  1.
</event>
<event>
 5    1  0.9041381E-005  0.9118800E+02  0.7818608E-02  0.1130116E+00
         25   -1    0    0    0    0  0.00000000000E+00  0.00000000000E+00  0.99999998245E-14  0.12500000000E+03  0.12500000000E+03 0.  0.
        -13    1    3    3    0    0  0.18310802662E+02  0.78439909506E+01  0.29403361604E+02  0.35515947486E+02  0.10566000000E+00 0.  1.
         23    2    1    0    0    0 -0.19030747417E+02  0.11969918675E+02 -0.18140599760E+02  0.96111772986E+02  0.91667569219E+02 0.  0.
         13    1    3    3    0    0 -0.37341550079E+02  0.41259277243E+01 -0.47543961364E+02  0.60595825501E+02  0.10566000000E+00 0. -1.
         22    1    1    0    0    0  0.19030747417E+02 -0.11969918675E+02  0.18140599760E+02  0.28888227014E+02  0.00000000000E+00 0. -1.
</event>
<event>
 5    1  0.9041381E-005  0.9118800E+02  0.7818608E-02  0.1130116E+00
         25   -1    0    0    0    0  0.00000000000E+00  0.00000000000E+00  0.99999998245E-14  0.12500000000E+03  0.12500000000E+03 0.  0.
        -13    1    3    3    0    0 -0.59507007899E+02  0.89941279220E+01 -0.35433166390E+00  0.60184009846E+02  0.10566000000E+00 0. -1.
         23    2    1    0    0    0 -0.25450288407E+02 -0.36992668746E+00 -0.11285039517E+02  0.97157476001E+02  0.93082592359E+02 0.  0.
         13    1    3    3    0    0  0.34056719492E+02 -0.93640546095E+01 -0.10930707853E+02  0.36973466155E+02  0.10566000000E+00 0.  1.
         22    1    1    0    0    0  0.25450288407E+02  0.36992668746E+00  0.11285039517E+02  0.27842523999E+02  0.00000000000E+00 0. -1.
</event>
<event>
 5    1  0.9041381E-005  0.9118800E+02  0.7818608E-02  0.1130116E+00
         25   -1    0    0    0    0  0.00000000000E+00  0.00000000000E+00  0.99999998245E-14  0.12500000000E+03  0.12500000000E+03 0.  0.
        -13    1    3    3    0    0  0.18854186340E+02 -0.31706271084E+02  0.29437737392E+02  0.47194909846E+02  0.10566000000E+00 0. -1.
         23    2    1    0    0    0  0.27744815861E+02  0.35312827755E+00 -0.68441804837E+01  0.96421296159E+02  0.92088674873E+02 0.  0.
         13    1    3    3    0    0  0.88906295205E+01  0.32059399362E+02 -0.36281917875E+02  0.49226386313E+02  0.10566000000E+00 0.  1.
         22    1    1    0    0    0 -0.27744815861E+02 -0.35312827755E+00  0.68441804837E+01  0.28578703841E+02  0.00000000000E+00 0.  1.
</event>
<event>
 5    1  0.9041381E-005  0.9118800E+02  0.7818608E-02  0.1130116E+00
         25   -1    0    0    0    0  0.00000000000E+00  0.00000000000E+00  0.99999998245E-14  0.12500000000E+03  0.12500000000E+03 0.  0.
        -13    1    3    3    0    0  0.26283968146E+02  0.43776338949E+02  0.32709782678E+01  0.51165665208E+02  0.10566000000E+00 0.  1.
         23    2    1    0    0    0 -0.98639753542E+01  0.31943197282E+02 -0.75822702016E+01  0.90719441606E+02  0.83993216402E+02 0.  0.
         13    1    3    3    0    0 -0.36147943500E+02 -0.11833141667E+02 -0.10853248469E+02  0.39553776399E+02  0.10566000000E+00 0. -1.
         22    1    1    0    0    0  0.98639753542E+01 -0.31943197282E+02  0.75822702016E+01  0.34280558394E+02  0.00000000000E+00 0. -1.
</event>
<event>
 5    1  0.9041381E-005  0.9118800E+02  0.7818608E-02  0.1130116E+00
         25   -1    0    0    0    0  0.00000000000E+00  0.00000000000E+00  0.99999998245E-14  0.12500000000E+03  0.12500000000E+03 0.  0.
        -13    1    3    3    0    0 -0.60515968024E+01 -0.25007205192E+00  0.34835611983E+02  0.35358384949E+02  0.10566000000E+00 0.  1.
         23    2    1    0    0    0  0.24895974227E+02 -0.57431166829E+01 -0.15802368190E+02  0.94958233036E+02  0.90080842907E+02 0.  0.
         13    1    3    3    0    0  0.30947571029E+02 -0.54930446310E+01 -0.50637980173E+02  0.59599848087E+02  0.10566000000E+00 0. -1.
         22    1    1    0    0    0 -0.24895974227E+02  0.57431166829E+01  0.15802368190E+02  0.30041766964E+02  0.00000000000E+00 0. -1.
</event>
<event>
 5    1  0.9041381E-005  0.9118800E+02  0.7818608E-02  0.1130116E+00
         25   -1    0    0    0    0  0.00000000000E+00  0.00000000000E+00  0.99999998245E-14  0.12500000000E+03  0.12500000000E+03 0.  0.
        -13    1    3    3    0    0 -0.10301112240E+02 -0.41146075250E+01  0.46740598782E+02  0.48038918045E+02  0.10566000000E+00 0. -1.
         23    2    1    0    0    0  0.20896238513E+02 -0.16603377791E+02  0.14418046882E+02  0.94665118857E+02  0.89673182805E+02 0.  0.
         13    1    3    3    0    0  0.31197350753E+02 -0.12488770266E+02 -0.32322551900E+02  0.46626200812E+02  0.10566000000E+00 0.  1.
         22    1    1    0    0    0 -0.20896238513E+02  0.16603377791E+02 -0.14418046882E+02  0.30334881143E+02  0.00000000000E+00 0. -1.
</event>
<event>
 5    1  0.9041381E-005  0.9118800E+02  0.7818608E-02  0.1130116E+00
         25   -1    0    0    0    0  0.00000000000E+00  0.00000000000E+00  0.99999998245E-14  0.12500000000E+03  0.12500000000E+03 0.  0.
        -13    1    3    3    0    0  0.59426787003E+01  0.15256597184E+02 -0.33960476476E+02  0.37701516074E+02  0.10566000000E+00 0.  1.
         23    2    1    0    0    0 -0.21010004239E+02 -0.18790985103E+02  0.53886501500E+01  0.96302283197E+02  0.91926986241E+02 0.  0.
         13    1    3    3    0    0 -0.26952682940E+02 -0.34047582286E+02  0.39349126626E+02  0.58600767123E+02  0.10566000000E+00 0. -1.
         22    1    1    0    0    0  0.21010004239E+02  0.18790985103E+02 -0.53886501500E+01  0.28697716803E+02  0.00000000000E+00 0. -1.
</event>
<event>
 5    1  0.9041381E-005  0.9118800E+02  0.7818608E-02  0.1130116E+00
         25   -1    0    0    0    0  0.00000000000E+00  0.00000000000E+00  0.99999998245E-14  0.12500000000E+03  0.12500000000E+03 0.  0.
        -13    1    3    3    0    0  0.49168105449E+02 -0.10758965712E+02 -0.15021256647E+02  0.52525301064E+02  0.10566000000E+00 0. -1.
         23    2    1    0    0    0  0.67254113741E+01 -0.21468887795E+02 -0.17690895436E+02  0.96379865782E+02  0.92032420622E+02 0.  0.
         13    1    3    3    0    0 -0.42442694074E+02 -0.10709922083E+02 -0.26696387890E+01  0.43854564718E+02  0.10566000000E+00 0.  1.
         22    1    1    0    0    0 -0.67254113741E+01  0.21468887795E+02  0.17690895436E+02  0.28620134218E+02  0.00000000000E+00 0. -1.
</event>
<event>
 5    1  0.9041381E-005  0.9118800E+02  0.7818608E-02  0.1130116E+00
         25   -1    0    0    0    0  0.00000000000E+00  0.00000000000E+00  0.99999998245E-14  0.12500000000E+03  0.12500000000E+03 0.  0.
        -13    1    3    3    0    0 -0.13094641641E+01  0.49121947423E+02 -0.36193277824E+02  0.61029869234E+02  0.10566000000E+00 0. -1.
         23    2    1    0    0    0 -0.55840008436E+01  0.31864476303E+02 -0.13284206981E+02  0.90028639280E+02  0.82958783863E+02 0.  0.
         13    1    3    3    0    0 -0.42745366795E+01 -0.17257471120E+02  0.22909070843E+02  0.28998770046E+02  0.10566000000E+00 0.  1.
         22    1    1    0    0    0  0.55840008436E+01 -0.31864476303E+02  0.13284206981E+02  0.34971360720E+02  0.00000000000E+00 0. -1.
</event>
<event>
 5    1  0.9041381E-005  0.9118800E+02  0.7818608E-02  0.1130116E+00
         25   -1    0    0    0    0  0.00000000000E+00  0.00000000000E+00  0.99999998245E-14  0.12500000000E+03  0.12500000000E+03 0.  0.
        -13    1    3    3    0    0  0.34589941791E+02 -0.46317198924E+01 -0.16952965022E+02  0.38798596487E+02  0.10566000000E+00 0.  1.
         23    2    1    0    0    0 -0.19569853170E+02  0.12887283736E+02 -0.17549637382E+02  0.95724566486E+02  0.91138036085E+02 0.  0.
         13    1    3    3    0    0 -0.54159794961E+02  0.17519003629E+02 -0.59667235995E+00  0.56925969999E+02  0.10566000000E+00 0. -1.
         22    1    1    0    0    0  0.19569853170E+02 -0.12887283736E+02  0.17549637382E+02  0.29275433514E+02  0.00000000000E+00 0. -1.
</event>
<event>
 5    1  0.9041381E-005  0.9118800E+02  0.7818608E-02  0.1130116E+00
         25   -1    0    0    0    0  0.00000000000E+00  0.00000000000E+00  0.99999998245E-14  0.12500000000E+03  0.12500000000E+03 0.  0.
        -13    1    3    3    0    0  0.46008884016E+01 -0.21057995238E+02  0.44927273882E+02  0.49830497088E+02  0.10566000000E+00 0. -1.
         23    2    1    0    0    0 -0.23552276251E+02 -0.40336007546E+01  0.68714377674E+01  0.10013644618E+03  0.97000574970E+02 0.  0.
         13    1    3    3    0    0 -0.28153164652E+02  0.17024394483E+02 -0.38055836115E+02  0.50305949090E+02  0.10566000000E+00 0.  1.
         22    1    1    0    0    0  0.23552276251E+02  0.40336007546E+01 -0.68714377674E+01  0.24863553822E+02  0.00000000000E+00 0.  1.
</event>
<event>
 5    1  0.9041381E-005  0.9118800E+02  0.7818608E-02  0.1130116E+00
         25   -1    0    0    0    0  0.00000000000E+00  0.00000000000E+00  0.99999998245E-14  0.12500000000E+03  0.12500000000E+03 0.  0.
        -13    1    3    3    0    0 -0.36384328422E+02  0.33943116720E+02 -0.68099901304E+01  0.50222919638E+02  0.10566000000E+00 0. -1.
         23    2    1    0    0    0 -0.17629867446E+01  0.22750279121E+02  0.19386551954E+02  0.95058027470E+02  0.90219215622E+02 0.  0.
         13    1    3    3    0    0  0.34621341677E+02 -0.11192837599E+02  0.26196542084E+02  0.44835107831E+02  0.10566000000E+00 0.  1.
         22    1    1    0    0    0  0.17629867446E+01 -0.22750279121E+02 -0.19386551954E+02  0.29941972530E+02  0.00000000000E+00 0. -1.
</event>
<event>
 5    1  0.9041381E-005  0.9118800E+02  0.7818608E-02  0.1130116E+00
         25   -1    0    0    0    0  0.00000000000E+00  0.00000000000E+00  0.99999998245E-14  0.12500000000E+03  0.12500000000E+03 0.  0.
        -13    1    3    3    0    0 -0.13315408249E+02 -0.55794277379E+01 -0.59837683879E+02  0.61554769813E+02  0.10566000000E+00 0.  1.
         23    2    1    0    0    0 -0.39858703054E+01  0.46693555213E+01 -0.28900974809E+02  0.95454164626E+02  0.90766409846E+02 0.  0.
         13    1    3    3    0    0  0.93295379440E+01  0.10248783259E+02  0.30936709070E+02  0.33899394813E+02  0.10566000000E+00 0. -1.
         22    1    1    0    0    0  0.39858703054E+01 -0.46693555213E+01  0.28900974809E+02  0.29545835374E+02  0.00000000000E+00 0.  1.
</event>
<event>
 5    1  0.9041381E-005  0.9118800E+02  0.7818608E-02  0.1130116E+00
         25   -1    0    0    0    0  0.00000000000E+00  0.00000000000E+00  0.99999998245E-14  0.12500000000E+03  0.12500000000E+03 0.  0.
        -13    1    3    3    0    0 -0.53591128135E+02  0.24284731697E+02  0.19387778341E+01  0.58868728811E+02  0.10566000000E+00 0.  1.
         23    2    1    0    0    0 -0.21187745835E+02  0.13871756348E+02  0.15276499419E+02  0.95424374356E+02  0.90725374560E+02 0.  0.
         13    1    3    3    0    0  0.32403382300E+02 -0.10412975349E+02  0.13337721585E+02  0.36555645545E+02  0.10566000000E+00 0. -1.
         22    1    1    0    0    0  0.21187745835E+02 -0.13871756348E+02 -0.15276499419E+02  0.29575625644E+02  0.00000000000E+00 0.  1.
</event>
<event>
 5    1  0.9041381E-005  0.9118800E+02  0.7818608E-02  0.1130116E+00
         25   -1    0    0    0    0  0.00000000000E+00  0.00000000000E+00  0.99999998245E-14  0.12500000000E+03  0.12500000000E+03 0.  0.
        -13    1    3    3    0    0  0.51723205744E+01  0.34061220024E+02  0.14575440220E+02  0.37408210747E+02  0.10566000000E+00 0. -1.
         23    2    1    0    0    0 -0.27675518908E+01 -0.40105291044E+01 -0.28872191645E+02  0.95719509267E+02  0.91131099614E+02 0.  0.
         13    1    3    3    0    0 -0.79398724652E+01 -0.38071749128E+02 -0.43447631865E+02  0.58311298521E+02  0.10566000000E+00 0.  1.
         22    1    1    0    0    0  0.27675518908E+01  0.40105291044E+01  0.28872191645E+02  0.29280490733E+02  0.00000000000E+00 0.  1.
</event>
<event>
 5    1  0.9041381E-005  0.9118800E+02  0.7818608E-02  0.1130116E+00
         25   -1    0    0    0    0  0.00000000000E+00  0.00000000000E+00  0.99999998245E-14  0.12500000000E+03  0.12500000000E+03 0.  0.
        -13    1    3    3    0    0 -0.38703441044E+02  0.15218054697E+02  0.18352988376E+02  0.45457550350E+02  0.10566000000E+00 0.  1.
         23    2    1    0    0    0 -0.23694350233E+01  0.23507966856E+02 -0.16259110922E+02  0.96319040881E+02  0.91949770093E+02 0.  0.
         13    1    3    3    0    0  0.36334006021E+02  0.82899121588E+01 -0.34612099298E+02  0.50861490531E+02  0.10566000000E+00 0. -1.
         22    1    1    0    0    0  0.23694350233E+01 -0.23507966856E+02  0.16259110922E+02  0.28680959119E+02  0.00000000000E+00 0. -1.
</event>
<event>
 5    1  0.9041381E-005  0.9118800E+02  0.7818608E-02  0.1130116E+00
         25   -1    0    0    0    0  0.00000000000E+00  0.00000000000E+00  0.99999998245E-14  0.12500000000E+03  0.12500000000E+03 0.  0.
        -13    1    3    3    0    0 -0.47783966710E+01 -0.34500316333E+02  0.35214710526E+02  0.49529707280E+02  0.10566000000E+00 0. -1.
         23    2    1    0    0    0  0.14234525688E+02 -0.23127116426E+02 -0.67795089914E+01  0.97009877137E+02  0.92884171333E+02 0.  0.
         13    1    3    3    0    0  0.19012922359E+02  0.11373199907E+02 -0.41994219517E+02  0.47480169857E+02  0.10566000000E+00 0.  1.
         22    1    1    0    0    0 -0.14234525688E+02  0.23127116426E+02  0.67795089914E+01  0.27990122863E+02  0.00000000000E+00 0. -1.
</event>
<event>
 5    1  0.9041381E-005  0.9118800E+02  0.7818608E-02  0.1130116E+00
         25   -1    0    0    0    0  0.00000000000E+00  0.00000000000E+00  0.99999998245E-14  0.12500000000E+03  0.12500000000E+03 0.  0.
        -13    1    3    3    0    0 -0.25117238952E+02  0.34366733164E+02 -0.24511632743E+02  0.49120050332E+02  0.10566000000E+00 0. -1.
         23    2    1    0    0    0 -0.16602936965E+02 -0.11157963183E+02 -0.21651014774E+02  0.95522481465E+02  0.90860444453E+02 0.  0.
         13    1    3    3    0    0  0.85143019864E+01 -0.45524696347E+02  0.28606179691E+01  0.46402431133E+02  0.10566000000E+00 0.  1.
         22    1    1    0    0    0  0.16602936965E+02  0.11157963183E+02  0.21651014774E+02  0.29477518535E+02  0.00000000000E+00 0. -1.
</event>
<event>
 5    1  0.9041381E-005  0.9118800E+02  0.7818608E-02  0.1130116E+00
         25   -1    0    0    0    0  0.00000000000E+00  0.00000000000E+00  0.99999998245E-14  0.12500000000E+03  0.12500000000E+03 0.  0.
        -13    1    3    3    0    0 -0.56277092623E+02 -0.93572726345E+01 -0.12027785069E+02  0.58303931969E+02  0.10566000000E+00 0.  1.
         23    2    1    0    0    0 -0.28982794551E+02  0.11480418320E+02 -0.74620463975E+01  0.92945600595E+02  0.87243338707E+02 0.  0.
         13    1    3    3    0    0  0.27294298073E+02  0.20837690954E+02  0.45657386719E+01  0.34641668627E+02  0.10566000000E+00 0. -1.
         22    1    1    0    0    0  0.28982794551E+02 -0.11480418320E+02  0.74620463975E+01  0.32054399405E+02  0.00000000000E+00 0.  1.
</event>
<event>
 5    1  0.9041381E-005  0.9118800E+02  0.7818608E-02  0.1130116E+00
         25   -1    0    0    0    0  0.00000000000E+00  0.00000000000E+00  0.99999998245E-14  0.12500000000E+03  0.12500000000E+03 0.  0.
        -13    1    3    3    0    0 -0.26454933584E+02 -0.50969263044E+02 -0.61457850608E+01  0.57753884062E+02  0.10566000000E+00 0. -1.
         23    2    1    0    0    0 -0.39371386585E+01 -0.25582684302E+02  0.12261065237E+02  0.96358971428E+02  0.92004037178E+02 0.  0.
         13    1    3    3    0    0  0.22517794926E+02  0.25386578742E+02  0.18406850298E+02  0.38605087366E+02  0.10566000000E+00 0.  1.
         22    1    1    0    0    0  0.39371386585E+01  0.25582684302E+02 -0.12261065237E+02  0.28641028572E+02  0.00000000000E+00 0. -1.
</event>
<event>
 5    1  0.9041381E-005  0.9118800E+02  0.7818608E-02  0.1130116E+00
         25   -1    0    0    0    0  0.00000000000E+00  0.00000000000E+00  0.99999998245E-14  0.12500000000E+03  0.12500000000E+03 0.  0.
        -13    1    3    3    0    0  0.30281713218E+02  0.49975847594E+02 -0.15330598466E+02  0.60411968280E+02  0.10566000000E+00 0. -1.
         23    2    1    0    0    0  0.64532506241E+01  0.29923253984E+02 -0.18942120944E+01  0.94330249233E+02  0.89205169740E+02 0.  0.
         13    1    3    3    0    0 -0.23828462594E+02 -0.20052593609E+02  0.13436386372E+02  0.33918280953E+02  0.10566000000E+00 0.  1.
         22    1    1    0    0    0 -0.64532506241E+01 -0.29923253984E+02  0.18942120944E+01  0.30669750767E+02  0.00000000000E+00 0. -1.
</event>
<event>
 5    1  0.9041381E-005  0.9118800E+02  0.7818608E-02  0.1130116E+00
         25   -1    0    0    0    0  0.00000000000E+00  0.00000000000E+00  0.99999998245E-14  0.12500000000E+03  0.12500000000E+03 0.  0.
        -13    1    3    3    0    0 -0.18487452476E+02 -0.47499369514E+02  0.91350457727E+01  0.51782586152E+02  0.10566000000E+00 0. -1.
         23    2    1    0    0    0  0.47396003499E+01 -0.13833321772E+02  0.25312871896E+02  0.95767037674E+02  0.91196268665E+02 0.  0.
         13    1    3    3    0    0  0.23227052826E+02  0.33666047742E+02  0.16177826124E+02  0.43984451522E+02  0.10566000000E+00 0.  1.
         22    1    1    0    0    0 -0.47396003499E+01  0.13833321772E+02 -0.25312871896E+02  0.29232962326E+02  0.00000000000E+00 0. -1.
</event>
<event>
 5    1  0.9041381E-005  0.9118800E+02  0.7818608E-02  0.1130116E+00
         25   -1    0    0    0    0  0.00000000000E+00  0.00000000000E+00  0.99999998245E-14  0.12500000000E+03  0.12500000000E+03 0.  0.
        -13    1    3    3    0    0 -0.45485846293E+02 -0.25153363336E+02  0.25369532575E+02  0.57838380400E+02  0.10566000000E+00 0.  1.
         23    2    1    0    0    0 -0.25680170707E+02 -0.12179028887E+02 -0.47855018078E+01  0.96178116999E+02  0.91757992839E+02 0.  0.
         13    1    3    3    0    0  0.19805675586E+02  0.12974334449E+02 -0.30155034383E+02  0.38339736599E+02  0.10566000000E+00 0. -1.
         22    1    1    0    0    0  0.25680170707E+02  0.12179028887E+02  0.47855018078E+01  0.28821883001E+02  0.00000000000E+00 0.  1.
</event>
<event>
 5    1  0.9041381E-005  0.9118800E+02  0.7818608E-02  0.1130116E+00
         25   -1    0    0    0    0  0.00000000000E+00  0.00000000000E+00  0.99999998245E-14  0.12500000000E+03  0.12500000000E+03 0.  0.
        -13    1    3    3    0    0  0.13413827300E+02 -0.46566909887E+02  0.12404800805E+02  0.50022975784E+02  0.10566000000E+00 0. -1.
         23    2    1    0    0    0  0.28806034488E+02 -0.56598021951E+01 -0.64285185898E+00  0.95636174596E+02  0.91016721810E+02 0.  0.
         13    1    3    3    0    0  0.15392207188E+02  0.40907107692E+02 -0.13047652664E+02  0.45613198812E+02  0.10566000000E+00 0.  1.
         22    1    1    0    0    0 -0.28806034488E+02  0.56598021951E+01  0.64285185898E+00  0.29363825404E+02  0.00000000000E+00 0.  1.
</event>
<event>
 5    1  0.9041381E-005  0.9118800E+02  0.7818608E-02  0.1130116E+00
         25   -1    0    0    0    0  0.00000000000E+00  0.00000000000E+00  0.99999998245E-14  0.12500000000E+03  0.12500000000E+03 0.  0.
        -13    1    3    3    0    0 -0.47775306923E+02  0.19532668894E+02 -0.13790070882E+02  0.53424547959E+02  0.10566000000E+00 0. -1.
         23    2    1    0    0    0 -0.15957140522E+02 -0.11889854415E+02 -0.17770958522E+02  0.98320308501E+02  0.94631269279E+02 0.  0.
         13    1    3    3    0    0  0.31818166400E+02 -0.31422523309E+02 -0.39808876396E+01  0.44895760542E+02  0.10566000000E+00 0.  1.
         22    1    1    0    0    0  0.15957140522E+02  0.11889854415E+02  0.17770958522E+02  0.26679691499E+02  0.00000000000E+00 0. -1.
</event>
<event>
 5    1  0.9041381E-005  0.9118800E+02  0.7818608E-02  0.1130116E+00
         25   -1    0    0    0    0  0.00000000000E+00  0.00000000000E+00  0.99999998245E-14  0.12500000000E+03  0.12500000000E+03 0.  0.
        -13    1    3    3    0    0 -0.28019623129E+02  0.37428577144E+02 -0.18622496335E+02  0.50326992768E+02  0.10566000000E+00 0.  1.
         23    2    1    0    0    0 -0.10274842759E+02  0.15340445963E+02  0.19709182145E+02  0.97993453814E+02  0.94198532120E+02 0.  0.
         13    1    3    3    0    0  0.17744780370E+02 -0.22088131181E+02  0.38331678480E+02  0.47666461045E+02  0.10566000000E+00 0. -1.
         22    1    1    0    0    0  0.10274842759E+02 -0.15340445963E+02 -0.19709182145E+02  0.27006546186E+02  0.00000000000E+00 0.  1.
</event>
<event>
 5    1  0.9041381E-005  0.9118800E+02  0.7818608E-02  0.1130116E+00
         25   -1    0    0    0    0  0.00000000000E+00  0.00000000000E+00  0.99999998245E-14  0.12500000000E+03  0.12500000000E+03 0.  0.
        -13    1    3    3    0    0  0.34549496110E+02  0.20305574716E+02 -0.34447490378E+02  0.52845291213E+02  0.10566000000E+00 0.  1.
         23    2    1    0    0    0 -0.87448470006E+01  0.93430522538E+01 -0.22563403062E+02  0.99060221045E+02  0.95603636235E+02 0.  0.
         13    1    3    3    0    0 -0.43294343110E+02 -0.10962522462E+02  0.11884087316E+02  0.46214929833E+02  0.10566000000E+00 0. -1.
         22    1    1    0    0    0  0.87448470006E+01 -0.93430522538E+01  0.22563403062E+02  0.25939778955E+02  0.00000000000E+00 0. -1.
</event>
<event>
 5    1  0.9041381E-005  0.9118800E+02  0.7818608E-02  0.1130116E+00
         25   -1    0    0    0    0  0.00000000000E+00  0.00000000000E+00  0.99999998245E-14  0.12500000000E+03  0.12500000000E+03 0.  0.
        -13    1    3    3    0    0  0.20180382685E+02  0.34140272964E+02 -0.43552214790E+02  0.58903418072E+02  0.10566000000E+00 0.  1.
         23    2    1    0    0    0  0.22567936401E+02  0.10118906035E+02 -0.15960280626E+02  0.95564739335E+02  0.90918561547E+02 0.  0.
         13    1    3    3    0    0  0.23875537157E+01 -0.24021366929E+02  0.27591934163E+02  0.36661321264E+02  0.10566000000E+00 0. -1.
         22    1    1    0    0    0 -0.22567936401E+02 -0.10118906035E+02  0.15960280626E+02  0.29435260665E+02  0.00000000000E+00 0.  1.
</event>
<event>
 5    1  0.9041381E-005  0.9118800E+02  0.7818608E-02  0.1130116E+00
         25   -1    0    0    0    0  0.00000000000E+00  0.00000000000E+00  0.99999998245E-14  0.12500000000E+03  0.12500000000E+03 0.  0.
        -13    1    3    3    0    0  0.20672234043E+02 -0.23176289360E+02  0.19961670703E+02  0.36918303186E+02  0.10566000000E+00 0. -1.
         23    2    1    0    0    0  0.15167277620E+02  0.39703649204E+01 -0.28347774693E+02  0.92605456662E+02  0.86754620428E+02 0.  0.
         13    1    3    3    0    0 -0.55049564230E+01  0.27146654281E+02 -0.48309445396E+02  0.55687153477E+02  0.10566000000E+00 0.  1.
         22    1    1    0    0    0 -0.15167277620E+02 -0.39703649204E+01  0.28347774693E+02  0.32394543338E+02  0.00000000000E+00 0.  1.
</event>
<event>
 5    1  0.9041381E-005  0.9118800E+02  0.7818608E-02  0.1130116E+00
         25   -1    0    0    0    0  0.00000000000E+00  0.00000000000E+00  0.99999998245E-14  0.12500000000E+03  0.12500000000E+03 0.  0.
        -13    1    3    3    0    0 -0.52023310504E+02  0.47022102641E+01 -0.68041903343E+01  0.52676786038E+02  0.10566000000E+00 0. -1.
         23    2    1    0    0    0 -0.14384132967E+02  0.14065923400E+02 -0.22765135085E+02  0.94619004991E+02  0.89608879290E+02 0.  0.
         13    1    3    3    0    0  0.37639177537E+02  0.93637131359E+01 -0.15960944751E+02  0.41942218953E+02  0.10566000000E+00 0.  1.
         22    1    1    0    0    0  0.14384132967E+02 -0.14065923400E+02  0.22765135085E+02  0.30380995009E+02  0.00000000000E+00 0.  1.
</event>
<event>
 5    1  0.9041381E-005  0.9118800E+02  0.7818608E-02  0.1130116E+00
         25   -1    0    0    0    0  0.00000000000E+00  0.00000000000E+00  0.99999998245E-14  0.12500000000E+03  0.12500000000E+03 0.  0.
        -13    1    3    3    0    0  0.13088010570E+02  0.38385109448E+02 -0.35986780265E+02  0.54219665859E+02  0.10566000000E+00 0.  1.
         23    2    1    0    0    0  0.12397496565E+01 -0.52522801668E+00 -0.29572671774E+02  0.95396693436E+02  0.90687228202E+02 0.  0.
         13    1    3    3    0    0 -0.11848260913E+02 -0.38910337465E+02  0.64141084905E+01  0.41177027577E+02  0.10566000000E+00 0. -1.
         22    1    1    0    0    0 -0.12397496565E+01  0.52522801668E+00  0.29572671774E+02  0.29603306564E+02  0.00000000000E+00 0.  1.
</event>
<event>
 5    1  0.9041381E-005  0.9118800E+02  0.7818608E-02  0.1130116E+00
         25   -1    0    0    0    0  0.00000000000E+00  0.00000000000E+00  0.99999998245E-14  0.12500000000E+03  0.12500000000E+03 0.  0.
        -13    1    3    3    0    0  0.27721835799E+02  0.27633861905E+02 -0.57907979040E+01  0.39568611401E+02  0.10566000000E+00 0. -1.
         23    2    1    0    0    0 -0.25991007498E+02  0.14347478918E+02  0.86516367816E+00  0.95299307580E+02  0.90552895564E+02 0.  0.
         13    1    3    3    0    0 -0.53712843297E+02 -0.13286382987E+02  0.66559615822E+01  0.55730696178E+02  0.10566000000E+00 0.  1.
         22    1    1    0    0    0  0.25991007498E+02 -0.14347478918E+02 -0.86516367816E+00  0.29700692420E+02  0.00000000000E+00 0.  1.
</event>
<event>
 5    1  0.9041381E-005  0.9118800E+02  0.7818608E-02  0.1130116E+00
         25   -1    0    0    0    0  0.00000000000E+00  0.00000000000E+00  0.99999998245E-14  0.12500000000E+03  0.12500000000E+03 0.  0.
        -13    1    3    3    0    0 -0.20065028223E+02  0.37232545777E+02 -0.36395359569E+02  0.55798756123E+02  0.10566000000E+00 0.  1.
         23    2    1    0    0    0 -0.10271199096E+02  0.27426406126E+02  0.10169246945E+01  0.95695744001E+02  0.91098496147E+02 0.  0.
         13    1    3    3    0    0  0.97938291269E+01 -0.98061396516E+01  0.37412284264E+02  0.39896987878E+02  0.10566000000E+00 0. -1.
         22    1    1    0    0    0  0.10271199096E+02 -0.27426406126E+02 -0.10169246945E+01  0.29304255999E+02  0.00000000000E+00 0.  1.
</event>
<event>
 5    1  0.9041381E-005  0.9118800E+02  0.7818608E-02  0.1130116E+00
         25   -1    0    0    0    0  0.00000000000E+00  0.00000000000E+00  0.99999998245E-14  0.12500000000E+03  0.12500000000E+03 0.  0.
        -13    1    3    3    0    0  0.42347289672E+02 -0.43412940089E+02 -0.10984719951E+02  0.61633201655E+02  0.10566000000E+00 0. -1.
         23    2    1    0    0    0  0.28050380855E+02 -0.20585061841E+02 -0.15537129688E+01  0.90172099387E+02  0.83174664693E+02 0.  0.
         13    1    3    3    0    0 -0.14296908817E+02  0.22827878249E+02  0.94310069827E+01  0.28538897733E+02  0.10566000000E+00 0.  1.
         22    1    1    0    0    0 -0.28050380855E+02  0.20585061841E+02  0.15537129688E+01  0.34827900613E+02  0.00000000000E+00 0. -1.
</event>
<event>
 5    1  0.9041381E-005  0.9118800E+02  0.7818608E-02  0.1130116E+00
         25   -1    0    0    0    0  0.00000000000E+00  0.00000000000E+00  0.99999998245E-14  0.12500000000E+03  0.12500000000E+03 0.  0.
        -13    1    3    3    0    0 -0.15972649974E+02 -0.13180840085E+02 -0.32524869371E+02  0.38558246643E+02  0.10566000000E+00 0.  1.
         23    2    1    0    0    0  0.23915208851E+02  0.97378936994E+01  0.59169140629E+01  0.98508989069E+02  0.94880173205E+02 0.  0.
         13    1    3    3    0    0  0.39887858825E+02  0.22918733784E+02  0.38441783434E+02  0.59950742427E+02  0.10566000000E+00 0. -1.
         22    1    1    0    0    0 -0.23915208851E+02 -0.97378936994E+01 -0.59169140629E+01  0.26491010931E+02  0.00000000000E+00 0. -1.
</event>
<event>
 5    1  0.9041381E-005  0.9118800E+02  0.7818608E-02  0.1130116E+00
         25   -1    0    0    0    0  0.00000000000E+00  0.00000000000E+00  0.99999998245E-14  0.12500000000E+03  0.12500000000E+03 0.  0.
        -13    1    3    3    0    0  0.21322017320E+02  0.20117961696E+02  0.20178523377E+02  0.35588548370E+02  0.10566000000E+00 0. -1.
         23    2    1    0    0    0 -0.21068152938E+02  0.18458047335E+01 -0.19330050380E+02  0.96348212778E+02  0.91989418927E+02 0.  0.
         13    1    3    3    0    0 -0.42390170258E+02 -0.18272156962E+02 -0.39508573757E+02  0.60759664408E+02  0.10566000000E+00 0.  1.
         22    1    1    0    0    0  0.21068152938E+02 -0.18458047335E+01  0.19330050380E+02  0.28651787222E+02  0.00000000000E+00 0.  1.
</event>
<event>
 5    1  0.9041381E-005  0.9118800E+02  0.7818608E-02  0.1130116E+00
         25   -1    0    0    0    0  0.00000000000E+00  0.00000000000E+00  0.99999998245E-14  0.12500000000E+03  0.12500000000E+03 0.  0.
        -13    1    3    3    0    0  0.98217803517E+01 -0.45173616163E+01 -0.37030681346E+02  0.38576630882E+02  0.10566000000E+00 0. -1.
         23    2    1    0    0    0  0.12465261935E+02 -0.23056280731E+02  0.15640531594E+02  0.94477859433E+02  0.89411771362E+02 0.  0.
         13    1    3    3    0    0  0.26434815830E+01 -0.18538919115E+02  0.52671212940E+02  0.55901228550E+02  0.10566000000E+00 0.  1.
         22    1    1    0    0    0 -0.12465261935E+02  0.23056280731E+02 -0.15640531594E+02  0.30522140567E+02  0.00000000000E+00 0.  1.
</event>
<event>
 5    1  0.9041381E-005  0.9118800E+02  0.7818608E-02  0.1130116E+00
         25   -1    0    0    0    0  0.00000000000E+00  0.00000000000E+00  0.99999998245E-14  0.12500000000E+03  0.12500000000E+03 0.  0.
        -13    1    3    3    0    0 -0.25914543262E+02  0.29569066140E+02 -0.34297117025E+02  0.52174674174E+02  0.10566000000E+00 0.  1.
         23    2    1    0    0    0 -0.16993191144E+02  0.21989322031E+02  0.80154229745E+01  0.96076897917E+02  0.91620000432E+02 0.  0.
         13    1    3    3    0    0  0.89213521176E+01 -0.75797441092E+01  0.42312539999E+02  0.43902223743E+02  0.10566000000E+00 0. -1.
         22    1    1    0    0    0  0.16993191144E+02 -0.21989322031E+02 -0.80154229745E+01  0.28923102083E+02  0.00000000000E+00 0. -1.
</event>
<event>
 5    1  0.9041381E-005  0.9118800E+02  0.7818608E-02  0.1130116E+00
         25   -1    0    0    0    0  0.00000000000E+00  0.00000000000E+00  0.99999998245E-14  0.12500000000E+03  0.12500000000E+03 0.  0.
        -13    1    3    3    0    0 -0.23314088488E+02 -0.48319581880E+02  0.74745695694E-01  0.53650214035E+02  0.10566000000E+00 0.  1.
         23    2    1    0    0    0  0.10163096652E+02 -0.25799515863E+02  0.10544694449E+02  0.95333619477E+02  0.90600247622E+02 0.  0.
         13    1    3    3    0    0  0.33477185140E+02  0.22520066017E+02  0.10469948753E+02  0.41683405441E+02  0.10566000000E+00 0. -1.
         22    1    1    0    0    0 -0.10163096652E+02  0.25799515863E+02 -0.10544694449E+02  0.29666380523E+02  0.00000000000E+00 0.  1.
</event>
<event>
 5    1  0.9041381E-005  0.9118800E+02  0.7818608E-02  0.1130116E+00
         25   -1    0    0    0    0  0.00000000000E+00  0.00000000000E+00  0.99999998245E-14  0.12500000000E+03  0.12500000000E+03 0.  0.
        -13    1    3    3    0    0  0.52590482273E+02 -0.24611926229E+02  0.21325939244E+01  0.58103914320E+02  0.10566000000E+00 0.  1.
         23    2    1    0    0    0  0.21833065183E+02 -0.98831276889E+01  0.17315505410E+02  0.95433368879E+02  0.90737766227E+02 0.  0.
         13    1    3    3    0    0 -0.30757417090E+02  0.14728798540E+02  0.15182911486E+02  0.37329454559E+02  0.10566000000E+00 0. -1.
         22    1    1    0    0    0 -0.21833065183E+02  0.98831276889E+01 -0.17315505410E+02  0.29566631121E+02  0.00000000000E+00 0.  1.
</event>
<event>
 5    1  0.9041381E-005  0.9118800E+02  0.7818608E-02  0.1130116E+00
         25   -1    0    0    0    0  0.00000000000E+00  0.00000000000E+00  0.99999998245E-14  0.12500000000E+03  0.12500000000E+03 0.  0.
        -13    1    3    3    0    0 -0.51408496209E+01  0.44247126595E+02  0.11960034880E+02  0.46122555708E+02  0.10566000000E+00 0. -1.
         23    2    1    0    0    0  0.88611685540E+01  0.14450705248E+02 -0.24474633590E+02  0.95228354435E+02  0.90454898202E+02 0.  0.
         13    1    3    3    0    0  0.14002018175E+02 -0.29796421347E+02 -0.36434668469E+02  0.49105798727E+02  0.10566000000E+00 0.  1.
         22    1    1    0    0    0 -0.88611685540E+01 -0.14450705248E+02  0.24474633590E+02  0.29771645565E+02  0.00000000000E+00 0.  1.
</event>
<event>
 5    1  0.9041381E-005  0.9118800E+02  0.7818608E-02  0.1130116E+00
         25   -1    0    0    0    0  0.00000000000E+00  0.00000000000E+00  0.99999998245E-14  0.12500000000E+03  0.12500000000E+03 0.  0.
        -13    1    3    3    0    0 -0.23891455148E+02  0.33162272150E+02 -0.33454395582E+02  0.52818043044E+02  0.10566000000E+00 0.  1.
         23    2    1    0    0    0 -0.28463421123E+02  0.14177664545E+02  0.18329725818E+01  0.93148276303E+02  0.87533245545E+02 0.  0.
         13    1    3    3    0    0 -0.45719659755E+01 -0.18984607605E+02  0.35287368164E+02  0.40330233259E+02  0.10566000000E+00 0. -1.
         22    1    1    0    0    0  0.28463421123E+02 -0.14177664545E+02 -0.18329725818E+01  0.31851723697E+02  0.00000000000E+00 0.  1.
</event>
<event>
 5    1  0.9041381E-005  0.9118800E+02  0.7818608E-02  0.1130116E+00
         25   -1    0    0    0    0  0.00000000000E+00  0.00000000000E+00  0.99999998245E-14  0.12500000000E+03  0.12500000000E+03 0.  0.
        -13    1    3    3    0    0  0.23305074117E+02 -0.11361817806E+02  0.29145972571E+02  0.39009181799E+02  0.10566000000E+00 0. -1.
         23    2    1    0    0    0  0.17901460856E+02 -0.18108352078E+01 -0.24967787912E+02  0.94224492561E+02  0.89056853415E+02 0.  0.
         13    1    3    3    0    0 -0.54036132607E+01  0.95509825978E+01 -0.54113760483E+02  0.55215310762E+02  0.10566000000E+00 0.  1.
         22    1    1    0    0    0 -0.17901460856E+02  0.18108352078E+01  0.24967787912E+02  0.30775507439E+02  0.00000000000E+00 0.  1.
</event>
<event>
 5    1  0.9041381E-005  0.9118800E+02  0.7818608E-02  0.1130116E+00
         25   -1    0    0    0    0  0.00000000000E+00  0.00000000000E+00  0.99999998245E-14  0.12500000000E+03  0.12500000000E+03 0.  0.
        -13    1    3    3    0    0  0.78732358424E+01 -0.28977458315E+02  0.47198205601E+02  0.55940707084E+02  0.10566000000E+00 0. -1.
         23    2    1    0    0    0  0.16789881694E+02  0.25086943797E+01  0.21827169524E+02  0.97348254952E+02  0.93338436552E+02 0.  0.
         13    1    3    3    0    0  0.89166458521E+01  0.31486152695E+02 -0.25371036077E+02  0.41407547868E+02  0.10566000000E+00 0.  1.
         22    1    1    0    0    0 -0.16789881694E+02 -0.25086943797E+01 -0.21827169524E+02  0.27651745048E+02  0.00000000000E+00 0. -1.
</event>
<event>
 5    1  0.9041381E-005  0.9118800E+02  0.7818608E-02  0.1130116E+00
         25   -1    0    0    0    0  0.00000000000E+00  0.00000000000E+00  0.99999998245E-14  0.12500000000E+03  0.12500000000E+03 0.  0.
        -13    1    3    3    0    0 -0.48852900112E+02  0.99286194059E+00  0.44946931237E+01  0.49069390199E+02  0.10566000000E+00 0.  1.
         23    2    1    0    0    0 -0.31202267458E+02 -0.53261041450E+01  0.30443571682E+02  0.81082350511E+02  0.68158547724E+02 0.  0.
         13    1    3    3    0    0  0.17650632654E+02 -0.63189660856E+01  0.25948878558E+02  0.32012960312E+02  0.10566000000E+00 0. -1.
         22    1    1    0    0    0  0.31202267458E+02  0.53261041450E+01 -0.30443571682E+02  0.43917649489E+02  0.00000000000E+00 0. -1.
</event>
<event>
 5    1  0.9041381E-005  0.9118800E+02  0.7818608E-02  0.1130116E+00
         25   -1    0    0    0    0  0.00000000000E+00  0.00000000000E+00  0.99999998245E-14  0.12500000000E+03  0.12500000000E+03 0.  0.
        -13    1    3    3    0    0 -0.55813004393E+02  0.10923014006E+02 -0.93225278432E+01  0.57630932525E+02  0.10566000000E+00 0.  1.
         23    2    1    0    0    0 -0.25349085946E+02 -0.12128499673E+02 -0.76776591274E+01  0.95868863525E+02  0.91335731679E+02 0.  0.
         13    1    3    3    0    0  0.30463918447E+02 -0.23051513680E+02  0.16448687158E+01  0.38237931000E+02  0.10566000000E+00 0. -1.
         22    1    1    0    0    0  0.25349085946E+02  0.12128499673E+02  0.76776591274E+01  0.29131136475E+02  0.00000000000E+00 0.  1.
</event>
<event>
 5    1  0.9041381E-005  0.9118800E+02  0.7818608E-02  0.1130116E+00
         25   -1    0    0    0    0  0.00000000000E+00  0.00000000000E+00  0.99999998245E-14  0.12500000000E+03  0.12500000000E+03 0.  0.
        -13    1    3    3    0    0 -0.18400630670E+01 -0.33960423383E+02  0.51795697650E+01  0.34402547804E+02  0.10566000000E+00 0. -1.
         23    2    1    0    0    0 -0.15299989813E+02  0.25349741731E+02  0.26292916879E+01  0.95274383625E+02  0.90518483782E+02 0.  0.
         13    1    3    3    0    0 -0.13459926746E+02  0.59310165114E+02 -0.25502780771E+01  0.60871835820E+02  0.10566000000E+00 0.  1.
         22    1    1    0    0    0  0.15299989813E+02 -0.25349741731E+02 -0.26292916879E+01  0.29725616375E+02  0.00000000000E+00 0.  1.
</event>
<event>
 5    1  0.9041381E-005  0.9118800E+02  0.7818608E-02  0.1130116E+00
         25   -1    0    0    0    0  0.00000000000E+00  0.00000000000E+00  0.99999998245E-14  0.12500000000E+03  0.12500000000E+03 0.  0.
        -13    1    3    3    0    0 -0.36578554478E+02 -0.43764617298E+02 -0.33347200256E+01  0.57135487192E+02  0.10566000000E+00 0.  1.
         23    2    1    0    0    0 -0.13999598468E+02 -0.21511958792E+02  0.16459591364E+02  0.94509488752E+02  0.89455979051E+02 0.  0.
         13    1    3    3    0    0  0.22578956010E+02  0.22252658507E+02  0.19794311390E+02  0.37374001560E+02  0.10566000000E+00 0. -1.
         22    1    1    0    0    0  0.13999598468E+02  0.21511958792E+02 -0.16459591364E+02  0.30490511248E+02  0.00000000000E+00 0.  1.
</event>
<event>
 5    1  0.9041381E-005  0.9118800E+02  0.7818608E-02  0.1130116E+00
         25   -1    0    0    0    0  0.00000000000E+00  0.00000000000E+00  0.99999998245E-14  0.12500000000E+03  0.12500000000E+03 0.  0.
        -13    1    3    3    0    0 -0.40068616271E+02 -0.10233401370E+02  0.10618675949E+01  0.41368529589E+02  0.10566000000E+00 0. -1.
         23    2    1    0    0    0  0.98033149709E+01 -0.25385692981E+02  0.13000301958E+02  0.94841315620E+02  0.89918456977E+02 0.  0.
         13    1    3    3    0    0  0.49871931242E+02 -0.15152291611E+02  0.11938434363E+02  0.53472786032E+02  0.10566000000E+00 0.  1.
         22    1    1    0    0    0 -0.98033149709E+01  0.25385692981E+02 -0.13000301958E+02  0.30158684380E+02  0.00000000000E+00 0.  1.
</event>
<event>
 5    1  0.9041381E-005  0.9118800E+02  0.7818608E-02  0.1130116E+00
         25   -1    0    0    0    0  0.00000000000E+00  0.00000000000E+00  0.99999998245E-14  0.12500000000E+03  0.12500000000E+03 0.  0.
        -13    1    3    3    0    0 -0.29951649950E+02  0.28655372613E+02  0.27768385329E+02  0.49893146846E+02  0.10566000000E+00 0.  1.
         23    2    1    0    0    0 -0.31792958499E+02 -0.64234247286E+01  0.39707934429E+01  0.92322487917E+02  0.86345943618E+02 0.  0.
         13    1    3    3    0    0 -0.18413085486E+01 -0.35078797342E+02 -0.23797591886E+02  0.42429341071E+02  0.10566000000E+00 0. -1.
         22    1    1    0    0    0  0.31792958499E+02  0.64234247286E+01 -0.39707934429E+01  0.32677512083E+02  0.00000000000E+00 0. -1.
</event>
<event>
 5    1  0.9041381E-005  0.9118800E+02  0.7818608E-02  0.1130116E+00
         25   -1    0    0    0    0  0.00000000000E+00  0.00000000000E+00  0.99999998245E-14  0.12500000000E+03  0.12500000000E+03 0.  0.
        -13    1    3    3    0    0 -0.76300614070E+01  0.45505159115E+01  0.47558978731E+02  0.48381738850E+02  0.10566000000E+00 0. -1.
         23    2    1    0    0    0 -0.22894194448E+02  0.15943918757E+02  0.28784957057E+01  0.96952924889E+02  0.92807495507E+02 0.  0.
         13    1    3    3    0    0 -0.15264133041E+02  0.11393402846E+02 -0.44680483025E+02  0.48571186040E+02  0.10566000000E+00 0.  1.
         22    1    1    0    0    0  0.22894194448E+02 -0.15943918757E+02 -0.28784957057E+01  0.28047075111E+02  0.00000000000E+00 0.  1.
</event>
<event>
 5    1  0.9041381E-005  0.9118800E+02  0.7818608E-02  0.1130116E+00
         25   -1    0    0    0    0  0.00000000000E+00  0.00000000000E+00  0.99999998245E-14  0.12500000000E+03  0.12500000000E+03 0.  0.
        -13    1    3    3    0    0 -0.35934147901E+02  0.37447839997E+02 -0.14270475099E+02  0.53826214147E+02  0.10566000000E+00 0.  1.
         23    2    1    0    0    0  0.59943679107E+01  0.21877548385E+02 -0.13587948692E+02  0.98557762582E+02  0.94944408185E+02 0.  0.
         13    1    3    3    0    0  0.41928515812E+02 -0.15570291612E+02  0.68252640722E+00  0.44731548435E+02  0.10566000000E+00 0. -1.
         22    1    1    0    0    0 -0.59943679107E+01 -0.21877548385E+02  0.13587948692E+02  0.26442237418E+02  0.00000000000E+00 0. -1.
</event>
<event>
 5    1  0.9041381E-005  0.9118800E+02  0.7818608E-02  0.1130116E+00
         25   -1    0    0    0    0  0.00000000000E+00  0.00000000000E+00  0.99999998245E-14  0.12500000000E+03  0.12500000000E+03 0.  0.
        -13    1    3    3    0    0 -0.50430998791E+02  0.13607983676E+02 -0.31754650640E+02  0.61129631605E+02  0.10566000000E+00 0.  1.
         23    2    1    0    0    0 -0.17540768765E+02  0.36571613074E+01 -0.21546761437E+02  0.96976504034E+02  0.92839248212E+02 0.  0.
         13    1    3    3    0    0  0.32890230026E+02 -0.99508223684E+01  0.10207889203E+02  0.35846872430E+02  0.10566000000E+00 0. -1.
         22    1    1    0    0    0  0.17540768765E+02 -0.36571613074E+01  0.21546761437E+02  0.28023495966E+02  0.00000000000E+00 0.  1.
</event>
<event>
 5    1  0.9041381E-005  0.9118800E+02  0.7818608E-02  0.1130116E+00
         25   -1    0    0    0    0  0.00000000000E+00  0.00000000000E+00  0.99999998245E-14  0.12500000000E+03  0.12500000000E+03 0.  0.
        -13    1    3    3    0    0  0.25824501458E+02  0.56210156193E+02  0.10564717815E+01  0.61867712350E+02  0.10566000000E+00 0. -1.
         23    2    1    0    0    0  0.12754453188E+02  0.26324540651E+02 -0.57487021791E+01  0.95188842804E+02  0.90400280425E+02 0.  0.
         13    1    3    3    0    0 -0.13070048269E+02 -0.29885615541E+02 -0.68051739606E+01  0.33321130454E+02  0.10566000000E+00 0.  1.
         22    1    1    0    0    0 -0.12754453188E+02 -0.26324540651E+02  0.57487021791E+01  0.29811157196E+02  0.00000000000E+00 0. -1.
</event>
<event>
 5    1  0.9041381E-005  0.9118800E+02  0.7818608E-02  0.1130116E+00
         25   -1    0    0    0    0  0.00000000000E+00  0.00000000000E+00  0.99999998245E-14  0.12500000000E+03  0.12500000000E+03 0.  0.
        -13    1    3    3    0    0  0.20009366486E+01 -0.15411843440E+02  0.45381044255E+02  0.47968521005E+02  0.10566000000E+00 0. -1.
         23    2    1    0    0    0 -0.21578925467E+02 -0.20104596393E+02  0.48259791832E+01  0.95114637437E+02  0.90297615468E+02 0.  0.
         13    1    3    3    0    0 -0.23579862116E+02 -0.46927529530E+01 -0.40555065072E+02  0.47146116433E+02  0.10566000000E+00 0.  1.
         22    1    1    0    0    0  0.21578925467E+02  0.20104596393E+02 -0.48259791832E+01  0.29885362563E+02  0.00000000000E+00 0.  1.
</event>
<event>
 5    1  0.9041381E-005  0.9118800E+02  0.7818608E-02  0.1130116E+00
         25   -1    0    0    0    0  0.00000000000E+00  0.00000000000E+00  0.99999998245E-14  0.12500000000E+03  0.12500000000E+03 0.  0.
        -13    1    3    3    0    0 -0.30025498329E+02 -0.45034869826E+02 -0.22361509545E+01  0.54172701477E+02  0.10566000000E+00 0.  1.
         23    2    1    0    0    0 -0.19982701520E+02 -0.15314438658E+02  0.20183687547E+02  0.92732033927E+02  0.86936807405E+02 0.  0.
         13    1    3    3    0    0  0.10042796809E+02  0.29720431168E+02  0.22419838501E+02  0.38559332450E+02  0.10566000000E+00 0. -1.
         22    1    1    0    0    0  0.19982701520E+02  0.15314438658E+02 -0.20183687547E+02  0.32267966073E+02  0.00000000000E+00 0.  1.
</event>
<event>
 5    1  0.9041381E-005  0.9118800E+02  0.7818608E-02  0.1130116E+00
         25   -1    0    0    0    0  0.00000000000E+00  0.00000000000E+00  0.99999998245E-14  0.12500000000E+03  0.12500000000E+03 0.  0.
        -13    1    3    3    0    0  0.11074028565E+02  0.35425701392E+02 -0.84983097985E+01  0.38076854665E+02  0.10566000000E+00 0.  1.
         23    2    1    0    0    0  0.19596916869E+02 -0.21411558330E+02 -0.34153994971E+01  0.95774002419E+02  0.91205814533E+02 0.  0.
         13    1    3    3    0    0  0.85228883043E+01 -0.56837259722E+02  0.50829103014E+01  0.57697147753E+02  0.10566000000E+00 0. -1.
         22    1    1    0    0    0 -0.19596916869E+02  0.21411558330E+02  0.34153994971E+01  0.29225997581E+02  0.00000000000E+00 0. -1.
</event>
<event>
 5    1  0.9041381E-005  0.9118800E+02  0.7818608E-02  0.1130116E+00
         25   -1    0    0    0    0  0.00000000000E+00  0.00000000000E+00  0.99999998245E-14  0.12500000000E+03  0.12500000000E+03 0.  0.
        -13    1    3    3    0    0  0.49302359073E+02 -0.32673759722E+01  0.13455251897E+02  0.51209894782E+02  0.10566000000E+00 0. -1.
         23    2    1    0    0    0  0.17703135445E+02 -0.17750418541E+02 -0.14696583277E+02  0.95940269737E+02  0.91433404367E+02 0.  0.
         13    1    3    3    0    0 -0.31599223628E+02 -0.14483042568E+02 -0.28151835174E+02  0.44730374955E+02  0.10566000000E+00 0.  1.
         22    1    1    0    0    0 -0.17703135445E+02  0.17750418541E+02  0.14696583277E+02  0.29059730263E+02  0.00000000000E+00 0. -1.
</event>
<event>
 5    1  0.9041381E-005  0.9118800E+02  0.7818608E-02  0.1130116E+00
         25   -1    0    0    0    0  0.00000000000E+00  0.00000000000E+00  0.99999998245E-14  0.12500000000E+03  0.12500000000E+03 0.  0.
        -13    1    3    3    0    0  0.36236329301E+02  0.20082447318E+02  0.23681520879E+02  0.47720036113E+02  0.10566000000E+00 0.  1.
         23    2    1    0    0    0  0.23450331080E+02  0.44339073336E+01 -0.18705109630E+02  0.94677422796E+02  0.89690332250E+02 0.  0.
         13    1    3    3    0    0 -0.12785998221E+02 -0.15648539984E+02 -0.42386630509E+02  0.46957386683E+02  0.10566000000E+00 0. -1.
         22    1    1    0    0    0 -0.23450331080E+02 -0.44339073336E+01  0.18705109630E+02  0.30322577204E+02  0.00000000000E+00 0. -1.
</event>
<event>
 5    1  0.9041381E-005  0.9118800E+02  0.7818608E-02  0.1130116E+00
         25   -1    0    0    0    0  0.00000000000E+00  0.00000000000E+00  0.99999998245E-14  0.12500000000E+03  0.12500000000E+03 0.  0.
        -13    1    3    3    0    0 -0.15376624922E+02  0.14820329748E+02 -0.57196890944E+02  0.61053896399E+02  0.10566000000E+00 0.  1.
         23    2    1    0    0    0  0.19134480298E+01  0.74404674929E+01 -0.29412070819E+02  0.94601122558E+02  0.89583930699E+02 0.  0.
         13    1    3    3    0    0  0.17290072952E+02 -0.73798622550E+01  0.27784820125E+02  0.33547226159E+02  0.10566000000E+00 0. -1.
         22    1    1    0    0    0 -0.19134480298E+01 -0.74404674929E+01  0.29412070819E+02  0.30398877442E+02  0.00000000000E+00 0.  1.
</event>
<event>
 4    1  0.9041381E-005  0.9118800E+02  0.7818608E-02  0.1130116E+00
         25   -1    0    0    0    0  0.00000000000E+00  0.00000000000E+00  0.99999998245E-14  0.12500000000E+03  0.12500000000E+03 0.  0.
        -13    1    1    0    0    0 -0.13087950134E+02  0.11678167183E+02  0.66467476234E+01  0.18758050151E+02  0.10566000000E+00 0. -1.
         13    1    1    0    0    0 -0.13018836012E+01  0.10781982934E+02 -0.52273594107E+02  0.53389941579E+02  0.10566000000E+00 0.  1.
         22    1    1    0    0    0  0.14389833735E+02 -0.22460150117E+02  0.45626846484E+02  0.52852008270E+02  0.00000000000E+00 0.  1.
</event>
<event>
 5    1  0.9041381E-005  0.9118800E+02  0.7818608E-02  0.1130116E+00
         25   -1    0    0    0    0  0.00000000000E+00  0.00000000000E+00  0.99999998245E-14  0.12500000000E+03  0.12500000000E+03 0.  0.
        -13    1    3    3    0    0 -0.12337379471E+02 -0.29874821693E+02  0.37628994515E+02  0.49605123683E+02  0.10566000000E+00 0. -1.
         23    2    1    0    0    0  0.22858103033E+02 -0.10731188117E+02  0.15374619575E+02  0.95435998245E+02  0.90741388359E+02 0.  0.
         13    1    3    3    0    0  0.35195482504E+02  0.19143633576E+02 -0.22254374940E+02  0.45830874562E+02  0.10566000000E+00 0.  1.
         22    1    1    0    0    0 -0.22858103033E+02  0.10731188117E+02 -0.15374619575E+02  0.29564001755E+02  0.00000000000E+00 0. -1.
</event>
<event>
 5    1  0.9041381E-005  0.9118800E+02  0.7818608E-02  0.1130116E+00
         25   -1    0    0    0    0  0.00000000000E+00  0.00000000000E+00  0.99999998245E-14  0.12500000000E+03  0.12500000000E+03 0.  0.
        -13    1    3    3    0    0  0.41878856260E+02 -0.57189447404E+01  0.65195928890E+01  0.42767524899E+02  0.10566000000E+00 0.  1.
         23    2    1    0    0    0 -0.69433896056E+01 -0.25000045609E+02  0.13551015812E+02  0.95728119821E+02  0.91142909517E+02 0.  0.
         13    1    3    3    0    0 -0.48822245865E+02 -0.19281100869E+02  0.70314229234E+01  0.52960594921E+02  0.10566000000E+00 0. -1.
         22    1    1    0    0    0  0.69433896056E+01  0.25000045609E+02 -0.13551015812E+02  0.29271880179E+02  0.00000000000E+00 0. -1.
</event>
<event>
 5    1  0.9041381E-005  0.9118800E+02  0.7818608E-02  0.1130116E+00
         25   -1    0    0    0    0  0.00000000000E+00  0.00000000000E+00  0.99999998245E-14  0.12500000000E+03  0.12500000000E+03 0.  0.
        -13    1    3    3    0    0  0.43390545419E+01 -0.21232716833E+02  0.26475115756E+02  0.34214011410E+02  0.10566000000E+00 0.  1.
         23    2    1    0    0    0 -0.10915222030E+02  0.10436218554E+02 -0.24551141794E+02  0.96176133273E+02  0.91755290411E+02 0.  0.
         13    1    3    3    0    0 -0.15254276572E+02  0.31668935387E+02 -0.51026257550E+02  0.61962121864E+02  0.10566000000E+00 0. -1.
         22    1    1    0    0    0  0.10915222030E+02 -0.10436218554E+02  0.24551141794E+02  0.28823866727E+02  0.00000000000E+00 0. -1.
</event>
<event>
 5    1  0.9041381E-005  0.9118800E+02  0.7818608E-02  0.1130116E+00
         25   -1    0    0    0    0  0.00000000000E+00  0.00000000000E+00  0.99999998245E-14  0.12500000000E+03  0.12500000000E+03 0.  0.
        -13    1    3    3    0    0  0.86610381895E+01  0.16062469852E+02  0.51317244187E+02  0.54465468282E+02  0.10566000000E+00 0.  1.
         23    2    1    0    0    0 -0.31551192041E+01 -0.14335605664E+02  0.23302382988E+02  0.97459749096E+02  0.93487631663E+02 0.  0.
         13    1    3    3    0    0 -0.11816157394E+02 -0.30398075516E+02 -0.28014861199E+02  0.42994280814E+02  0.10566000000E+00 0. -1.
         22    1    1    0    0    0  0.31551192041E+01  0.14335605664E+02 -0.23302382988E+02  0.27540250904E+02  0.00000000000E+00 0.  1.
</event>
<event>
 5    1  0.9041381E-005  0.9118800E+02  0.7818608E-02  0.1130116E+00
         25   -1    0    0    0    0  0.00000000000E+00  0.00000000000E+00  0.99999998245E-14  0.12500000000E+03  0.12500000000E+03 0.  0.
        -13    1    3    3    0    0 -0.15517424182E+02  0.45394421760E+02 -0.51038709340E+00  0.47976198674E+02  0.10566000000E+00 0.  1.
         23    2    1    0    0    0  0.15867129752E+02  0.25473501981E+01  0.14697224871E+02  0.10322241477E+03  0.10089897766E+03 0.  0.
         13    1    3    3    0    0  0.31384553933E+02 -0.42847071562E+02  0.15207611965E+02  0.55246216095E+02  0.10566000000E+00 0. -1.
         22    1    1    0    0    0 -0.15867129752E+02 -0.25473501981E+01 -0.14697224871E+02  0.21777585231E+02  0.00000000000E+00 0.  1.
</event>
<event>
 5    1  0.9041381E-005  0.9118800E+02  0.7818608E-02  0.1130116E+00
         25   -1    0    0    0    0  0.00000000000E+00  0.00000000000E+00  0.99999998245E-14  0.12500000000E+03  0.12500000000E+03 0.  0.
        -13    1    3    3    0    0 -0.17019931516E+01  0.20893969569E+02 -0.39345403067E+02  0.44581685159E+02  0.10566000000E+00 0.  1.
         23    2    1    0    0    0  0.27352850758E+02 -0.68193176074E+01 -0.75009704921E+01  0.95829019634E+02  0.91281185950E+02 0.  0.
         13    1    3    3    0    0  0.29054843909E+02 -0.27713287177E+02  0.31844432575E+02  0.51247334475E+02  0.10566000000E+00 0. -1.
         22    1    1    0    0    0 -0.27352850758E+02  0.68193176074E+01  0.75009704921E+01  0.29170980366E+02  0.00000000000E+00 0. -1.
</event>
<event>
 5    1  0.9041381E-005  0.9118800E+02  0.7818608E-02  0.1130116E+00
         25   -1    0    0    0    0  0.00000000000E+00  0.00000000000E+00  0.99999998245E-14  0.12500000000E+03  0.12500000000E+03 0.  0.
        -13    1    3    3    0    0  0.14273150509E+02 -0.19410354339E+02  0.30213743485E+02  0.38644095802E+02  0.10566000000E+00 0. -1.
         23    2    1    0    0    0  0.42020007473E+01  0.27957168300E+02 -0.17605273049E+01  0.96674048542E+02  0.92431121033E+02 0.  0.
         13    1    3    3    0    0 -0.10071149761E+02  0.47367522638E+02 -0.31974270790E+02  0.58029952740E+02  0.10566000000E+00 0.  1.
         22    1    1    0    0    0 -0.42020007473E+01 -0.27957168300E+02  0.17605273049E+01  0.28325951458E+02  0.00000000000E+00 0.  1.
</event>
<event>
 5    1  0.9041381E-005  0.9118800E+02  0.7818608E-02  0.1130116E+00
         25   -1    0    0    0    0  0.00000000000E+00  0.00000000000E+00  0.99999998245E-14  0.12500000000E+03  0.12500000000E+03 0.  0.
        -13    1    3    3    0    0  0.43370293621E+02  0.21335644854E+01 -0.27861088437E+02  0.51592498283E+02  0.10566000000E+00 0. -1.
         23    2    1    0    0    0  0.22580184339E+02 -0.13871488272E+02  0.91535718766E+01  0.96963045997E+02  0.92821126363E+02 0.  0.
         13    1    3    3    0    0 -0.20790109282E+02 -0.16005052757E+02  0.37014660314E+02  0.45370547714E+02  0.10566000000E+00 0.  1.
         22    1    1    0    0    0 -0.22580184339E+02  0.13871488272E+02 -0.91535718766E+01  0.28036954003E+02  0.00000000000E+00 0. -1.
</event>
<event>
 5    1  0.9041381E-005  0.9118800E+02  0.7818608E-02  0.1130116E+00
         25   -1    0    0    0    0  0.00000000000E+00  0.00000000000E+00  0.99999998245E-14  0.12500000000E+03  0.12500000000E+03 0.  0.
        -13    1    3    3    0    0 -0.54151528372E+02 -0.22332918111E+02  0.11031929214E+02  0.59605887986E+02  0.10566000000E+00 0.  1.
         23    2    1    0    0    0 -0.26622331646E+02 -0.46401701155E+00  0.14050799209E+02  0.94893708091E+02  0.89991260814E+02 0.  0.
         13    1    3    3    0    0  0.27529196726E+02  0.21868901099E+02  0.30188699947E+01  0.35287820105E+02  0.10566000000E+00 0. -1.
         22    1    1    0    0    0  0.26622331646E+02  0.46401701155E+00 -0.14050799209E+02  0.30106291909E+02  0.00000000000E+00 0.  1.
</event>
<event>
 5    1  0.9041381E-005  0.9118800E+02  0.7818608E-02  0.1130116E+00
         25   -1    0    0    0    0  0.00000000000E+00  0.00000000000E+00  0.99999998245E-14  0.12500000000E+03  0.12500000000E+03 0.  0.
        -13    1    3    3    0    0 -0.97794387542E+01  0.43058002948E+02 -0.28683783827E+02  0.52653581634E+02  0.10566000000E+00 0.  1.
         23    2    1    0    0    0  0.66900464862E+01  0.24398751371E+02  0.92835380096E+01  0.98051162021E+02  0.94275078919E+02 0.  0.
         13    1    3    3    0    0  0.16469485240E+02 -0.18659251577E+02  0.37967321836E+02  0.45397580387E+02  0.10566000000E+00 0. -1.
         22    1    1    0    0    0 -0.66900464862E+01 -0.24398751371E+02 -0.92835380096E+01  0.26948837979E+02  0.00000000000E+00 0. -1.
</event>
<event>
 5    1  0.9041381E-005  0.9118800E+02  0.7818608E-02  0.1130116E+00
         25   -1    0    0    0    0  0.00000000000E+00  0.00000000000E+00  0.99999998245E-14  0.12500000000E+03  0.12500000000E+03 0.  0.
        -13    1    3    3    0    0 -0.17659492301E+02 -0.21647609100E+02 -0.11936523851E+02  0.30380395220E+02  0.10566000000E+00 0. -1.
         23    2    1    0    0    0 -0.24510863556E+02  0.27531083232E+01  0.34089529975E+02  0.82923188196E+02  0.71454860219E+02 0.  0.
         13    1    3    3    0    0 -0.68513712545E+01  0.24400717423E+02  0.46026053826E+02  0.52542792975E+02  0.10566000000E+00 0.  1.
         22    1    1    0    0    0  0.24510863556E+02 -0.27531083232E+01 -0.34089529975E+02  0.42076811804E+02  0.00000000000E+00 0. -1.
</event>
<event>
 5    1  0.9041381E-005  0.9118800E+02  0.7818608E-02  0.1130116E+00
         25   -1    0    0    0    0  0.00000000000E+00  0.00000000000E+00  0.99999998245E-14  0.12500000000E+03  0.12500000000E+03 0.  0.
        -13    1    3    3    0    0  0.50911002410E+02  0.14033294530E+02  0.23698081469E+02  0.57883276955E+02  0.10566000000E+00 0.  1.
         23    2    1    0    0    0  0.34876396378E+02  0.79123370119E+01 -0.24415064212E+01  0.89154092913E+02  0.81630406273E+02 0.  0.
         13    1    3    3    0    0 -0.16034606032E+02 -0.61209575182E+01 -0.26139587890E+02  0.31270815958E+02  0.10566000000E+00 0. -1.
         22    1    1    0    0    0 -0.34876396378E+02 -0.79123370119E+01  0.24415064212E+01  0.35845907087E+02  0.00000000000E+00 0.  1.
</event>
<event>
 5    1  0.9041381E-005  0.9118800E+02  0.7818608E-02  0.1130116E+00
         25   -1    0    0    0    0  0.00000000000E+00  0.00000000000E+00  0.99999998245E-14  0.12500000000E+03  0.12500000000E+03 0.  0.
        -13    1    3    3    0    0  0.21327676064E+02  0.42189389212E+01 -0.26937931450E+02  0.34616939881E+02  0.10566000000E+00 0. -1.
         23    2    1    0    0    0 -0.10941192613E+02 -0.17115016327E+02  0.20709936573E+02  0.95990778146E+02  0.91502429130E+02 0.  0.
         13    1    3    3    0    0 -0.32268868677E+02 -0.21333955249E+02  0.47647868023E+02  0.61373838265E+02  0.10566000000E+00 0.  1.
         22    1    1    0    0    0  0.10941192613E+02  0.17115016327E+02 -0.20709936573E+02  0.29009221854E+02  0.00000000000E+00 0.  1.
</event>
<event>
 5    1  0.9041381E-005  0.9118800E+02  0.7818608E-02  0.1130116E+00
         25   -1    0    0    0    0  0.00000000000E+00  0.00000000000E+00  0.99999998245E-14  0.12500000000E+03  0.12500000000E+03 0.  0.
        -13    1    3    3    0    0 -0.32776810675E+02  0.46511869703E+02  0.16244354052E+02  0.59174010713E+02  0.10566000000E+00 0. -1.
         23    2    1    0    0    0 -0.21037249370E+02  0.12238141169E+02  0.16833869039E+02  0.95407482244E+02  0.90702097886E+02 0.  0.
         13    1    3    3    0    0  0.11739561305E+02 -0.34273728533E+02  0.58951498703E+00  0.36233471531E+02  0.10566000000E+00 0.  1.
         22    1    1    0    0    0  0.21037249370E+02 -0.12238141169E+02 -0.16833869039E+02  0.29592517756E+02  0.00000000000E+00 0. -1.
</event>
<event>
 5    1  0.9041381E-005  0.9118800E+02  0.7818608E-02  0.1130116E+00
         25   -1    0    0    0    0  0.00000000000E+00  0.00000000000E+00  0.99999998245E-14  0.12500000000E+03  0.12500000000E+03 0.  0.
        -13    1    3    3    0    0 -0.19299275035E+02 -0.13583545870E+02  0.56610813372E+02  0.61333270661E+02  0.10566000000E+00 0. -1.
         23    2    1    0    0    0 -0.12443596180E+02  0.14539828938E+01  0.26717744721E+02  0.95490763563E+02  0.90816798505E+02 0.  0.
         13    1    3    3    0    0  0.68556788549E+01  0.15037528764E+02 -0.29893068651E+02  0.34157492901E+02  0.10566000000E+00 0.  1.
         22    1    1    0    0    0  0.12443596180E+02 -0.14539828938E+01 -0.26717744721E+02  0.29509236437E+02  0.00000000000E+00 0. -1.
</event>
<event>
 5    1  0.9041381E-005  0.9118800E+02  0.7818608E-02  0.1130116E+00
         25   -1    0    0    0    0  0.00000000000E+00  0.00000000000E+00  0.99999998245E-14  0.12500000000E+03  0.12500000000E+03 0.  0.
        -13    1    3    3    0    0 -0.33052086975E+02 -0.81915549706E+01  0.95112836028E+00  0.34065493324E+02  0.10566000000E+00 0.  1.
         23    2    1    0    0    0  0.22443799684E+02  0.69314740003E+01 -0.18833198764E+02  0.94892544914E+02  0.89989645118E+02 0.  0.
         13    1    3    3    0    0  0.55495886659E+02  0.15123028971E+02 -0.19784327125E+02  0.60827051590E+02  0.10566000000E+00 0. -1.
         22    1    1    0    0    0 -0.22443799684E+02 -0.69314740003E+01  0.18833198764E+02  0.30107455086E+02  0.00000000000E+00 0. -1.
</event>
<event>
 5    1  0.9041381E-005  0.9118800E+02  0.7818608E-02  0.1130116E+00
         25   -1    0    0    0    0  0.00000000000E+00  0.00000000000E+00  0.99999998245E-14  0.12500000000E+03  0.12500000000E+03 0.  0.
        -13    1    3    3    0    0  0.14300250075E+02 -0.14456740863E+01 -0.34463894163E+02  0.37341107250E+02  0.10566000000E+00 0. -1.
         23    2    1    0    0    0  0.21334715786E+02 -0.14749574389E+01  0.22045056853E+02  0.94286320169E+02  0.89143592266E+02 0.  0.
         13    1    3    3    0    0  0.70344657110E+01 -0.29283352570E-01  0.56508951016E+02  0.56945212918E+02  0.10566000000E+00 0.  1.
         22    1    1    0    0    0 -0.21334715786E+02  0.14749574389E+01 -0.22045056853E+02  0.30713679831E+02  0.00000000000E+00 0.  1.
</event>
<event>
 5    1  0.9041381E-005  0.9118800E+02  0.7818608E-02  0.1130116E+00
         25   -1    0    0    0    0  0.00000000000E+00  0.00000000000E+00  0.99999998245E-14  0.12500000000E+03  0.12500000000E+03 0.  0.
        -13    1    3    3    0    0  0.68670037415E+01  0.50182364739E+02  0.12974677892E+01  0.50666754957E+02  0.10566000000E+00 0. -1.
         23    2    1    0    0    0  0.89554903534E+01  0.26171097942E+02 -0.25969235440E+02  0.87058882933E+02  0.78356370087E+02 0.  0.
         13    1    3    3    0    0  0.20884866119E+01 -0.24011266797E+02 -0.27266703230E+02  0.36392127976E+02  0.10566000000E+00 0.  1.
         22    1    1    0    0    0 -0.89554903534E+01 -0.26171097942E+02  0.25969235440E+02  0.37941117067E+02  0.00000000000E+00 0.  1.
</event>
<event>
 5    1  0.9041381E-005  0.9118800E+02  0.7818608E-02  0.1130116E+00
         25   -1    0    0    0    0  0.00000000000E+00  0.00000000000E+00  0.99999998245E-14  0.12500000000E+03  0.12500000000E+03 0.  0.
        -13    1    3    3    0    0 -0.32488828402E+02  0.41712302800E+02  0.74738363647E+01  0.53397655097E+02  0.10566000000E+00 0. -1.
         23    2    1    0    0    0  0.49473486497E+01  0.23201080008E+02  0.16472458397E+02  0.96119067573E+02  0.91677515746E+02 0.  0.
         13    1    3    3    0    0  0.37436177051E+02 -0.18511222792E+02  0.89986220320E+01  0.42721412477E+02  0.10566000000E+00 0.  1.
         22    1    1    0    0    0 -0.49473486497E+01 -0.23201080008E+02 -0.16472458397E+02  0.28880932427E+02  0.00000000000E+00 0. -1.
</event>
<event>
 5    1  0.9041381E-005  0.9118800E+02  0.7818608E-02  0.1130116E+00
         25   -1    0    0    0    0  0.00000000000E+00  0.00000000000E+00  0.99999998245E-14  0.12500000000E+03  0.12500000000E+03 0.  0.
        -13    1    3    3    0    0 -0.41219532585E+00 -0.53352440323E+02  0.24889553236E+02  0.58874050461E+02  0.10566000000E+00 0.  1.
         23    2    1    0    0    0 -0.61850249560E+01 -0.27845986469E+02 -0.20276705053E+01  0.96403410276E+02  0.92064393601E+02 0.  0.
         13    1    3    3    0    0 -0.57728296302E+01  0.25506453854E+02 -0.26917223741E+02  0.37529359815E+02  0.10566000000E+00 0. -1.
         22    1    1    0    0    0  0.61850249560E+01  0.27845986469E+02  0.20276705053E+01  0.28596589724E+02  0.00000000000E+00 0.  1.
</event>
<event>
 5    1  0.9041381E-005  0.9118800E+02  0.7818608E-02  0.1130116E+00
         25   -1    0    0    0    0  0.00000000000E+00  0.00000000000E+00  0.99999998245E-14  0.12500000000E+03  0.12500000000E+03 0.  0.
        -13    1    3    3    0    0 -0.50904570770E+02  0.20815322384E+02  0.28719381441E+02  0.62043267206E+02  0.10566000000E+00 0.  1.
         23    2    1    0    0    0 -0.21153679278E+02  0.13606260449E+02  0.99474829705E+01  0.97952617727E+02  0.94144327666E+02 0.  0.
         13    1    3    3    0    0  0.29750891492E+02 -0.72090619353E+01 -0.18771898470E+02  0.35909350520E+02  0.10566000000E+00 0. -1.
         22    1    1    0    0    0  0.21153679278E+02 -0.13606260449E+02 -0.99474829705E+01  0.27047382273E+02  0.00000000000E+00 0.  1.
</event>
<event>
 5    1  0.9041381E-005  0.9118800E+02  0.7818608E-02  0.1130116E+00
         25   -1    0    0    0    0  0.00000000000E+00  0.00000000000E+00  0.99999998245E-14  0.12500000000E+03  0.12500000000E+03 0.  0.
        -13    1    3    3    0    0 -0.50517210631E+02  0.51409978328E+01 -0.14151809536E+02  0.52713407269E+02  0.10566000000E+00 0.  1.
         23    2    1    0    0    0 -0.12149601171E+02  0.23632418743E+02 -0.13233268419E+02  0.95314592519E+02  0.90573992569E+02 0.  0.
         13    1    3    3    0    0  0.38367609460E+02  0.18491420910E+02  0.91854111700E+00  0.42601185251E+02  0.10566000000E+00 0. -1.
         22    1    1    0    0    0  0.12149601171E+02 -0.23632418743E+02  0.13233268419E+02  0.29685407481E+02  0.00000000000E+00 0.  1.
</event>
<event>
 5    1  0.9041381E-005  0.9118800E+02  0.7818608E-02  0.1130116E+00
         25   -1    0    0    0    0  0.00000000000E+00  0.00000000000E+00  0.99999998245E-14  0.12500000000E+03  0.12500000000E+03 0.  0.
        -13    1    3    3    0    0 -0.48569634960E+01  0.37725601290E+02  0.12149699496E+02  0.39930407574E+02  0.10566000000E+00 0. -1.
         23    2    1    0    0    0  0.20319459202E+02 -0.11714765870E+02  0.17596035746E+02  0.95678734072E+02  0.91075153132E+02 0.  0.
         13    1    3    3    0    0  0.25176422698E+02 -0.49440367160E+02  0.54463362496E+01  0.55748326499E+02  0.10566000000E+00 0.  1.
         22    1    1    0    0    0 -0.20319459202E+02  0.11714765870E+02 -0.17596035746E+02  0.29321265928E+02  0.00000000000E+00 0.  1.
</event>
<event>
 5    1  0.9041381E-005  0.9118800E+02  0.7818608E-02  0.1130116E+00
         25   -1    0    0    0    0  0.00000000000E+00  0.00000000000E+00  0.99999998245E-14  0.12500000000E+03  0.12500000000E+03 0.  0.
        -13    1    3    3    0    0 -0.43745414622E+02 -0.31425924829E+02 -0.24115819797E+02  0.59015540159E+02  0.10566000000E+00 0.  1.
         23    2    1    0    0    0 -0.26109202241E+02 -0.97030558639E+00 -0.12131061041E+02  0.96193844814E+02  0.91779416012E+02 0.  0.
         13    1    3    3    0    0  0.17636212380E+02  0.30455619242E+02  0.11984758756E+02  0.37178304655E+02  0.10566000000E+00 0. -1.
         22    1    1    0    0    0  0.26109202241E+02  0.97030558639E+00  0.12131061041E+02  0.28806155186E+02  0.00000000000E+00 0.  1.
</event>
<event>
 5    1  0.9041381E-005  0.9118800E+02  0.7818608E-02  0.1130116E+00
         25   -1    0    0    0    0  0.00000000000E+00  0.00000000000E+00  0.99999998245E-14  0.12500000000E+03  0.12500000000E+03 0.  0.
        -13    1    3    3    0    0  0.26130785877E+02 -0.30560165538E+02 -0.33992450473E+02  0.52652061132E+02  0.10566000000E+00 0. -1.
         23    2    1    0    0    0  0.88667332145E+01 -0.29507289309E+02  0.35481925861E+01  0.93985668621E+02  0.88721007406E+02 0.  0.
         13    1    3    3    0    0 -0.17264052663E+02  0.10528762284E+01  0.37540643059E+02  0.41333607489E+02  0.10566000000E+00 0.  1.
         22    1    1    0    0    0 -0.88667332145E+01  0.29507289309E+02 -0.35481925861E+01  0.31014331379E+02  0.00000000000E+00 0. -1.
</event>
<event>
 5    1  0.9041381E-005  0.9118800E+02  0.7818608E-02  0.1130116E+00
         25   -1    0    0    0    0  0.00000000000E+00  0.00000000000E+00  0.99999998245E-14  0.12500000000E+03  0.12500000000E+03 0.  0.
        -13    1    3    3    0    0 -0.14084527313E+02 -0.47432628103E+02  0.17695519551E+01  0.49511317863E+02  0.10566000000E+00 0. -1.
         23    2    1    0    0    0 -0.73529591903E+01 -0.16134645544E+02 -0.27096674528E+02  0.92617557749E+02  0.86772054471E+02 0.  0.
         13    1    3    3    0    0  0.67315681230E+01  0.31297982559E+02 -0.28866226483E+02  0.43106239885E+02  0.10566000000E+00 0.  1.
         22    1    1    0    0    0  0.73529591903E+01  0.16134645544E+02  0.27096674528E+02  0.32382442251E+02  0.00000000000E+00 0. -1.
</event>
<event>
 5    1  0.9041381E-005  0.9118800E+02  0.7818608E-02  0.1130116E+00
         25   -1    0    0    0    0  0.00000000000E+00  0.00000000000E+00  0.99999998245E-14  0.12500000000E+03  0.12500000000E+03 0.  0.
        -13    1    3    3    0    0 -0.24543258701E+02 -0.18724436988E+02  0.30175484146E+02  0.43168820874E+02  0.10566000000E+00 0.  1.
         23    2    1    0    0    0  0.12319984811E+02  0.17073965759E+02  0.20802651596E+02  0.95401813469E+02  0.90694285196E+02 0.  0.
         13    1    3    3    0    0  0.36863243512E+02  0.35798402747E+02 -0.93728325493E+01  0.52232992595E+02  0.10566000000E+00 0. -1.
         22    1    1    0    0    0 -0.12319984811E+02 -0.17073965759E+02 -0.20802651596E+02  0.29598186531E+02  0.00000000000E+00 0.  1.
</event>
<event>
 5    1  0.9041381E-005  0.9118800E+02  0.7818608E-02  0.1130116E+00
         25   -1    0    0    0    0  0.00000000000E+00  0.00000000000E+00  0.99999998245E-14  0.12500000000E+03  0.12500000000E+03 0.  0.
        -13    1    3    3    0    0  0.24114301983E+02  0.40979032059E+02 -0.39514330464E+02  0.61823734153E+02  0.10566000000E+00 0. -1.
         23    2    1    0    0    0  0.17727260344E+02  0.18882657438E+02 -0.16938959302E+02  0.94052643837E+02  0.88815319395E+02 0.  0.
         13    1    3    3    0    0 -0.63870416387E+01 -0.22096374621E+02  0.22575371161E+02  0.32228909684E+02  0.10566000000E+00 0.  1.
         22    1    1    0    0    0 -0.17727260344E+02 -0.18882657438E+02  0.16938959302E+02  0.30947356163E+02  0.00000000000E+00 0. -1.
</event>
<event>
 5    1  0.9041381E-005  0.9118800E+02  0.7818608E-02  0.1130116E+00
         25   -1    0    0    0    0  0.00000000000E+00  0.00000000000E+00  0.99999998245E-14  0.12500000000E+03  0.12500000000E+03 0.  0.
        -13    1    3    3    0    0 -0.98313611403E+01  0.35784815202E+02  0.48024442131E+02  0.60692395462E+02  0.10566000000E+00 0.  1.
         23    2    1    0    0    0 -0.12995267163E+02  0.19993932810E+02  0.16785015770E+02  0.95838877383E+02  0.91294684105E+02 0.  0.
         13    1    3    3    0    0 -0.31639060230E+01 -0.15790882392E+02 -0.31239426361E+02  0.35146481921E+02  0.10566000000E+00 0. -1.
         22    1    1    0    0    0  0.12995267163E+02 -0.19993932810E+02 -0.16785015770E+02  0.29161122617E+02  0.00000000000E+00 0.  1.
</event>
<event>
 5    1  0.9041381E-005  0.9118800E+02  0.7818608E-02  0.1130116E+00
         25   -1    0    0    0    0  0.00000000000E+00  0.00000000000E+00  0.99999998245E-14  0.12500000000E+03  0.12500000000E+03 0.  0.
        -13    1    3    3    0    0 -0.14949905990E+02 -0.24225329955E+02 -0.23671988054E+02  0.37023512570E+02  0.10566000000E+00 0.  1.
         23    2    1    0    0    0  0.22083450690E+02 -0.25316203754E+02  0.12834892745E+02  0.89037193677E+02  0.81451202687E+02 0.  0.
         13    1    3    3    0    0  0.37033356679E+02 -0.10908737981E+01  0.36506880799E+02  0.52013681107E+02  0.10566000000E+00 0. -1.
         22    1    1    0    0    0 -0.22083450690E+02  0.25316203754E+02 -0.12834892745E+02  0.35962806323E+02  0.00000000000E+00 0. -1.
</event>
<event>
 5    1  0.9041381E-005  0.9118800E+02  0.7818608E-02  0.1130116E+00
         25   -1    0    0    0    0  0.00000000000E+00  0.00000000000E+00  0.99999998245E-14  0.12500000000E+03  0.12500000000E+03 0.  0.
        -13    1    3    3    0    0  0.22022613933E+02 -0.31374570561E+02 -0.21388110355E+02  0.43895576439E+02  0.10566000000E+00 0.  1.
         23    2    1    0    0    0  0.22002997407E+02  0.18188560834E+02 -0.56381009295E+01  0.95901137098E+02  0.91379889880E+02 0.  0.
         13    1    3    3    0    0 -0.19616526059E-01  0.49563131395E+02  0.15750009425E+02  0.52005560659E+02  0.10566000000E+00 0. -1.
         22    1    1    0    0    0 -0.22002997407E+02 -0.18188560834E+02  0.56381009295E+01  0.29098862902E+02  0.00000000000E+00 0. -1.
</event>
<event>
 5    1  0.9041381E-005  0.9118800E+02  0.7818608E-02  0.1130116E+00
         25   -1    0    0    0    0  0.00000000000E+00  0.00000000000E+00  0.99999998245E-14  0.12500000000E+03  0.12500000000E+03 0.  0.
        -13    1    3    3    0    0 -0.30984059223E+02 -0.12759319240E+02 -0.37263353018E+02  0.50113678727E+02  0.10566000000E+00 0. -1.
         23    2    1    0    0    0 -0.14298475637E+02  0.22036976636E+02 -0.13089617866E+02  0.95650164554E+02  0.91035933227E+02 0.  0.
         13    1    3    3    0    0  0.16685583585E+02  0.34796295876E+02  0.24173735152E+02  0.45536485827E+02  0.10566000000E+00 0.  1.
         22    1    1    0    0    0  0.14298475637E+02 -0.22036976636E+02  0.13089617866E+02  0.29349835446E+02  0.00000000000E+00 0. -1.
</event>
<event>
 5    1  0.9041381E-005  0.9118800E+02  0.7818608E-02  0.1130116E+00
         25   -1    0    0    0    0  0.00000000000E+00  0.00000000000E+00  0.99999998245E-14  0.12500000000E+03  0.12500000000E+03 0.  0.
        -13    1    3    3    0    0  0.39072068062E+02  0.45651609813E+01 -0.27690173516E+02  0.48106382849E+02  0.10566000000E+00 0.  1.
         23    2    1    0    0    0  0.97234092042E+01  0.27613962406E+02  0.17987191517E+01  0.95668941429E+02  0.91061711807E+02 0.  0.
         13    1    3    3    0    0 -0.29348658858E+02  0.23048801424E+02  0.29488892668E+02  0.47562558580E+02  0.10566000000E+00 0. -1.
         22    1    1    0    0    0 -0.97234092042E+01 -0.27613962406E+02 -0.17987191517E+01  0.29331058571E+02  0.00000000000E+00 0. -1.
</event>
<event>
 5    1  0.9041381E-005  0.9118800E+02  0.7818608E-02  0.1130116E+00
         25   -1    0    0    0    0  0.00000000000E+00  0.00000000000E+00  0.99999998245E-14  0.12500000000E+03  0.12500000000E+03 0.  0.
        -13    1    3    3    0    0  0.28761608420E+02 -0.29044680526E+02 -0.40496957667E+01  0.41075963599E+02  0.10566000000E+00 0.  1.
         23    2    1    0    0    0 -0.13125188294E+02 -0.73398081120E+01  0.24525120182E+02  0.96231529919E+02  0.91830727317E+02 0.  0.
         13    1    3    3    0    0 -0.41886796715E+02  0.21704872414E+02  0.28574815949E+02  0.55155566320E+02  0.10566000000E+00 0. -1.
         22    1    1    0    0    0  0.13125188294E+02  0.73398081120E+01 -0.24525120182E+02  0.28768470081E+02  0.00000000000E+00 0. -1.
</event>
<event>
 5    1  0.9041381E-005  0.9118800E+02  0.7818608E-02  0.1130116E+00
         25   -1    0    0    0    0  0.00000000000E+00  0.00000000000E+00  0.99999998245E-14  0.12500000000E+03  0.12500000000E+03 0.  0.
        -13    1    3    3    0    0  0.45810709328E+01 -0.55782054264E+02 -0.63236540383E+01  0.56326046845E+02  0.10566000000E+00 0.  1.
         23    2    1    0    0    0  0.16297543245E+02 -0.20675614447E+02 -0.15490064834E+02  0.94454410185E+02  0.89378982687E+02 0.  0.
         13    1    3    3    0    0  0.11716472312E+02  0.35106439817E+02 -0.91664107956E+01  0.38128363340E+02  0.10566000000E+00 0. -1.
         22    1    1    0    0    0 -0.16297543245E+02  0.20675614447E+02  0.15490064834E+02  0.30545589815E+02  0.00000000000E+00 0.  1.
</event>
<event>
 5    1  0.9041381E-005  0.9118800E+02  0.7818608E-02  0.1130116E+00
         25   -1    0    0    0    0  0.00000000000E+00  0.00000000000E+00  0.99999998245E-14  0.12500000000E+03  0.12500000000E+03 0.  0.
        -13    1    3    3    0    0 -0.20614204443E+02  0.27375285895E+02 -0.21569411196E+02  0.40492003729E+02  0.10566000000E+00 0. -1.
         23    2    1    0    0    0 -0.21766486477E+02 -0.15732738762E+02  0.12429544801E+02  0.95406206961E+02  0.90700340354E+02 0.  0.
         13    1    3    3    0    0 -0.11522820337E+01 -0.43108024656E+02  0.33998955997E+02  0.54914203232E+02  0.10566000000E+00 0.  1.
         22    1    1    0    0    0  0.21766486477E+02  0.15732738762E+02 -0.12429544801E+02  0.29593793039E+02  0.00000000000E+00 0. -1.
</event>
<event>
 5    1  0.9041381E-005  0.9118800E+02  0.7818608E-02  0.1130116E+00
         25   -1    0    0    0    0  0.00000000000E+00  0.00000000000E+00  0.99999998245E-14  0.12500000000E+03  0.12500000000E+03 0.  0.
        -13    1    3    3    0    0  0.33150159447E+02  0.50536098039E+01 -0.20349282771E+01  0.33595001720E+02  0.10566000000E+00 0. -1.
         23    2    1    0    0    0 -0.27155106896E+02 -0.27052538691E+01  0.10648972926E+02  0.95706334244E+02  0.91113026297E+02 0.  0.
         13    1    3    3    0    0 -0.60305266343E+02 -0.77588636730E+01  0.12683901204E+02  0.62111332525E+02  0.10566000000E+00 0.  1.
         22    1    1    0    0    0  0.27155106896E+02  0.27052538691E+01 -0.10648972926E+02  0.29293665756E+02  0.00000000000E+00 0.  1.
</event>
<event>
 5    1  0.9041381E-005  0.9118800E+02  0.7818608E-02  0.1130116E+00
         25   -1    0    0    0    0  0.00000000000E+00  0.00000000000E+00  0.99999998245E-14  0.12500000000E+03  0.12500000000E+03 0.  0.
        -13    1    3    3    0    0 -0.20481566535E+00  0.13130842555E+02 -0.37608204258E+02  0.39835275413E+02  0.10566000000E+00 0.  1.
         23    2    1    0    0    0  0.13991146350E+02 -0.27372486300E+02 -0.47366983532E+01  0.93896278459E+02  0.88594975110E+02 0.  0.
         13    1    3    3    0    0  0.14195962015E+02 -0.40503328855E+02  0.32871505905E+02  0.54061003046E+02  0.10566000000E+00 0. -1.
         22    1    1    0    0    0 -0.13991146350E+02  0.27372486300E+02  0.47366983532E+01  0.31103721541E+02  0.00000000000E+00 0. -1.
</event>
<event>
 5    1  0.9041381E-005  0.9118800E+02  0.7818608E-02  0.1130116E+00
         25   -1    0    0    0    0  0.00000000000E+00  0.00000000000E+00  0.99999998245E-14  0.12500000000E+03  0.12500000000E+03 0.  0.
        -13    1    3    3    0    0 -0.18100388650E+01 -0.34992973135E+01 -0.60526118414E+02  0.60654294956E+02  0.10566000000E+00 0.  1.
         23    2    1    0    0    0  0.25946448545E+01  0.85673655922E+01 -0.26836135104E+02  0.96710247749E+02  0.92480062377E+02 0.  0.
         13    1    3    3    0    0  0.44046837195E+01  0.12066662906E+02  0.33689983309E+02  0.36055952793E+02  0.10566000000E+00 0. -1.
         22    1    1    0    0    0 -0.25946448545E+01 -0.85673655922E+01  0.26836135104E+02  0.28289752251E+02  0.00000000000E+00 0.  1.
</event>
<event>
 5    1  0.9041381E-005  0.9118800E+02  0.7818608E-02  0.1130116E+00
         25   -1    0    0    0    0  0.00000000000E+00  0.00000000000E+00  0.99999998245E-14  0.12500000000E+03  0.12500000000E+03 0.  0.
        -13    1    3    3    0    0 -0.24421987059E+02  0.45016900064E+02  0.23311967255E+02  0.56270895893E+02  0.10566000000E+00 0.  1.
         23    2    1    0    0    0  0.67832393889E+01  0.28599117360E+02  0.10830189999E+02  0.93675650592E+02  0.88283139093E+02 0.  0.
         13    1    3    3    0    0  0.31205226448E+02 -0.16417782704E+02 -0.12481777256E+02  0.37404754699E+02  0.10566000000E+00 0. -1.
         22    1    1    0    0    0 -0.67832393889E+01 -0.28599117360E+02 -0.10830189999E+02  0.31324349408E+02  0.00000000000E+00 0.  1.
</event>
<event>
 5    1  0.9041381E-005  0.9118800E+02  0.7818608E-02  0.1130116E+00
         25   -1    0    0    0    0  0.00000000000E+00  0.00000000000E+00  0.99999998245E-14  0.12500000000E+03  0.12500000000E+03 0.  0.
        -13    1    3    3    0    0  0.26313184320E+02 -0.37955846705E+02  0.21366092960E+02  0.50887631705E+02  0.10566000000E+00 0.  1.
         23    2    1    0    0    0  0.27243839660E+02  0.52538493970E+01  0.84031132185E+01  0.96009621515E+02  0.91528167134E+02 0.  0.
         13    1    3    3    0    0  0.93065534077E+00  0.43209696102E+02 -0.12962979742E+02  0.45121989810E+02  0.10566000000E+00 0. -1.
         22    1    1    0    0    0 -0.27243839660E+02 -0.52538493970E+01 -0.84031132185E+01  0.28990378485E+02  0.00000000000E+00 0. -1.
</event>
<event>
 5    1  0.9041381E-005  0.9118800E+02  0.7818608E-02  0.1130116E+00
         25   -1    0    0    0    0  0.00000000000E+00  0.00000000000E+00  0.99999998245E-14  0.12500000000E+03  0.12500000000E+03 0.  0.
        -13    1    3    3    0    0 -0.17610057630E+02  0.45562573520E+02  0.23990191704E+02  0.54420609125E+02  0.10566000000E+00 0.  1.
         23    2    1    0    0    0 -0.23482769739E+02  0.58885490281E+01  0.17682912194E+02  0.95019992196E+02  0.90166501812E+02 0.  0.
         13    1    3    3    0    0 -0.58727121089E+01 -0.39674024492E+02 -0.63072795096E+01  0.40599383071E+02  0.10566000000E+00 0. -1.
         22    1    1    0    0    0  0.23482769739E+02 -0.58885490281E+01 -0.17682912194E+02  0.29980007804E+02  0.00000000000E+00 0.  1.
</event>
<event>
 5    1  0.9041381E-005  0.9118800E+02  0.7818608E-02  0.1130116E+00
         25   -1    0    0    0    0  0.00000000000E+00  0.00000000000E+00  0.99999998245E-14  0.12500000000E+03  0.12500000000E+03 0.  0.
        -13    1    3    3    0    0  0.11216767971E+02 -0.25536104229E+02 -0.23245318852E+02  0.36307912574E+02  0.10566000000E+00 0.  1.
         23    2    1    0    0    0  0.12980117044E+02  0.63256121144E+01  0.26158173516E+02  0.95121130396E+02  0.90306603297E+02 0.  0.
         13    1    3    3    0    0  0.17633490731E+01  0.31861716344E+02  0.49403492368E+02  0.58813217822E+02  0.10566000000E+00 0. -1.
         22    1    1    0    0    0 -0.12980117044E+02 -0.63256121144E+01 -0.26158173516E+02  0.29878869604E+02  0.00000000000E+00 0. -1.
</event>
<event>
 5    1  0.9041381E-005  0.9118800E+02  0.7818608E-02  0.1130116E+00
         25   -1    0    0    0    0  0.00000000000E+00  0.00000000000E+00  0.99999998245E-14  0.12500000000E+03  0.12500000000E+03 0.  0.
        -13    1    3    3    0    0  0.47810778575E+02 -0.10604820595E+02 -0.34793364232E+02  0.60074305043E+02  0.10566000000E+00 0.  1.
         23    2    1    0    0    0  0.28795628831E+02 -0.29787099132E+01 -0.59628259232E+01  0.95443000060E+02  0.90751033134E+02 0.  0.
         13    1    3    3    0    0 -0.19015149744E+02  0.76261106813E+01  0.28830538309E+02  0.35368695016E+02  0.10566000000E+00 0. -1.
         22    1    1    0    0    0 -0.28795628831E+02  0.29787099132E+01  0.59628259232E+01  0.29556999940E+02  0.00000000000E+00 0.  1.
</event>
<event>
 5    1  0.9041381E-005  0.9118800E+02  0.7818608E-02  0.1130116E+00
         25   -1    0    0    0    0  0.00000000000E+00  0.00000000000E+00  0.99999998245E-14  0.12500000000E+03  0.12500000000E+03 0.  0.
        -13    1    3    3    0    0 -0.32463647783E+02  0.22811680121E+02 -0.19705762768E+02  0.44301122194E+02  0.10566000000E+00 0. -1.
         23    2    1    0    0    0  0.18028720235E+02  0.21027222809E+02 -0.81168162585E+01  0.96137194202E+02  0.91702227620E+02 0.  0.
         13    1    3    3    0    0  0.50492368018E+02 -0.17844573123E+01  0.11588946509E+02  0.51836072008E+02  0.10566000000E+00 0.  1.
         22    1    1    0    0    0 -0.18028720235E+02 -0.21027222809E+02  0.81168162585E+01  0.28862805798E+02  0.00000000000E+00 0.  1.
</event>
<event>
 5    1  0.9041381E-005  0.9118800E+02  0.7818608E-02  0.1130116E+00
         25   -1    0    0    0    0  0.00000000000E+00  0.00000000000E+00  0.99999998245E-14  0.12500000000E+03  0.12500000000E+03 0.  0.
        -13    1    3    3    0    0 -0.19948205975E+02  0.46281594928E+02  0.10906998287E+02  0.51564432765E+02  0.10566000000E+00 0.  1.
         23    2    1    0    0    0 -0.27990458783E+02  0.68270779187E+01 -0.65533621606E+01  0.95453065618E+02  0.90764896323E+02 0.  0.
         13    1    3    3    0    0 -0.80422528082E+01 -0.39454517009E+02 -0.17460360448E+02  0.43888632853E+02  0.10566000000E+00 0. -1.
         22    1    1    0    0    0  0.27990458783E+02 -0.68270779187E+01  0.65533621606E+01  0.29546934382E+02  0.00000000000E+00 0.  1.
</event>
<event>
 5    1  0.9041381E-005  0.9118800E+02  0.7818608E-02  0.1130116E+00
         25   -1    0    0    0    0  0.00000000000E+00  0.00000000000E+00  0.99999998245E-14  0.12500000000E+03  0.12500000000E+03 0.  0.
        -13    1    3    3    0    0  0.35026817290E+02 -0.25134453075E+02  0.25522249993E+02  0.50100050594E+02  0.10566000000E+00 0.  1.
         23    2    1    0    0    0  0.88537762688E+01 -0.20254312857E+02 -0.14784762933E+02  0.98406471492E+02  0.94745015030E+02 0.  0.
         13    1    3    3    0    0 -0.26173041021E+02  0.48801402180E+01 -0.40307012927E+02  0.48306420897E+02  0.10566000000E+00 0. -1.
         22    1    1    0    0    0 -0.88537762688E+01  0.20254312857E+02  0.14784762933E+02  0.26593528508E+02  0.00000000000E+00 0.  1.
</event>
<event>
 5    1  0.9041381E-005  0.9118800E+02  0.7818608E-02  0.1130116E+00
         25   -1    0    0    0    0  0.00000000000E+00  0.00000000000E+00  0.99999998245E-14  0.12500000000E+03  0.12500000000E+03 0.  0.
        -13    1    3    3    0    0 -0.85832398623E+01 -0.61101646304E+02 -0.85129312152E-01  0.61701714714E+02  0.10566000000E+00 0. -1.
         23    2    1    0    0    0 -0.31171959956E+01 -0.28570147419E+02 -0.70310585552E+01  0.95412738910E+02  0.90709342007E+02 0.  0.
         13    1    3    3    0    0  0.54660438668E+01  0.32531498885E+02 -0.69459292431E+01  0.33711024196E+02  0.10566000000E+00 0.  1.
         22    1    1    0    0    0  0.31171959956E+01  0.28570147419E+02  0.70310585552E+01  0.29587261090E+02  0.00000000000E+00 0. -1.
</event>
<event>
 5    1  0.9041381E-005  0.9118800E+02  0.7818608E-02  0.1130116E+00
         25   -1    0    0    0    0  0.00000000000E+00  0.00000000000E+00  0.99999998245E-14  0.12500000000E+03  0.12500000000E+03 0.  0.
        -13    1    3    3    0    0  0.15918708416E+02 -0.21135467021E+02 -0.41772457158E+02  0.49447574105E+02  0.10566000000E+00 0.  1.
         23    2    1    0    0    0  0.30483401812E+02  0.33383014687E+01 -0.86353049367E+01  0.93141711689E+02  0.87523870585E+02 0.  0.
         13    1    3    3    0    0  0.14564693397E+02  0.24473768489E+02  0.33137152221E+02  0.43694137584E+02  0.10566000000E+00 0. -1.
         22    1    1    0    0    0 -0.30483401812E+02 -0.33383014687E+01  0.86353049367E+01  0.31858288311E+02  0.00000000000E+00 0. -1.
</event>
<event>
 5    1  0.9041381E-005  0.9118800E+02  0.7818608E-02  0.1130116E+00
         25   -1    0    0    0    0  0.00000000000E+00  0.00000000000E+00  0.99999998245E-14  0.12500000000E+03  0.12500000000E+03 0.  0.
        -13    1    3    3    0    0 -0.39637593032E+02 -0.25636203157E+02 -0.71292381432E+01  0.47740872365E+02  0.10566000000E+00 0.  1.
         23    2    1    0    0    0 -0.19400844240E+02  0.91682025576E+00  0.24503514871E+02  0.93732515969E+02  0.88363618035E+02 0.  0.
         13    1    3    3    0    0  0.20236748792E+02  0.26553023412E+02  0.31632753014E+02  0.45991643603E+02  0.10566000000E+00 0. -1.
         22    1    1    0    0    0  0.19400844240E+02 -0.91682025576E+00 -0.24503514871E+02  0.31267484031E+02  0.00000000000E+00 0.  1.
</event>
<event>
 5    1  0.9041381E-005  0.9118800E+02  0.7818608E-02  0.1130116E+00
         25   -1    0    0    0    0  0.00000000000E+00  0.00000000000E+00  0.99999998245E-14  0.12500000000E+03  0.12500000000E+03 0.  0.
        -13    1    3    3    0    0 -0.35131565294E+02 -0.50843118712E+01 -0.51231979718E+01  0.35865518659E+02  0.10566000000E+00 0. -1.
         23    2    1    0    0    0  0.19990052268E+02 -0.12642194482E+02  0.17138287756E+02  0.95791299614E+02  0.91229517721E+02 0.  0.
         13    1    3    3    0    0  0.55121617562E+02 -0.75578826113E+01  0.22261485728E+02  0.59925780955E+02  0.10566000000E+00 0.  1.
         22    1    1    0    0    0 -0.19990052268E+02  0.12642194482E+02 -0.17138287756E+02  0.29208700386E+02  0.00000000000E+00 0.  1.
</event>
<event>
 5    1  0.9041381E-005  0.9118800E+02  0.7818608E-02  0.1130116E+00
         25   -1    0    0    0    0  0.00000000000E+00  0.00000000000E+00  0.99999998245E-14  0.12500000000E+03  0.12500000000E+03 0.  0.
        -13    1    3    3    0    0  0.11721857254E+02  0.60999209657E+02  0.10755118500E+01  0.62124660209E+02  0.10566000000E+00 0.  1.
         23    2    1    0    0    0  0.50750033942E+01  0.32009625519E+02 -0.41623125834E+01  0.92324372518E+02  0.86348671846E+02 0.  0.
         13    1    3    3    0    0 -0.66468538600E+01 -0.28989584138E+02 -0.52378244334E+01  0.30199712310E+02  0.10566000000E+00 0. -1.
         22    1    1    0    0    0 -0.50750033942E+01 -0.32009625519E+02  0.41623125834E+01  0.32675627482E+02  0.00000000000E+00 0.  1.
</event>
<event>
 5    1  0.9041381E-005  0.9118800E+02  0.7818608E-02  0.1130116E+00
         25   -1    0    0    0    0  0.00000000000E+00  0.00000000000E+00  0.99999998245E-14  0.12500000000E+03  0.12500000000E+03 0.  0.
        -13    1    3    3    0    0  0.15301023101E+02 -0.19921099784E+02 -0.33349847656E+02  0.41751587123E+02  0.10566000000E+00 0. -1.
         23    2    1    0    0    0  0.20237335005E+02  0.20369880837E+02  0.28558400083E+01  0.96144539589E+02  0.91712239626E+02 0.  0.
         13    1    3    3    0    0  0.49363119033E+01  0.40290980621E+02  0.36205687665E+02  0.54392952466E+02  0.10566000000E+00 0.  1.
         22    1    1    0    0    0 -0.20237335005E+02 -0.20369880837E+02 -0.28558400083E+01  0.28855460411E+02  0.00000000000E+00 0.  1.
</event>
<event>
 5    1  0.9041381E-005  0.9118800E+02  0.7818608E-02  0.1130116E+00
         25   -1    0    0    0    0  0.00000000000E+00  0.00000000000E+00  0.99999998245E-14  0.12500000000E+03  0.12500000000E+03 0.  0.
        -13    1    3    3    0    0  0.44762050042E+02 -0.68393017758E+01 -0.45312554397E+01  0.45507808260E+02  0.10566000000E+00 0.  1.
         23    2    1    0    0    0  0.10247539334E+02 -0.11713874065E+02 -0.31688775801E+02  0.89695532581E+02  0.82455340307E+02 0.  0.
         13    1    3    3    0    0 -0.34514510708E+02 -0.48745722888E+01 -0.27157520361E+02  0.44187724321E+02  0.10566000000E+00 0. -1.
         22    1    1    0    0    0 -0.10247539334E+02  0.11713874065E+02  0.31688775801E+02  0.35304467419E+02  0.00000000000E+00 0. -1.
</event>
<event>
 5    1  0.9041381E-005  0.9118800E+02  0.7818608E-02  0.1130116E+00
         25   -1    0    0    0    0  0.00000000000E+00  0.00000000000E+00  0.99999998245E-14  0.12500000000E+03  0.12500000000E+03 0.  0.
        -13    1    3    3    0    0  0.13902008754E+02 -0.16587798123E+02 -0.34636606545E+02  0.40842705236E+02  0.10566000000E+00 0. -1.
         23    2    1    0    0    0 -0.73994090759E+01  0.26811150295E+02 -0.79092820059E+01  0.96083814624E+02  0.91629436624E+02 0.  0.
         13    1    3    3    0    0 -0.21301417830E+02  0.43398948418E+02  0.26727324540E+02  0.55241109388E+02  0.10566000000E+00 0.  1.
         22    1    1    0    0    0  0.73994090759E+01 -0.26811150295E+02  0.79092820059E+01  0.28916185376E+02  0.00000000000E+00 0.  1.
</event>
<event>
 5    1  0.9041381E-005  0.9118800E+02  0.7818608E-02  0.1130116E+00
         25   -1    0    0    0    0  0.00000000000E+00  0.00000000000E+00  0.99999998245E-14  0.12500000000E+03  0.12500000000E+03 0.  0.
        -13    1    3    3    0    0  0.13862237880E+02 -0.50772977664E+02  0.11541720589E+02  0.53882087730E+02  0.10566000000E+00 0.  1.
         23    2    1    0    0    0  0.26295536018E+02 -0.11041661560E+02  0.37797984736E+01  0.96230912754E+02  0.91829887228E+02 0.  0.
         13    1    3    3    0    0  0.12433298138E+02  0.39731316104E+02 -0.77619221158E+01  0.42348825024E+02  0.10566000000E+00 0. -1.
         22    1    1    0    0    0 -0.26295536018E+02  0.11041661560E+02 -0.37797984736E+01  0.28769087246E+02  0.00000000000E+00 0.  1.
</event>
<event>
 5    1  0.9041381E-005  0.9118800E+02  0.7818608E-02  0.1130116E+00
         25   -1    0    0    0    0  0.00000000000E+00  0.00000000000E+00  0.99999998245E-14  0.12500000000E+03  0.12500000000E+03 0.  0.
        -13    1    3    3    0    0 -0.21000667972E+02 -0.72510461242E+01 -0.45818634111E+02  0.50921155928E+02  0.10566000000E+00 0. -1.
         23    2    1    0    0    0  0.17225865360E+02 -0.36037197209E+00 -0.23948401304E+02  0.95497691100E+02  0.90826333049E+02 0.  0.
         13    1    3    3    0    0  0.38226533333E+02  0.68906741521E+01  0.21870232807E+02  0.44576535172E+02  0.10566000000E+00 0.  1.
         22    1    1    0    0    0 -0.17225865360E+02  0.36037197209E+00  0.23948401304E+02  0.29502308900E+02  0.00000000000E+00 0. -1.
</event>
<event>
 5    1  0.9041381E-005  0.9118800E+02  0.7818608E-02  0.1130116E+00
         25   -1    0    0    0    0  0.00000000000E+00  0.00000000000E+00  0.99999998245E-14  0.12500000000E+03  0.12500000000E+03 0.  0.
        -13    1    3    3    0    0 -0.38576824566E+01  0.30166715922E+02  0.37487981694E+02  0.48272895075E+02  0.10566000000E+00 0. -1.
         23    2    1    0    0    0  0.26107048677E+02  0.12969889951E+02  0.55445982427E+01  0.95326129244E+02  0.90589912855E+02 0.  0.
         13    1    3    3    0    0  0.29964731134E+02 -0.17196825971E+02 -0.31943383451E+02  0.47053234168E+02  0.10566000000E+00 0.  1.
         22    1    1    0    0    0 -0.26107048677E+02 -0.12969889951E+02 -0.55445982427E+01  0.29673870756E+02  0.00000000000E+00 0. -1.
</event>
<event>
 5    1  0.9041381E-005  0.9118800E+02  0.7818608E-02  0.1130116E+00
         25   -1    0    0    0    0  0.00000000000E+00  0.00000000000E+00  0.99999998245E-14  0.12500000000E+03  0.12500000000E+03 0.  0.
        -13    1    3    3    0    0 -0.52747519930E+02 -0.26337171962E+02  0.57165975471E+01  0.59233758426E+02  0.10566000000E+00 0.  1.
         23    2    1    0    0    0 -0.27313074175E+02  0.47237916055E+00 -0.38651100080E+01  0.97410758649E+02  0.93422104784E+02 0.  0.
         13    1    3    3    0    0  0.25434445755E+02  0.26809551123E+02 -0.95817075550E+01  0.38177000223E+02  0.10566000000E+00 0. -1.
         22    1    1    0    0    0  0.27313074175E+02 -0.47237916055E+00  0.38651100080E+01  0.27589241351E+02  0.00000000000E+00 0.  1.
</event>
<event>
 5    1  0.9041381E-005  0.9118800E+02  0.7818608E-02  0.1130116E+00
         25   -1    0    0    0    0  0.00000000000E+00  0.00000000000E+00  0.99999998245E-14  0.12500000000E+03  0.12500000000E+03 0.  0.
        -13    1    3    3    0    0 -0.40543254941E+02 -0.23892196380E+02 -0.37410844384E+02  0.60118009037E+02  0.10566000000E+00 0.  1.
         23    2    1    0    0    0 -0.27068264001E+02 -0.47374127638E+01 -0.11044319616E+02  0.95383940310E+02  0.90669648050E+02 0.  0.
         13    1    3    3    0    0  0.13474990939E+02  0.19154783616E+02  0.26366524768E+02  0.35265931273E+02  0.10566000000E+00 0. -1.
         22    1    1    0    0    0  0.27068264001E+02  0.47374127638E+01  0.11044319616E+02  0.29616059690E+02  0.00000000000E+00 0.  1.
</event>
<event>
 5    1  0.9041381E-005  0.9118800E+02  0.7818608E-02  0.1130116E+00
         25   -1    0    0    0    0  0.00000000000E+00  0.00000000000E+00  0.99999998245E-14  0.12500000000E+03  0.12500000000E+03 0.  0.
        -13    1    3    3    0    0  0.43568084002E+02  0.36706488217E+02 -0.86881758727E+01  0.57628463321E+02  0.10566000000E+00 0.  1.
         23    2    1    0    0    0  0.12262451001E+02  0.25728391644E+02  0.88532462732E+01  0.95155439177E+02  0.90354080120E+02 0.  0.
         13    1    3    3    0    0 -0.31305633001E+02 -0.10978096573E+02  0.17541422146E+02  0.37526975856E+02  0.10566000000E+00 0. -1.
         22    1    1    0    0    0 -0.12262451001E+02 -0.25728391644E+02 -0.88532462732E+01  0.29844560823E+02  0.00000000000E+00 0.  1.
</event>
<event>
 5    1  0.9041381E-005  0.9118800E+02  0.7818608E-02  0.1130116E+00
         25   -1    0    0    0    0  0.00000000000E+00  0.00000000000E+00  0.99999998245E-14  0.12500000000E+03  0.12500000000E+03 0.  0.
        -13    1    3    3    0    0 -0.27175239349E+02  0.34970449492E+02  0.41182906206E+01  0.44479179994E+02  0.10566000000E+00 0.  1.
         23    2    1    0    0    0  0.30298686684E+01  0.12967085509E+01  0.28801112376E+02  0.96010939455E+02  0.91529967026E+02 0.  0.
         13    1    3    3    0    0  0.30205108017E+02 -0.33673740941E+02  0.24682821755E+02  0.51531759461E+02  0.10566000000E+00 0. -1.
         22    1    1    0    0    0 -0.30298686684E+01 -0.12967085509E+01 -0.28801112376E+02  0.28989060545E+02  0.00000000000E+00 0. -1.
</event>
<event>
 5    1  0.9041381E-005  0.9118800E+02  0.7818608E-02  0.1130116E+00
         25   -1    0    0    0    0  0.00000000000E+00  0.00000000000E+00  0.99999998245E-14  0.12500000000E+03  0.12500000000E+03 0.  0.
        -13    1    3    3    0    0 -0.38902880189E+02 -0.46489685470E+01 -0.26242536725E+02  0.47156430032E+02  0.10566000000E+00 0. -1.
         23    2    1    0    0    0 -0.14093512642E+02 -0.23616415630E+02  0.10664017781E+02  0.95502822829E+02  0.90833395330E+02 0.  0.
         13    1    3    3    0    0  0.24809367547E+02 -0.18967447083E+02  0.36906554506E+02  0.48346392797E+02  0.10566000000E+00 0.  1.
         22    1    1    0    0    0  0.14093512642E+02  0.23616415630E+02 -0.10664017781E+02  0.29497177171E+02  0.00000000000E+00 0.  1.
</event>
<event>
 5    1  0.9041381E-005  0.9118800E+02  0.7818608E-02  0.1130116E+00
         25   -1    0    0    0    0  0.00000000000E+00  0.00000000000E+00  0.99999998245E-14  0.12500000000E+03  0.12500000000E+03 0.  0.
        -13    1    3    3    0    0  0.45678957279E+02  0.30291619541E+02  0.27213349070E+02  0.61194173613E+02  0.10566000000E+00 0.  1.
         23    2    1    0    0    0  0.20633263754E+02  0.21459851850E+02  0.74119087793E+01  0.94321127688E+02  0.89192387131E+02 0.  0.
         13    1    3    3    0    0 -0.25045693526E+02 -0.88317676907E+01 -0.19801440290E+02  0.33126954076E+02  0.10566000000E+00 0. -1.
         22    1    1    0    0    0 -0.20633263754E+02 -0.21459851850E+02 -0.74119087793E+01  0.30678872312E+02  0.00000000000E+00 0.  1.
</event>
<event>
 5    1  0.9041381E-005  0.9118800E+02  0.7818608E-02  0.1130116E+00
         25   -1    0    0    0    0  0.00000000000E+00  0.00000000000E+00  0.99999998245E-14  0.12500000000E+03  0.12500000000E+03 0.  0.
        -13    1    3    3    0    0 -0.29482364067E+02  0.64060750022E+01 -0.42893907536E+01  0.30473884311E+02  0.10566000000E+00 0.  1.
         23    2    1    0    0    0  0.20469664316E+02  0.30590281445E+02  0.80385809684E+01  0.87325190643E+02  0.78780058776E+02 0.  0.
         13    1    3    3    0    0  0.49952028384E+02  0.24184206442E+02  0.12327971722E+02  0.56851306332E+02  0.10566000000E+00 0. -1.
         22    1    1    0    0    0 -0.20469664316E+02 -0.30590281445E+02 -0.80385809684E+01  0.37674809357E+02  0.00000000000E+00 0. -1.
</event>
<event>
 5    1  0.9041381E-005  0.9118800E+02  0.7818608E-02  0.1130116E+00
         25   -1    0    0    0    0  0.00000000000E+00  0.00000000000E+00  0.99999998245E-14  0.12500000000E+03  0.12500000000E+03 0.  0.
        -13    1    3    3    0    0 -0.29047895149E+02 -0.10541889136E+02 -0.47917080207E+02  0.57017272635E+02  0.10566000000E+00 0. -1.
         23    2    1    0    0    0 -0.27729449044E+02 -0.33388494409E+01 -0.10472292413E+02  0.95171504090E+02  0.90376302329E+02 0.  0.
         13    1    3    3    0    0  0.13184461048E+01  0.72030396949E+01  0.37444787794E+02  0.38154231456E+02  0.10566000000E+00 0.  1.
         22    1    1    0    0    0  0.27729449044E+02  0.33388494409E+01  0.10472292413E+02  0.29828495910E+02  0.00000000000E+00 0. -1.
</event>
<event>
 5    1  0.9041381E-005  0.9118800E+02  0.7818608E-02  0.1130116E+00
         25   -1    0    0    0    0  0.00000000000E+00  0.00000000000E+00  0.99999998245E-14  0.12500000000E+03  0.12500000000E+03 0.  0.
        -13    1    3    3    0    0 -0.45545476426E+02 -0.20606446337E+02 -0.65287519762E+01  0.50414797629E+02  0.10566000000E+00 0.  1.
         23    2    1    0    0    0 -0.17230138636E+02 -0.35028707911E+01  0.23878157309E+02  0.95346767838E+02  0.90618386432E+02 0.  0.
         13    1    3    3    0    0  0.28315337790E+02  0.17103575546E+02  0.30406909285E+02  0.44931970209E+02  0.10566000000E+00 0. -1.
         22    1    1    0    0    0  0.17230138636E+02  0.35028707911E+01 -0.23878157309E+02  0.29653232162E+02  0.00000000000E+00 0.  1.
</event>
<event>
 5    1  0.9041381E-005  0.9118800E+02  0.7818608E-02  0.1130116E+00
         25   -1    0    0    0    0  0.00000000000E+00  0.00000000000E+00  0.99999998245E-14  0.12500000000E+03  0.12500000000E+03 0.  0.
        -13    1    3    3    0    0  0.17740530289E+01  0.43145228061E+02  0.33657608144E+00  0.43183126520E+02  0.10566000000E+00 0.  1.
         23    2    1    0    0    0 -0.23185784290E+02  0.27935696873E+00 -0.17557380895E+02  0.95915291692E+02  0.91399250123E+02 0.  0.
         13    1    3    3    0    0 -0.24959837319E+02 -0.42865871092E+02 -0.17893956977E+02  0.52732165172E+02  0.10566000000E+00 0. -1.
         22    1    1    0    0    0  0.23185784290E+02 -0.27935696873E+00  0.17557380895E+02  0.29084708308E+02  0.00000000000E+00 0. -1.
</event>
<event>
 5    1  0.9041381E-005  0.9118800E+02  0.7818608E-02  0.1130116E+00
         25   -1    0    0    0    0  0.00000000000E+00  0.00000000000E+00  0.99999998245E-14  0.12500000000E+03  0.12500000000E+03 0.  0.
        -13    1    3    3    0    0  0.15599321112E+02  0.30067509762E+02 -0.73940224466E+01  0.34670977696E+02  0.10566000000E+00 0. -1.
         23    2    1    0    0    0 -0.62029602822E+01 -0.27634838638E+02 -0.14547588067E+01  0.96640216044E+02  0.92385356043E+02 0.  0.
         13    1    3    3    0    0 -0.21802281394E+02 -0.57702348400E+02  0.59392636399E+01  0.61969238348E+02  0.10566000000E+00 0.  1.
         22    1    1    0    0    0  0.62029602822E+01  0.27634838638E+02  0.14547588067E+01  0.28359783956E+02  0.00000000000E+00 0.  1.
</event>
<event>
 5    1  0.9041381E-005  0.9118800E+02  0.7818608E-02  0.1130116E+00
         25   -1    0    0    0    0  0.00000000000E+00  0.00000000000E+00  0.99999998245E-14  0.12500000000E+03  0.12500000000E+03 0.  0.
        -13    1    3    3    0    0 -0.28554167499E+02 -0.48398097672E+02 -0.13903318478E+02  0.57888079676E+02  0.10566000000E+00 0.  1.
         23    2    1    0    0    0 -0.16377312132E+02 -0.19777863602E+02 -0.23244348852E+02  0.90363603033E+02  0.83461971929E+02 0.  0.
         13    1    3    3    0    0  0.12176855368E+02  0.28620234070E+02 -0.93410303732E+01  0.32475523358E+02  0.10566000000E+00 0. -1.
         22    1    1    0    0    0  0.16377312132E+02  0.19777863602E+02  0.23244348852E+02  0.34636396967E+02  0.00000000000E+00 0.  1.
</event>
<event>
 5    1  0.9041381E-005  0.9118800E+02  0.7818608E-02  0.1130116E+00
         25   -1    0    0    0    0  0.00000000000E+00  0.00000000000E+00  0.99999998245E-14  0.12500000000E+03  0.12500000000E+03 0.  0.
        -13    1    3    3    0    0 -0.56523089078E+02 -0.59186606025E+01  0.11760168558E+02  0.58036220335E+02  0.10566000000E+00 0. -1.
         23    2    1    0    0    0 -0.22353564281E+02  0.44340178220E+01  0.20001202448E+02  0.94678548032E+02  0.89691900459E+02 0.  0.
         13    1    3    3    0    0  0.34169524797E+02  0.10352678425E+02  0.82410338901E+01  0.36642327697E+02  0.10566000000E+00 0.  1.
         22    1    1    0    0    0  0.22353564281E+02 -0.44340178220E+01 -0.20001202448E+02  0.30321451968E+02  0.00000000000E+00 0. -1.
</event>
<event>
 5    1  0.9041381E-005  0.9118800E+02  0.7818608E-02  0.1130116E+00
         25   -1    0    0    0    0  0.00000000000E+00  0.00000000000E+00  0.99999998245E-14  0.12500000000E+03  0.12500000000E+03 0.  0.
        -13    1    3    3    0    0  0.48413017804E+02 -0.14990733669E+01  0.23927963290E+02  0.54024310316E+02  0.10566000000E+00 0. -1.
         23    2    1    0    0    0  0.19481226078E+02  0.21321916844E+02  0.42224300981E+01  0.95811453902E+02  0.91257128354E+02 0.  0.
         13    1    3    3    0    0 -0.28931791726E+02  0.22820990210E+02 -0.19705533192E+02  0.41787143586E+02  0.10566000000E+00 0.  1.
         22    1    1    0    0    0 -0.19481226078E+02 -0.21321916844E+02 -0.42224300981E+01  0.29188546098E+02  0.00000000000E+00 0. -1.
</event>
<event>
 5    1  0.9041381E-005  0.9118800E+02  0.7818608E-02  0.1130116E+00
         25   -1    0    0    0    0  0.00000000000E+00  0.00000000000E+00  0.99999998245E-14  0.12500000000E+03  0.12500000000E+03 0.  0.
        -13    1    3    3    0    0 -0.39956880187E+02  0.65833147198E+01 -0.36690796033E+02  0.54645383927E+02  0.10566000000E+00 0. -1.
         23    2    1    0    0    0 -0.46437900313E+01  0.79665301285E-01 -0.34033862348E+02  0.90650692602E+02  0.83890840683E+02 0.  0.
         13    1    3    3    0    0  0.35313090156E+02 -0.65036494185E+01  0.26569336850E+01  0.36005308675E+02  0.10566000000E+00 0.  1.
         22    1    1    0    0    0  0.46437900313E+01 -0.79665301285E-01  0.34033862348E+02  0.34349307398E+02  0.00000000000E+00 0. -1.
</event>
<event>
 5    1  0.9041381E-005  0.9118800E+02  0.7818608E-02  0.1130116E+00
         25   -1    0    0    0    0  0.00000000000E+00  0.00000000000E+00  0.99999998245E-14  0.12500000000E+03  0.12500000000E+03 0.  0.
        -13    1    3    3    0    0 -0.24323165592E+02  0.24503140134E+02  0.68882147373E+01  0.35206234209E+02  0.10566000000E+00 0. -1.
         23    2    1    0    0    0  0.22931975504E+02 -0.12978042509E+02  0.12603130606E+02  0.95791371327E+02  0.91229615980E+02 0.  0.
         13    1    3    3    0    0  0.47255141096E+02 -0.37481182643E+02  0.57149158683E+01  0.60585137119E+02  0.10566000000E+00 0.  1.
         22    1    1    0    0    0 -0.22931975504E+02  0.12978042509E+02 -0.12603130606E+02  0.29208628673E+02  0.00000000000E+00 0.  1.
</event>
<event>
 5    1  0.9041381E-005  0.9118800E+02  0.7818608E-02  0.1130116E+00
         25   -1    0    0    0    0  0.00000000000E+00  0.00000000000E+00  0.99999998245E-14  0.12500000000E+03  0.12500000000E+03 0.  0.
        -13    1    3    3    0    0  0.34333724433E+02  0.11768267779E+01  0.37417708176E+02  0.50796511730E+02  0.10566000000E+00 0. -1.
         23    2    1    0    0    0  0.52948747457E+01  0.25330805655E+02  0.11048453080E+02  0.96861881208E+02  0.92684790025E+02 0.  0.
         13    1    3    3    0    0 -0.29038849687E+02  0.24153978877E+02 -0.26369255096E+02  0.46065369478E+02  0.10566000000E+00 0.  1.
         22    1    1    0    0    0 -0.52948747457E+01 -0.25330805655E+02 -0.11048453080E+02  0.28138118792E+02  0.00000000000E+00 0. -1.
</event>
<event>
 5    1  0.9041381E-005  0.9118800E+02  0.7818608E-02  0.1130116E+00
         25   -1    0    0    0    0  0.00000000000E+00  0.00000000000E+00  0.99999998245E-14  0.12500000000E+03  0.12500000000E+03 0.  0.
        -13    1    3    3    0    0 -0.19771081618E+01 -0.50014267181E+02 -0.31669427999E+02  0.59230901666E+02  0.10566000000E+00 0. -1.
         23    2    1    0    0    0 -0.14805971423E+02 -0.19445195941E+02 -0.14793785346E+02  0.96430986720E+02  0.92101827777E+02 0.  0.
         13    1    3    3    0    0 -0.12828863261E+02  0.30569071240E+02  0.16875642652E+02  0.37200085054E+02  0.10566000000E+00 0.  1.
         22    1    1    0    0    0  0.14805971423E+02  0.19445195941E+02  0.14793785346E+02  0.28569013280E+02  0.00000000000E+00 0. -1.
</event>
<event>
 5    1  0.9041381E-005  0.9118800E+02  0.7818608E-02  0.1130116E+00
         25   -1    0    0    0    0  0.00000000000E+00  0.00000000000E+00  0.99999998245E-14  0.12500000000E+03  0.12500000000E+03 0.  0.
        -13    1    3    3    0    0 -0.40780349951E+02 -0.66487041378E+01 -0.39719866358E+01  0.41509397138E+02  0.10566000000E+00 0.  1.
         23    2    1    0    0    0 -0.86893986350E+00  0.29505111739E+02 -0.24081370710E+01  0.95384027968E+02  0.90669768898E+02 0.  0.
         13    1    3    3    0    0  0.39911410088E+02  0.36153815877E+02  0.15638495648E+01  0.53874630831E+02  0.10566000000E+00 0. -1.
         22    1    1    0    0    0  0.86893986350E+00 -0.29505111739E+02  0.24081370710E+01  0.29615972032E+02  0.00000000000E+00 0. -1.
</event>
<event>
 5    1  0.9041381E-005  0.9118800E+02  0.7818608E-02  0.1130116E+00
         25   -1    0    0    0    0  0.00000000000E+00  0.00000000000E+00  0.99999998245E-14  0.12500000000E+03  0.12500000000E+03 0.  0.
        -13    1    3    3    0    0 -0.13533128678E+02  0.21876929747E+02  0.21121916965E+02  0.33285014154E+02  0.10566000000E+00 0. -1.
         23    2    1    0    0    0  0.16977231459E+02 -0.26794761236E+02  0.56026051283E+01  0.92788592053E+02  0.87018090149E+02 0.  0.
         13    1    3    3    0    0  0.30510360137E+02 -0.48671690983E+02 -0.15519311837E+02  0.59503577898E+02  0.10566000000E+00 0.  1.
         22    1    1    0    0    0 -0.16977231459E+02  0.26794761236E+02 -0.56026051283E+01  0.32211407947E+02  0.00000000000E+00 0.  1.
</event>
<event>
 5    1  0.9041381E-005  0.9118800E+02  0.7818608E-02  0.1130116E+00
         25   -1    0    0    0    0  0.00000000000E+00  0.00000000000E+00  0.99999998245E-14  0.12500000000E+03  0.12500000000E+03 0.  0.
        -13    1    3    3    0    0 -0.27369045842E+02  0.35905295090E+02 -0.56132959233E+01  0.45494781470E+02  0.10566000000E+00 0.  1.
         23    2    1    0    0    0  0.18926695283E+02  0.19231928268E+02 -0.12644132115E+02  0.95201326603E+02  0.90417540615E+02 0.  0.
         13    1    3    3    0    0  0.46295741126E+02 -0.16673366822E+02 -0.70308361918E+01  0.49706545134E+02  0.10566000000E+00 0. -1.
         22    1    1    0    0    0 -0.18926695283E+02 -0.19231928268E+02  0.12644132115E+02  0.29798673397E+02  0.00000000000E+00 0. -1.
</event>
<event>
 5    1  0.9041381E-005  0.9118800E+02  0.7818608E-02  0.1130116E+00
         25   -1    0    0    0    0  0.00000000000E+00  0.00000000000E+00  0.99999998245E-14  0.12500000000E+03  0.12500000000E+03 0.  0.
        -13    1    3    3    0    0  0.19335066570E+01 -0.49615135004E+01 -0.32984396335E+02  0.33411624172E+02  0.10566000000E+00 0.  1.
         23    2    1    0    0    0  0.18168918819E+02 -0.23696903977E+02  0.18021051464E+02  0.90122913467E+02  0.83100712192E+02 0.  0.
         13    1    3    3    0    0  0.16235412161E+02 -0.18735390477E+02  0.51005447799E+02  0.56711289295E+02  0.10566000000E+00 0. -1.
         22    1    1    0    0    0 -0.18168918819E+02  0.23696903977E+02 -0.18021051464E+02  0.34877086533E+02  0.00000000000E+00 0. -1.
</event>
<event>
 5    1  0.9041381E-005  0.9118800E+02  0.7818608E-02  0.1130116E+00
         25   -1    0    0    0    0  0.00000000000E+00  0.00000000000E+00  0.99999998245E-14  0.12500000000E+03  0.12500000000E+03 0.  0.
        -13    1    3    3    0    0  0.54956368154E+02  0.28141016792E+01 -0.19164125996E+02  0.58270030532E+02  0.10566000000E+00 0. -1.
         23    2    1    0    0    0  0.23873370787E+02 -0.12841293910E+02 -0.22793144171E+00  0.97891170908E+02  0.94062706355E+02 0.  0.
         13    1    3    3    0    0 -0.31082997367E+02 -0.15655395589E+02  0.18936194555E+02  0.39621140375E+02  0.10566000000E+00 0.  1.
         22    1    1    0    0    0 -0.23873370787E+02  0.12841293910E+02  0.22793144171E+00  0.27108829092E+02  0.00000000000E+00 0. -1.
</event>
<event>
 5    1  0.9041381E-005  0.9118800E+02  0.7818608E-02  0.1130116E+00
         25   -1    0    0    0    0  0.00000000000E+00  0.00000000000E+00  0.99999998245E-14  0.12500000000E+03  0.12500000000E+03 0.  0.
        -13    1    3    3    0    0  0.89270351923E+01  0.16870400924E+02 -0.32428101753E+02  0.37628384659E+02  0.10566000000E+00 0. -1.
         23    2    1    0    0    0 -0.25408922556E+02  0.10035022473E+02  0.12806417663E+02  0.94828500951E+02  0.89900640920E+02 0.  0.
         13    1    3    3    0    0 -0.34335957748E+02 -0.68353784509E+01  0.45234519416E+02  0.57200116293E+02  0.10566000000E+00 0.  1.
         22    1    1    0    0    0  0.25408922556E+02 -0.10035022473E+02 -0.12806417663E+02  0.30171499049E+02  0.00000000000E+00 0.  1.
</event>
<event>
 5    1  0.9041381E-005  0.9118800E+02  0.7818608E-02  0.1130116E+00
         25   -1    0    0    0    0  0.00000000000E+00  0.00000000000E+00  0.99999998245E-14  0.12500000000E+03  0.12500000000E+03 0.  0.
        -13    1    3    3    0    0 -0.29855279335E+02  0.88479777937E+01 -0.18898942690E+02  0.36425343019E+02  0.10566000000E+00 0.  1.
         23    2    1    0    0    0  0.25002194669E+02  0.13717830424E+02  0.42516247168E+01  0.96166600573E+02  0.91742302910E+02 0.  0.
         13    1    3    3    0    0  0.54857474005E+02  0.48698526298E+01  0.23150567407E+02  0.59741257554E+02  0.10566000000E+00 0. -1.
         22    1    1    0    0    0 -0.25002194669E+02 -0.13717830424E+02 -0.42516247168E+01  0.28833399427E+02  0.00000000000E+00 0. -1.
</event>
<event>
 5    1  0.9041381E-005  0.9118800E+02  0.7818608E-02  0.1130116E+00
         25   -1    0    0    0    0  0.00000000000E+00  0.00000000000E+00  0.99999998245E-14  0.12500000000E+03  0.12500000000E+03 0.  0.
        -13    1    3    3    0    0 -0.43567936860E-01 -0.10693666150E+02 -0.34968346032E+02  0.36567099723E+02  0.10566000000E+00 0.  1.
         23    2    1    0    0    0  0.19722283488E+02  0.69116483799E+01  0.19049949650E+02  0.96722094650E+02  0.92496073768E+02 0.  0.
         13    1    3    3    0    0  0.19765851425E+02  0.17605314529E+02  0.54018295682E+02  0.60154994927E+02  0.10566000000E+00 0. -1.
         22    1    1    0    0    0 -0.19722283488E+02 -0.69116483799E+01 -0.19049949650E+02  0.28277905350E+02  0.00000000000E+00 0. -1.
</event>
<event>
 5    1  0.9041381E-005  0.9118800E+02  0.7818608E-02  0.1130116E+00
         25   -1    0    0    0    0  0.00000000000E+00  0.00000000000E+00  0.99999998245E-14  0.12500000000E+03  0.12500000000E+03 0.  0.
        -13    1    3    3    0    0 -0.11853602350E+02  0.34370211388E+02  0.60908388046E+01  0.36863651487E+02  0.10566000000E+00 0.  1.
         23    2    1    0    0    0 -0.16948169138E+02 -0.23969250819E+02  0.14657259614E+01  0.95607589848E+02  0.90977455790E+02 0.  0.
         13    1    3    3    0    0 -0.50945667878E+01 -0.58339462207E+02 -0.46251128431E+01  0.58743938361E+02  0.10566000000E+00 0. -1.
         22    1    1    0    0    0  0.16948169138E+02  0.23969250819E+02 -0.14657259614E+01  0.29392410152E+02  0.00000000000E+00 0. -1.
</event>
<event>
 5    1  0.9041381E-005  0.9118800E+02  0.7818608E-02  0.1130116E+00
         25   -1    0    0    0    0  0.00000000000E+00  0.00000000000E+00  0.99999998245E-14  0.12500000000E+03  0.12500000000E+03 0.  0.
        -13    1    3    3    0    0  0.38408553403E+02 -0.21165001949E+02 -0.37752727156E+01  0.44016339354E+02  0.10566000000E+00 0.  1.
         23    2    1    0    0    0 -0.17520274820E+02 -0.68967115642E+01 -0.12510529027E+02  0.10239385047E+03  0.99867224938E+02 0.  0.
         13    1    3    3    0    0 -0.55928828223E+02  0.14268290385E+02 -0.87352563113E+01  0.58377511113E+02  0.10566000000E+00 0. -1.
         22    1    1    0    0    0  0.17520274820E+02  0.68967115642E+01  0.12510529027E+02  0.22606149533E+02  0.00000000000E+00 0. -1.
</event>
<event>
 5    1  0.9041381E-005  0.9118800E+02  0.7818608E-02  0.1130116E+00
         25   -1    0    0    0    0  0.00000000000E+00  0.00000000000E+00  0.99999998245E-14  0.12500000000E+03  0.12500000000E+03 0.  0.
        -13    1    3    3    0    0  0.31285578262E+02  0.14599014793E+02  0.25579829866E+02  0.42968098632E+02  0.10566000000E+00 0. -1.
         23    2    1    0    0    0 -0.11265925493E+02 -0.19022763223E+02  0.15163784962E+02  0.98190916237E+02  0.94460198281E+02 0.  0.
         13    1    3    3    0    0 -0.42551503754E+02 -0.33621778016E+02 -0.10416044904E+02  0.55222817605E+02  0.10566000000E+00 0.  1.
         22    1    1    0    0    0  0.11265925493E+02  0.19022763223E+02 -0.15163784962E+02  0.26809083763E+02  0.00000000000E+00 0. -1.
</event>
<event>
 5    1  0.9041381E-005  0.9118800E+02  0.7818608E-02  0.1130116E+00
         25   -1    0    0    0    0  0.00000000000E+00  0.00000000000E+00  0.99999998245E-14  0.12500000000E+03  0.12500000000E+03 0.  0.
        -13    1    3    3    0    0 -0.22344440493E+02 -0.30941172031E+02  0.15419215596E+02  0.41163011567E+02  0.10566000000E+00 0.  1.
         23    2    1    0    0    0 -0.60042593103E+00  0.18581223974E+02  0.22613834752E+02  0.95725302429E+02  0.91139045460E+02 0.  0.
         13    1    3    3    0    0  0.21744014562E+02  0.49522396005E+02  0.71946191564E+01  0.54562290863E+02  0.10566000000E+00 0. -1.
         22    1    1    0    0    0  0.60042593103E+00 -0.18581223974E+02 -0.22613834752E+02  0.29274697571E+02  0.00000000000E+00 0. -1.
</event>
<event>
 5    1  0.9041381E-005  0.9118800E+02  0.7818608E-02  0.1130116E+00
         25   -1    0    0    0    0  0.00000000000E+00  0.00000000000E+00  0.99999998245E-14  0.12500000000E+03  0.12500000000E+03 0.  0.
        -13    1    3    3    0    0 -0.27543468418E+02  0.16273134416E+02  0.38775723708E+02  0.50269528238E+02  0.10566000000E+00 0.  1.
         23    2    1    0    0    0  0.13190982894E+02  0.81733242809E-01  0.25864270079E+02  0.95966068528E+02  0.91468667488E+02 0.  0.
         13    1    3    3    0    0  0.40734451311E+02 -0.16191401173E+02 -0.12911453629E+02  0.45696540290E+02  0.10566000000E+00 0. -1.
         22    1    1    0    0    0 -0.13190982894E+02 -0.81733242809E-01 -0.25864270079E+02  0.29033931472E+02  0.00000000000E+00 0. -1.
</event>
<event>
 5    1  0.9041381E-005  0.9118800E+02  0.7818608E-02  0.1130116E+00
         25   -1    0    0    0    0  0.00000000000E+00  0.00000000000E+00  0.99999998245E-14  0.12500000000E+03  0.12500000000E+03 0.  0.
        -13    1    3    3    0    0  0.14032307186E+02 -0.43742973869E+02  0.24999396617E+02  0.52300424503E+02  0.10566000000E+00 0. -1.
         23    2    1    0    0    0 -0.35595881040E+01 -0.45993916624E+01  0.29019528243E+02  0.95403410829E+02  0.90696486741E+02 0.  0.
         13    1    3    3    0    0 -0.17591895290E+02  0.39143582207E+02  0.40201316261E+01  0.43102986326E+02  0.10566000000E+00 0.  1.
         22    1    1    0    0    0  0.35595881040E+01  0.45993916624E+01 -0.29019528243E+02  0.29596589171E+02  0.00000000000E+00 0.  1.
</event>
<event>
 5    1  0.9041381E-005  0.9118800E+02  0.7818608E-02  0.1130116E+00
         25   -1    0    0    0    0  0.00000000000E+00  0.00000000000E+00  0.99999998245E-14  0.12500000000E+03  0.12500000000E+03 0.  0.
        -13    1    3    3    0    0  0.36274216477E+02  0.61939236150E+01 -0.50234074294E+02  0.62270834706E+02  0.10566000000E+00 0.  1.
         23    2    1    0    0    0  0.13523195587E+02  0.51076327692E+00 -0.23915138050E+02  0.97521435155E+02  0.93570074215E+02 0.  0.
         13    1    3    3    0    0 -0.22751020891E+02 -0.56831603381E+01  0.26318936243E+02  0.35250600449E+02  0.10566000000E+00 0. -1.
         22    1    1    0    0    0 -0.13523195587E+02 -0.51076327692E+00  0.23915138050E+02  0.27478564845E+02  0.00000000000E+00 0.  1.
</event>
<event>
 5    1  0.9041381E-005  0.9118800E+02  0.7818608E-02  0.1130116E+00
         25   -1    0    0    0    0  0.00000000000E+00  0.00000000000E+00  0.99999998245E-14  0.12500000000E+03  0.12500000000E+03 0.  0.
        -13    1    3    3    0    0 -0.86363611158E+01 -0.37099975627E+02 -0.16575367526E+02  0.41542134003E+02  0.10566000000E+00 0.  1.
         23    2    1    0    0    0 -0.66199055680E+00  0.16912756239E+02 -0.22919922571E+02  0.96507853612E+02  0.92206092007E+02 0.  0.
         13    1    3    3    0    0  0.79743705590E+01  0.54012731866E+02 -0.63445550451E+01  0.54965719610E+02  0.10566000000E+00 0. -1.
         22    1    1    0    0    0  0.66199055680E+00 -0.16912756239E+02  0.22919922571E+02  0.28492146388E+02  0.00000000000E+00 0.  1.
</event>
<event>
 5    1  0.9041381E-005  0.9118800E+02  0.7818608E-02  0.1130116E+00
         25   -1    0    0    0    0  0.00000000000E+00  0.00000000000E+00  0.99999998245E-14  0.12500000000E+03  0.12500000000E+03 0.  0.
        -13    1    3    3    0    0  0.23478890337E+02 -0.25280445046E+02  0.82131214069E+01  0.35465838781E+02  0.10566000000E+00 0.  1.
         23    2    1    0    0    0 -0.52966280616E+00  0.22206060208E+02 -0.19483686931E+02  0.95453363829E+02  0.90765307013E+02 0.  0.
         13    1    3    3    0    0 -0.24008553143E+02  0.47486505253E+02 -0.27696808338E+02  0.59987525048E+02  0.10566000000E+00 0. -1.
         22    1    1    0    0    0  0.52966280616E+00 -0.22206060208E+02  0.19483686931E+02  0.29546636171E+02  0.00000000000E+00 0. -1.
</event>
<event>
 5    1  0.9041381E-005  0.9118800E+02  0.7818608E-02  0.1130116E+00
         25   -1    0    0    0    0  0.00000000000E+00  0.00000000000E+00  0.99999998245E-14  0.12500000000E+03  0.12500000000E+03 0.  0.
        -13    1    3    3    0    0  0.18344315725E+02  0.35243810386E+02 -0.19707379401E+02  0.44351235122E+02  0.10566000000E+00 0. -1.
         23    2    1    0    0    0 -0.13977001175E+02 -0.13078637780E+01 -0.27843922860E+02  0.93817455048E+02  0.88483692067E+02 0.  0.
         13    1    3    3    0    0 -0.32321316899E+02 -0.36551674164E+02 -0.81365434584E+01  0.49466219926E+02  0.10566000000E+00 0.  1.
         22    1    1    0    0    0  0.13977001175E+02  0.13078637780E+01  0.27843922860E+02  0.31182544952E+02  0.00000000000E+00 0.  1.
</event>
<event>
 5    1  0.9041381E-005  0.9118800E+02  0.7818608E-02  0.1130116E+00
         25   -1    0    0    0    0  0.00000000000E+00  0.00000000000E+00  0.99999998245E-14  0.12500000000E+03  0.12500000000E+03 0.  0.
        -13    1    3    3    0    0 -0.39800865696E+02 -0.42494565887E+01 -0.17813152670E+02  0.43811943161E+02  0.10566000000E+00 0.  1.
         23    2    1    0    0    0  0.16913735034E+02 -0.15697902245E+01 -0.17529378670E+02  0.10059062085E+03  0.97584093024E+02 0.  0.
         13    1    3    3    0    0  0.56714600731E+02  0.26796663642E+01  0.28377399990E+00  0.56778677684E+02  0.10566000000E+00 0. -1.
         22    1    1    0    0    0 -0.16913735034E+02  0.15697902245E+01  0.17529378670E+02  0.24409379155E+02  0.00000000000E+00 0. -1.
</event>
<event>
 5    1  0.9041381E-005  0.9118800E+02  0.7818608E-02  0.1130116E+00
         25   -1    0    0    0    0  0.00000000000E+00  0.00000000000E+00  0.99999998245E-14  0.12500000000E+03  0.12500000000E+03 0.  0.
        -13    1    3    3    0    0 -0.26067158928E+02  0.11319830810E+01 -0.22790744437E+02  0.34644008953E+02  0.10566000000E+00 0. -1.
         23    2    1    0    0    0  0.25890101037E+02  0.22020124227E+01  0.11161786464E+02  0.96720472644E+02  0.92493881749E+02 0.  0.
         13    1    3    3    0    0  0.51957259965E+02  0.10700293417E+01  0.33952530901E+02  0.62076463692E+02  0.10566000000E+00 0.  1.
         22    1    1    0    0    0 -0.25890101037E+02 -0.22020124227E+01 -0.11161786464E+02  0.28279527356E+02  0.00000000000E+00 0.  1.
</event>
<event>
 5    1  0.9041381E-005  0.9118800E+02  0.7818608E-02  0.1130116E+00
         25   -1    0    0    0    0  0.00000000000E+00  0.00000000000E+00  0.99999998245E-14  0.12500000000E+03  0.12500000000E+03 0.  0.
        -13    1    3    3    0    0 -0.18448321766E+02 -0.14482501297E+02  0.46054451332E+02  0.51682754100E+02  0.10566000000E+00 0. -1.
         23    2    1    0    0    0  0.35589879975E+01 -0.27689370303E+02  0.11310769244E+02  0.94878560389E+02  0.89970217835E+02 0.  0.
         13    1    3    3    0    0  0.22007309763E+02 -0.13206869006E+02 -0.34743682088E+02  0.43195806290E+02  0.10566000000E+00 0.  1.
         22    1    1    0    0    0 -0.35589879975E+01  0.27689370303E+02 -0.11310769244E+02  0.30121439611E+02  0.00000000000E+00 0. -1.
</event>
<event>
 5    1  0.9041381E-005  0.9118800E+02  0.7818608E-02  0.1130116E+00
         25   -1    0    0    0    0  0.00000000000E+00  0.00000000000E+00  0.99999998245E-14  0.12500000000E+03  0.12500000000E+03 0.  0.
        -13    1    3    3    0    0 -0.59671814963E+01 -0.41588828609E+02  0.13005203590E+02  0.43981637129E+02  0.10566000000E+00 0.  1.
         23    2    1    0    0    0 -0.28412081263E+02  0.44099563123E+01  0.57914936865E+01  0.95670228853E+02  0.91063479032E+02 0.  0.
         13    1    3    3    0    0 -0.22444899767E+02  0.45998784922E+02 -0.72137099040E+01  0.51688591724E+02  0.10566000000E+00 0. -1.
         22    1    1    0    0    0  0.28412081263E+02 -0.44099563123E+01 -0.57914936865E+01  0.29329771147E+02  0.00000000000E+00 0. -1.
</event>
<event>
 5    1  0.9041381E-005  0.9118800E+02  0.7818608E-02  0.1130116E+00
         25   -1    0    0    0    0  0.00000000000E+00  0.00000000000E+00  0.99999998245E-14  0.12500000000E+03  0.12500000000E+03 0.  0.
        -13    1    3    3    0    0  0.52644889098E+02 -0.30858855059E+02 -0.38240335042E+01  0.61142355858E+02  0.10566000000E+00 0.  1.
         23    2    1    0    0    0  0.20004639637E+02 -0.22378715611E+02 -0.20820328347E+01  0.94911341338E+02  0.90015750480E+02 0.  0.
         13    1    3    3    0    0 -0.32640249461E+02  0.84801394478E+01  0.17420006695E+01  0.33768985479E+02  0.10566000000E+00 0. -1.
         22    1    1    0    0    0 -0.20004639637E+02  0.22378715611E+02  0.20820328347E+01  0.30088658662E+02  0.00000000000E+00 0.  1.
</event>
<event>
 5    1  0.9041381E-005  0.9118800E+02  0.7818608E-02  0.1130116E+00
         25   -1    0    0    0    0  0.00000000000E+00  0.00000000000E+00  0.99999998245E-14  0.12500000000E+03  0.12500000000E+03 0.  0.
        -13    1    3    3    0    0  0.19155309753E+02  0.38328735781E+02 -0.22686489779E+02  0.48484078426E+02  0.10566000000E+00 0. -1.
         23    2    1    0    0    0  0.12999975917E+02 -0.91855964933E+01 -0.23752076690E+02  0.96407418727E+02  0.92069835895E+02 0.  0.
         13    1    3    3    0    0 -0.61553338359E+01 -0.47514332274E+02 -0.10655869101E+01  0.47923340301E+02  0.10566000000E+00 0.  1.
         22    1    1    0    0    0 -0.12999975917E+02  0.91855964933E+01  0.23752076690E+02  0.28592581273E+02  0.00000000000E+00 0.  1.
</event>
<event>
 5    1  0.9041381E-005  0.9118800E+02  0.7818608E-02  0.1130116E+00
         25   -1    0    0    0    0  0.00000000000E+00  0.00000000000E+00  0.99999998245E-14  0.12500000000E+03  0.12500000000E+03 0.  0.
        -13    1    3    3    0    0  0.98375302454E+01 -0.17874659243E+02  0.37091586725E+02  0.42332935336E+02  0.10566000000E+00 0. -1.
         23    2    1    0    0    0 -0.26329237957E+02  0.94406064366E+01  0.91777156296E+01  0.95562196321E+02  0.90915065199E+02 0.  0.
         13    1    3    3    0    0 -0.36166768203E+02  0.27315265680E+02 -0.27913871095E+02  0.53229260984E+02  0.10566000000E+00 0.  1.
         22    1    1    0    0    0  0.26329237957E+02 -0.94406064366E+01 -0.91777156296E+01  0.29437803679E+02  0.00000000000E+00 0.  1.
</event>
<event>
 5    1  0.9041381E-005  0.9118800E+02  0.7818608E-02  0.1130116E+00
         25   -1    0    0    0    0  0.00000000000E+00  0.00000000000E+00  0.99999998245E-14  0.12500000000E+03  0.12500000000E+03 0.  0.
        -13    1    3    3    0    0  0.89958106357E+01  0.41243386405E+02  0.41888485575E+02  0.59469302324E+02  0.10566000000E+00 0.  1.
         23    2    1    0    0    0  0.12996359114E+02  0.94967473445E+01  0.23923773110E+02  0.96165290358E+02  0.91740517709E+02 0.  0.
         13    1    3    3    0    0  0.40005484779E+01 -0.31746639061E+02 -0.17964712465E+02  0.36695988033E+02  0.10566000000E+00 0. -1.
         22    1    1    0    0    0 -0.12996359114E+02 -0.94967473445E+01 -0.23923773110E+02  0.28834709642E+02  0.00000000000E+00 0.  1.
</event>
<event>
 5    1  0.9041381E-005  0.9118800E+02  0.7818608E-02  0.1130116E+00
         25   -1    0    0    0    0  0.00000000000E+00  0.00000000000E+00  0.99999998245E-14  0.12500000000E+03  0.12500000000E+03 0.  0.
        -13    1    3    3    0    0  0.10335965151E+02  0.30133559958E+02  0.17580169022E+02  0.36385946713E+02  0.10566000000E+00 0.  1.
         23    2    1    0    0    0 -0.23796862063E+02 -0.16436838981E+02  0.31063137115E+01  0.95912038493E+02  0.91394800854E+02 0.  0.
         13    1    3    3    0    0 -0.34132827214E+02 -0.46570398939E+02 -0.14473855310E+02  0.59526091780E+02  0.10566000000E+00 0. -1.
         22    1    1    0    0    0  0.23796862063E+02  0.16436838981E+02 -0.31063137115E+01  0.29087961507E+02  0.00000000000E+00 0. -1.
</event>
<event>
 5    1  0.9041381E-005  0.9118800E+02  0.7818608E-02  0.1130116E+00
         25   -1    0    0    0    0  0.00000000000E+00  0.00000000000E+00  0.99999998245E-14  0.12500000000E+03  0.12500000000E+03 0.  0.
        -13    1    3    3    0    0  0.15252079973E+02 -0.63497850045E+01  0.26922963405E+02  0.31588017280E+02  0.10566000000E+00 0.  1.
         23    2    1    0    0    0 -0.86438155302E+01 -0.51946864216E+01 -0.30008672588E+02  0.93342129819E+02  0.87809637596E+02 0.  0.
         13    1    3    3    0    0 -0.23895895503E+02  0.11550985829E+01 -0.56931635993E+02  0.61754112539E+02  0.10566000000E+00 0. -1.
         22    1    1    0    0    0  0.86438155302E+01  0.51946864216E+01  0.30008672588E+02  0.31657870181E+02  0.00000000000E+00 0. -1.
</event>
<event>
 5    1  0.9041381E-005  0.9118800E+02  0.7818608E-02  0.1130116E+00
         25   -1    0    0    0    0  0.00000000000E+00  0.00000000000E+00  0.99999998245E-14  0.12500000000E+03  0.12500000000E+03 0.  0.
        -13    1    3    3    0    0 -0.72564578454E+01  0.39479359903E+01  0.61070593765E+02  0.61626868863E+02  0.10566000000E+00 0. -1.
         23    2    1    0    0    0  0.38455667447E+01  0.36828514062E+01  0.27577067036E+02  0.96913590397E+02  0.92754501774E+02 0.  0.
         13    1    3    3    0    0  0.11102024590E+02 -0.26508458404E+00 -0.33493526729E+02  0.35286721534E+02  0.10566000000E+00 0.  1.
         22    1    1    0    0    0 -0.38455667447E+01 -0.36828514062E+01 -0.27577067036E+02  0.28086409603E+02  0.00000000000E+00 0. -1.
</event>
<event>
 5    1  0.9041381E-005  0.9118800E+02  0.7818608E-02  0.1130116E+00
         25   -1    0    0    0    0  0.00000000000E+00  0.00000000000E+00  0.99999998245E-14  0.12500000000E+03  0.12500000000E+03 0.  0.
        -13    1    3    3    0    0  0.83607976731E+01 -0.28322479500E+02 -0.18069143862E+02  0.34620382821E+02  0.10566000000E+00 0. -1.
         23    2    1    0    0    0 -0.35986498794E+02 -0.14202816648E+02  0.39571016956E+01  0.86110325920E+02  0.76828259645E+02 0.  0.
         13    1    3    3    0    0 -0.44347296467E+02  0.14119662851E+02  0.22026245558E+02  0.51489943099E+02  0.10566000000E+00 0.  1.
         22    1    1    0    0    0  0.35986498794E+02  0.14202816648E+02 -0.39571016956E+01  0.38889674080E+02  0.00000000000E+00 0.  1.
</event>
<event>
 5    1  0.9041381E-005  0.9118800E+02  0.7818608E-02  0.1130116E+00
         25   -1    0    0    0    0  0.00000000000E+00  0.00000000000E+00  0.99999998245E-14  0.12500000000E+03  0.12500000000E+03 0.  0.
        -13    1    3    3    0    0  0.43838735347E+02  0.18942151018E+02  0.29253565553E+02  0.56003768298E+02  0.10566000000E+00 0.  1.
         23    2    1    0    0    0  0.29938324108E+02 -0.24152290086E+01 -0.21676673424E+00  0.94963629224E+02  0.90088330576E+02 0.  0.
         13    1    3    3    0    0 -0.13900411238E+02 -0.21357380027E+02 -0.29470332287E+02  0.38959860926E+02  0.10566000000E+00 0. -1.
         22    1    1    0    0    0 -0.29938324108E+02  0.24152290086E+01  0.21676673424E+00  0.30036370776E+02  0.00000000000E+00 0.  1.
</event>
<event>
 5    1  0.9041381E-005  0.9118800E+02  0.7818608E-02  0.1130116E+00
         25   -1    0    0    0    0  0.00000000000E+00  0.00000000000E+00  0.99999998245E-14  0.12500000000E+03  0.12500000000E+03 0.  0.
        -13    1    3    3    0    0 -0.23749533396E+02  0.15414691934E+01 -0.23096162939E+02  0.33164142841E+02  0.10566000000E+00 0.  1.
         23    2    1    0    0    0  0.18225488706E+02 -0.30098321906E+01  0.22885458325E+02  0.95589598249E+02  0.90952732572E+02 0.  0.
         13    1    3    3    0    0  0.41975022102E+02 -0.45513013840E+01  0.45981621265E+02  0.62425455408E+02  0.10566000000E+00 0. -1.
         22    1    1    0    0    0 -0.18225488706E+02  0.30098321906E+01 -0.22885458325E+02  0.29410401751E+02  0.00000000000E+00 0. -1.
</event>
<event>
 5    1  0.9041381E-005  0.9118800E+02  0.7818608E-02  0.1130116E+00
         25   -1    0    0    0    0  0.00000000000E+00  0.00000000000E+00  0.99999998245E-14  0.12500000000E+03  0.12500000000E+03 0.  0.
        -13    1    3    3    0    0  0.35628229627E+02  0.35126913875E+02 -0.20024202526E+02  0.53891100151E+02  0.10566000000E+00 0.  1.
         23    2    1    0    0    0  0.59330039685E+01  0.26175926674E+02  0.93200550985E+01  0.96587976130E+02  0.92314646901E+02 0.  0.
         13    1    3    3    0    0 -0.29695225658E+02 -0.89509872003E+01  0.29344257625E+02  0.42696875978E+02  0.10566000000E+00 0. -1.
         22    1    1    0    0    0 -0.59330039685E+01 -0.26175926674E+02 -0.93200550985E+01  0.28412023870E+02  0.00000000000E+00 0.  1.
</event>
<event>
 5    1  0.9041381E-005  0.9118800E+02  0.7818608E-02  0.1130116E+00
         25   -1    0    0    0    0  0.00000000000E+00  0.00000000000E+00  0.99999998245E-14  0.12500000000E+03  0.12500000000E+03 0.  0.
        -13    1    3    3    0    0  0.13843419566E+02  0.31029690954E+02 -0.10346129930E+02  0.35518101787E+02  0.10566000000E+00 0. -1.
         23    2    1    0    0    0  0.92610371455E+01 -0.27982935981E+02 -0.63842864216E+01  0.94840911349E+02  0.89917894978E+02 0.  0.
         13    1    3    3    0    0 -0.45823824209E+01 -0.59012626935E+02  0.39618435081E+01  0.59322809563E+02  0.10566000000E+00 0.  1.
         22    1    1    0    0    0 -0.92610371455E+01  0.27982935981E+02  0.63842864216E+01  0.30159088651E+02  0.00000000000E+00 0.  1.
</event>
<event>
 5    1  0.9041381E-005  0.9118800E+02  0.7818608E-02  0.1130116E+00
         25   -1    0    0    0    0  0.00000000000E+00  0.00000000000E+00  0.99999998245E-14  0.12500000000E+03  0.12500000000E+03 0.  0.
        -13    1    3    3    0    0  0.13986703726E+02  0.12754794041E+02  0.47955527649E+02  0.51556342464E+02  0.10566000000E+00 0.  1.
         23    2    1    0    0    0  0.18339724464E+02  0.24495538516E+02  0.80812798745E+01  0.93350608458E+02  0.87821706397E+02 0.  0.
         13    1    3    3    0    0  0.43530207384E+01  0.11740744474E+02 -0.39874247774E+02  0.41794265994E+02  0.10566000000E+00 0. -1.
         22    1    1    0    0    0 -0.18339724464E+02 -0.24495538516E+02 -0.80812798745E+01  0.31649391542E+02  0.00000000000E+00 0.  1.
</event>
<event>
 5    1  0.9041381E-005  0.9118800E+02  0.7818608E-02  0.1130116E+00
         25   -1    0    0    0    0  0.00000000000E+00  0.00000000000E+00  0.99999998245E-14  0.12500000000E+03  0.12500000000E+03 0.  0.
        -13    1    3    3    0    0  0.32821754487E+02 -0.60310009051E+01  0.36524228075E+02  0.49473942031E+02  0.10566000000E+00 0. -1.
         23    2    1    0    0    0  0.26826515983E+02  0.11111073755E+02 -0.56742304971E+01  0.95414280278E+02  0.90711466031E+02 0.  0.
         13    1    3    3    0    0 -0.59952385049E+01  0.17142074660E+02 -0.42198458572E+02  0.45940338247E+02  0.10566000000E+00 0.  1.
         22    1    1    0    0    0 -0.26826515983E+02 -0.11111073755E+02  0.56742304971E+01  0.29585719722E+02  0.00000000000E+00 0.  1.
</event>
<event>
 5    1  0.9041381E-005  0.9118800E+02  0.7818608E-02  0.1130116E+00
         25   -1    0    0    0    0  0.00000000000E+00  0.00000000000E+00  0.99999998245E-14  0.12500000000E+03  0.12500000000E+03 0.  0.
        -13    1    3    3    0    0  0.32275411511E+02 -0.14004650676E+02  0.56391771387E+01  0.35632062971E+02  0.10566000000E+00 0. -1.
         23    2    1    0    0    0 -0.26889403720E+02 -0.10917805605E+02  0.79068439958E+01  0.94920826247E+02  0.90028920697E+02 0.  0.
         13    1    3    3    0    0 -0.59164815231E+02  0.30868450716E+01  0.22676668571E+01  0.59288763276E+02  0.10566000000E+00 0.  1.
         22    1    1    0    0    0  0.26889403720E+02  0.10917805605E+02 -0.79068439958E+01  0.30079173753E+02  0.00000000000E+00 0.  1.
</event>
<event>
 5    1  0.9041381E-005  0.9118800E+02  0.7818608E-02  0.1130116E+00
         25   -1    0    0    0    0  0.00000000000E+00  0.00000000000E+00  0.99999998245E-14  0.12500000000E+03  0.12500000000E+03 0.  0.
        -13    1    3    3    0    0  0.26854110149E+02  0.58995277324E+01 -0.27988821295E+02  0.39234333700E+02  0.10566000000E+00 0. -1.
         23    2    1    0    0    0  0.87771524548E+00 -0.29410423498E+02  0.63264545158E+01  0.94904029819E+02  0.90005596797E+02 0.  0.
         13    1    3    3    0    0 -0.25976394904E+02 -0.35309951230E+02  0.34315275810E+02  0.55669696120E+02  0.10566000000E+00 0.  1.
         22    1    1    0    0    0 -0.87771524548E+00  0.29410423498E+02 -0.63264545158E+01  0.30095970181E+02  0.00000000000E+00 0.  1.
</event>
<event>
 5    1  0.9041381E-005  0.9118800E+02  0.7818608E-02  0.1130116E+00
         25   -1    0    0    0    0  0.00000000000E+00  0.00000000000E+00  0.99999998245E-14  0.12500000000E+03  0.12500000000E+03 0.  0.
        -13    1    3    3    0    0  0.55018721437E+02  0.28411768298E+02  0.27589594425E+00  0.61922334977E+02  0.10566000000E+00 0. -1.
         23    2    1    0    0    0  0.24372652367E+02  0.15104523684E+02 -0.54301545879E+01  0.95816795961E+02  0.91264445378E+02 0.  0.
         13    1    3    3    0    0 -0.30646069070E+02 -0.13307244614E+02 -0.57060505322E+01  0.33894460984E+02  0.10566000000E+00 0.  1.
         22    1    1    0    0    0 -0.24372652367E+02 -0.15104523684E+02  0.54301545879E+01  0.29183204039E+02  0.00000000000E+00 0. -1.
</event>
<event>
 5    1  0.9041381E-005  0.9118800E+02  0.7818608E-02  0.1130116E+00
         25   -1    0    0    0    0  0.00000000000E+00  0.00000000000E+00  0.99999998245E-14  0.12500000000E+03  0.12500000000E+03 0.  0.
        -13    1    3    3    0    0  0.40078439649E+02 -0.36835402394E+02 -0.40592563855E+01  0.54585867408E+02  0.10566000000E+00 0. -1.
         23    2    1    0    0    0  0.15510283050E+02 -0.12639161968E+02  0.20060705638E+02  0.96667170875E+02  0.92421819495E+02 0.  0.
         13    1    3    3    0    0 -0.24568156599E+02  0.24196240426E+02  0.24119962023E+02  0.42081303467E+02  0.10566000000E+00 0.  1.
         22    1    1    0    0    0 -0.15510283050E+02  0.12639161968E+02 -0.20060705638E+02  0.28332829125E+02  0.00000000000E+00 0. -1.
</event>
<event>
 5    1  0.9041381E-005  0.9118800E+02  0.7818608E-02  0.1130116E+00
         25   -1    0    0    0    0  0.00000000000E+00  0.00000000000E+00  0.99999998245E-14  0.12500000000E+03  0.12500000000E+03 0.  0.
        -13    1    3    3    0    0  0.53373795423E+01 -0.41800232179E+02  0.15523989518E+02  0.44908267003E+02  0.10566000000E+00 0. -1.
         23    2    1    0    0    0 -0.27280409225E+02 -0.80144809325E+01 -0.49499888360E+01  0.96139039836E+02  0.91704743383E+02 0.  0.
         13    1    3    3    0    0 -0.32617788768E+02  0.33785751247E+02 -0.20473978354E+02  0.51230772833E+02  0.10566000000E+00 0.  1.
         22    1    1    0    0    0  0.27280409225E+02  0.80144809325E+01  0.49499888360E+01  0.28860960164E+02  0.00000000000E+00 0. -1.
</event>
<event>
 5    1  0.9041381E-005  0.9118800E+02  0.7818608E-02  0.1130116E+00
         25   -1    0    0    0    0  0.00000000000E+00  0.00000000000E+00  0.99999998245E-14  0.12500000000E+03  0.12500000000E+03 0.  0.
        -13    1    3    3    0    0  0.19999862562E+02 -0.47686943795E+02 -0.23267455179E+02  0.56704715374E+02  0.10566000000E+00 0.  1.
         23    2    1    0    0    0  0.12459042805E+02 -0.92183132326E+01 -0.24596112928E+02  0.95928126692E+02  0.91416801918E+02 0.  0.
         13    1    3    3    0    0 -0.75408197570E+01  0.38468630563E+02 -0.13286577489E+01  0.39223411318E+02  0.10566000000E+00 0. -1.
         22    1    1    0    0    0 -0.12459042805E+02  0.92183132326E+01  0.24596112928E+02  0.29071873308E+02  0.00000000000E+00 0.  1.
</event>
<event>
 5    1  0.9041381E-005  0.9118800E+02  0.7818608E-02  0.1130116E+00
         25   -1    0    0    0    0  0.00000000000E+00  0.00000000000E+00  0.99999998245E-14  0.12500000000E+03  0.12500000000E+03 0.  0.
        -13    1    3    3    0    0  0.25633095771E+02 -0.28933577756E+02 -0.35869947400E+02  0.52733972077E+02  0.10566000000E+00 0.  1.
         23    2    1    0    0    0  0.18308595804E+02 -0.31592774761E+02 -0.99189385388E+00  0.88472038781E+02  0.80579213791E+02 0.  0.
         13    1    3    3    0    0 -0.73244999670E+01 -0.26591970056E+01  0.34878053546E+02  0.35738066703E+02  0.10566000000E+00 0. -1.
         22    1    1    0    0    0 -0.18308595804E+02  0.31592774761E+02  0.99189385388E+00  0.36527961219E+02  0.00000000000E+00 0.  1.
</event>
<event>
 5    1  0.9041381E-005  0.9118800E+02  0.7818608E-02  0.1130116E+00
         25   -1    0    0    0    0  0.00000000000E+00  0.00000000000E+00  0.99999998245E-14  0.12500000000E+03  0.12500000000E+03 0.  0.
        -13    1    3    3    0    0 -0.37698275069E+02 -0.37586786080E+02 -0.38101291077E+01  0.53370916039E+02  0.10566000000E+00 0.  1.
         23    2    1    0    0    0 -0.67740528563E+01 -0.19793983335E+02  0.19833533665E+02  0.96171912550E+02  0.91749540258E+02 0.  0.
         13    1    3    3    0    0  0.30924222213E+02  0.17792802745E+02  0.23643662773E+02  0.42800996511E+02  0.10566000000E+00 0. -1.
         22    1    1    0    0    0  0.67740528563E+01  0.19793983335E+02 -0.19833533665E+02  0.28828087450E+02  0.00000000000E+00 0.  1.
</event>
<event>
 5    1  0.9041381E-005  0.9118800E+02  0.7818608E-02  0.1130116E+00
         25   -1    0    0    0    0  0.00000000000E+00  0.00000000000E+00  0.99999998245E-14  0.12500000000E+03  0.12500000000E+03 0.  0.
        -13    1    3    3    0    0  0.93433345067E+01  0.19016169904E+02  0.35700364949E+02  0.41514332935E+02  0.10566000000E+00 0. -1.
         23    2    1    0    0    0 -0.11689934535E+02  0.22310984495E+02 -0.14425164963E+02  0.95973805231E+02  0.91479239763E+02 0.  0.
         13    1    3    3    0    0 -0.21033269042E+02  0.32948145907E+01 -0.50125529912E+02  0.54459472296E+02  0.10566000000E+00 0.  1.
         22    1    1    0    0    0  0.11689934535E+02 -0.22310984495E+02  0.14425164963E+02  0.29026194769E+02  0.00000000000E+00 0.  1.
</event>
<event>
 5    1  0.9041381E-005  0.9118800E+02  0.7818608E-02  0.1130116E+00
         25   -1    0    0    0    0  0.00000000000E+00  0.00000000000E+00  0.99999998245E-14  0.12500000000E+03  0.12500000000E+03 0.  0.
        -13    1    3    3    0    0  0.41063751038E+01  0.43354975396E+02 -0.83024772188E+01  0.44333491855E+02  0.10566000000E+00 0.  1.
         23    2    1    0    0    0  0.22059048656E+02 -0.24788316444E+01 -0.20212707817E+02  0.94978344629E+02  0.90108746286E+02 0.  0.
         13    1    3    3    0    0  0.17952673553E+02 -0.45833807041E+02 -0.11910230598E+02  0.50644852773E+02  0.10566000000E+00 0. -1.
         22    1    1    0    0    0 -0.22059048656E+02  0.24788316444E+01  0.20212707817E+02  0.30021655371E+02  0.00000000000E+00 0.  1.
</event>
<event>
 5    1  0.9041381E-005  0.9118800E+02  0.7818608E-02  0.1130116E+00
         25   -1    0    0    0    0  0.00000000000E+00  0.00000000000E+00  0.99999998245E-14  0.12500000000E+03  0.12500000000E+03 0.  0.
        -13    1    3    3    0    0 -0.46400877096E+02 -0.10967116329E+01  0.20823968113E+02  0.50871337546E+02  0.10566000000E+00 0.  1.
         23    2    1    0    0    0 -0.19108161545E+02  0.14989891237E+02 -0.13197627558E+02  0.97359521529E+02  0.93353523673E+02 0.  0.
         13    1    3    3    0    0  0.27292715551E+02  0.16086602870E+02 -0.34021595671E+02  0.46488183983E+02  0.10566000000E+00 0. -1.
         22    1    1    0    0    0  0.19108161545E+02 -0.14989891237E+02  0.13197627558E+02  0.27640478471E+02  0.00000000000E+00 0.  1.
</event>
<event>
 5    1  0.9041381E-005  0.9118800E+02  0.7818608E-02  0.1130116E+00
         25   -1    0    0    0    0  0.00000000000E+00  0.00000000000E+00  0.99999998245E-14  0.12500000000E+03  0.12500000000E+03 0.  0.
        -13    1    3    3    0    0 -0.17677170918E+02  0.15883301777E+02 -0.27350930642E+02  0.36233219813E+02  0.10566000000E+00 0. -1.
         23    2    1    0    0    0  0.27183533393E+02 -0.53946259133E+01  0.67613202648E+01  0.96473487276E+02  0.92159491204E+02 0.  0.
         13    1    3    3    0    0  0.44860704311E+02 -0.21277927690E+02  0.34112250906E+02  0.60240267463E+02  0.10566000000E+00 0.  1.
         22    1    1    0    0    0 -0.27183533393E+02  0.53946259133E+01 -0.67613202648E+01  0.28526512724E+02  0.00000000000E+00 0.  1.
</event>
<event>
 5    1  0.9041381E-005  0.9118800E+02  0.7818608E-02  0.1130116E+00
         25   -1    0    0    0    0  0.00000000000E+00  0.00000000000E+00  0.99999998245E-14  0.12500000000E+03  0.12500000000E+03 0.  0.
        -13    1    3    3    0    0  0.11826812378E+02  0.22088179899E+02  0.28629479322E+02  0.38044965929E+02  0.10566000000E+00 0.  1.
         23    2    1    0    0    0 -0.17844298441E+02 -0.20976991483E+02  0.43846629660E+00  0.97456481503E+02  0.93483262544E+02 0.  0.
         13    1    3    3    0    0 -0.29671110818E+02 -0.43065171382E+02 -0.28191013025E+02  0.59411515574E+02  0.10566000000E+00 0. -1.
         22    1    1    0    0    0  0.17844298441E+02  0.20976991483E+02 -0.43846629660E+00  0.27543518497E+02  0.00000000000E+00 0. -1.
</event>
<event>
 5    1  0.9041381E-005  0.9118800E+02  0.7818608E-02  0.1130116E+00
         25   -1    0    0    0    0  0.00000000000E+00  0.00000000000E+00  0.99999998245E-14  0.12500000000E+03  0.12500000000E+03 0.  0.
        -13    1    3    3    0    0  0.29518695025E+00 -0.31384959646E+02 -0.47533671492E+01  0.31744424559E+02  0.10566000000E+00 0. -1.
         23    2    1    0    0    0 -0.17669160117E+02  0.26773936959E+02 -0.44401348077E+01  0.92615471029E+02  0.86769048383E+02 0.  0.
         13    1    3    3    0    0 -0.17964347067E+02  0.58158896605E+02  0.31323234148E+00  0.60871046470E+02  0.10566000000E+00 0.  1.
         22    1    1    0    0    0  0.17669160117E+02 -0.26773936959E+02  0.44401348077E+01  0.32384528971E+02  0.00000000000E+00 0.  1.
</event>
<event>
 5    1  0.9041381E-005  0.9118800E+02  0.7818608E-02  0.1130116E+00
         25   -1    0    0    0    0  0.00000000000E+00  0.00000000000E+00  0.99999998245E-14  0.12500000000E+03  0.12500000000E+03 0.  0.
        -13    1    3    3    0    0  0.22170697816E+02 -0.22425644918E+02  0.17659610559E+02  0.36143082336E+02  0.10566000000E+00 0.  1.
         23    2    1    0    0    0 -0.21619146246E+02 -0.10054590129E+02 -0.18948400999E+02  0.94544718562E+02  0.89505193371E+02 0.  0.
         13    1    3    3    0    0 -0.43789844062E+02  0.12371054788E+02 -0.36608011558E+02  0.58401636226E+02  0.10566000000E+00 0. -1.
         22    1    1    0    0    0  0.21619146246E+02  0.10054590129E+02  0.18948400999E+02  0.30455281438E+02  0.00000000000E+00 0. -1.
</event>
<event>
 5    1  0.9041381E-005  0.9118800E+02  0.7818608E-02  0.1130116E+00
         25   -1    0    0    0    0  0.00000000000E+00  0.00000000000E+00  0.99999998245E-14  0.12500000000E+03  0.12500000000E+03 0.  0.
        -13    1    3    3    0    0  0.37184852729E+02 -0.39211535636E+02 -0.20795761075E+02  0.57902786134E+02  0.10566000000E+00 0. -1.
         23    2    1    0    0    0  0.25806063203E+02 -0.77271975874E+01  0.13262100655E+01  0.98029250776E+02  0.94246022165E+02 0.  0.
         13    1    3    3    0    0 -0.11378789526E+02  0.31484338049E+02  0.22121971141E+02  0.40126464641E+02  0.10566000000E+00 0.  1.
         22    1    1    0    0    0 -0.25806063203E+02  0.77271975874E+01 -0.13262100655E+01  0.26970749224E+02  0.00000000000E+00 0. -1.
</event>
<event>
 5    1  0.9041381E-005  0.9118800E+02  0.7818608E-02  0.1130116E+00
         25   -1    0    0    0    0  0.00000000000E+00  0.00000000000E+00  0.99999998245E-14  0.12500000000E+03  0.12500000000E+03 0.  0.
        -13    1    3    3    0    0  0.42451113439E+02 -0.16939973629E+02  0.55449372138E+01  0.46041472951E+02  0.10566000000E+00 0.  1.
         23    2    1    0    0    0  0.14674651095E+01 -0.15783734378E+02 -0.23759797079E+02  0.96437652723E+02  0.92110874389E+02 0.  0.
         13    1    3    3    0    0 -0.40983648330E+02  0.11562392517E+01 -0.29304734292E+02  0.50396179772E+02  0.10566000000E+00 0. -1.
         22    1    1    0    0    0 -0.14674651095E+01  0.15783734378E+02  0.23759797079E+02  0.28562347277E+02  0.00000000000E+00 0. -1.
</event>
<event>
 5    1  0.9041381E-005  0.9118800E+02  0.7818608E-02  0.1130116E+00
         25   -1    0    0    0    0  0.00000000000E+00  0.00000000000E+00  0.99999998245E-14  0.12500000000E+03  0.12500000000E+03 0.  0.
        -13    1    3    3    0    0 -0.53285194197E+02 -0.21931975164E+02 -0.17002781381E+02  0.60078525231E+02  0.10566000000E+00 0.  1.
         23    2    1    0    0    0 -0.18457285672E+02 -0.12347751195E+02 -0.18299965098E+02  0.96224540376E+02  0.91821212659E+02 0.  0.
         13    1    3    3    0    0  0.34827908525E+02  0.95842239686E+01 -0.12971837172E+01  0.36146015146E+02  0.10566000000E+00 0. -1.
         22    1    1    0    0    0  0.18457285672E+02  0.12347751195E+02  0.18299965098E+02  0.28775459624E+02  0.00000000000E+00 0.  1.
</event>
<event>
 5    1  0.9041381E-005  0.9118800E+02  0.7818608E-02  0.1130116E+00
         25   -1    0    0    0    0  0.00000000000E+00  0.00000000000E+00  0.99999998245E-14  0.12500000000E+03  0.12500000000E+03 0.  0.
        -13    1    3    3    0    0  0.50797788900E+02  0.48708769529E+01 -0.10973927273E+02  0.52197500354E+02  0.10566000000E+00 0.  1.
         23    2    1    0    0    0  0.12876322882E+02 -0.19980540497E+02 -0.13602764439E+02  0.97612833482E+02  0.93692093426E+02 0.  0.
         13    1    3    3    0    0 -0.37921466018E+02 -0.24851417450E+02 -0.26288371660E+01  0.45415333128E+02  0.10566000000E+00 0. -1.
         22    1    1    0    0    0 -0.12876322882E+02  0.19980540497E+02  0.13602764439E+02  0.27387166518E+02  0.00000000000E+00 0.  1.
</event>
<event>
 5    1  0.9041381E-005  0.9118800E+02  0.7818608E-02  0.1130116E+00
         25   -1    0    0    0    0  0.00000000000E+00  0.00000000000E+00  0.99999998245E-14  0.12500000000E+03  0.12500000000E+03 0.  0.
        -13    1    3    3    0    0  0.31091532978E+02 -0.11910844594E+02 -0.42605566126E+02  0.54072146904E+02  0.10566000000E+00 0.  1.
         23    2    1    0    0    0  0.27715594086E+02  0.77664916544E+01 -0.62545021586E+01  0.95545096412E+02  0.90891551329E+02 0.  0.
         13    1    3    3    0    0 -0.33759388922E+01  0.19677336249E+02  0.36351063968E+02  0.41472949508E+02  0.10566000000E+00 0. -1.
         22    1    1    0    0    0 -0.27715594086E+02 -0.77664916544E+01  0.62545021586E+01  0.29454903588E+02  0.00000000000E+00 0.  1.
</event>
<event>
 5    1  0.9041381E-005  0.9118800E+02  0.7818608E-02  0.1130116E+00
         25   -1    0    0    0    0  0.00000000000E+00  0.00000000000E+00  0.99999998245E-14  0.12500000000E+03  0.12500000000E+03 0.  0.
        -13    1    3    3    0    0 -0.20736360728E+02 -0.20120061977E+01 -0.44785723363E+02  0.49394503808E+02  0.10566000000E+00 0. -1.
         23    2    1    0    0    0 -0.21824853433E+02  0.14359986883E+02  0.18269153768E+01  0.98810859684E+02  0.95277042991E+02 0.  0.
         13    1    3    3    0    0 -0.10884927052E+01  0.16371993081E+02  0.46612638740E+02  0.49416355877E+02  0.10566000000E+00 0.  1.
         22    1    1    0    0    0  0.21824853433E+02 -0.14359986883E+02 -0.18269153768E+01  0.26189140316E+02  0.00000000000E+00 0. -1.
</event>
<event>
 5    1  0.9041381E-005  0.9118800E+02  0.7818608E-02  0.1130116E+00
         25   -1    0    0    0    0  0.00000000000E+00  0.00000000000E+00  0.99999998245E-14  0.12500000000E+03  0.12500000000E+03 0.  0.
        -13    1    3    3    0    0  0.30615692213E+02  0.34771777497E+00  0.30550010043E+02  0.43252234567E+02  0.10566000000E+00 0.  1.
         23    2    1    0    0    0 -0.14676644487E+02  0.20829412442E+02  0.15440439167E+02  0.95206116773E+02  0.90424162662E+02 0.  0.
         13    1    3    3    0    0 -0.45292336700E+02  0.20481694667E+02 -0.15109570876E+02  0.51953882206E+02  0.10566000000E+00 0. -1.
         22    1    1    0    0    0  0.14676644487E+02 -0.20829412442E+02 -0.15440439167E+02  0.29793883227E+02  0.00000000000E+00 0.  1.
</event>
<event>
 5    1  0.9041381E-005  0.9118800E+02  0.7818608E-02  0.1130116E+00
         25   -1    0    0    0    0  0.00000000000E+00  0.00000000000E+00  0.99999998245E-14  0.12500000000E+03  0.12500000000E+03 0.  0.
        -13    1    3    3    0    0  0.38820208467E+01 -0.42390237021E+02 -0.33049008590E+02  0.53891097719E+02  0.10566000000E+00 0.  1.
         23    2    1    0    0    0  0.23746139864E+02 -0.22528632872E+02 -0.85374069458E+01  0.91172411039E+02  0.84664648820E+02 0.  0.
         13    1    3    3    0    0  0.19864119017E+02  0.19861604149E+02  0.24511601644E+02  0.37281313320E+02  0.10566000000E+00 0. -1.
         22    1    1    0    0    0 -0.23746139864E+02  0.22528632872E+02  0.85374069458E+01  0.33827588961E+02  0.00000000000E+00 0.  1.
</event>
<event>
 5    1  0.9041381E-005  0.9118800E+02  0.7818608E-02  0.1130116E+00
         25   -1    0    0    0    0  0.00000000000E+00  0.00000000000E+00  0.99999998245E-14  0.12500000000E+03  0.12500000000E+03 0.  0.
        -13    1    3    3    0    0  0.33933558919E+02  0.13020010772E+02  0.38309848768E+01  0.36547157353E+02  0.10566000000E+00 0.  1.
         23    2    1    0    0    0 -0.10013612917E+02 -0.27076164878E+02  0.19140019889E+01  0.96068104940E+02  0.91608003116E+02 0.  0.
         13    1    3    3    0    0 -0.43947171836E+02 -0.40096175651E+02 -0.19169828879E+01  0.59520947587E+02  0.10566000000E+00 0. -1.
         22    1    1    0    0    0  0.10013612917E+02  0.27076164878E+02 -0.19140019889E+01  0.28931895060E+02  0.00000000000E+00 0. -1.
</event>
<event>
 5    1  0.9041381E-005  0.9118800E+02  0.7818608E-02  0.1130116E+00
         25   -1    0    0    0    0  0.00000000000E+00  0.00000000000E+00  0.99999998245E-14  0.12500000000E+03  0.12500000000E+03 0.  0.
        -13    1    3    3    0    0  0.25306064877E+02 -0.38450461581E+02  0.42074047716E+02  0.62362421141E+02  0.10566000000E+00 0.  1.
         23    2    1    0    0    0  0.12952900228E+02 -0.16136026739E+02  0.21792307398E+02  0.94949149015E+02  0.90068236652E+02 0.  0.
         13    1    3    3    0    0 -0.12353164649E+02  0.22314434842E+02 -0.20281740318E+02  0.32586727874E+02  0.10566000000E+00 0. -1.
         22    1    1    0    0    0 -0.12952900228E+02  0.16136026739E+02 -0.21792307398E+02  0.30050850985E+02  0.00000000000E+00 0.  1.
</event>
<event>
 5    1  0.9041381E-005  0.9118800E+02  0.7818608E-02  0.1130116E+00
         25   -1    0    0    0    0  0.00000000000E+00  0.00000000000E+00  0.99999998245E-14  0.12500000000E+03  0.12500000000E+03 0.  0.
        -13    1    3    3    0    0  0.49940368710E+01  0.12631118269E+02 -0.43864088018E+02  0.45919004069E+02  0.10566000000E+00 0.  1.
         23    2    1    0    0    0 -0.27780985132E+02 -0.24305277784E+01 -0.10059376720E+02  0.95354061658E+02  0.90628447049E+02 0.  0.
         13    1    3    3    0    0 -0.32775022003E+02 -0.15061646047E+02  0.33804711298E+02  0.49435057589E+02  0.10566000000E+00 0. -1.
         22    1    1    0    0    0  0.27780985132E+02  0.24305277784E+01  0.10059376720E+02  0.29645938342E+02  0.00000000000E+00 0.  1.
</event>
<event>
 5    1  0.9041381E-005  0.9118800E+02  0.7818608E-02  0.1130116E+00
         25   -1    0    0    0    0  0.00000000000E+00  0.00000000000E+00  0.99999998245E-14  0.12500000000E+03  0.12500000000E+03 0.  0.
        -13    1    3    3    0    0  0.18657385995E+02  0.25776409413E+02  0.26158741333E+02  0.41192380929E+02  0.10566000000E+00 0.  1.
         23    2    1    0    0    0 -0.96974315742E+01 -0.20099604139E+02  0.19180183225E+02  0.95573588492E+02  0.90930727057E+02 0.  0.
         13    1    3    3    0    0 -0.28354817569E+02 -0.45876013552E+02 -0.69785581087E+01  0.54381207564E+02  0.10566000000E+00 0. -1.
         22    1    1    0    0    0  0.96974315742E+01  0.20099604139E+02 -0.19180183225E+02  0.29426411508E+02  0.00000000000E+00 0.  1.
</event>
<event>
 5    1  0.9041381E-005  0.9118800E+02  0.7818608E-02  0.1130116E+00
         25   -1    0    0    0    0  0.00000000000E+00  0.00000000000E+00  0.99999998245E-14  0.12500000000E+03  0.12500000000E+03 0.  0.
        -13    1    3    3    0    0  0.24054125969E+02 -0.20172129768E+02 -0.41767297602E+02  0.52249728310E+02  0.10566000000E+00 0.  1.
         23    2    1    0    0    0 -0.56094957938E+00 -0.29741954180E+02 -0.98774254134E+01  0.93655749560E+02  0.88254956745E+02 0.  0.
         13    1    3    3    0    0 -0.24615075548E+02 -0.95698244114E+01  0.31889872188E+02  0.41406021250E+02  0.10566000000E+00 0. -1.
         22    1    1    0    0    0  0.56094957938E+00  0.29741954180E+02  0.98774254134E+01  0.31344250440E+02  0.00000000000E+00 0.  1.
</event>
<event>
 5    1  0.9041381E-005  0.9118800E+02  0.7818608E-02  0.1130116E+00
         25   -1    0    0    0    0  0.00000000000E+00  0.00000000000E+00  0.99999998245E-14  0.12500000000E+03  0.12500000000E+03 0.  0.
        -13    1    3    3    0    0  0.25285838147E+02  0.26909832311E+02 -0.15533018602E+02  0.40059936554E+02  0.10566000000E+00 0.  1.
         23    2    1    0    0    0 -0.27207936051E+01 -0.18889908694E+02 -0.23924277035E+02  0.94396039473E+02  0.89297311651E+02 0.  0.
         13    1    3    3    0    0 -0.28006631752E+02 -0.45799741005E+02 -0.83912584329E+01  0.54336102918E+02  0.10566000000E+00 0. -1.
         22    1    1    0    0    0  0.27207936051E+01  0.18889908694E+02  0.23924277035E+02  0.30603960527E+02  0.00000000000E+00 0. -1.
</event>
<event>
 5    1  0.9041381E-005  0.9118800E+02  0.7818608E-02  0.1130116E+00
         25   -1    0    0    0    0  0.00000000000E+00  0.00000000000E+00  0.99999998245E-14  0.12500000000E+03  0.12500000000E+03 0.  0.
        -13    1    3    3    0    0  0.14419265816E+02 -0.22597363863E+02  0.55566609196E+02  0.61694532187E+02  0.10566000000E+00 0.  1.
         23    2    1    0    0    0  0.83480052647E+01 -0.16763261452E+02  0.22957846819E+02  0.95373004591E+02  0.90654570473E+02 0.  0.
         13    1    3    3    0    0 -0.60712605509E+01  0.58341024113E+01 -0.32608762377E+02  0.33678472403E+02  0.10566000000E+00 0. -1.
         22    1    1    0    0    0 -0.83480052647E+01  0.16763261452E+02 -0.22957846819E+02  0.29626995409E+02  0.00000000000E+00 0.  1.
</event>
<event>
 5    1  0.9041381E-005  0.9118800E+02  0.7818608E-02  0.1130116E+00
         25   -1    0    0    0    0  0.00000000000E+00  0.00000000000E+00  0.99999998245E-14  0.12500000000E+03  0.12500000000E+03 0.  0.
        -13    1    3    3    0    0 -0.18461072033E+02  0.24866424552E+02 -0.53719914019E+02  0.62007988009E+02  0.10566000000E+00 0.  1.
         23    2    1    0    0    0 -0.13231905565E+02  0.11927754869E+02 -0.21789156214E+02  0.96855338168E+02  0.92675965288E+02 0.  0.
         13    1    3    3    0    0  0.52291664674E+01 -0.12938669683E+02  0.31930757805E+02  0.34847350160E+02  0.10566000000E+00 0. -1.
         22    1    1    0    0    0  0.13231905565E+02 -0.11927754869E+02  0.21789156214E+02  0.28144661832E+02  0.00000000000E+00 0.  1.
</event>
<event>
 5    1  0.9041381E-005  0.9118800E+02  0.7818608E-02  0.1130116E+00
         25   -1    0    0    0    0  0.00000000000E+00  0.00000000000E+00  0.99999998245E-14  0.12500000000E+03  0.12500000000E+03 0.  0.
        -13    1    3    3    0    0 -0.48556986007E+02  0.39931105677E+01 -0.27541136446E+02  0.55966518409E+02  0.10566000000E+00 0.  1.
         23    2    1    0    0    0 -0.28276390503E+02  0.76930504177E+01  0.57625131927E+01  0.95134571108E+02  0.90325205657E+02 0.  0.
         13    1    3    3    0    0  0.20280595504E+02  0.36999398500E+01  0.33303649638E+02  0.39168052698E+02  0.10566000000E+00 0. -1.
         22    1    1    0    0    0  0.28276390503E+02 -0.76930504177E+01 -0.57625131927E+01  0.29865428892E+02  0.00000000000E+00 0.  1.
</event>
<event>
 5    1  0.9041381E-005  0.9118800E+02  0.7818608E-02  0.1130116E+00
         25   -1    0    0    0    0  0.00000000000E+00  0.00000000000E+00  0.99999998245E-14  0.12500000000E+03  0.12500000000E+03 0.  0.
        -13    1    3    3    0    0 -0.41091678925E+02  0.30192725183E+02  0.14279893978E+02  0.52953312143E+02  0.10566000000E+00 0. -1.
         23    2    1    0    0    0 -0.18232994590E+01  0.30060753233E+02 -0.41398199417E+00  0.94881157277E+02  0.89973825746E+02 0.  0.
         13    1    3    3    0    0  0.39268379466E+02 -0.13197194967E+00 -0.14693875972E+02  0.41927845134E+02  0.10566000000E+00 0.  1.
         22    1    1    0    0    0  0.18232994590E+01 -0.30060753233E+02  0.41398199417E+00  0.30118842723E+02  0.00000000000E+00 0. -1.
</event>
<event>
 5    1  0.9041381E-005  0.9118800E+02  0.7818608E-02  0.1130116E+00
         25   -1    0    0    0    0  0.00000000000E+00  0.00000000000E+00  0.99999998245E-14  0.12500000000E+03  0.12500000000E+03 0.  0.
        -13    1    3    3    0    0  0.99930885692E+01 -0.23076297664E+02  0.36231419054E+02  0.44103335744E+02  0.10566000000E+00 0.  1.
         23    2    1    0    0    0 -0.20010222600E+02  0.10694484033E+02 -0.46895514542E+00  0.10230636838E+03  0.99757666847E+02 0.  0.
         13    1    3    3    0    0 -0.30003311169E+02  0.33770781697E+02 -0.36700374199E+02  0.58203032635E+02  0.10566000000E+00 0. -1.
         22    1    1    0    0    0  0.20010222600E+02 -0.10694484033E+02  0.46895514542E+00  0.22693631621E+02  0.00000000000E+00 0. -1.
</event>
<event>
 5    1  0.9041381E-005  0.9118800E+02  0.7818608E-02  0.1130116E+00
         25   -1    0    0    0    0  0.00000000000E+00  0.00000000000E+00  0.99999998245E-14  0.12500000000E+03  0.12500000000E+03 0.  0.
        -13    1    3    3    0    0 -0.22627845576E+02 -0.20327394393E+02  0.21944914777E+02  0.37507503340E+02  0.10566000000E+00 0. -1.
         23    2    1    0    0    0 -0.94440109536E+01  0.12795640430E+02 -0.24336612168E+02  0.95927875057E+02  0.91416457841E+02 0.  0.
         13    1    3    3    0    0  0.13183834623E+02  0.33123034822E+02 -0.46281526944E+02  0.58420371717E+02  0.10566000000E+00 0.  1.
         22    1    1    0    0    0  0.94440109536E+01 -0.12795640430E+02  0.24336612168E+02  0.29072124943E+02  0.00000000000E+00 0.  1.
</event>
<event>
 5    1  0.9041381E-005  0.9118800E+02  0.7818608E-02  0.1130116E+00
         25   -1    0    0    0    0  0.00000000000E+00  0.00000000000E+00  0.99999998245E-14  0.12500000000E+03  0.12500000000E+03 0.  0.
        -13    1    3    3    0    0  0.42620146746E+02 -0.65157714528E+01  0.94105460741E+01  0.44130507902E+02  0.10566000000E+00 0. -1.
         23    2    1    0    0    0  0.18661657028E+01  0.26220339222E+02  0.11180847051E+02  0.96434284463E+02  0.92106303345E+02 0.  0.
         13    1    3    3    0    0 -0.40753981043E+02  0.32736110675E+02  0.17703009774E+01  0.52303776561E+02  0.10566000000E+00 0.  1.
         22    1    1    0    0    0 -0.18661657028E+01 -0.26220339222E+02 -0.11180847051E+02  0.28565715537E+02  0.00000000000E+00 0. -1.
</event>
<event>
 5    1  0.9041381E-005  0.9118800E+02  0.7818608E-02  0.1130116E+00
         25   -1    0    0    0    0  0.00000000000E+00  0.00000000000E+00  0.99999998245E-14  0.12500000000E+03  0.12500000000E+03 0.  0.
        -13    1    3    3    0    0 -0.61773306075E+01  0.53722689049E+01 -0.39264045362E+02  0.40108566527E+02  0.10566000000E+00 0.  1.
         23    2    1    0    0    0  0.29958002530E+02 -0.93003287207E+01 -0.27890914622E+01  0.93507825399E+02  0.88045194927E+02 0.  0.
         13    1    3    3    0    0  0.36135333138E+02 -0.14672597626E+02  0.36474953900E+02  0.53399258872E+02  0.10566000000E+00 0. -1.
         22    1    1    0    0    0 -0.29958002530E+02  0.93003287207E+01  0.27890914622E+01  0.31492174601E+02  0.00000000000E+00 0. -1.
</event>
<event>
 5    1  0.9041381E-005  0.9118800E+02  0.7818608E-02  0.1130116E+00
         25   -1    0    0    0    0  0.00000000000E+00  0.00000000000E+00  0.99999998245E-14  0.12500000000E+03  0.12500000000E+03 0.  0.
        -13    1    3    3    0    0  0.30420546525E+02 -0.33057284045E+02 -0.16219433327E+01  0.44953704447E+02  0.10566000000E+00 0.  1.
         23    2    1    0    0    0 -0.14056175796E+02 -0.20430735220E+02  0.17144528804E+02  0.94851602239E+02  0.89932755767E+02 0.  0.
         13    1    3    3    0    0 -0.44476722320E+02  0.12626548825E+02  0.18766472137E+02  0.49897897792E+02  0.10566000000E+00 0. -1.
         22    1    1    0    0    0  0.14056175796E+02  0.20430735220E+02 -0.17144528804E+02  0.30148397761E+02  0.00000000000E+00 0. -1.
</event>
<event>
 5    1  0.9041381E-005  0.9118800E+02  0.7818608E-02  0.1130116E+00
         25   -1    0    0    0    0  0.00000000000E+00  0.00000000000E+00  0.99999998245E-14  0.12500000000E+03  0.12500000000E+03 0.  0.
        -13    1    3    3    0    0  0.18417024391E+02 -0.43795920537E+02  0.27210663385E+02  0.54751263081E+02  0.10566000000E+00 0. -1.
         23    2    1    0    0    0  0.20810411317E+02 -0.18910802627E+02 -0.59282299491E+01  0.96262644772E+02  0.91873071098E+02 0.  0.
         13    1    3    3    0    0  0.23933869264E+01  0.24885117910E+02 -0.33138893334E+02  0.41511381690E+02  0.10566000000E+00 0.  1.
         22    1    1    0    0    0 -0.20810411317E+02  0.18910802627E+02  0.59282299491E+01  0.28737355228E+02  0.00000000000E+00 0. -1.
</event>
<event>
 5    1  0.9041381E-005  0.9118800E+02  0.7818608E-02  0.1130116E+00
         25   -1    0    0    0    0  0.00000000000E+00  0.00000000000E+00  0.99999998245E-14  0.12500000000E+03  0.12500000000E+03 0.  0.
        -13    1    3    3    0    0  0.30880814799E+02 -0.30833536080E+02  0.13546322365E+02  0.45692950041E+02  0.10566000000E+00 0.  1.
         23    2    1    0    0    0 -0.13756006676E+02 -0.30188143829E+02  0.93592276440E+01  0.90530493337E+02  0.83711548392E+02 0.  0.
         13    1    3    3    0    0 -0.44636821475E+02  0.64539225071E+00 -0.41870947208E+01  0.44837543295E+02  0.10566000000E+00 0. -1.
         22    1    1    0    0    0  0.13756006676E+02  0.30188143829E+02 -0.93592276440E+01  0.34469506663E+02  0.00000000000E+00 0. -1.
</event>
<event>
 5    1  0.9041381E-005  0.9118800E+02  0.7818608E-02  0.1130116E+00
         25   -1    0    0    0    0  0.00000000000E+00  0.00000000000E+00  0.99999998245E-14  0.12500000000E+03  0.12500000000E+03 0.  0.
        -13    1    3    3    0    0  0.32464197842E+02 -0.77940944567E+01  0.11518829703E+02  0.35318078256E+02  0.10566000000E+00 0.  1.
         23    2    1    0    0    0 -0.12598818217E+02  0.12613937603E+02 -0.23190156277E+02  0.95748931806E+02  0.91171448115E+02 0.  0.
         13    1    3    3    0    0 -0.45063016059E+02  0.20408032060E+02 -0.34708985981E+02  0.60430853550E+02  0.10566000000E+00 0. -1.
         22    1    1    0    0    0  0.12598818217E+02 -0.12613937603E+02  0.23190156277E+02  0.29251068194E+02  0.00000000000E+00 0. -1.
</event>
<event>
 5    1  0.9041381E-005  0.9118800E+02  0.7818608E-02  0.1130116E+00
         25   -1    0    0    0    0  0.00000000000E+00  0.00000000000E+00  0.99999998245E-14  0.12500000000E+03  0.12500000000E+03 0.  0.
        -13    1    3    3    0    0 -0.41816400331E+02  0.30021297015E+02 -0.84366901161E+00  0.51484099997E+02  0.10566000000E+00 0.  1.
         23    2    1    0    0    0  0.19349108255E+01  0.28916603716E+02  0.48412323641E+01  0.95617158388E+02  0.90990601696E+02 0.  0.
         13    1    3    3    0    0  0.43751311157E+02 -0.11046932986E+01  0.56849013757E+01  0.44133058390E+02  0.10566000000E+00 0. -1.
         22    1    1    0    0    0 -0.19349108255E+01 -0.28916603716E+02 -0.48412323641E+01  0.29382841612E+02  0.00000000000E+00 0.  1.
</event>
<event>
 5    1  0.9041381E-005  0.9118800E+02  0.7818608E-02  0.1130116E+00
         25   -1    0    0    0    0  0.00000000000E+00  0.00000000000E+00  0.99999998245E-14  0.12500000000E+03  0.12500000000E+03 0.  0.
        -13    1    3    3    0    0 -0.39413522834E+02  0.69593653301E+01 -0.46036430602E+02  0.61001825010E+02  0.10566000000E+00 0.  1.
         23    2    1    0    0    0 -0.18553799946E+02  0.11971141577E+02 -0.16851192932E+02  0.97223851486E+02  0.93171684923E+02 0.  0.
         13    1    3    3    0    0  0.20859722888E+02  0.50117762469E+01  0.29185237670E+02  0.36222026476E+02  0.10566000000E+00 0. -1.
         22    1    1    0    0    0  0.18553799946E+02 -0.11971141577E+02  0.16851192932E+02  0.27776148514E+02  0.00000000000E+00 0.  1.
</event>
<event>
 5    1  0.9041381E-005  0.9118800E+02  0.7818608E-02  0.1130116E+00
         25   -1    0    0    0    0  0.00000000000E+00  0.00000000000E+00  0.99999998245E-14  0.12500000000E+03  0.12500000000E+03 0.  0.
        -13    1    3    3    0    0 -0.29346180114E+02  0.18747865937E+02 -0.44771820331E+01  0.35110355844E+02  0.10566000000E+00 0.  1.
         23    2    1    0    0    0  0.26658937950E+02 -0.44938162375E+01 -0.10396393513E+02  0.96034876919E+02  0.91562651938E+02 0.  0.
         13    1    3    3    0    0  0.56005118064E+02 -0.23241682174E+02 -0.59192114797E+01  0.60924521076E+02  0.10566000000E+00 0. -1.
         22    1    1    0    0    0 -0.26658937950E+02  0.44938162375E+01  0.10396393513E+02  0.28965123081E+02  0.00000000000E+00 0. -1.
</event>
<event>
 5    1  0.9041381E-005  0.9118800E+02  0.7818608E-02  0.1130116E+00
         25   -1    0    0    0    0  0.00000000000E+00  0.00000000000E+00  0.99999998245E-14  0.12500000000E+03  0.12500000000E+03 0.  0.
        -13    1    3    3    0    0  0.89162659372E+01 -0.37229084569E+02 -0.30954987148E+02  0.49231361240E+02  0.10566000000E+00 0.  1.
         23    2    1    0    0    0  0.45566719429E+01 -0.46794974910E+02 -0.44160269398E+01  0.77776761759E+02  0.61799599026E+02 0.  0.
         13    1    3    3    0    0 -0.43595939943E+01 -0.95658903408E+01  0.26538960209E+02  0.28545400519E+02  0.10566000000E+00 0. -1.
         22    1    1    0    0    0 -0.45566719429E+01  0.46794974910E+02  0.44160269398E+01  0.47223238241E+02  0.00000000000E+00 0.  1.
</event>
<event>
 5    1  0.9041381E-005  0.9118800E+02  0.7818608E-02  0.1130116E+00
         25   -1    0    0    0    0  0.00000000000E+00  0.00000000000E+00  0.99999998245E-14  0.12500000000E+03  0.12500000000E+03 0.  0.
        -13    1    3    3    0    0 -0.24390407844E+02  0.53224012697E+02  0.17711174813E+02  0.61166857036E+02  0.10566000000E+00 0.  1.
         23    2    1    0    0    0 -0.12235387998E+02  0.21308742603E+02  0.16618751199E+02  0.95336046754E+02  0.90603596444E+02 0.  0.
         13    1    3    3    0    0  0.12155019846E+02 -0.31915270094E+02 -0.10924236142E+01  0.34169189718E+02  0.10566000000E+00 0. -1.
         22    1    1    0    0    0  0.12235387998E+02 -0.21308742603E+02 -0.16618751199E+02  0.29663953246E+02  0.00000000000E+00 0.  1.
</event>
<event>
 5    1  0.9041381E-005  0.9118800E+02  0.7818608E-02  0.1130116E+00
         25   -1    0    0    0    0  0.00000000000E+00  0.00000000000E+00  0.99999998245E-14  0.12500000000E+03  0.12500000000E+03 0.  0.
        -13    1    3    3    0    0  0.40810821983E+02  0.16158959166E+01  0.30316914051E+01  0.40955300358E+02  0.10566000000E+00 0.  1.
         23    2    1    0    0    0 -0.73696347734E+01 -0.15811604177E+02  0.23161925350E+02  0.96003566956E+02  0.91519898050E+02 0.  0.
         13    1    3    3    0    0 -0.48180456757E+02 -0.17427500094E+02  0.20130233945E+02  0.55048266599E+02  0.10566000000E+00 0. -1.
         22    1    1    0    0    0  0.73696347734E+01  0.15811604177E+02 -0.23161925350E+02  0.28996433044E+02  0.00000000000E+00 0. -1.
</event>
<event>
 5    1  0.9041381E-005  0.9118800E+02  0.7818608E-02  0.1130116E+00
         25   -1    0    0    0    0  0.00000000000E+00  0.00000000000E+00  0.99999998245E-14  0.12500000000E+03  0.12500000000E+03 0.  0.
        -13    1    3    3    0    0  0.20094643092E+02  0.26524587948E+02 -0.41982746742E+01  0.33540797860E+02  0.10566000000E+00 0.  1.
         23    2    1    0    0    0 -0.70571675130E+01 -0.28575412031E+02  0.31165117042E+01  0.95401513024E+02  0.90693871105E+02 0.  0.
         13    1    3    3    0    0 -0.27151810605E+02 -0.55099999979E+02  0.73147863783E+01  0.61860715164E+02  0.10566000000E+00 0. -1.
         22    1    1    0    0    0  0.70571675130E+01  0.28575412031E+02 -0.31165117042E+01  0.29598486976E+02  0.00000000000E+00 0. -1.
</event>
<event>
 5    1  0.9041381E-005  0.9118800E+02  0.7818608E-02  0.1130116E+00
         25   -1    0    0    0    0  0.00000000000E+00  0.00000000000E+00  0.99999998245E-14  0.12500000000E+03  0.12500000000E+03 0.  0.
        -13    1    3    3    0    0  0.85732431400E+01 -0.51556386414E+02  0.28840105694E+02  0.59693587080E+02  0.10566000000E+00 0.  1.
         23    2    1    0    0    0 -0.11761053102E+01 -0.17029018734E+02  0.23482544412E+02  0.95968971861E+02  0.91472635062E+02 0.  0.
         13    1    3    3    0    0 -0.97493484502E+01  0.34527367680E+02 -0.53575612815E+01  0.36275384781E+02  0.10566000000E+00 0. -1.
         22    1    1    0    0    0  0.11761053102E+01  0.17029018734E+02 -0.23482544412E+02  0.29031028139E+02  0.00000000000E+00 0.  1.
</event>
<event>
 5    1  0.9041381E-005  0.9118800E+02  0.7818608E-02  0.1130116E+00
         25   -1    0    0    0    0  0.00000000000E+00  0.00000000000E+00  0.99999998245E-14  0.12500000000E+03  0.12500000000E+03 0.  0.
        -13    1    3    3    0    0 -0.51913669671E+01 -0.35863008138E+02 -0.52029535689E+01  0.36608571860E+02  0.10566000000E+00 0. -1.
         23    2    1    0    0    0 -0.94136036821E+01  0.14618861624E+02  0.24214985422E+02  0.95189052876E+02  0.90400570899E+02 0.  0.
         13    1    3    3    0    0 -0.42222367150E+01  0.50481869762E+02  0.29417938991E+02  0.58580481016E+02  0.10566000000E+00 0.  1.
         22    1    1    0    0    0  0.94136036821E+01 -0.14618861624E+02 -0.24214985422E+02  0.29810947124E+02  0.00000000000E+00 0.  1.
</event>
<event>
 5    1  0.9041381E-005  0.9118800E+02  0.7818608E-02  0.1130116E+00
         25   -1    0    0    0    0  0.00000000000E+00  0.00000000000E+00  0.99999998245E-14  0.12500000000E+03  0.12500000000E+03 0.  0.
        -13    1    3    3    0    0  0.45830737078E+01  0.44529932185E+02  0.11863782718E+02  0.46310689149E+02  0.10566000000E+00 0. -1.
         23    2    1    0    0    0 -0.20822165373E+02  0.16403125102E+01  0.19117631060E+02  0.96685039055E+02  0.92445982951E+02 0.  0.
         13    1    3    3    0    0 -0.25405239081E+02 -0.42889619675E+02  0.72538483423E+01  0.50374349906E+02  0.10566000000E+00 0.  1.
         22    1    1    0    0    0  0.20822165373E+02 -0.16403125102E+01 -0.19117631060E+02  0.28314960945E+02  0.00000000000E+00 0.  1.
</event>
<event>
 5    1  0.9041381E-005  0.9118800E+02  0.7818608E-02  0.1130116E+00
         25   -1    0    0    0    0  0.00000000000E+00  0.00000000000E+00  0.99999998245E-14  0.12500000000E+03  0.12500000000E+03 0.  0.
        -13    1    3    3    0    0  0.16559522402E+02 -0.36146702309E+02  0.69275459816E+01  0.40358443074E+02  0.10566000000E+00 0.  1.
         23    2    1    0    0    0 -0.27934961446E+02 -0.56896894009E+01 -0.61359133939E+01  0.95838654529E+02  0.91294378974E+02 0.  0.
         13    1    3    3    0    0 -0.44494483849E+02  0.30457012908E+02 -0.13063459375E+02  0.55480211455E+02  0.10566000000E+00 0. -1.
         22    1    1    0    0    0  0.27934961446E+02  0.56896894009E+01  0.61359133939E+01  0.29161345471E+02  0.00000000000E+00 0. -1.
</event>
<event>
 5    1  0.9041381E-005  0.9118800E+02  0.7818608E-02  0.1130116E+00
         25   -1    0    0    0    0  0.00000000000E+00  0.00000000000E+00  0.99999998245E-14  0.12500000000E+03  0.12500000000E+03 0.  0.
        -13    1    3    3    0    0 -0.13785719146E+02 -0.29848859588E+02  0.37445544688E+02  0.49831520668E+02  0.10566000000E+00 0.  1.
         23    2    1    0    0    0  0.18995219605E+02 -0.20515849835E+02  0.55835706109E+01  0.96488691313E+02  0.92180110806E+02 0.  0.
         13    1    3    3    0    0  0.32780938750E+02  0.93330097524E+01 -0.31861974078E+02  0.46657170644E+02  0.10566000000E+00 0. -1.
         22    1    1    0    0    0 -0.18995219605E+02  0.20515849835E+02 -0.55835706109E+01  0.28511308687E+02  0.00000000000E+00 0.  1.
</event>
<event>
 5    1  0.9041381E-005  0.9118800E+02  0.7818608E-02  0.1130116E+00
         25   -1    0    0    0    0  0.00000000000E+00  0.00000000000E+00  0.99999998245E-14  0.12500000000E+03  0.12500000000E+03 0.  0.
        -13    1    3    3    0    0 -0.35276735168E+01 -0.18075419120E+01  0.39112218685E+02  0.39312701544E+02  0.10566000000E+00 0.  1.
         23    2    1    0    0    0 -0.21901931261E+02 -0.15988384452E+02 -0.11922790269E+02  0.95377779318E+02  0.90661153917E+02 0.  0.
         13    1    3    3    0    0 -0.18374257744E+02 -0.14180842540E+02 -0.51035008954E+02  0.56065077774E+02  0.10566000000E+00 0. -1.
         22    1    1    0    0    0  0.21901931261E+02  0.15988384452E+02  0.11922790269E+02  0.29622220682E+02  0.00000000000E+00 0. -1.
</event>
<event>
 5    1  0.9041381E-005  0.9118800E+02  0.7818608E-02  0.1130116E+00
         25   -1    0    0    0    0  0.00000000000E+00  0.00000000000E+00  0.99999998245E-14  0.12500000000E+03  0.12500000000E+03 0.  0.
        -13    1    3    3    0    0  0.30805769755E+02  0.14502088172E+02 -0.13024285125E+02  0.36454755226E+02  0.10566000000E+00 0.  1.
         23    2    1    0    0    0 -0.19452025138E+02 -0.15921051308E+02 -0.15870244496E+02  0.95272473747E+02  0.90515846330E+02 0.  0.
         13    1    3    3    0    0 -0.50257794893E+02 -0.30423139480E+02 -0.28459593708E+01  0.58817718522E+02  0.10566000000E+00 0. -1.
         22    1    1    0    0    0  0.19452025138E+02  0.15921051308E+02  0.15870244496E+02  0.29727526253E+02  0.00000000000E+00 0. -1.
</event>
<event>
 5    1  0.9041381E-005  0.9118800E+02  0.7818608E-02  0.1130116E+00
         25   -1    0    0    0    0  0.00000000000E+00  0.00000000000E+00  0.99999998245E-14  0.12500000000E+03  0.12500000000E+03 0.  0.
        -13    1    3    3    0    0 -0.15623395828E+02  0.34766030238E+01  0.38176895543E+02  0.41396422347E+02  0.10566000000E+00 0.  1.
         23    2    1    0    0    0 -0.11792941368E+01  0.24208741493E+02 -0.12281944560E+02  0.97828322438E+02  0.93979149866E+02 0.  0.
         13    1    3    3    0    0  0.14444101691E+02  0.20732138470E+02 -0.50458840104E+02  0.56431900091E+02  0.10566000000E+00 0. -1.
         22    1    1    0    0    0  0.11792941368E+01 -0.24208741493E+02  0.12281944560E+02  0.27171677562E+02  0.00000000000E+00 0. -1.
</event>
<event>
 5    1  0.9041381E-005  0.9118800E+02  0.7818608E-02  0.1130116E+00
         25   -1    0    0    0    0  0.00000000000E+00  0.00000000000E+00  0.99999998245E-14  0.12500000000E+03  0.12500000000E+03 0.  0.
        -13    1    3    3    0    0  0.37783997902E+02  0.50865079306E+01 -0.19567022301E+02  0.42853034737E+02  0.10566000000E+00 0. -1.
         23    2    1    0    0    0  0.12285910069E+02 -0.12419606768E+02  0.23402275231E+02  0.95796289542E+02  0.91236354517E+02 0.  0.
         13    1    3    3    0    0 -0.25498087833E+02 -0.17506114698E+02  0.42969297532E+02  0.52943254806E+02  0.10566000000E+00 0.  1.
         22    1    1    0    0    0 -0.12285910069E+02  0.12419606768E+02 -0.23402275231E+02  0.29203710458E+02  0.00000000000E+00 0. -1.
</event>
<event>
 5    1  0.9041381E-005  0.9118800E+02  0.7818608E-02  0.1130116E+00
         25   -1    0    0    0    0  0.00000000000E+00  0.00000000000E+00  0.99999998245E-14  0.12500000000E+03  0.12500000000E+03 0.  0.
        -13    1    3    3    0    0  0.24357262661E+02  0.11742711906E+02  0.40158127544E+02  0.48413364881E+02  0.10566000000E+00 0. -1.
         23    2    1    0    0    0 -0.18237386815E+02  0.91001912979E+01  0.22616723213E+02  0.94554443207E+02  0.89518773460E+02 0.  0.
         13    1    3    3    0    0 -0.42594649476E+02 -0.26425206084E+01 -0.17541404331E+02  0.46141078326E+02  0.10566000000E+00 0.  1.
         22    1    1    0    0    0  0.18237386815E+02 -0.91001912979E+01 -0.22616723213E+02  0.30445556793E+02  0.00000000000E+00 0. -1.
</event>
<event>
 5    1  0.9041381E-005  0.9118800E+02  0.7818608E-02  0.1130116E+00
         25   -1    0    0    0    0  0.00000000000E+00  0.00000000000E+00  0.99999998245E-14  0.12500000000E+03  0.12500000000E+03 0.  0.
        -13    1    3    3    0    0 -0.48232605037E+02 -0.21207471288E+01  0.11068765266E+02  0.49531913809E+02  0.10566000000E+00 0.  1.
         23    2    1    0    0    0 -0.11359732969E+02 -0.71682755215E+01  0.30613885763E+02  0.91568911047E+02  0.85248036703E+02 0.  0.
         13    1    3    3    0    0  0.36872872068E+02 -0.50475283927E+01  0.19545120498E+02  0.42036997237E+02  0.10566000000E+00 0. -1.
         22    1    1    0    0    0  0.11359732969E+02  0.71682755215E+01 -0.30613885763E+02  0.33431088953E+02  0.00000000000E+00 0.  1.
</event>
<event>
 5    1  0.9041381E-005  0.9118800E+02  0.7818608E-02  0.1130116E+00
         25   -1    0    0    0    0  0.00000000000E+00  0.00000000000E+00  0.99999998245E-14  0.12500000000E+03  0.12500000000E+03 0.  0.
        -13    1    3    3    0    0 -0.16334067804E+02 -0.78374853244E+01 -0.45446962986E+02  0.48925101492E+02  0.10566000000E+00 0.  1.
         23    2    1    0    0    0  0.16233459656E+02  0.13936757738E+02 -0.20492537726E+02  0.95373955190E+02  0.90655881208E+02 0.  0.
         13    1    3    3    0    0  0.32567527460E+02  0.21774243062E+02  0.24954425261E+02  0.46448853699E+02  0.10566000000E+00 0. -1.
         22    1    1    0    0    0 -0.16233459656E+02 -0.13936757738E+02  0.20492537726E+02  0.29626044810E+02  0.00000000000E+00 0. -1.
</event>
<event>
 5    1  0.9041381E-005  0.9118800E+02  0.7818608E-02  0.1130116E+00
         25   -1    0    0    0    0  0.00000000000E+00  0.00000000000E+00  0.99999998245E-14  0.12500000000E+03  0.12500000000E+03 0.  0.
        -13    1    3    3    0    0  0.29423402221E+02  0.29982728919E+02 -0.12528295673E+02  0.43836856504E+02  0.10566000000E+00 0. -1.
         23    2    1    0    0    0  0.10724779309E+02 -0.49162496252E+01  0.24348915564E+02  0.97943390997E+02  0.94132076091E+02 0.  0.
         13    1    3    3    0    0 -0.18698622912E+02 -0.34898978544E+02  0.36877211237E+02  0.54106534493E+02  0.10566000000E+00 0.  1.
         22    1    1    0    0    0 -0.10724779309E+02  0.49162496252E+01 -0.24348915564E+02  0.27056609003E+02  0.00000000000E+00 0.  1.
</event>
<event>
 5    1  0.9041381E-005  0.9118800E+02  0.7818608E-02  0.1130116E+00
         25   -1    0    0    0    0  0.00000000000E+00  0.00000000000E+00  0.99999998245E-14  0.12500000000E+03  0.12500000000E+03 0.  0.
        -13    1    3    3    0    0  0.21061873379E+02 -0.98967094645E+01 -0.26985567955E+02  0.35633964280E+02  0.10566000000E+00 0. -1.
         23    2    1    0    0    0  0.17978523100E+02  0.27223101695E+02  0.12635689779E+02  0.90014499933E+02  0.82937476350E+02 0.  0.
         13    1    3    3    0    0 -0.30833502792E+01  0.37119811159E+02  0.39621257734E+02  0.54380535653E+02  0.10566000000E+00 0.  1.
         22    1    1    0    0    0 -0.17978523100E+02 -0.27223101695E+02 -0.12635689779E+02  0.34985500067E+02  0.00000000000E+00 0.  1.
</event>
<event>
 5    1  0.9041381E-005  0.9118800E+02  0.7818608E-02  0.1130116E+00
         25   -1    0    0    0    0  0.00000000000E+00  0.00000000000E+00  0.99999998245E-14  0.12500000000E+03  0.12500000000E+03 0.  0.
        -13    1    3    3    0    0  0.29773295931E+02  0.18241047754E+02 -0.16437903895E+02  0.38592756085E+02  0.10566000000E+00 0. -1.
         23    2    1    0    0    0  0.55737887898E+01 -0.17359730355E+01  0.29888500341E+02  0.94546704998E+02  0.89507967520E+02 0.  0.
         13    1    3    3    0    0 -0.24199507141E+02 -0.19977020790E+02  0.46326404236E+02  0.55953948913E+02  0.10566000000E+00 0.  1.
         22    1    1    0    0    0 -0.55737887898E+01  0.17359730355E+01 -0.29888500341E+02  0.30453295002E+02  0.00000000000E+00 0.  1.
</event>
<event>
 5    1  0.9041381E-005  0.9118800E+02  0.7818608E-02  0.1130116E+00
         25   -1    0    0    0    0  0.00000000000E+00  0.00000000000E+00  0.99999998245E-14  0.12500000000E+03  0.12500000000E+03 0.  0.
        -13    1    3    3    0    0  0.20330793014E+02 -0.32912666689E+02 -0.11375006694E+02  0.40323525571E+02  0.10566000000E+00 0.  1.
         23    2    1    0    0    0 -0.39051414475E+01  0.20858723848E+02  0.78725912847E+01  0.10236564152E+03  0.99831910629E+02 0.  0.
         13    1    3    3    0    0 -0.24235934461E+02  0.53771390537E+02  0.19247597978E+02  0.62042115949E+02  0.10566000000E+00 0. -1.
         22    1    1    0    0    0  0.39051414475E+01 -0.20858723848E+02 -0.78725912847E+01  0.22634358480E+02  0.00000000000E+00 0. -1.
</event>
<event>
 5    1  0.9041381E-005  0.9118800E+02  0.7818608E-02  0.1130116E+00
         25   -1    0    0    0    0  0.00000000000E+00  0.00000000000E+00  0.99999998245E-14  0.12500000000E+03  0.12500000000E+03 0.  0.
        -13    1    3    3    0    0  0.57944457113E+01  0.33111978328E+02  0.47414553473E+00  0.33618665767E+02  0.10566000000E+00 0.  1.
         23    2    1    0    0    0 -0.13398659292E+02 -0.25506115178E+02 -0.57780945110E+01  0.95615099822E+02  0.90987773660E+02 0.  0.
         13    1    3    3    0    0 -0.19193105003E+02 -0.58618093506E+02 -0.62522400457E+01  0.61996434055E+02  0.10566000000E+00 0. -1.
         22    1    1    0    0    0  0.13398659292E+02  0.25506115178E+02  0.57780945110E+01  0.29384900178E+02  0.00000000000E+00 0. -1.
</event>
<event>
 5    1  0.9041381E-005  0.9118800E+02  0.7818608E-02  0.1130116E+00
         25   -1    0    0    0    0  0.00000000000E+00  0.00000000000E+00  0.99999998245E-14  0.12500000000E+03  0.12500000000E+03 0.  0.
        -13    1    3    3    0    0  0.38922083250E+01 -0.32609421717E+02  0.53152195340E+02  0.62479522276E+02  0.10566000000E+00 0. -1.
         23    2    1    0    0    0  0.74763125890E+00 -0.15592808395E+02  0.24777476507E+02  0.95714884869E+02  0.91124756336E+02 0.  0.
         13    1    3    3    0    0 -0.31445770661E+01  0.17016613322E+02 -0.28374718832E+02  0.33235362593E+02  0.10566000000E+00 0.  1.
         22    1    1    0    0    0 -0.74763125890E+00  0.15592808395E+02 -0.24777476507E+02  0.29285115131E+02  0.00000000000E+00 0. -1.
</event>
<event>
 5    1  0.9041381E-005  0.9118800E+02  0.7818608E-02  0.1130116E+00
         25   -1    0    0    0    0  0.00000000000E+00  0.00000000000E+00  0.99999998245E-14  0.12500000000E+03  0.12500000000E+03 0.  0.
        -13    1    3    3    0    0  0.67784045374E+01  0.22507369940E+02 -0.40807609785E+02  0.47093530873E+02  0.10566000000E+00 0.  1.
         23    2    1    0    0    0  0.29951395624E+02 -0.21168667806E+00 -0.64369573349E+01  0.94363986375E+02  0.89252431865E+02 0.  0.
         13    1    3    3    0    0  0.23172991087E+02 -0.22719056618E+02  0.34370652450E+02  0.47270455502E+02  0.10566000000E+00 0. -1.
         22    1    1    0    0    0 -0.29951395624E+02  0.21168667806E+00  0.64369573349E+01  0.30636013625E+02  0.00000000000E+00 0.  1.
</event>
<event>
 5    1  0.9041381E-005  0.9118800E+02  0.7818608E-02  0.1130116E+00
         25   -1    0    0    0    0  0.00000000000E+00  0.00000000000E+00  0.99999998245E-14  0.12500000000E+03  0.12500000000E+03 0.  0.
        -13    1    3    3    0    0  0.35366705219E+02 -0.32712728797E+02  0.25652628182E+02  0.54580170026E+02  0.10566000000E+00 0.  1.
         23    2    1    0    0    0  0.17417575536E+02  0.33598371475E+01  0.24325588506E+02  0.94893610323E+02  0.89991125011E+02 0.  0.
         13    1    3    3    0    0 -0.17949129682E+02  0.36072565945E+02 -0.13270396757E+01  0.40313440297E+02  0.10566000000E+00 0. -1.
         22    1    1    0    0    0 -0.17417575536E+02 -0.33598371475E+01 -0.24325588506E+02  0.30106389677E+02  0.00000000000E+00 0.  1.
</event>
<event>
 5    1  0.9041381E-005  0.9118800E+02  0.7818608E-02  0.1130116E+00
         25   -1    0    0    0    0  0.00000000000E+00  0.00000000000E+00  0.99999998245E-14  0.12500000000E+03  0.12500000000E+03 0.  0.
        -13    1    3    3    0    0  0.14163257388E+02 -0.43485807951E+02  0.19027372138E+02  0.49534487053E+02  0.10566000000E+00 0.  1.
         23    2    1    0    0    0  0.29987136984E+02 -0.44084521156E+01  0.33869915070E+01  0.94501892747E+02  0.89445364255E+02 0.  0.
         13    1    3    3    0    0  0.15823879595E+02  0.39077355836E+02 -0.15640380631E+02  0.44967405695E+02  0.10566000000E+00 0. -1.
         22    1    1    0    0    0 -0.29987136984E+02  0.44084521156E+01 -0.33869915070E+01  0.30498107253E+02  0.00000000000E+00 0.  1.
</event>
<event>
 5    1  0.9041381E-005  0.9118800E+02  0.7818608E-02  0.1130116E+00
         25   -1    0    0    0    0  0.00000000000E+00  0.00000000000E+00  0.99999998245E-14  0.12500000000E+03  0.12500000000E+03 0.  0.
        -13    1    3    3    0    0  0.61612628084E+01  0.35614390306E+02 -0.15761280217E+02  0.39430636241E+02  0.10566000000E+00 0.  1.
         23    2    1    0    0    0  0.63962734304E+01 -0.20437673181E+02 -0.20071925048E+02  0.95648799445E+02  0.91034058799E+02 0.  0.
         13    1    3    3    0    0  0.23501062201E+00 -0.56052063487E+02 -0.43106448305E+01  0.56218163204E+02  0.10566000000E+00 0. -1.
         22    1    1    0    0    0 -0.63962734304E+01  0.20437673181E+02  0.20071925048E+02  0.29351200555E+02  0.00000000000E+00 0. -1.
</event>
<event>
 5    1  0.9041381E-005  0.9118800E+02  0.7818608E-02  0.1130116E+00
         25   -1    0    0    0    0  0.00000000000E+00  0.00000000000E+00  0.99999998245E-14  0.12500000000E+03  0.12500000000E+03 0.  0.
        -13    1    3    3    0    0  0.27619808172E+02 -0.56082509317E+01  0.10858008603E+02  0.30202877294E+02  0.10566000000E+00 0. -1.
         23    2    1    0    0    0 -0.11519164947E+02  0.35304991074E+02 -0.48794014689E-01  0.87863280480E+02  0.79629266730E+02 0.  0.
         13    1    3    3    0    0 -0.39138973119E+02  0.40913242006E+02 -0.10906802618E+02  0.57660403186E+02  0.10566000000E+00 0.  1.
         22    1    1    0    0    0  0.11519164947E+02 -0.35304991074E+02  0.48794014689E-01  0.37136719520E+02  0.00000000000E+00 0.  1.
</event>
<event>
 5    1  0.9041381E-005  0.9118800E+02  0.7818608E-02  0.1130116E+00
         25   -1    0    0    0    0  0.00000000000E+00  0.00000000000E+00  0.99999998245E-14  0.12500000000E+03  0.12500000000E+03 0.  0.
        -13    1    3    3    0    0 -0.43373182204E+00  0.13806996843E+00  0.44844592223E+02  0.44847026683E+02  0.10566000000E+00 0. -1.
         23    2    1    0    0    0 -0.26519877780E+02 -0.14871520283E+02  0.59630048682E+01  0.94015754648E+02  0.88763385818E+02 0.  0.
         13    1    3    3    0    0 -0.26086145958E+02 -0.15009590252E+02 -0.38881587355E+02  0.49168727965E+02  0.10566000000E+00 0.  1.
         22    1    1    0    0    0  0.26519877780E+02  0.14871520283E+02 -0.59630048682E+01  0.30984245352E+02  0.00000000000E+00 0. -1.
</event>
<event>
 5    1  0.9041381E-005  0.9118800E+02  0.7818608E-02  0.1130116E+00
         25   -1    0    0    0    0  0.00000000000E+00  0.00000000000E+00  0.99999998245E-14  0.12500000000E+03  0.12500000000E+03 0.  0.
        -13    1    3    3    0    0  0.20324403572E+02 -0.19501273032E+02 -0.21099437050E+02  0.35193443115E+02  0.10566000000E+00 0. -1.
         23    2    1    0    0    0  0.71217466715E+00  0.32032319847E+01  0.30200023709E+02  0.94622223256E+02  0.89613368500E+02 0.  0.
         13    1    3    3    0    0 -0.19612228905E+02  0.22704505017E+02  0.51299460760E+02  0.59428780140E+02  0.10566000000E+00 0.  1.
         22    1    1    0    0    0 -0.71217466715E+00 -0.32032319847E+01 -0.30200023709E+02  0.30377776744E+02  0.00000000000E+00 0.  1.
</event>
<event>
 5    1  0.9041381E-005  0.9118800E+02  0.7818608E-02  0.1130116E+00
         25   -1    0    0    0    0  0.00000000000E+00  0.00000000000E+00  0.99999998245E-14  0.12500000000E+03  0.12500000000E+03 0.  0.
        -13    1    3    3    0    0  0.14566440835E+02  0.25497865784E+02  0.23456048431E+02  0.37583503431E+02  0.10566000000E+00 0. -1.
         23    2    1    0    0    0 -0.19292679611E+01 -0.28064586741E+02  0.90282270557E+01  0.95455931432E+02  0.90768842991E+02 0.  0.
         13    1    3    3    0    0 -0.16495708796E+02 -0.53562452524E+02 -0.14427821375E+02  0.57872428001E+02  0.10566000000E+00 0.  1.
         22    1    1    0    0    0  0.19292679611E+01  0.28064586741E+02 -0.90282270557E+01  0.29544068568E+02  0.00000000000E+00 0. -1.
</event>
<event>
 5    1  0.9041381E-005  0.9118800E+02  0.7818608E-02  0.1130116E+00
         25   -1    0    0    0    0  0.00000000000E+00  0.00000000000E+00  0.99999998245E-14  0.12500000000E+03  0.12500000000E+03 0.  0.
        -13    1    3    3    0    0 -0.28793154425E+02 -0.13384847107E+02  0.34782820076E+02  0.47096237750E+02  0.10566000000E+00 0.  1.
         23    2    1    0    0    0 -0.15727291146E+02 -0.22244467126E+02 -0.11072632103E+02  0.95593075881E+02  0.90957511895E+02 0.  0.
         13    1    3    3    0    0  0.13065863279E+02 -0.88596200190E+01 -0.45855452178E+02  0.48496838130E+02  0.10566000000E+00 0. -1.
         22    1    1    0    0    0  0.15727291146E+02  0.22244467126E+02  0.11072632103E+02  0.29406924119E+02  0.00000000000E+00 0. -1.
</event>
<event>
 5    1  0.9041381E-005  0.9118800E+02  0.7818608E-02  0.1130116E+00
         25   -1    0    0    0    0  0.00000000000E+00  0.00000000000E+00  0.99999998245E-14  0.12500000000E+03  0.12500000000E+03 0.  0.
        -13    1    3    3    0    0 -0.15208340649E+02 -0.35006230454E+02  0.13759457529E+02  0.40571709743E+02  0.10566000000E+00 0.  1.
         23    2    1    0    0    0 -0.19573253306E+02  0.20056249705E+02  0.33994354023E+01  0.96770200882E+02  0.92561062118E+02 0.  0.
         13    1    3    3    0    0 -0.43649126575E+01  0.55062480159E+02 -0.10360022127E+02  0.56198491139E+02  0.10566000000E+00 0. -1.
         22    1    1    0    0    0  0.19573253306E+02 -0.20056249705E+02 -0.33994354023E+01  0.28229799118E+02  0.00000000000E+00 0. -1.
</event>
<event>
 5    1  0.9041381E-005  0.9118800E+02  0.7818608E-02  0.1130116E+00
         25   -1    0    0    0    0  0.00000000000E+00  0.00000000000E+00  0.99999998245E-14  0.12500000000E+03  0.12500000000E+03 0.  0.
        -13    1    3    3    0    0 -0.27614054296E+02  0.26886967637E+02  0.98912527891E+00  0.38554306585E+02  0.10566000000E+00 0.  1.
         23    2    1    0    0    0  0.68712221166E+01 -0.83910047562E+01 -0.27441144863E+02  0.95493406066E+02  0.90820435567E+02 0.  0.
         13    1    3    3    0    0  0.34485276412E+02 -0.35277972394E+02 -0.28430270141E+02  0.56939099482E+02  0.10566000000E+00 0. -1.
         22    1    1    0    0    0 -0.68712221166E+01  0.83910047562E+01  0.27441144863E+02  0.29506593934E+02  0.00000000000E+00 0. -1.
</event>
<event>
 5    1  0.9041381E-005  0.9118800E+02  0.7818608E-02  0.1130116E+00
         25   -1    0    0    0    0  0.00000000000E+00  0.00000000000E+00  0.99999998245E-14  0.12500000000E+03  0.12500000000E+03 0.  0.
        -13    1    3    3    0    0  0.40898131831E+02  0.36079473909E+02  0.78916632636E+01  0.55106035404E+02  0.10566000000E+00 0. -1.
         23    2    1    0    0    0  0.28151184982E+02 -0.30283497250E+01  0.30890771312E+01  0.96518382850E+02  0.92220364955E+02 0.  0.
         13    1    3    3    0    0 -0.12746946849E+02 -0.39107823634E+02 -0.48025861324E+01  0.41412347446E+02  0.10566000000E+00 0.  1.
         22    1    1    0    0    0 -0.28151184982E+02  0.30283497250E+01 -0.30890771312E+01  0.28481617150E+02  0.00000000000E+00 0.  1.
</event>
<event>
 5    1  0.9041381E-005  0.9118800E+02  0.7818608E-02  0.1130116E+00
         25   -1    0    0    0    0  0.00000000000E+00  0.00000000000E+00  0.99999998245E-14  0.12500000000E+03  0.12500000000E+03 0.  0.
        -13    1    3    3    0    0 -0.18134903898E+02 -0.54541816381E+02  0.14019575091E+02  0.59162861013E+02  0.10566000000E+00 0. -1.
         23    2    1    0    0    0  0.55904648937E+01 -0.28661089815E+02  0.70937679661E+01  0.94949493997E+02  0.90068715430E+02 0.  0.
         13    1    3    3    0    0  0.23725368792E+02  0.25880726566E+02 -0.69258071253E+01  0.35786632983E+02  0.10566000000E+00 0.  1.
         22    1    1    0    0    0 -0.55904648937E+01  0.28661089815E+02 -0.70937679661E+01  0.30050506003E+02  0.00000000000E+00 0.  1.
</event>
<event>
 5    1  0.9041381E-005  0.9118800E+02  0.7818608E-02  0.1130116E+00
         25   -1    0    0    0    0  0.00000000000E+00  0.00000000000E+00  0.99999998245E-14  0.12500000000E+03  0.12500000000E+03 0.  0.
        -13    1    3    3    0    0 -0.46606647913E+02  0.22930292595E+02 -0.12741237643E+02  0.53482036693E+02  0.10566000000E+00 0.  1.
         23    2    1    0    0    0 -0.13331458259E+02  0.37674996680E+00 -0.25973691117E+02  0.95802357114E+02  0.91244667124E+02 0.  0.
         13    1    3    3    0    0  0.33275189653E+02 -0.22553542629E+02 -0.13232453473E+02  0.42320320421E+02  0.10566000000E+00 0. -1.
         22    1    1    0    0    0  0.13331458259E+02 -0.37674996680E+00  0.25973691117E+02  0.29197642886E+02  0.00000000000E+00 0.  1.
</event>
<event>
 5    1  0.9041381E-005  0.9118800E+02  0.7818608E-02  0.1130116E+00
         25   -1    0    0    0    0  0.00000000000E+00  0.00000000000E+00  0.99999998245E-14  0.12500000000E+03  0.12500000000E+03 0.  0.
        -13    1    3    3    0    0 -0.75216174608E+01 -0.18166750075E+02  0.24058656583E+02  0.31071460508E+02  0.10566000000E+00 0.  1.
         23    2    1    0    0    0 -0.25326793217E+02 -0.43666302105E+02 -0.58036924179E+01  0.74187843581E+02  0.54055165298E+02 0.  0.
         13    1    3    3    0    0 -0.17805175756E+02 -0.25499552030E+02 -0.29862349001E+02  0.43116383073E+02  0.10566000000E+00 0. -1.
         22    1    1    0    0    0  0.25326793217E+02  0.43666302105E+02  0.58036924179E+01  0.50812156419E+02  0.00000000000E+00 0. -1.
</event>
<event>
 5    1  0.9041381E-005  0.9118800E+02  0.7818608E-02  0.1130116E+00
         25   -1    0    0    0    0  0.00000000000E+00  0.00000000000E+00  0.99999998245E-14  0.12500000000E+03  0.12500000000E+03 0.  0.
        -13    1    3    3    0    0 -0.35838230189E+02  0.28636342394E+02 -0.32866377389E+02  0.56432515233E+02  0.10566000000E+00 0.  1.
         23    2    1    0    0    0  0.21132128928E+00  0.15606412882E+02 -0.24944789195E+02  0.95574716863E+02  0.90932278184E+02 0.  0.
         13    1    3    3    0    0  0.36049551478E+02 -0.13029929513E+02  0.79215881938E+01  0.39142201630E+02  0.10566000000E+00 0. -1.
         22    1    1    0    0    0 -0.21132128928E+00 -0.15606412882E+02  0.24944789195E+02  0.29425283137E+02  0.00000000000E+00 0.  1.
</event>
<event>
 5    1  0.9041381E-005  0.9118800E+02  0.7818608E-02  0.1130116E+00
         25   -1    0    0    0    0  0.00000000000E+00  0.00000000000E+00  0.99999998245E-14  0.12500000000E+03  0.12500000000E+03 0.  0.
        -13    1    3    3    0    0 -0.86631513291E+01  0.18091515775E+02  0.19961720616E+02  0.28299020972E+02  0.10566000000E+00 0.  1.
         23    2    1    0    0    0  0.14544395350E+02 -0.25017607446E+02 -0.18581803496E+02  0.90609542899E+02  0.83829503904E+02 0.  0.
         13    1    3    3    0    0  0.23207546679E+02 -0.43109123221E+02 -0.38543524112E+02  0.62310521927E+02  0.10566000000E+00 0. -1.
         22    1    1    0    0    0 -0.14544395350E+02  0.25017607446E+02  0.18581803496E+02  0.34390457101E+02  0.00000000000E+00 0. -1.
</event>
<event>
 5    1  0.9041381E-005  0.9118800E+02  0.7818608E-02  0.1130116E+00
         25   -1    0    0    0    0  0.00000000000E+00  0.00000000000E+00  0.99999998245E-14  0.12500000000E+03  0.12500000000E+03 0.  0.
        -13    1    3    3    0    0 -0.35555052834E+02 -0.29080674246E+02 -0.27604553907E+02  0.53589830724E+02  0.10566000000E+00 0.  1.
         23    2    1    0    0    0 -0.22304473171E+02 -0.12515791131E+02  0.10620578503E+02  0.97306476591E+02  0.93282469670E+02 0.  0.
         13    1    3    3    0    0  0.13250579663E+02  0.16564883115E+02  0.38225132410E+02  0.43716645866E+02  0.10566000000E+00 0. -1.
         22    1    1    0    0    0  0.22304473171E+02  0.12515791131E+02 -0.10620578503E+02  0.27693523409E+02  0.00000000000E+00 0.  1.
</event>
<event>
 5    1  0.9041381E-005  0.9118800E+02  0.7818608E-02  0.1130116E+00
         25   -1    0    0    0    0  0.00000000000E+00  0.00000000000E+00  0.99999998245E-14  0.12500000000E+03  0.12500000000E+03 0.  0.
        -13    1    3    3    0    0  0.28614631510E+02 -0.15169881831E+02  0.27026612680E+02  0.42182596035E+02  0.10566000000E+00 0.  1.
         23    2    1    0    0    0  0.21403998167E+02  0.16860257392E+02 -0.13706188325E+02  0.94499852209E+02  0.89442512556E+02 0.  0.
         13    1    3    3    0    0 -0.72106333433E+01  0.32030139223E+02 -0.40732801005E+02  0.52317256174E+02  0.10566000000E+00 0. -1.
         22    1    1    0    0    0 -0.21403998167E+02 -0.16860257392E+02  0.13706188325E+02  0.30500147791E+02  0.00000000000E+00 0. -1.
</event>
<event>
 5    1  0.9041381E-005  0.9118800E+02  0.7818608E-02  0.1130116E+00
         25   -1    0    0    0    0  0.00000000000E+00  0.00000000000E+00  0.99999998245E-14  0.12500000000E+03  0.12500000000E+03 0.  0.
        -13    1    3    3    0    0 -0.59884420539E+01 -0.17866248886E+02 -0.30808141099E+02  0.36113944807E+02  0.10566000000E+00 0. -1.
         23    2    1    0    0    0 -0.25677333158E+02  0.10573425188E+02  0.14940059331E+02  0.93467031045E+02  0.87987259085E+02 0.  0.
         13    1    3    3    0    0 -0.19688891104E+02  0.28439674074E+02  0.45748200430E+02  0.57353086238E+02  0.10566000000E+00 0.  1.
         22    1    1    0    0    0  0.25677333158E+02 -0.10573425188E+02 -0.14940059331E+02  0.31532968955E+02  0.00000000000E+00 0.  1.
</event>
<event>
 5    1  0.9041381E-005  0.9118800E+02  0.7818608E-02  0.1130116E+00
         25   -1    0    0    0    0  0.00000000000E+00  0.00000000000E+00  0.99999998245E-14  0.12500000000E+03  0.12500000000E+03 0.  0.
        -13    1    3    3    0    0 -0.27554175629E+02 -0.14696769546E+02 -0.17554141791E+02  0.35824386774E+02  0.10566000000E+00 0.  1.
         23    2    1    0    0    0  0.27516063131E+02 -0.16838378955E+02 -0.48972052626E+01  0.92371065671E+02  0.86416239318E+02 0.  0.
         13    1    3    3    0    0  0.55070238760E+02 -0.21416094083E+01  0.12656936528E+02  0.56546678897E+02  0.10566000000E+00 0. -1.
         22    1    1    0    0    0 -0.27516063131E+02  0.16838378955E+02  0.48972052626E+01  0.32628934329E+02  0.00000000000E+00 0.  1.
</event>
<event>
 5    1  0.9041381E-005  0.9118800E+02  0.7818608E-02  0.1130116E+00
         25   -1    0    0    0    0  0.00000000000E+00  0.00000000000E+00  0.99999998245E-14  0.12500000000E+03  0.12500000000E+03 0.  0.
        -13    1    3    3    0    0 -0.37786274864E+02 -0.15556381972E+02  0.19735056201E+02  0.45379369712E+02  0.10566000000E+00 0.  1.
         23    2    1    0    0    0  0.95546380956E+01 -0.24937604239E+02 -0.18135357996E+01  0.98233152475E+02  0.94516073335E+02 0.  0.
         13    1    3    3    0    0  0.47340912960E+02 -0.93812222676E+01 -0.21548592001E+02  0.52853782763E+02  0.10566000000E+00 0. -1.
         22    1    1    0    0    0 -0.95546380956E+01  0.24937604239E+02  0.18135357996E+01  0.26766847525E+02  0.00000000000E+00 0. -1.
</event>
<event>
 5    1  0.9041381E-005  0.9118800E+02  0.7818608E-02  0.1130116E+00
         25   -1    0    0    0    0  0.00000000000E+00  0.00000000000E+00  0.99999998245E-14  0.12500000000E+03  0.12500000000E+03 0.  0.
        -13    1    3    3    0    0 -0.42486405617E+02  0.22154840612E+01 -0.85075018178E+01  0.43386539192E+02  0.10566000000E+00 0.  1.
         23    2    1    0    0    0 -0.69370759899E+00 -0.28964638238E+02 -0.16221478663E+01  0.95981680576E+02  0.91490000241E+02 0.  0.
         13    1    3    3    0    0  0.41792698018E+02 -0.31180122299E+02  0.68853539515E+01  0.52595141384E+02  0.10566000000E+00 0. -1.
         22    1    1    0    0    0  0.69370759899E+00  0.28964638238E+02  0.16221478663E+01  0.29018319424E+02  0.00000000000E+00 0. -1.
</event>
<event>
 5    1  0.9041381E-005  0.9118800E+02  0.7818608E-02  0.1130116E+00
         25   -1    0    0    0    0  0.00000000000E+00  0.00000000000E+00  0.99999998245E-14  0.12500000000E+03  0.12500000000E+03 0.  0.
        -13    1    3    3    0    0 -0.21599729511E+02 -0.12628841157E+02  0.57009098738E+02  0.62258207867E+02  0.10566000000E+00 0.  1.
         23    2    1    0    0    0 -0.63267079501E+01 -0.78729220115E+01  0.24839881486E+02  0.98185268103E+02  0.94452723760E+02 0.  0.
         13    1    3    3    0    0  0.15273021561E+02  0.47559191450E+01 -0.32169217252E+02  0.35927060236E+02  0.10566000000E+00 0. -1.
         22    1    1    0    0    0  0.63267079501E+01  0.78729220115E+01 -0.24839881486E+02  0.26814731897E+02  0.00000000000E+00 0.  1.
</event>
<event>
 5    1  0.9041381E-005  0.9118800E+02  0.7818608E-02  0.1130116E+00
         25   -1    0    0    0    0  0.00000000000E+00  0.00000000000E+00  0.99999998245E-14  0.12500000000E+03  0.12500000000E+03 0.  0.
        -13    1    3    3    0    0 -0.37906157067E+02 -0.41844662853E+02  0.20056152800E+02  0.59917551536E+02  0.10566000000E+00 0.  1.
         23    2    1    0    0    0 -0.70108375663E+01 -0.25882306035E+02  0.12045895886E+02  0.95603584967E+02  0.90971953051E+02 0.  0.
         13    1    3    3    0    0  0.30895319500E+02  0.15962356818E+02 -0.80102569146E+01  0.35686033432E+02  0.10566000000E+00 0. -1.
         22    1    1    0    0    0  0.70108375663E+01  0.25882306035E+02 -0.12045895886E+02  0.29396415033E+02  0.00000000000E+00 0.  1.
</event>
<event>
 5    1  0.9041381E-005  0.9118800E+02  0.7818608E-02  0.1130116E+00
         25   -1    0    0    0    0  0.00000000000E+00  0.00000000000E+00  0.99999998245E-14  0.12500000000E+03  0.12500000000E+03 0.  0.
        -13    1    3    3    0    0 -0.30121572605E+02  0.39760074023E+02  0.15912840970E+02  0.52358402328E+02  0.10566000000E+00 0.  1.
         23    2    1    0    0    0  0.50659973357E+00  0.10934680370E+02  0.27009102429E+02  0.95856982103E+02  0.91319469588E+02 0.  0.
         13    1    3    3    0    0  0.30628172339E+02 -0.28825393654E+02  0.11096261459E+02  0.43498579776E+02  0.10566000000E+00 0. -1.
         22    1    1    0    0    0 -0.50659973357E+00 -0.10934680370E+02 -0.27009102429E+02  0.29143017897E+02  0.00000000000E+00 0.  1.
</event>
<event>
 5    1  0.9041381E-005  0.9118800E+02  0.7818608E-02  0.1130116E+00
         25   -1    0    0    0    0  0.00000000000E+00  0.00000000000E+00  0.99999998245E-14  0.12500000000E+03  0.12500000000E+03 0.  0.
        -13    1    3    3    0    0 -0.45656020436E+01 -0.29627949769E+02  0.30570601306E+02  0.42816269779E+02  0.10566000000E+00 0. -1.
         23    2    1    0    0    0 -0.17458897244E+02 -0.18984474451E+02 -0.17579718793E+02  0.93786703538E+02  0.88440239058E+02 0.  0.
         13    1    3    3    0    0 -0.12893295200E+02  0.10643475318E+02 -0.48150320099E+02  0.50970433759E+02  0.10566000000E+00 0.  1.
         22    1    1    0    0    0  0.17458897244E+02  0.18984474451E+02  0.17579718793E+02  0.31213296462E+02  0.00000000000E+00 0.  1.
</event>
<event>
 5    1  0.9041381E-005  0.9118800E+02  0.7818608E-02  0.1130116E+00
         25   -1    0    0    0    0  0.00000000000E+00  0.00000000000E+00  0.99999998245E-14  0.12500000000E+03  0.12500000000E+03 0.  0.
        -13    1    3    3    0    0 -0.10544178115E+02  0.34791582959E+02  0.23401927884E+02  0.43235348150E+02  0.10566000000E+00 0.  1.
         23    2    1    0    0    0 -0.31535156880E+02  0.77222471345E+01 -0.99479473172E+01  0.91043249918E+02  0.84473738402E+02 0.  0.
         13    1    3    3    0    0 -0.20990978765E+02 -0.27069335825E+02 -0.33349875201E+02  0.47807901768E+02  0.10566000000E+00 0. -1.
         22    1    1    0    0    0  0.31535156880E+02 -0.77222471345E+01  0.99479473172E+01  0.33956750082E+02  0.00000000000E+00 0. -1.
</event>
<event>
 5    1  0.9041381E-005  0.9118800E+02  0.7818608E-02  0.1130116E+00
         25   -1    0    0    0    0  0.00000000000E+00  0.00000000000E+00  0.99999998245E-14  0.12500000000E+03  0.12500000000E+03 0.  0.
        -13    1    3    3    0    0  0.48126214865E+02 -0.32446929810E+02 -0.40708394854E+01  0.58185210401E+02  0.10566000000E+00 0.  1.
         23    2    1    0    0    0  0.38781570492E+02 -0.18676083553E+02 -0.16442391197E+02  0.78922255535E+02  0.64074674277E+02 0.  0.
         13    1    3    3    0    0 -0.93446443729E+01  0.13770846257E+02 -0.12371551712E+02  0.20737045134E+02  0.10566000000E+00 0. -1.
         22    1    1    0    0    0 -0.38781570492E+02  0.18676083553E+02  0.16442391197E+02  0.46077744465E+02  0.00000000000E+00 0.  1.
</event>
<event>
 5    1  0.9041381E-005  0.9118800E+02  0.7818608E-02  0.1130116E+00
         25   -1    0    0    0    0  0.00000000000E+00  0.00000000000E+00  0.99999998245E-14  0.12500000000E+03  0.12500000000E+03 0.  0.
        -13    1    3    3    0    0 -0.23242105413E+02 -0.36788364038E+02 -0.21665863040E+02  0.48610698184E+02  0.10566000000E+00 0.  1.
         23    2    1    0    0    0  0.18420233094E+02 -0.20121257120E+02 -0.14672336776E+02  0.94025051383E+02  0.88776476872E+02 0.  0.
         13    1    3    3    0    0  0.41662338507E+02  0.16667106918E+02  0.69935262637E+01  0.45414353199E+02  0.10566000000E+00 0. -1.
         22    1    1    0    0    0 -0.18420233094E+02  0.20121257120E+02  0.14672336776E+02  0.30974948617E+02  0.00000000000E+00 0. -1.
</event>
<event>
 5    1  0.9041381E-005  0.9118800E+02  0.7818608E-02  0.1130116E+00
         25   -1    0    0    0    0  0.00000000000E+00  0.00000000000E+00  0.99999998245E-14  0.12500000000E+03  0.12500000000E+03 0.  0.
        -13    1    3    3    0    0 -0.56993214497E+02  0.11337687784E+02  0.25886449913E+01  0.58167705043E+02  0.10566000000E+00 0. -1.
         23    2    1    0    0    0 -0.25462554451E+02 -0.19445478907E+01  0.15942309512E+02  0.94895512324E+02  0.89993766900E+02 0.  0.
         13    1    3    3    0    0  0.31530660046E+02 -0.13282235675E+02  0.13353664521E+02  0.36727807281E+02  0.10566000000E+00 0.  1.
         22    1    1    0    0    0  0.25462554451E+02  0.19445478907E+01 -0.15942309512E+02  0.30104487676E+02  0.00000000000E+00 0. -1.
</event>
<event>
 5    1  0.9041381E-005  0.9118800E+02  0.7818608E-02  0.1130116E+00
         25   -1    0    0    0    0  0.00000000000E+00  0.00000000000E+00  0.99999998245E-14  0.12500000000E+03  0.12500000000E+03 0.  0.
        -13    1    3    3    0    0  0.35049132692E+02 -0.17582670943E+02 -0.15083419049E+02  0.42013244509E+02  0.10566000000E+00 0.  1.
         23    2    1    0    0    0  0.13908161071E+02  0.19175954406E+02  0.17547889995E+02  0.95519792825E+02  0.90856745519E+02 0.  0.
         13    1    3    3    0    0 -0.21140971621E+02  0.36758625349E+02  0.32631309045E+02  0.53506548316E+02  0.10566000000E+00 0. -1.
         22    1    1    0    0    0 -0.13908161071E+02 -0.19175954406E+02 -0.17547889995E+02  0.29480207175E+02  0.00000000000E+00 0. -1.
</event>
<event>
 5    1  0.9041381E-005  0.9118800E+02  0.7818608E-02  0.1130116E+00
         25   -1    0    0    0    0  0.00000000000E+00  0.00000000000E+00  0.99999998245E-14  0.12500000000E+03  0.12500000000E+03 0.  0.
        -13    1    3    3    0    0  0.16116226320E+02 -0.50222689987E+02 -0.29144925159E+02  0.60261838396E+02  0.10566000000E+00 0. -1.
         23    2    1    0    0    0 -0.36419574564E+01 -0.26348040283E+02 -0.10670487422E+02  0.96340928440E+02  0.91979520057E+02 0.  0.
         13    1    3    3    0    0 -0.19758183776E+02  0.23874649704E+02  0.18474437737E+02  0.36079090044E+02  0.10566000000E+00 0.  1.
         22    1    1    0    0    0  0.36419574564E+01  0.26348040283E+02  0.10670487422E+02  0.28659071560E+02  0.00000000000E+00 0. -1.
</event>
<event>
 5    1  0.9041381E-005  0.9118800E+02  0.7818608E-02  0.1130116E+00
         25   -1    0    0    0    0  0.00000000000E+00  0.00000000000E+00  0.99999998245E-14  0.12500000000E+03  0.12500000000E+03 0.  0.
        -13    1    3    3    0    0 -0.39482667324E+02  0.16233583296E+02  0.11128854479E+01  0.42704331440E+02  0.10566000000E+00 0.  1.
         23    2    1    0    0    0 -0.12928060983E+02 -0.27917646686E+02  0.57827313975E+00  0.94228842123E+02  0.89062958242E+02 0.  0.
         13    1    3    3    0    0  0.26554606341E+02 -0.44151229981E+02 -0.53461230819E+00  0.51524510683E+02  0.10566000000E+00 0. -1.
         22    1    1    0    0    0  0.12928060983E+02  0.27917646686E+02 -0.57827313975E+00  0.30771157877E+02  0.00000000000E+00 0. -1.
</event>
<event>
 5    1  0.9041381E-005  0.9118800E+02  0.7818608E-02  0.1130116E+00
         25   -1    0    0    0    0  0.00000000000E+00  0.00000000000E+00  0.99999998245E-14  0.12500000000E+03  0.12500000000E+03 0.  0.
        -13    1    3    3    0    0  0.14332686559E+02 -0.55673103597E+02  0.36927688178E+01  0.57607014102E+02  0.10566000000E+00 0. -1.
         23    2    1    0    0    0  0.13072788508E+02 -0.28048637837E+02  0.18470570177E+02  0.88961328457E+02  0.81334691948E+02 0.  0.
         13    1    3    3    0    0 -0.12598980509E+01  0.27624465760E+02  0.14777801360E+02  0.31354314355E+02  0.10566000000E+00 0.  1.
         22    1    1    0    0    0 -0.13072788508E+02  0.28048637837E+02 -0.18470570177E+02  0.36038671543E+02  0.00000000000E+00 0. -1.
</event>
<event>
 5    1  0.9041381E-005  0.9118800E+02  0.7818608E-02  0.1130116E+00
         25   -1    0    0    0    0  0.00000000000E+00  0.00000000000E+00  0.99999998245E-14  0.12500000000E+03  0.12500000000E+03 0.  0.
        -13    1    3    3    0    0 -0.26172559150E+01 -0.83243355281E+01  0.43482572352E+02  0.44349631937E+02  0.10566000000E+00 0. -1.
         23    2    1    0    0    0  0.19208678074E+01  0.28480362124E+02  0.87873623318E+01  0.95132986480E+02  0.90323012682E+02 0.  0.
         13    1    3    3    0    0  0.45381237224E+01  0.36804697652E+02 -0.34695210021E+02  0.50783354543E+02  0.10566000000E+00 0.  1.
         22    1    1    0    0    0 -0.19208678074E+01 -0.28480362124E+02 -0.87873623318E+01  0.29867013520E+02  0.00000000000E+00 0.  1.
</event>
<event>
 5    1  0.9041381E-005  0.9118800E+02  0.7818608E-02  0.1130116E+00
         25   -1    0    0    0    0  0.00000000000E+00  0.00000000000E+00  0.99999998245E-14  0.12500000000E+03  0.12500000000E+03 0.  0.
        -13    1    3    3    0    0  0.50099115818E+02  0.11832537800E+02  0.23601448718E+02  0.56630114799E+02  0.10566000000E+00 0.  1.
         23    2    1    0    0    0  0.28473829084E+02  0.11720133895E+01 -0.70647464854E+01  0.95639427781E+02  0.91021189540E+02 0.  0.
         13    1    3    3    0    0 -0.21625286734E+02 -0.10660524410E+02 -0.30666195204E+02  0.39009312982E+02  0.10566000000E+00 0. -1.
         22    1    1    0    0    0 -0.28473829084E+02 -0.11720133895E+01  0.70647464854E+01  0.29360572219E+02  0.00000000000E+00 0.  1.
</event>
<event>
 5    1  0.9041381E-005  0.9118800E+02  0.7818608E-02  0.1130116E+00
         25   -1    0    0    0    0  0.00000000000E+00  0.00000000000E+00  0.99999998245E-14  0.12500000000E+03  0.12500000000E+03 0.  0.
        -13    1    3    3    0    0  0.28858931987E+02 -0.28775631418E+02  0.29655168634E+02  0.50401538763E+02  0.10566000000E+00 0. -1.
         23    2    1    0    0    0  0.52250448665E+01  0.10559683527E+02  0.26022674889E+02  0.96434503007E+02  0.92106599936E+02 0.  0.
         13    1    3    3    0    0 -0.23633887121E+02  0.39335314945E+02 -0.36324937444E+01  0.46032964244E+02  0.10566000000E+00 0.  1.
         22    1    1    0    0    0 -0.52250448665E+01 -0.10559683527E+02 -0.26022674889E+02  0.28565496993E+02  0.00000000000E+00 0. -1.
</event>
<event>
 5    1  0.9041381E-005  0.9118800E+02  0.7818608E-02  0.1130116E+00
         25   -1    0    0    0    0  0.00000000000E+00  0.00000000000E+00  0.99999998245E-14  0.12500000000E+03  0.12500000000E+03 0.  0.
        -13    1    3    3    0    0 -0.17739124387E+02 -0.19053756525E+01 -0.31182007873E+02  0.35925419544E+02  0.10566000000E+00 0.  1.
         23    2    1    0    0    0 -0.31411459135E+01 -0.20692198240E+02  0.22273340762E+02  0.94436368436E+02  0.89353747034E+02 0.  0.
         13    1    3    3    0    0  0.14597978474E+02 -0.18786822588E+02  0.53455348635E+02  0.58510948892E+02  0.10566000000E+00 0. -1.
         22    1    1    0    0    0  0.31411459135E+01  0.20692198240E+02 -0.22273340762E+02  0.30563631564E+02  0.00000000000E+00 0. -1.
</event>
<event>
 5    1  0.9041381E-005  0.9118800E+02  0.7818608E-02  0.1130116E+00
         25   -1    0    0    0    0  0.00000000000E+00  0.00000000000E+00  0.99999998245E-14  0.12500000000E+03  0.12500000000E+03 0.  0.
        -13    1    3    3    0    0 -0.19112003545E+02 -0.50714589033E+02 -0.22554415833E+02  0.58702223620E+02  0.10566000000E+00 0.  1.
         23    2    1    0    0    0  0.64175938107E+01 -0.26107103715E+02 -0.95806867298E+01  0.96459573708E+02  0.92140617683E+02 0.  0.
         13    1    3    3    0    0  0.25529597356E+02  0.24607485318E+02  0.12973729103E+02  0.37757350089E+02  0.10566000000E+00 0. -1.
         22    1    1    0    0    0 -0.64175938107E+01  0.26107103715E+02  0.95806867298E+01  0.28540426292E+02  0.00000000000E+00 0.  1.
</event>
<event>
 5    1  0.9041381E-005  0.9118800E+02  0.7818608E-02  0.1130116E+00
         25   -1    0    0    0    0  0.00000000000E+00  0.00000000000E+00  0.99999998245E-14  0.12500000000E+03  0.12500000000E+03 0.  0.
        -13    1    3    3    0    0 -0.41513281725E+02 -0.40913372947E+02  0.12034545744E+02  0.59515528233E+02  0.10566000000E+00 0.  1.
         23    2    1    0    0    0 -0.17167722920E+02 -0.23424905097E+02 -0.71313240904E+01  0.95094939018E+02  0.90270342608E+02 0.  0.
         13    1    3    3    0    0  0.24345558805E+02  0.17488467850E+02 -0.19165869835E+02  0.35579410785E+02  0.10566000000E+00 0. -1.
         22    1    1    0    0    0  0.17167722920E+02  0.23424905097E+02  0.71313240904E+01  0.29905060982E+02  0.00000000000E+00 0.  1.
</event>
<event>
 5    1  0.9041381E-005  0.9118800E+02  0.7818608E-02  0.1130116E+00
         25   -1    0    0    0    0  0.00000000000E+00  0.00000000000E+00  0.99999998245E-14  0.12500000000E+03  0.12500000000E+03 0.  0.
        -13    1    3    3    0    0  0.17833651485E+02 -0.49398463531E+02  0.31228447124E+02  0.61102163615E+02  0.10566000000E+00 0. -1.
         23    2    1    0    0    0  0.14637124033E+02 -0.18218787666E+02  0.19482493243E+02  0.94574070812E+02  0.89546176373E+02 0.  0.
         13    1    3    3    0    0 -0.31965274524E+01  0.31179675865E+02 -0.11745953881E+02  0.33471907197E+02  0.10566000000E+00 0.  1.
         22    1    1    0    0    0 -0.14637124033E+02  0.18218787666E+02 -0.19482493243E+02  0.30425929188E+02  0.00000000000E+00 0. -1.
</event>
<event>
 5    1  0.9041381E-005  0.9118800E+02  0.7818608E-02  0.1130116E+00
         25   -1    0    0    0    0  0.00000000000E+00  0.00000000000E+00  0.99999998245E-14  0.12500000000E+03  0.12500000000E+03 0.  0.
        -13    1    3    3    0    0  0.66075870311E+01  0.22363106686E+02 -0.18723507492E+02  0.29905679124E+02  0.10566000000E+00 0.  1.
         23    2    1    0    0    0 -0.34945204959E+02 -0.55590558864E+01  0.10772815205E+02  0.88011839740E+02  0.79862130795E+02 0.  0.
         13    1    3    3    0    0 -0.41552791990E+02 -0.27922162572E+02  0.29496322698E+02  0.58106160616E+02  0.10566000000E+00 0. -1.
         22    1    1    0    0    0  0.34945204959E+02  0.55590558864E+01 -0.10772815205E+02  0.36988160260E+02  0.00000000000E+00 0. -1.
</event>
<event>
 5    1  0.9041381E-005  0.9118800E+02  0.7818608E-02  0.1130116E+00
         25   -1    0    0    0    0  0.00000000000E+00  0.00000000000E+00  0.99999998245E-14  0.12500000000E+03  0.12500000000E+03 0.  0.
        -13    1    3    3    0    0 -0.26804677129E+01 -0.97911630718E+01  0.54546943613E+02  0.55483619232E+02  0.10566000000E+00 0.  1.
         23    2    1    0    0    0 -0.20431662324E+02  0.24499951309E+01  0.19393702780E+02  0.96723313330E+02  0.92497720689E+02 0.  0.
         13    1    3    3    0    0 -0.17751194611E+02  0.12241158203E+02 -0.35153240833E+02  0.41239694099E+02  0.10566000000E+00 0. -1.
         22    1    1    0    0    0  0.20431662324E+02 -0.24499951309E+01 -0.19393702780E+02  0.28276686670E+02  0.00000000000E+00 0.  1.
</event>
<event>
 5    1  0.9041381E-005  0.9118800E+02  0.7818608E-02  0.1130116E+00
         25   -1    0    0    0    0  0.00000000000E+00  0.00000000000E+00  0.99999998245E-14  0.12500000000E+03  0.12500000000E+03 0.  0.
        -13    1    3    3    0    0  0.32671683156E+00 -0.13808589834E+01  0.34556372530E+02  0.34585655436E+02  0.10566000000E+00 0. -1.
         23    2    1    0    0    0  0.10122908590E+02 -0.16789464241E+02 -0.22888670174E+02  0.94862803545E+02  0.89948323421E+02 0.  0.
         13    1    3    3    0    0  0.97961917583E+01 -0.15408605258E+02 -0.57445042704E+02  0.60277148110E+02  0.10566000000E+00 0.  1.
         22    1    1    0    0    0 -0.10122908590E+02  0.16789464241E+02  0.22888670174E+02  0.30137196455E+02  0.00000000000E+00 0.  1.
</event>
<event>
 5    1  0.9041381E-005  0.9118800E+02  0.7818608E-02  0.1130116E+00
         25   -1    0    0    0    0  0.00000000000E+00  0.00000000000E+00  0.99999998245E-14  0.12500000000E+03  0.12500000000E+03 0.  0.
        -13    1    3    3    0    0 -0.16220296863E+02  0.41529763985E+02 -0.32054599275E+02  0.54912000745E+02  0.10566000000E+00 0. -1.
         23    2    1    0    0    0 -0.22619725931E+02  0.39545399844E+01 -0.18980199315E+02  0.95208418073E+02  0.90427343864E+02 0.  0.
         13    1    3    3    0    0 -0.63994290680E+01 -0.37575224001E+02  0.13074399961E+02  0.40296417328E+02  0.10566000000E+00 0.  1.
         22    1    1    0    0    0  0.22619725931E+02 -0.39545399844E+01  0.18980199315E+02  0.29791581927E+02  0.00000000000E+00 0. -1.
</event>
<event>
 5    1  0.9041381E-005  0.9118800E+02  0.7818608E-02  0.1130116E+00
         25   -1    0    0    0    0  0.00000000000E+00  0.00000000000E+00  0.99999998245E-14  0.12500000000E+03  0.12500000000E+03 0.  0.
        -13    1    3    3    0    0 -0.11263052570E+02 -0.55525732282E+02  0.16525197987E+02  0.59017426505E+02  0.10566000000E+00 0.  1.
         23    2    1    0    0    0 -0.16067695830E+02 -0.18917998848E+02  0.15059035447E+02  0.95968360737E+02  0.91471799940E+02 0.  0.
         13    1    3    3    0    0 -0.48046432596E+01  0.36607733434E+02 -0.14661625402E+01  0.36950934232E+02  0.10566000000E+00 0. -1.
         22    1    1    0    0    0  0.16067695830E+02  0.18917998848E+02 -0.15059035447E+02  0.29031639263E+02  0.00000000000E+00 0.  1.
</event>
<event>
 5    1  0.9041381E-005  0.9118800E+02  0.7818608E-02  0.1130116E+00
         25   -1    0    0    0    0  0.00000000000E+00  0.00000000000E+00  0.99999998245E-14  0.12500000000E+03  0.12500000000E+03 0.  0.
        -13    1    3    3    0    0  0.36858686944E+02 -0.98564193026E+01 -0.19334305653E+02  0.42773103041E+02  0.10566000000E+00 0.  1.
         23    2    1    0    0    0 -0.13053424346E+02 -0.24606523827E+02 -0.76382596296E+01  0.96117203872E+02  0.91674974601E+02 0.  0.
         13    1    3    3    0    0 -0.49912111290E+02 -0.14750104524E+02  0.11696046023E+02  0.53344100831E+02  0.10566000000E+00 0. -1.
         22    1    1    0    0    0  0.13053424346E+02  0.24606523827E+02  0.76382596296E+01  0.28882796128E+02  0.00000000000E+00 0. -1.
</event>
<event>
 5    1  0.9041381E-005  0.9118800E+02  0.7818608E-02  0.1130116E+00
         25   -1    0    0    0    0  0.00000000000E+00  0.00000000000E+00  0.99999998245E-14  0.12500000000E+03  0.12500000000E+03 0.  0.
        -13    1    3    3    0    0  0.47908661762E+01 -0.37581299287E+02  0.19740641488E+02  0.42720142149E+02  0.10566000000E+00 0. -1.
         23    2    1    0    0    0 -0.55044540280E+01 -0.41454117443E+02 -0.16083984134E+02  0.80195564810E+02  0.66512338723E+02 0.  0.
         13    1    3    3    0    0 -0.10295320204E+02 -0.38728181556E+01 -0.35824625622E+02  0.37475422661E+02  0.10566000000E+00 0.  1.
         22    1    1    0    0    0  0.55044540280E+01  0.41454117443E+02  0.16083984134E+02  0.44804435190E+02  0.00000000000E+00 0. -1.
</event>
<event>
 5    1  0.9041381E-005  0.9118800E+02  0.7818608E-02  0.1130116E+00
         25   -1    0    0    0    0  0.00000000000E+00  0.00000000000E+00  0.99999998245E-14  0.12500000000E+03  0.12500000000E+03 0.  0.
        -13    1    3    3    0    0 -0.33019631713E+02  0.23650909532E+02  0.24442319336E+02  0.47403583605E+02  0.10566000000E+00 0.  1.
         23    2    1    0    0    0 -0.17731860735E+02  0.13329452406E+01 -0.19250799660E+02  0.98793342149E+02  0.95254057852E+02 0.  0.
         13    1    3    3    0    0  0.15287770978E+02 -0.22317964291E+02 -0.43693118996E+02  0.51389758544E+02  0.10566000000E+00 0. -1.
         22    1    1    0    0    0  0.17731860735E+02 -0.13329452406E+01  0.19250799660E+02  0.26206657851E+02  0.00000000000E+00 0. -1.
</event>
<event>
 5    1  0.9041381E-005  0.9118800E+02  0.7818608E-02  0.1130116E+00
         25   -1    0    0    0    0  0.00000000000E+00  0.00000000000E+00  0.99999998245E-14  0.12500000000E+03  0.12500000000E+03 0.  0.
        -13    1    3    3    0    0  0.32740835642E+02  0.20754225935E+02 -0.18148179758E+02  0.42802661194E+02  0.10566000000E+00 0.  1.
         23    2    1    0    0    0  0.12199953998E+01 -0.22709181621E+02 -0.17174272364E+02  0.96501737774E+02  0.92197800644E+02 0.  0.
         13    1    3    3    0    0 -0.31520840242E+02 -0.43463407556E+02  0.97390739451E+00  0.53699076580E+02  0.10566000000E+00 0. -1.
         22    1    1    0    0    0 -0.12199953998E+01  0.22709181621E+02  0.17174272364E+02  0.28498262226E+02  0.00000000000E+00 0. -1.
</event>
<event>
 5    1  0.9041381E-005  0.9118800E+02  0.7818608E-02  0.1130116E+00
         25   -1    0    0    0    0  0.00000000000E+00  0.00000000000E+00  0.99999998245E-14  0.12500000000E+03  0.12500000000E+03 0.  0.
        -13    1    3    3    0    0  0.18743735682E+02 -0.26763814293E+02 -0.35533799637E+02  0.48273092542E+02  0.10566000000E+00 0.  1.
         23    2    1    0    0    0 -0.17098995854E+02  0.20973181271E+01 -0.23541948145E+02  0.95828134701E+02  0.91279974119E+02 0.  0.
         13    1    3    3    0    0 -0.35842731536E+02  0.28861132420E+02  0.11991851492E+02  0.47555042159E+02  0.10566000000E+00 0. -1.
         22    1    1    0    0    0  0.17098995854E+02 -0.20973181271E+01  0.23541948145E+02  0.29171865299E+02  0.00000000000E+00 0.  1.
</event>
<event>
 5    1  0.9041381E-005  0.9118800E+02  0.7818608E-02  0.1130116E+00
         25   -1    0    0    0    0  0.00000000000E+00  0.00000000000E+00  0.99999998245E-14  0.12500000000E+03  0.12500000000E+03 0.  0.
        -13    1    3    3    0    0  0.29180611281E+01 -0.32610362064E+02  0.10829428681E+02  0.34485337236E+02  0.10566000000E+00 0. -1.
         23    2    1    0    0    0  0.15089648347E+02  0.25683960517E+02 -0.97430855394E+00  0.95195426656E+02  0.90409383717E+02 0.  0.
         13    1    3    3    0    0  0.12171587218E+02  0.58294322581E+02 -0.11803737235E+02  0.60710089420E+02  0.10566000000E+00 0.  1.
         22    1    1    0    0    0 -0.15089648347E+02 -0.25683960517E+02  0.97430855394E+00  0.29804573344E+02  0.00000000000E+00 0.  1.
</event>
<event>
 5    1  0.9041381E-005  0.9118800E+02  0.7818608E-02  0.1130116E+00
         25   -1    0    0    0    0  0.00000000000E+00  0.00000000000E+00  0.99999998245E-14  0.12500000000E+03  0.12500000000E+03 0.  0.
        -13    1    3    3    0    0 -0.29520065493E+02 -0.50888475724E+01  0.49550610685E+02  0.57901682355E+02  0.10566000000E+00 0.  1.
         23    2    1    0    0    0 -0.24835800389E+02 -0.87177596805E+01  0.11731083110E+02  0.96182737365E+02  0.91764286851E+02 0.  0.
         13    1    3    3    0    0  0.46842651032E+01 -0.36289121081E+01 -0.37819527575E+02  0.38281055010E+02  0.10566000000E+00 0. -1.
         22    1    1    0    0    0  0.24835800389E+02  0.87177596805E+01 -0.11731083110E+02  0.28817262635E+02  0.00000000000E+00 0.  1.
</event>
<event>
 5    1  0.9041381E-005  0.9118800E+02  0.7818608E-02  0.1130116E+00
         25   -1    0    0    0    0  0.00000000000E+00  0.00000000000E+00  0.99999998245E-14  0.12500000000E+03  0.12500000000E+03 0.  0.
        -13    1    3    3    0    0 -0.23014103583E+02  0.53181732330E+02  0.88527269576E+01  0.58620197509E+02  0.10566000000E+00 0.  1.
         23    2    1    0    0    0 -0.64173891850E+01  0.21287657221E+02  0.18754233684E+02  0.95912743083E+02  0.91395764512E+02 0.  0.
         13    1    3    3    0    0  0.16596714398E+02 -0.31894075109E+02  0.99015067261E+01  0.37292545574E+02  0.10566000000E+00 0. -1.
         22    1    1    0    0    0  0.64173891850E+01 -0.21287657221E+02 -0.18754233684E+02  0.29087256917E+02  0.00000000000E+00 0.  1.
</event>
<event>
 5    1  0.9041381E-005  0.9118800E+02  0.7818608E-02  0.1130116E+00
         25   -1    0    0    0    0  0.00000000000E+00  0.00000000000E+00  0.99999998245E-14  0.12500000000E+03  0.12500000000E+03 0.  0.
        -13    1    3    3    0    0  0.67590488906E+01 -0.32540701933E+02 -0.11441215915E+02  0.35149603267E+02  0.10566000000E+00 0. -1.
         23    2    1    0    0    0 -0.55709583871E+01  0.15378634160E+02  0.23959544674E+02  0.95989695849E+02  0.91500950608E+02 0.  0.
         13    1    3    3    0    0 -0.12330007278E+02  0.47919336093E+02  0.35400760589E+02  0.60840092582E+02  0.10566000000E+00 0.  1.
         22    1    1    0    0    0  0.55709583871E+01 -0.15378634160E+02 -0.23959544674E+02  0.29010304151E+02  0.00000000000E+00 0.  1.
</event>
<event>
 5    1  0.9041381E-005  0.9118800E+02  0.7818608E-02  0.1130116E+00
         25   -1    0    0    0    0  0.00000000000E+00  0.00000000000E+00  0.99999998245E-14  0.12500000000E+03  0.12500000000E+03 0.  0.
        -13    1    3    3    0    0 -0.54702333308E+00  0.37888669476E+02 -0.29564199962E+02  0.48061456414E+02  0.10566000000E+00 0. -1.
         23    2    1    0    0    0  0.21399390690E+02  0.18417420816E+02  0.79334131552E+01  0.95672975676E+02  0.91067249431E+02 0.  0.
         13    1    3    3    0    0  0.21946414024E+02 -0.19471248661E+02  0.37497613117E+02  0.47611519262E+02  0.10566000000E+00 0.  1.
         22    1    1    0    0    0 -0.21399390690E+02 -0.18417420816E+02 -0.79334131552E+01  0.29327024324E+02  0.00000000000E+00 0. -1.
</event>
<event>
 5    1  0.9041381E-005  0.9118800E+02  0.7818608E-02  0.1130116E+00
         25   -1    0    0    0    0  0.00000000000E+00  0.00000000000E+00  0.99999998245E-14  0.12500000000E+03  0.12500000000E+03 0.  0.
        -13    1    3    3    0    0  0.47524606603E+01 -0.10327054145E+02 -0.32720145930E+02  0.34638894950E+02  0.10566000000E+00 0.  1.
         23    2    1    0    0    0  0.72580882083E+01  0.20728706034E+02  0.19619570618E+02  0.95550269109E+02  0.90898664882E+02 0.  0.
         13    1    3    3    0    0  0.25056275480E+01  0.31055760179E+02  0.52339716548E+02  0.60911374160E+02  0.10566000000E+00 0. -1.
         22    1    1    0    0    0 -0.72580882083E+01 -0.20728706034E+02 -0.19619570618E+02  0.29449730891E+02  0.00000000000E+00 0. -1.
</event>
<event>
 5    1  0.9041381E-005  0.9118800E+02  0.7818608E-02  0.1130116E+00
         25   -1    0    0    0    0  0.00000000000E+00  0.00000000000E+00  0.99999998245E-14  0.12500000000E+03  0.12500000000E+03 0.  0.
        -13    1    3    3    0    0 -0.20430696703E+02  0.46337466490E+02  0.33823920817E+02  0.60898628490E+02  0.10566000000E+00 0.  1.
         23    2    1    0    0    0 -0.42907128681E+01  0.27896903163E+02  0.10057541643E+02  0.95036662955E+02  0.90189609926E+02 0.  0.
         13    1    3    3    0    0  0.16139983834E+02 -0.18440563327E+02 -0.23766379175E+02  0.34138034465E+02  0.10566000000E+00 0. -1.
         22    1    1    0    0    0  0.42907128681E+01 -0.27896903163E+02 -0.10057541643E+02  0.29963337045E+02  0.00000000000E+00 0.  1.
</event>
<event>
 5    1  0.9041381E-005  0.9118800E+02  0.7818608E-02  0.1130116E+00
         25   -1    0    0    0    0  0.00000000000E+00  0.00000000000E+00  0.99999998245E-14  0.12500000000E+03  0.12500000000E+03 0.  0.
        -13    1    3    3    0    0  0.27855413770E+02 -0.33037842716E+02 -0.33355939617E+01  0.43342363557E+02  0.10566000000E+00 0.  1.
         23    2    1    0    0    0 -0.22140597157E+02 -0.20049148184E+02 -0.27860923681E+01  0.95001055084E+02  0.90140245013E+02 0.  0.
         13    1    3    3    0    0 -0.49996010927E+02  0.12988694532E+02  0.54950159354E+00  0.51658691527E+02  0.10566000000E+00 0. -1.
         22    1    1    0    0    0  0.22140597157E+02  0.20049148184E+02  0.27860923681E+01  0.29998944916E+02  0.00000000000E+00 0. -1.
</event>
<event>
 5    1  0.9041381E-005  0.9118800E+02  0.7818608E-02  0.1130116E+00
         25   -1    0    0    0    0  0.00000000000E+00  0.00000000000E+00  0.99999998245E-14  0.12500000000E+03  0.12500000000E+03 0.  0.
        -13    1    3    3    0    0  0.54779048099E+01 -0.22429625209E+02 -0.35806524733E+02  0.42605327198E+02  0.10566000000E+00 0. -1.
         23    2    1    0    0    0 -0.11796063224E+02  0.22835422145E+02 -0.13945785310E+02  0.95758103002E+02  0.91184021356E+02 0.  0.
         13    1    3    3    0    0 -0.17273968034E+02  0.45265047354E+02  0.21860739423E+02  0.53152775804E+02  0.10566000000E+00 0.  1.
         22    1    1    0    0    0  0.11796063224E+02 -0.22835422145E+02  0.13945785310E+02  0.29241896998E+02  0.00000000000E+00 0.  1.
</event>
<event>
 5    1  0.9041381E-005  0.9118800E+02  0.7818608E-02  0.1130116E+00
         25   -1    0    0    0    0  0.00000000000E+00  0.00000000000E+00  0.99999998245E-14  0.12500000000E+03  0.12500000000E+03 0.  0.
        -13    1    3    3    0    0  0.50744082010E+02 -0.35367379465E+02 -0.68578830443E+00  0.61857051812E+02  0.10566000000E+00 0.  1.
         23    2    1    0    0    0  0.20716327484E+02 -0.20955241340E+02  0.30615369010E+01  0.95374649837E+02  0.90656839010E+02 0.  0.
         13    1    3    3    0    0 -0.30027754526E+02  0.14412138125E+02  0.37473252055E+01  0.33517598026E+02  0.10566000000E+00 0. -1.
         22    1    1    0    0    0 -0.20716327484E+02  0.20955241340E+02 -0.30615369010E+01  0.29625350163E+02  0.00000000000E+00 0.  1.
</event>
<event>
 5    1  0.9041381E-005  0.9118800E+02  0.7818608E-02  0.1130116E+00
         25   -1    0    0    0    0  0.00000000000E+00  0.00000000000E+00  0.99999998245E-14  0.12500000000E+03  0.12500000000E+03 0.  0.
        -13    1    3    3    0    0 -0.14793065775E+02  0.41944186560E+02 -0.40347257693E+02  0.60050494991E+02  0.10566000000E+00 0.  1.
         23    2    1    0    0    0 -0.10565395796E+02  0.10105787093E+02 -0.25878503762E+02  0.95277088332E+02  0.90522218725E+02 0.  0.
         13    1    3    3    0    0  0.42276699789E+01 -0.31838399467E+02  0.14468753931E+02  0.35226593341E+02  0.10566000000E+00 0. -1.
         22    1    1    0    0    0  0.10565395796E+02 -0.10105787093E+02  0.25878503762E+02  0.29722911668E+02  0.00000000000E+00 0.  1.
</event>
<event>
 5    1  0.9041381E-005  0.9118800E+02  0.7818608E-02  0.1130116E+00
         25   -1    0    0    0    0  0.00000000000E+00  0.00000000000E+00  0.99999998245E-14  0.12500000000E+03  0.12500000000E+03 0.  0.
        -13    1    3    3    0    0  0.38157716592E+02 -0.31680663797E+01  0.13948261090E+02  0.40750621241E+02  0.10566000000E+00 0. -1.
         23    2    1    0    0    0 -0.47373549668E+01  0.24321902535E+02  0.21423246146E+02  0.92244039467E+02  0.86232301760E+02 0.  0.
         13    1    3    3    0    0 -0.42895071559E+02  0.27489968915E+02  0.74749850558E+01  0.51493418226E+02  0.10566000000E+00 0.  1.
         22    1    1    0    0    0  0.47373549668E+01 -0.24321902535E+02 -0.21423246146E+02  0.32755960533E+02  0.00000000000E+00 0. -1.
</event>
<event>
 5    1  0.9041381E-005  0.9118800E+02  0.7818608E-02  0.1130116E+00
         25   -1    0    0    0    0  0.00000000000E+00  0.00000000000E+00  0.99999998245E-14  0.12500000000E+03  0.12500000000E+03 0.  0.
        -13    1    3    3    0    0  0.15351949628E+02 -0.12224887738E+02 -0.29113070278E+02  0.35110002315E+02  0.10566000000E+00 0.  1.
         23    2    1    0    0    0 -0.18038130903E+02  0.21638478400E+02  0.83139415693E+01  0.95627912258E+02  0.91005373822E+02 0.  0.
         13    1    3    3    0    0 -0.33390080530E+02  0.33863366137E+02  0.37427011847E+02  0.60517909942E+02  0.10566000000E+00 0. -1.
         22    1    1    0    0    0  0.18038130903E+02 -0.21638478400E+02 -0.83139415693E+01  0.29372087742E+02  0.00000000000E+00 0. -1.
</event>
<event>
 5    1  0.9041381E-005  0.9118800E+02  0.7818608E-02  0.1130116E+00
         25   -1    0    0    0    0  0.00000000000E+00  0.00000000000E+00  0.99999998245E-14  0.12500000000E+03  0.12500000000E+03 0.  0.
        -13    1    3    3    0    0  0.20882133868E+02 -0.34013440071E+02 -0.38839552974E+02  0.55691109341E+02  0.10566000000E+00 0.  1.
         23    2    1    0    0    0 -0.89727371966E+01 -0.10225393752E+02 -0.25445893269E+02  0.96145846496E+02  0.91714020869E+02 0.  0.
         13    1    3    3    0    0 -0.29854871065E+02  0.23788046319E+02  0.13393659705E+02  0.40454737155E+02  0.10566000000E+00 0. -1.
         22    1    1    0    0    0  0.89727371966E+01  0.10225393752E+02  0.25445893269E+02  0.28854153504E+02  0.00000000000E+00 0.  1.
</event>
<event>
 5    1  0.9041381E-005  0.9118800E+02  0.7818608E-02  0.1130116E+00
         25   -1    0    0    0    0  0.00000000000E+00  0.00000000000E+00  0.99999998245E-14  0.12500000000E+03  0.12500000000E+03 0.  0.
        -13    1    3    3    0    0  0.54190809599E-01 -0.30280159007E+02  0.45762911215E+02  0.54873911589E+02  0.10566000000E+00 0.  1.
         23    2    1    0    0    0  0.16479285162E+02  0.40911565961E+00  0.23857620087E+02  0.96001375010E+02  0.91516904190E+02 0.  0.
         13    1    3    3    0    0  0.16425094353E+02  0.30689274667E+02 -0.21905291128E+02  0.41127463422E+02  0.10566000000E+00 0. -1.
         22    1    1    0    0    0 -0.16479285162E+02 -0.40911565961E+00 -0.23857620087E+02  0.28998624990E+02  0.00000000000E+00 0.  1.
</event>
<event>
 5    1  0.9041381E-005  0.9118800E+02  0.7818608E-02  0.1130116E+00
         25   -1    0    0    0    0  0.00000000000E+00  0.00000000000E+00  0.99999998245E-14  0.12500000000E+03  0.12500000000E+03 0.  0.
        -13    1    3    3    0    0  0.74513431517E+01 -0.30814826680E+02 -0.10632242383E+02  0.33438477839E+02  0.10566000000E+00 0. -1.
         23    2    1    0    0    0  0.45402081127E+01  0.21299766814E+02  0.21226043743E+02  0.94588842689E+02  0.89566794473E+02 0.  0.
         13    1    3    3    0    0 -0.29111350390E+01  0.52114593494E+02  0.31858286126E+02  0.61150364849E+02  0.10566000000E+00 0.  1.
         22    1    1    0    0    0 -0.45402081127E+01 -0.21299766814E+02 -0.21226043743E+02  0.30411157311E+02  0.00000000000E+00 0.  1.
</event>
<event>
 5    1  0.9041381E-005  0.9118800E+02  0.7818608E-02  0.1130116E+00
         25   -1    0    0    0    0  0.00000000000E+00  0.00000000000E+00  0.99999998245E-14  0.12500000000E+03  0.12500000000E+03 0.  0.
        -13    1    3    3    0    0  0.16474758431E+01 -0.96676715230E+01 -0.37283035983E+02  0.38551445958E+02  0.10566000000E+00 0. -1.
         23    2    1    0    0    0  0.24215109371E+02  0.87903581508E+00  0.15025309201E+02  0.96488526128E+02  0.92179886808E+02 0.  0.
         13    1    3    3    0    0  0.22567633527E+02  0.10546707338E+02  0.52308345183E+02  0.57937080170E+02  0.10566000000E+00 0.  1.
         22    1    1    0    0    0 -0.24215109371E+02 -0.87903581508E+00 -0.15025309201E+02  0.28511473872E+02  0.00000000000E+00 0. -1.
</event>
<event>
 5    1  0.9041381E-005  0.9118800E+02  0.7818608E-02  0.1130116E+00
         25   -1    0    0    0    0  0.00000000000E+00  0.00000000000E+00  0.99999998245E-14  0.12500000000E+03  0.12500000000E+03 0.  0.
        -13    1    3    3    0    0 -0.25281112360E+02  0.14522473672E+02  0.26201659832E+02  0.39199171238E+02  0.10566000000E+00 0.  1.
         23    2    1    0    0    0 -0.11889704007E+02 -0.21239166659E+02 -0.15812279928E+02  0.95974227689E+02  0.91479817021E+02 0.  0.
         13    1    3    3    0    0  0.13391408353E+02 -0.35761640331E+02 -0.42013939760E+02  0.56775056451E+02  0.10566000000E+00 0. -1.
         22    1    1    0    0    0  0.11889704007E+02  0.21239166659E+02  0.15812279928E+02  0.29025772311E+02  0.00000000000E+00 0. -1.
</event>
<event>
 5    1  0.9041381E-005  0.9118800E+02  0.7818608E-02  0.1130116E+00
         25   -1    0    0    0    0  0.00000000000E+00  0.00000000000E+00  0.99999998245E-14  0.12500000000E+03  0.12500000000E+03 0.  0.
        -13    1    3    3    0    0  0.19973658944E+02  0.43673966866E+02  0.25783428878E+01  0.48093881623E+02  0.10566000000E+00 0. -1.
         23    2    1    0    0    0 -0.21307760909E+02  0.19900907552E+02  0.25669039751E+01  0.95731317209E+02  0.91147294541E+02 0.  0.
         13    1    3    3    0    0 -0.41281419853E+02 -0.23773059315E+02 -0.11438912659E-01  0.47637435586E+02  0.10566000000E+00 0.  1.
         22    1    1    0    0    0  0.21307760909E+02 -0.19900907552E+02 -0.25669039751E+01  0.29268682791E+02  0.00000000000E+00 0.  1.
</event>
<event>
 5    1  0.9041381E-005  0.9118800E+02  0.7818608E-02  0.1130116E+00
         25   -1    0    0    0    0  0.00000000000E+00  0.00000000000E+00  0.99999998245E-14  0.12500000000E+03  0.12500000000E+03 0.  0.
        -13    1    3    3    0    0  0.17358840272E+02  0.38618213323E+02 -0.17882464617E+02  0.45961825906E+02  0.10566000000E+00 0.  1.
         23    2    1    0    0    0  0.32471249644E+02 -0.26229571762E+01 -0.32351177109E+01  0.92262743787E+02  0.86259410772E+02 0.  0.
         13    1    3    3    0    0  0.15112409372E+02 -0.41241170499E+02  0.14647346907E+02  0.46300917880E+02  0.10566000000E+00 0. -1.
         22    1    1    0    0    0 -0.32471249644E+02  0.26229571762E+01  0.32351177109E+01  0.32737256213E+02  0.00000000000E+00 0. -1.
</event>
<event>
 5    1  0.9041381E-005  0.9118800E+02  0.7818608E-02  0.1130116E+00
         25   -1    0    0    0    0  0.00000000000E+00  0.00000000000E+00  0.99999998245E-14  0.12500000000E+03  0.12500000000E+03 0.  0.
        -13    1    3    3    0    0 -0.33025892539E+02 -0.49742523709E+02 -0.92033726149E+01  0.60413090258E+02  0.10566000000E+00 0. -1.
         23    2    1    0    0    0 -0.12509159564E+02 -0.26357907691E+02  0.62702562934E+01  0.95158175578E+02  0.90357865703E+02 0.  0.
         13    1    3    3    0    0  0.20516732975E+02  0.23384616018E+02  0.15473628908E+02  0.34745085320E+02  0.10566000000E+00 0.  1.
         22    1    1    0    0    0  0.12509159564E+02  0.26357907691E+02 -0.62702562934E+01  0.29841824422E+02  0.00000000000E+00 0. -1.
</event>
<event>
 5    1  0.9041381E-005  0.9118800E+02  0.7818608E-02  0.1130116E+00
         25   -1    0    0    0    0  0.00000000000E+00  0.00000000000E+00  0.99999998245E-14  0.12500000000E+03  0.12500000000E+03 0.  0.
        -13    1    3    3    0    0 -0.18024136704E+02 -0.61934801262E+00  0.24729267918E+02  0.30607204244E+02  0.10566000000E+00 0.  1.
         23    2    1    0    0    0 -0.28005559050E+02 -0.43715342114E+01 -0.28446968791E+02  0.84842165366E+02  0.74736479323E+02 0.  0.
         13    1    3    3    0    0 -0.99814223469E+01 -0.37521861988E+01 -0.53176236709E+02  0.54234961122E+02  0.10566000000E+00 0. -1.
         22    1    1    0    0    0  0.28005559050E+02  0.43715342114E+01  0.28446968791E+02  0.40157834634E+02  0.00000000000E+00 0. -1.
</event>
<event>
 5    1  0.9041381E-005  0.9118800E+02  0.7818608E-02  0.1130116E+00
         25   -1    0    0    0    0  0.00000000000E+00  0.00000000000E+00  0.99999998245E-14  0.12500000000E+03  0.12500000000E+03 0.  0.
        -13    1    3    3    0    0  0.18722693297E+02  0.58659780751E+02 -0.29241820233E+00  0.61576016391E+02  0.10566000000E+00 0. -1.
         23    2    1    0    0    0  0.17131843559E+01  0.22824464851E+02  0.49319668019E+01  0.10158599793E+03  0.98850895205E+02 0.  0.
         13    1    3    3    0    0 -0.17009508941E+02 -0.35835315901E+02  0.52243850042E+01  0.40009981540E+02  0.10566000000E+00 0.  1.
         22    1    1    0    0    0 -0.17131843559E+01 -0.22824464851E+02 -0.49319668019E+01  0.23414002069E+02  0.00000000000E+00 0. -1.
</event>
<event>
 5    1  0.9041381E-005  0.9118800E+02  0.7818608E-02  0.1130116E+00
         25   -1    0    0    0    0  0.00000000000E+00  0.00000000000E+00  0.99999998245E-14  0.12500000000E+03  0.12500000000E+03 0.  0.
        -13    1    3    3    0    0 -0.31160635936E+02  0.28667817554E+01  0.17430263492E+02  0.35819393057E+02  0.10566000000E+00 0. -1.
         23    2    1    0    0    0  0.11760634389E+02  0.14655564988E+02 -0.22548225475E+02  0.95648329205E+02  0.91033413103E+02 0.  0.
         13    1    3    3    0    0  0.42921270325E+02  0.11788783233E+02 -0.39978488967E+02  0.59828936148E+02  0.10566000000E+00 0.  1.
         22    1    1    0    0    0 -0.11760634389E+02 -0.14655564988E+02  0.22548225475E+02  0.29351670795E+02  0.00000000000E+00 0.  1.
</event>
<event>
 5    1  0.9041381E-005  0.9118800E+02  0.7818608E-02  0.1130116E+00
         25   -1    0    0    0    0  0.00000000000E+00  0.00000000000E+00  0.99999998245E-14  0.12500000000E+03  0.12500000000E+03 0.  0.
        -13    1    3    3    0    0 -0.24498103333E+02  0.22206438279E+02  0.41125598848E+02  0.52769394658E+02  0.10566000000E+00 0.  1.
         23    2    1    0    0    0 -0.37134020441E+02  0.77891621136E+01  0.17439311205E+02  0.83241933763E+02  0.72010300934E+02 0.  0.
         13    1    3    3    0    0 -0.12635917108E+02 -0.14417276165E+02 -0.23686287642E+02  0.30472539105E+02  0.10566000000E+00 0. -1.
         22    1    1    0    0    0  0.37134020441E+02 -0.77891621136E+01 -0.17439311205E+02  0.41758066237E+02  0.00000000000E+00 0.  1.
</event>
<event>
 5    1  0.9041381E-005  0.9118800E+02  0.7818608E-02  0.1130116E+00
         25   -1    0    0    0    0  0.00000000000E+00  0.00000000000E+00  0.99999998245E-14  0.12500000000E+03  0.12500000000E+03 0.  0.
        -13    1    3    3    0    0  0.11971564055E+02 -0.34315036546E+02  0.40649859944E+01  0.36570142934E+02  0.10566000000E+00 0.  1.
         23    2    1    0    0    0 -0.19264337922E+02  0.84550266865E+01 -0.21097456801E+02  0.95205623428E+02  0.90423480672E+02 0.  0.
         13    1    3    3    0    0 -0.31235901977E+02  0.42770063232E+02 -0.25162442796E+02  0.58635480493E+02  0.10566000000E+00 0. -1.
         22    1    1    0    0    0  0.19264337922E+02 -0.84550266865E+01  0.21097456801E+02  0.29794376572E+02  0.00000000000E+00 0. -1.
</event>
<event>
 5    1  0.9041381E-005  0.9118800E+02  0.7818608E-02  0.1130116E+00
         25   -1    0    0    0    0  0.00000000000E+00  0.00000000000E+00  0.99999998245E-14  0.12500000000E+03  0.12500000000E+03 0.  0.
        -13    1    3    3    0    0 -0.29532743726E+02 -0.20548139499E+02  0.16848596593E+02  0.39727765606E+02  0.10566000000E+00 0.  1.
         23    2    1    0    0    0  0.43202684303E+01 -0.63550425658E+01 -0.27008380451E+02  0.96919688394E+02  0.92762719335E+02 0.  0.
         13    1    3    3    0    0  0.33853012157E+02  0.14193096933E+02 -0.43856977044E+02  0.57191922787E+02  0.10566000000E+00 0. -1.
         22    1    1    0    0    0 -0.43202684303E+01  0.63550425658E+01  0.27008380451E+02  0.28080311606E+02  0.00000000000E+00 0. -1.
</event>
<event>
 5    1  0.9041381E-005  0.9118800E+02  0.7818608E-02  0.1130116E+00
         25   -1    0    0    0    0  0.00000000000E+00  0.00000000000E+00  0.99999998245E-14  0.12500000000E+03  0.12500000000E+03 0.  0.
        -13    1    3    3    0    0 -0.45726406384E+02 -0.29436394819E+02 -0.13464463377E+02  0.56024177984E+02  0.10566000000E+00 0. -1.
         23    2    1    0    0    0 -0.22038868802E+02 -0.11468057804E+02  0.13985578290E+02  0.96489923045E+02  0.92181781071E+02 0.  0.
         13    1    3    3    0    0  0.23687537582E+02  0.17968337015E+02  0.27450041667E+02  0.40465745061E+02  0.10566000000E+00 0.  1.
         22    1    1    0    0    0  0.22038868802E+02  0.11468057804E+02 -0.13985578290E+02  0.28510076955E+02  0.00000000000E+00 0. -1.
</event>
<event>
 5    1  0.9041381E-005  0.9118800E+02  0.7818608E-02  0.1130116E+00
         25   -1    0    0    0    0  0.00000000000E+00  0.00000000000E+00  0.99999998245E-14  0.12500000000E+03  0.12500000000E+03 0.  0.
        -13    1    3    3    0    0 -0.32006191047E+02 -0.10108502849E+02 -0.12786835501E+02  0.35917856581E+02  0.10566000000E+00 0. -1.
         23    2    1    0    0    0  0.91054714579E+01  0.27006568498E+02  0.85073039856E+01  0.95257125667E+02  0.90494648552E+02 0.  0.
         13    1    3    3    0    0  0.41111662505E+02  0.37115071348E+02  0.21294139487E+02  0.59339269085E+02  0.10566000000E+00 0.  1.
         22    1    1    0    0    0 -0.91054714579E+01 -0.27006568498E+02 -0.85073039856E+01  0.29742874333E+02  0.00000000000E+00 0.  1.
</event>
<event>
 5    1  0.9041381E-005  0.9118800E+02  0.7818608E-02  0.1130116E+00
         25   -1    0    0    0    0  0.00000000000E+00  0.00000000000E+00  0.99999998245E-14  0.12500000000E+03  0.12500000000E+03 0.  0.
        -13    1    3    3    0    0  0.39522607029E+02  0.79987665954E+01 -0.22802623693E+02  0.46324804853E+02  0.10566000000E+00 0. -1.
         23    2    1    0    0    0 -0.12671514019E+01 -0.21442100203E+02 -0.18212393119E+02  0.96838668410E+02  0.92653478631E+02 0.  0.
         13    1    3    3    0    0 -0.40789758431E+02 -0.29440866798E+02  0.45902305732E+01  0.50513863557E+02  0.10566000000E+00 0.  1.
         22    1    1    0    0    0  0.12671514019E+01  0.21442100203E+02  0.18212393119E+02  0.28161331590E+02  0.00000000000E+00 0. -1.
</event>
<event>
 5    1  0.9041381E-005  0.9118800E+02  0.7818608E-02  0.1130116E+00
         25   -1    0    0    0    0  0.00000000000E+00  0.00000000000E+00  0.99999998245E-14  0.12500000000E+03  0.12500000000E+03 0.  0.
        -13    1    3    3    0    0 -0.54868687072E+00  0.54643234887E+02  0.21773579566E+02  0.58824179615E+02  0.10566000000E+00 0.  1.
         23    2    1    0    0    0  0.39553399162E+01  0.17235719625E+02  0.22342237885E+02  0.96506310548E+02  0.92204000115E+02 0.  0.
         13    1    3    3    0    0  0.45040267869E+01 -0.37407515262E+02  0.56865831896E+00  0.37682130933E+02  0.10566000000E+00 0. -1.
         22    1    1    0    0    0 -0.39553399162E+01 -0.17235719625E+02 -0.22342237885E+02  0.28493689452E+02  0.00000000000E+00 0.  1.
</event>
<event>
 5    1  0.9041381E-005  0.9118800E+02  0.7818608E-02  0.1130116E+00
         25   -1    0    0    0    0  0.00000000000E+00  0.00000000000E+00  0.99999998245E-14  0.12500000000E+03  0.12500000000E+03 0.  0.
        -13    1    3    3    0    0  0.85307073142E+01  0.32940666616E+02  0.33765882637E+02  0.47937526831E+02  0.10566000000E+00 0. -1.
         23    2    1    0    0    0 -0.67946996600E+01 -0.12351211044E+02  0.24636047569E+02  0.96615934090E+02  0.92352496028E+02 0.  0.
         13    1    3    3    0    0 -0.15325406974E+02 -0.45291877660E+02 -0.91298350673E+01  0.48678407259E+02  0.10566000000E+00 0.  1.
         22    1    1    0    0    0  0.67946996600E+01  0.12351211044E+02 -0.24636047569E+02  0.28384065910E+02  0.00000000000E+00 0. -1.
</event>
<event>
 5    1  0.9041381E-005  0.9118800E+02  0.7818608E-02  0.1130116E+00
         25   -1    0    0    0    0  0.00000000000E+00  0.00000000000E+00  0.99999998245E-14  0.12500000000E+03  0.12500000000E+03 0.  0.
        -13    1    3    3    0    0  0.33329724908E+02 -0.48608670144E+02  0.18068374308E+02  0.61645362274E+02  0.10566000000E+00 0. -1.
         23    2    1    0    0    0  0.15526995402E+02 -0.19632604301E+02  0.15064146641E+02  0.95786043543E+02  0.91222315723E+02 0.  0.
         13    1    3    3    0    0 -0.17802729506E+02  0.28976065844E+02 -0.30042276675E+01  0.34140681270E+02  0.10566000000E+00 0.  1.
         22    1    1    0    0    0 -0.15526995402E+02  0.19632604301E+02 -0.15064146641E+02  0.29213956457E+02  0.00000000000E+00 0. -1.
</event>
<event>
 5    1  0.9041381E-005  0.9118800E+02  0.7818608E-02  0.1130116E+00
         25   -1    0    0    0    0  0.00000000000E+00  0.00000000000E+00  0.99999998245E-14  0.12500000000E+03  0.12500000000E+03 0.  0.
        -13    1    3    3    0    0 -0.14770040351E+02  0.38359451536E+02  0.23780848773E+02  0.47488330635E+02  0.10566000000E+00 0.  1.
         23    2    1    0    0    0 -0.29938596661E+01 -0.40264014841E+01  0.32313163960E+02  0.92299607499E+02  0.86312814082E+02 0.  0.
         13    1    3    3    0    0  0.11776180685E+02 -0.42385853020E+02  0.85323151867E+01  0.44811276864E+02  0.10566000000E+00 0. -1.
         22    1    1    0    0    0  0.29938596661E+01  0.40264014841E+01 -0.32313163960E+02  0.32700392501E+02  0.00000000000E+00 0.  1.
</event>
<event>
 5    1  0.9041381E-005  0.9118800E+02  0.7818608E-02  0.1130116E+00
         25   -1    0    0    0    0  0.00000000000E+00  0.00000000000E+00  0.99999998245E-14  0.12500000000E+03  0.12500000000E+03 0.  0.
        -13    1    3    3    0    0  0.89279470010E+01  0.33158463385E+02 -0.22057552011E+02  0.40813462196E+02  0.10566000000E+00 0.  1.
         23    2    1    0    0    0 -0.29662728151E+02  0.13431924140E+02  0.52181795530E+01  0.92022379932E+02  0.85910389262E+02 0.  0.
         13    1    3    3    0    0 -0.38590675152E+02 -0.19726539245E+02  0.27275731564E+02  0.51208917736E+02  0.10566000000E+00 0. -1.
         22    1    1    0    0    0  0.29662728151E+02 -0.13431924140E+02 -0.52181795530E+01  0.32977620068E+02  0.00000000000E+00 0. -1.
</event>
<event>
 5    1  0.9041381E-005  0.9118800E+02  0.7818608E-02  0.1130116E+00
         25   -1    0    0    0    0  0.00000000000E+00  0.00000000000E+00  0.99999998245E-14  0.12500000000E+03  0.12500000000E+03 0.  0.
        -13    1    3    3    0    0  0.13364572616E+02  0.34643627079E+02  0.30955671808E+01  0.37261057400E+02  0.10566000000E+00 0. -1.
         23    2    1    0    0    0  0.14031718865E+02 -0.21604726624E+02 -0.13506923593E+02  0.95912368062E+02  0.91395251603E+02 0.  0.
         13    1    3    3    0    0  0.66714624923E+00 -0.56248353703E+02 -0.16602490773E+02  0.58651310662E+02  0.10566000000E+00 0.  1.
         22    1    1    0    0    0 -0.14031718865E+02  0.21604726624E+02  0.13506923593E+02  0.29087631938E+02  0.00000000000E+00 0.  1.
</event>
<event>
 5    1  0.9041381E-005  0.9118800E+02  0.7818608E-02  0.1130116E+00
         25   -1    0    0    0    0  0.00000000000E+00  0.00000000000E+00  0.99999998245E-14  0.12500000000E+03  0.12500000000E+03 0.  0.
        -13    1    3    3    0    0  0.28013183371E+02  0.11074249426E+01  0.20117734073E+02  0.34506509833E+02  0.10566000000E+00 0.  1.
         23    2    1    0    0    0 -0.73541051657E+01  0.68876014798E+01 -0.28423636218E+02  0.94843325568E+02  0.89921251059E+02 0.  0.
         13    1    3    3    0    0 -0.35367288537E+02  0.57801765371E+01 -0.48541370291E+02  0.60336815735E+02  0.10566000000E+00 0. -1.
         22    1    1    0    0    0  0.73541051657E+01 -0.68876014798E+01  0.28423636218E+02  0.30156674432E+02  0.00000000000E+00 0. -1.
</event>
<event>
 5    1  0.9041381E-005  0.9118800E+02  0.7818608E-02  0.1130116E+00
         25   -1    0    0    0    0  0.00000000000E+00  0.00000000000E+00  0.99999998245E-14  0.12500000000E+03  0.12500000000E+03 0.  0.
        -13    1    3    3    0    0 -0.38208585096E+02 -0.18219714059E+02 -0.26753991984E+02  0.50076353766E+02  0.10566000000E+00 0. -1.
         23    2    1    0    0    0 -0.13857501544E+02  0.14515488413E+02 -0.27589137486E+02  0.90884164086E+02  0.84238002240E+02 0.  0.
         13    1    3    3    0    0  0.24351083552E+02  0.32735202472E+02 -0.83514550202E+00  0.40807810319E+02  0.10566000000E+00 0.  1.
         22    1    1    0    0    0  0.13857501544E+02 -0.14515488413E+02  0.27589137486E+02  0.34115835914E+02  0.00000000000E+00 0.  1.
</event>
<event>
 5    1  0.9041381E-005  0.9118800E+02  0.7818608E-02  0.1130116E+00
         25   -1    0    0    0    0  0.00000000000E+00  0.00000000000E+00  0.99999998245E-14  0.12500000000E+03  0.12500000000E+03 0.  0.
        -13    1    3    3    0    0 -0.29772827548E+02  0.21750605702E+02 -0.29439377945E+02  0.47182605338E+02  0.10566000000E+00 0.  1.
         23    2    1    0    0    0  0.14322402717E+01 -0.17444898493E+02 -0.20448067629E+02  0.98083475979E+02  0.94317914495E+02 0.  0.
         13    1    3    3    0    0  0.31205067820E+02 -0.39195504195E+02  0.89913103169E+01  0.50900870641E+02  0.10566000000E+00 0. -1.
         22    1    1    0    0    0 -0.14322402717E+01  0.17444898493E+02  0.20448067629E+02  0.26916524021E+02  0.00000000000E+00 0. -1.
</event>
<event>
 5    1  0.9041381E-005  0.9118800E+02  0.7818608E-02  0.1130116E+00
         25   -1    0    0    0    0  0.00000000000E+00  0.00000000000E+00  0.99999998245E-14  0.12500000000E+03  0.12500000000E+03 0.  0.
        -13    1    3    3    0    0 -0.45198012288E+02 -0.64148457993E+01 -0.36350270895E+02  0.58355496054E+02  0.10566000000E+00 0. -1.
         23    2    1    0    0    0 -0.75004106206E+01 -0.48443576721E+01 -0.26043585939E+02  0.97468339511E+02  0.93499116989E+02 0.  0.
         13    1    3    3    0    0  0.37697601668E+02  0.15704881272E+01  0.10306684956E+02  0.39112843457E+02  0.10566000000E+00 0.  1.
         22    1    1    0    0    0  0.75004106206E+01  0.48443576721E+01  0.26043585939E+02  0.27531660489E+02  0.00000000000E+00 0. -1.
</event>
<event>
 5    1  0.9041381E-005  0.9118800E+02  0.7818608E-02  0.1130116E+00
         25   -1    0    0    0    0  0.00000000000E+00  0.00000000000E+00  0.99999998245E-14  0.12500000000E+03  0.12500000000E+03 0.  0.
        -13    1    3    3    0    0 -0.26884833144E+02  0.16205360138E+02  0.15431066211E+01  0.31429290359E+02  0.10566000000E+00 0.  1.
         23    2    1    0    0    0  0.15142797498E+02 -0.28438240883E+02 -0.50792618055E+00  0.92777401570E+02  0.87002013726E+02 0.  0.
         13    1    3    3    0    0  0.42027630642E+02 -0.44643601021E+02 -0.20510328017E+01  0.61348111211E+02  0.10566000000E+00 0. -1.
         22    1    1    0    0    0 -0.15142797498E+02  0.28438240883E+02  0.50792618055E+00  0.32222598430E+02  0.00000000000E+00 0. -1.
</event>
<event>
 5    1  0.9041381E-005  0.9118800E+02  0.7818608E-02  0.1130116E+00
         25   -1    0    0    0    0  0.00000000000E+00  0.00000000000E+00  0.99999998245E-14  0.12500000000E+03  0.12500000000E+03 0.  0.
        -13    1    3    3    0    0  0.37547174855E+02 -0.21231204366E+02 -0.18702411445E+01  0.43174799877E+02  0.10566000000E+00 0.  1.
         23    2    1    0    0    0 -0.14148492304E+02 -0.23575608395E+02 -0.10364332086E+02  0.95616185998E+02  0.90989265848E+02 0.  0.
         13    1    3    3    0    0 -0.51695667160E+02 -0.23444040289E+01 -0.84940909415E+01  0.52441386121E+02  0.10566000000E+00 0. -1.
         22    1    1    0    0    0  0.14148492304E+02  0.23575608395E+02  0.10364332086E+02  0.29383814002E+02  0.00000000000E+00 0.  1.
</event>
<event>
 5    1  0.9041381E-005  0.9118800E+02  0.7818608E-02  0.1130116E+00
         25   -1    0    0    0    0  0.00000000000E+00  0.00000000000E+00  0.99999998245E-14  0.12500000000E+03  0.12500000000E+03 0.  0.
        -13    1    3    3    0    0  0.23253267354E+02 -0.68912917039E+00 -0.36628556878E+02  0.43391838918E+02  0.10566000000E+00 0. -1.
         23    2    1    0    0    0 -0.45730584892E+01  0.28440991157E+02 -0.26880667658E+01  0.96068554393E+02  0.91608616398E+02 0.  0.
         13    1    3    3    0    0 -0.27826325844E+02  0.29130120328E+02  0.33940490112E+02  0.52676715476E+02  0.10566000000E+00 0.  1.
         22    1    1    0    0    0  0.45730584892E+01 -0.28440991157E+02  0.26880667658E+01  0.28931445607E+02  0.00000000000E+00 0. -1.
</event>
<event>
 5    1  0.9041381E-005  0.9118800E+02  0.7818608E-02  0.1130116E+00
         25   -1    0    0    0    0  0.00000000000E+00  0.00000000000E+00  0.99999998245E-14  0.12500000000E+03  0.12500000000E+03 0.  0.
        -13    1    3    3    0    0 -0.27145209332E+02 -0.12171311710E+02  0.15569522942E+02  0.33577141438E+02  0.10566000000E+00 0.  1.
         23    2    1    0    0    0  0.18336508345E+02  0.24997814920E+02  0.15808159927E+01  0.93957814699E+02  0.88681755027E+02 0.  0.
         13    1    3    3    0    0  0.45481717678E+02  0.37169126630E+02 -0.13988706949E+02  0.60380673261E+02  0.10566000000E+00 0. -1.
         22    1    1    0    0    0 -0.18336508345E+02 -0.24997814920E+02 -0.15808159927E+01  0.31042185301E+02  0.00000000000E+00 0. -1.
</event>
<event>
 5    1  0.9041381E-005  0.9118800E+02  0.7818608E-02  0.1130116E+00
         25   -1    0    0    0    0  0.00000000000E+00  0.00000000000E+00  0.99999998245E-14  0.12500000000E+03  0.12500000000E+03 0.  0.
        -13    1    3    3    0    0  0.26076329967E+02 -0.93371820721E+01  0.34118688728E+02  0.43946035523E+02  0.10566000000E+00 0.  1.
         23    2    1    0    0    0 -0.12105431337E+01 -0.28954302459E+02 -0.50795874855E+01  0.95578591900E+02  0.90937604846E+02 0.  0.
         13    1    3    3    0    0 -0.27286873101E+02 -0.19617120387E+02 -0.39198276214E+02  0.51632556377E+02  0.10566000000E+00 0. -1.
         22    1    1    0    0    0  0.12105431337E+01  0.28954302459E+02  0.50795874855E+01  0.29421408100E+02  0.00000000000E+00 0. -1.
</event>
<event>
 5    1  0.9041381E-005  0.9118800E+02  0.7818608E-02  0.1130116E+00
         25   -1    0    0    0    0  0.00000000000E+00  0.00000000000E+00  0.99999998245E-14  0.12500000000E+03  0.12500000000E+03 0.  0.
        -13    1    3    3    0    0 -0.23828692264E+02 -0.39747294992E+02 -0.31598782150E+02  0.56090536026E+02  0.10566000000E+00 0. -1.
         23    2    1    0    0    0 -0.26302364553E+02 -0.56947893810E+01 -0.16584687501E+02  0.93388342867E+02  0.87875398814E+02 0.  0.
         13    1    3    3    0    0 -0.24736722894E+01  0.34052505611E+02  0.15014094649E+02  0.37297806841E+02  0.10566000000E+00 0.  1.
         22    1    1    0    0    0  0.26302364553E+02  0.56947893810E+01  0.16584687501E+02  0.31611657133E+02  0.00000000000E+00 0. -1.
</event>
<event>
 5    1  0.9041381E-005  0.9118800E+02  0.7818608E-02  0.1130116E+00
         25   -1    0    0    0    0  0.00000000000E+00  0.00000000000E+00  0.99999998245E-14  0.12500000000E+03  0.12500000000E+03 0.  0.
        -13    1    3    3    0    0  0.49762196507E+02  0.23827750296E+02 -0.71508356357E+01  0.55634373364E+02  0.10566000000E+00 0.  1.
         23    2    1    0    0    0  0.11998704414E+02  0.17425686121E+02 -0.19851703085E+02  0.95987699853E+02  0.91498223826E+02 0.  0.
         13    1    3    3    0    0 -0.37763492093E+02 -0.64020641742E+01 -0.12700867450E+02  0.40353326489E+02  0.10566000000E+00 0. -1.
         22    1    1    0    0    0 -0.11998704414E+02 -0.17425686121E+02  0.19851703085E+02  0.29012300147E+02  0.00000000000E+00 0.  1.
</event>
<event>
 5    1  0.9041381E-005  0.9118800E+02  0.7818608E-02  0.1130116E+00
         25   -1    0    0    0    0  0.00000000000E+00  0.00000000000E+00  0.99999998245E-14  0.12500000000E+03  0.12500000000E+03 0.  0.
        -13    1    3    3    0    0 -0.53143076976E+02  0.21710415233E+02 -0.22811085019E+02  0.61772854263E+02  0.10566000000E+00 0. -1.
         23    2    1    0    0    0 -0.27182794743E+02  0.52224017623E+01 -0.65731618985E+01  0.96550320432E+02  0.92263644562E+02 0.  0.
         13    1    3    3    0    0  0.25960282233E+02 -0.16488013471E+02  0.16237923120E+02  0.34777466169E+02  0.10566000000E+00 0.  1.
         22    1    1    0    0    0  0.27182794743E+02 -0.52224017623E+01  0.65731618985E+01  0.28449679568E+02  0.00000000000E+00 0. -1.
</event>
<event>
 5    1  0.9041381E-005  0.9118800E+02  0.7818608E-02  0.1130116E+00
         25   -1    0    0    0    0  0.00000000000E+00  0.00000000000E+00  0.99999998245E-14  0.12500000000E+03  0.12500000000E+03 0.  0.
        -13    1    3    3    0    0  0.35131383748E+02  0.12237892338E+02 -0.37177740772E+02  0.52594445580E+02  0.10566000000E+00 0.  1.
         23    2    1    0    0    0 -0.41847049811E+01  0.17060075740E+02 -0.25765238712E+02  0.93816583479E+02  0.88482460804E+02 0.  0.
         13    1    3    3    0    0 -0.39316088729E+02  0.48221834012E+01  0.11412502060E+02  0.41222137900E+02  0.10566000000E+00 0. -1.
         22    1    1    0    0    0  0.41847049811E+01 -0.17060075740E+02  0.25765238712E+02  0.31183416521E+02  0.00000000000E+00 0.  1.
</event>
<event>
 5    1  0.9041381E-005  0.9118800E+02  0.7818608E-02  0.1130116E+00
         25   -1    0    0    0    0  0.00000000000E+00  0.00000000000E+00  0.99999998245E-14  0.12500000000E+03  0.12500000000E+03 0.  0.
        -13    1    3    3    0    0 -0.31554920562E+02  0.13018461845E+02 -0.18229245894E+02  0.38697673449E+02  0.10566000000E+00 0.  1.
         23    2    1    0    0    0 -0.50400089191E-01 -0.24888151645E+02  0.12872900964E+02  0.96979753540E+02  0.92843623286E+02 0.  0.
         13    1    3    3    0    0  0.31504520473E+02 -0.37906613490E+02  0.31102146857E+02  0.58282080090E+02  0.10566000000E+00 0. -1.
         22    1    1    0    0    0  0.50400089191E-01  0.24888151645E+02 -0.12872900964E+02  0.28020246460E+02  0.00000000000E+00 0. -1.
</event>
<event>
 5    1  0.9041381E-005  0.9118800E+02  0.7818608E-02  0.1130116E+00
         25   -1    0    0    0    0  0.00000000000E+00  0.00000000000E+00  0.99999998245E-14  0.12500000000E+03  0.12500000000E+03 0.  0.
        -13    1    3    3    0    0  0.33918371871E+02 -0.91682824086E+01  0.16021830671E+02  0.38616364080E+02  0.10566000000E+00 0. -1.
         23    2    1    0    0    0 -0.14089471054E+02  0.22715732275E+02  0.95721172130E+01  0.96607340468E+02  0.92340863744E+02 0.  0.
         13    1    3    3    0    0 -0.48007842925E+02  0.31884014684E+02 -0.64497134582E+01  0.57990976388E+02  0.10566000000E+00 0.  1.
         22    1    1    0    0    0  0.14089471054E+02 -0.22715732275E+02 -0.95721172130E+01  0.28392659532E+02  0.00000000000E+00 0.  1.
</event>
<event>
 5    1  0.9041381E-005  0.9118800E+02  0.7818608E-02  0.1130116E+00
         25   -1    0    0    0    0  0.00000000000E+00  0.00000000000E+00  0.99999998245E-14  0.12500000000E+03  0.12500000000E+03 0.  0.
        -13    1    3    3    0    0 -0.46976922677E+02  0.82477826704E+01  0.87092824844E+01  0.48484223709E+02  0.10566000000E+00 0.  1.
         23    2    1    0    0    0 -0.10067682779E+02  0.29883587386E+02 -0.42353671705E+01  0.93182939063E+02  0.87582730979E+02 0.  0.
         13    1    3    3    0    0  0.36909239899E+02  0.21635804716E+02 -0.12944649655E+02  0.44698715354E+02  0.10566000000E+00 0. -1.
         22    1    1    0    0    0  0.10067682779E+02 -0.29883587386E+02  0.42353671705E+01  0.31817060937E+02  0.00000000000E+00 0.  1.
</event>
<event>
 5    1  0.9041381E-005  0.9118800E+02  0.7818608E-02  0.1130116E+00
         25   -1    0    0    0    0  0.00000000000E+00  0.00000000000E+00  0.99999998245E-14  0.12500000000E+03  0.12500000000E+03 0.  0.
        -13    1    3    3    0    0 -0.13191324121E+02  0.40988346929E+02 -0.99701663818E+01  0.44198088168E+02  0.10566000000E+00 0.  1.
         23    2    1    0    0    0  0.23455687509E+01 -0.36547250441E+01 -0.29382389514E+02  0.95298425606E+02  0.90551678071E+02 0.  0.
         13    1    3    3    0    0  0.15536892872E+02 -0.44643071973E+02 -0.19412223133E+02  0.51100337438E+02  0.10566000000E+00 0. -1.
         22    1    1    0    0    0 -0.23455687509E+01  0.36547250441E+01  0.29382389514E+02  0.29701574394E+02  0.00000000000E+00 0. -1.
</event>
<event>
 5    1  0.9041381E-005  0.9118800E+02  0.7818608E-02  0.1130116E+00
         25   -1    0    0    0    0  0.00000000000E+00  0.00000000000E+00  0.99999998245E-14  0.12500000000E+03  0.12500000000E+03 0.  0.
        -13    1    3    3    0    0 -0.35797043979E+02  0.26316472768E+01 -0.47016395880E+02  0.59151555944E+02  0.10566000000E+00 0.  1.
         23    2    1    0    0    0 -0.16973459311E+02  0.14697371509E+02 -0.15815958821E+02  0.97536285691E+02  0.93589910902E+02 0.  0.
         13    1    3    3    0    0  0.18823584668E+02  0.12065724232E+02  0.31200437059E+02  0.38384729746E+02  0.10566000000E+00 0. -1.
         22    1    1    0    0    0  0.16973459311E+02 -0.14697371509E+02  0.15815958821E+02  0.27463714309E+02  0.00000000000E+00 0.  1.
</event>
<event>
 5    1  0.9041381E-005  0.9118800E+02  0.7818608E-02  0.1130116E+00
         25   -1    0    0    0    0  0.00000000000E+00  0.00000000000E+00  0.99999998245E-14  0.12500000000E+03  0.12500000000E+03 0.  0.
        -13    1    3    3    0    0 -0.23792593705E+02  0.48479976881E+02 -0.92276457912E+01  0.54786460777E+02  0.10566000000E+00 0. -1.
         23    2    1    0    0    0 -0.24825201660E+02  0.74663591645E+01  0.57224619210E+01  0.98452236872E+02  0.94805375471E+02 0.  0.
         13    1    3    3    0    0 -0.10326079556E+01 -0.41013617717E+02  0.14950107712E+02  0.43665776096E+02  0.10566000000E+00 0.  1.
         22    1    1    0    0    0  0.24825201660E+02 -0.74663591645E+01 -0.57224619210E+01  0.26547763128E+02  0.00000000000E+00 0. -1.
</event>
<event>
 5    1  0.9041381E-005  0.9118800E+02  0.7818608E-02  0.1130116E+00
         25   -1    0    0    0    0  0.00000000000E+00  0.00000000000E+00  0.99999998245E-14  0.12500000000E+03  0.12500000000E+03 0.  0.
        -13    1    3    3    0    0 -0.49165976577E+02  0.12279191275E+02 -0.76020725825E+00  0.50681958035E+02  0.10566000000E+00 0. -1.
         23    2    1    0    0    0 -0.19738907201E+02 -0.20336301951E+02  0.81617413108E+01  0.95507566127E+02  0.90839922565E+02 0.  0.
         13    1    3    3    0    0  0.29427069376E+02 -0.32615493226E+02  0.89219485690E+01  0.44825608091E+02  0.10566000000E+00 0.  1.
         22    1    1    0    0    0  0.19738907201E+02  0.20336301951E+02 -0.81617413108E+01  0.29492433873E+02  0.00000000000E+00 0. -1.
</event>
<event>
 5    1  0.9041381E-005  0.9118800E+02  0.7818608E-02  0.1130116E+00
         25   -1    0    0    0    0  0.00000000000E+00  0.00000000000E+00  0.99999998245E-14  0.12500000000E+03  0.12500000000E+03 0.  0.
        -13    1    3    3    0    0  0.44020554292E+01  0.50340353734E+02 -0.20177122924E+02  0.54411917440E+02  0.10566000000E+00 0.  1.
         23    2    1    0    0    0  0.12490872860E+02  0.24638427249E+02  0.10685262279E+02  0.95381613276E+02  0.90666439872E+02 0.  0.
         13    1    3    3    0    0  0.80888174313E+01 -0.25701926484E+02  0.30862385203E+02  0.40969695836E+02  0.10566000000E+00 0. -1.
         22    1    1    0    0    0 -0.12490872860E+02 -0.24638427249E+02 -0.10685262279E+02  0.29618386724E+02  0.00000000000E+00 0.  1.
</event>
<event>
 5    1  0.9041381E-005  0.9118800E+02  0.7818608E-02  0.1130116E+00
         25   -1    0    0    0    0  0.00000000000E+00  0.00000000000E+00  0.99999998245E-14  0.12500000000E+03  0.12500000000E+03 0.  0.
        -13    1    3    3    0    0 -0.26530438115E+02 -0.17586914263E+02 -0.44557167674E+02  0.54758707573E+02  0.10566000000E+00 0. -1.
         23    2    1    0    0    0 -0.16791691791E+02 -0.22506649667E+02 -0.41483114992E+01  0.96614815823E+02  0.92350982430E+02 0.  0.
         13    1    3    3    0    0  0.97387463239E+01 -0.49197354044E+01  0.40408856175E+02  0.41856108250E+02  0.10566000000E+00 0.  1.
         22    1    1    0    0    0  0.16791691791E+02  0.22506649667E+02  0.41483114992E+01  0.28385184177E+02  0.00000000000E+00 0. -1.
</event>
<event>
 5    1  0.9041381E-005  0.9118800E+02  0.7818608E-02  0.1130116E+00
         25   -1    0    0    0    0  0.00000000000E+00  0.00000000000E+00  0.99999998245E-14  0.12500000000E+03  0.12500000000E+03 0.  0.
        -13    1    3    3    0    0 -0.21071035246E+01  0.33994950415E+02 -0.33961566508E+02  0.48098811864E+02  0.10566000000E+00 0. -1.
         23    2    1    0    0    0  0.27504969663E+02  0.62607884184E+01 -0.10960889069E+02  0.94736789381E+02  0.89773032394E+02 0.  0.
         13    1    3    3    0    0  0.29612073188E+02 -0.27734161997E+02  0.23000677439E+02  0.46637977517E+02  0.10566000000E+00 0.  1.
         22    1    1    0    0    0 -0.27504969663E+02 -0.62607884184E+01  0.10960889069E+02  0.30263210619E+02  0.00000000000E+00 0.  1.
</event>
<event>
 5    1  0.9041381E-005  0.9118800E+02  0.7818608E-02  0.1130116E+00
         25   -1    0    0    0    0  0.00000000000E+00  0.00000000000E+00  0.99999998245E-14  0.12500000000E+03  0.12500000000E+03 0.  0.
        -13    1    3    3    0    0 -0.13261154079E+02  0.30825184930E+02  0.12046931300E+02  0.35653750872E+02  0.10566000000E+00 0. -1.
         23    2    1    0    0    0  0.22413132560E+01 -0.27456169323E+02  0.89261291482E+01  0.96042436212E+02  0.91572971192E+02 0.  0.
         13    1    3    3    0    0  0.15502467335E+02 -0.58281354253E+02 -0.31208021515E+01  0.60388685340E+02  0.10566000000E+00 0.  1.
         22    1    1    0    0    0 -0.22413132560E+01  0.27456169323E+02 -0.89261291482E+01  0.28957563788E+02  0.00000000000E+00 0.  1.
</event>
<event>
 5    1  0.9041381E-005  0.9118800E+02  0.7818608E-02  0.1130116E+00
         25   -1    0    0    0    0  0.00000000000E+00  0.00000000000E+00  0.99999998245E-14  0.12500000000E+03  0.12500000000E+03 0.  0.
        -13    1    3    3    0    0 -0.11973215497E+02 -0.53905424748E+02  0.14750952083E+02  0.57155528674E+02  0.10566000000E+00 0.  1.
         23    2    1    0    0    0  0.27980539174E+01 -0.19786505003E+02  0.22260543329E+02  0.95085677757E+02  0.90257517356E+02 0.  0.
         13    1    3    3    0    0  0.14771269415E+02  0.34118919746E+02  0.75095912463E+01  0.37930149083E+02  0.10566000000E+00 0. -1.
         22    1    1    0    0    0 -0.27980539174E+01  0.19786505003E+02 -0.22260543329E+02  0.29914322243E+02  0.00000000000E+00 0.  1.
</event>
<event>
 5    1  0.9041381E-005  0.9118800E+02  0.7818608E-02  0.1130116E+00
         25   -1    0    0    0    0  0.00000000000E+00  0.00000000000E+00  0.99999998245E-14  0.12500000000E+03  0.12500000000E+03 0.  0.
        -13    1    3    3    0    0  0.37233876206E+01 -0.38556894039E+02  0.16310285614E+02  0.42030159102E+02  0.10566000000E+00 0.  1.
         23    2    1    0    0    0 -0.12383400278E+02  0.15812507505E+02  0.16919783338E+02  0.98738563172E+02  0.95182145348E+02 0.  0.
         13    1    3    3    0    0 -0.16106787899E+02  0.54369401544E+02  0.60949772395E+00  0.56708404070E+02  0.10566000000E+00 0. -1.
         22    1    1    0    0    0  0.12383400278E+02 -0.15812507505E+02 -0.16919783338E+02  0.26261436828E+02  0.00000000000E+00 0. -1.
</event>
<event>
 5    1  0.9041381E-005  0.9118800E+02  0.7818608E-02  0.1130116E+00
         25   -1    0    0    0    0  0.00000000000E+00  0.00000000000E+00  0.99999998245E-14  0.12500000000E+03  0.12500000000E+03 0.  0.
        -13    1    3    3    0    0 -0.23601742040E+02  0.13012379660E+02  0.32451281187E+02  0.42183658760E+02  0.10566000000E+00 0.  1.
         23    2    1    0    0    0  0.17549921186E+02 -0.17043875033E+02  0.16146585572E+02  0.95687790335E+02  0.91087581941E+02 0.  0.
         13    1    3    3    0    0  0.41151663226E+02 -0.30056254693E+02 -0.16304695614E+02  0.53504131575E+02  0.10566000000E+00 0. -1.
         22    1    1    0    0    0 -0.17549921186E+02  0.17043875033E+02 -0.16146585572E+02  0.29312209665E+02  0.00000000000E+00 0.  1.
</event>
<event>
 5    1  0.9041381E-005  0.9118800E+02  0.7818608E-02  0.1130116E+00
         25   -1    0    0    0    0  0.00000000000E+00  0.00000000000E+00  0.99999998245E-14  0.12500000000E+03  0.12500000000E+03 0.  0.
        -13    1    3    3    0    0  0.21971488759E+02  0.10268630398E+02  0.24947465849E+02  0.34793365816E+02  0.10566000000E+00 0.  1.
         23    2    1    0    0    0 -0.88067428355E+01  0.13957931431E+02 -0.25866792914E+02  0.94316559110E+02  0.89185984198E+02 0.  0.
         13    1    3    3    0    0 -0.30778231594E+02  0.36893010338E+01 -0.50814258763E+02  0.59523193293E+02  0.10566000000E+00 0. -1.
         22    1    1    0    0    0  0.88067428355E+01 -0.13957931431E+02  0.25866792914E+02  0.30683440890E+02  0.00000000000E+00 0. -1.
</event>
<event>
 5    1  0.9041381E-005  0.9118800E+02  0.7818608E-02  0.1130116E+00
         25   -1    0    0    0    0  0.00000000000E+00  0.00000000000E+00  0.99999998245E-14  0.12500000000E+03  0.12500000000E+03 0.  0.
        -13    1    3    3    0    0  0.65289014567E+01 -0.19695121878E+01  0.58841955599E+02  0.59235904950E+02  0.10566000000E+00 0.  1.
         23    2    1    0    0    0 -0.67183991542E+01  0.95512147982E+01  0.26645682863E+02  0.95907818807E+02  0.91389029439E+02 0.  0.
         13    1    3    3    0    0 -0.13247300611E+02  0.11520726986E+02 -0.32196272736E+02  0.36671913857E+02  0.10566000000E+00 0. -1.
         22    1    1    0    0    0  0.67183991542E+01 -0.95512147982E+01 -0.26645682863E+02  0.29092181193E+02  0.00000000000E+00 0.  1.
</event>
<event>
 5    1  0.9041381E-005  0.9118800E+02  0.7818608E-02  0.1130116E+00
         25   -1    0    0    0    0  0.00000000000E+00  0.00000000000E+00  0.99999998245E-14  0.12500000000E+03  0.12500000000E+03 0.  0.
        -13    1    3    3    0    0  0.39925424750E+02 -0.33666959293E+02  0.12666704589E+02  0.53739745614E+02  0.10566000000E+00 0. -1.
         23    2    1    0    0    0  0.28911617940E+01 -0.27325708039E+02 -0.76802387410E+01  0.96468627733E+02  0.92152899754E+02 0.  0.
         13    1    3    3    0    0 -0.37034262956E+02  0.63412512542E+01 -0.20346943330E+02  0.42728882118E+02  0.10566000000E+00 0.  1.
         22    1    1    0    0    0 -0.28911617940E+01  0.27325708039E+02  0.76802387410E+01  0.28531372267E+02  0.00000000000E+00 0. -1.
</event>
<event>
 5    1  0.9041381E-005  0.9118800E+02  0.7818608E-02  0.1130116E+00
         25   -1    0    0    0    0  0.00000000000E+00  0.00000000000E+00  0.99999998245E-14  0.12500000000E+03  0.12500000000E+03 0.  0.
        -13    1    3    3    0    0 -0.45878356066E+02 -0.23645969387E+02 -0.78262793159E+01  0.52203613242E+02  0.10566000000E+00 0.  1.
         23    2    1    0    0    0 -0.25904694696E+02  0.14139744368E+02 -0.11232981636E+01  0.95466165558E+02  0.90782935563E+02 0.  0.
         13    1    3    3    0    0  0.19973661369E+02  0.37785713755E+02  0.67029811523E+01  0.43262552316E+02  0.10566000000E+00 0. -1.
         22    1    1    0    0    0  0.25904694696E+02 -0.14139744368E+02  0.11232981636E+01  0.29533834442E+02  0.00000000000E+00 0. -1.
</event>
<event>
 5    1  0.9041381E-005  0.9118800E+02  0.7818608E-02  0.1130116E+00
         25   -1    0    0    0    0  0.00000000000E+00  0.00000000000E+00  0.99999998245E-14  0.12500000000E+03  0.12500000000E+03 0.  0.
        -13    1    3    3    0    0 -0.14182302845E+02 -0.23993910590E+02 -0.48180080809E+02  0.55661268493E+02  0.10566000000E+00 0. -1.
         23    2    1    0    0    0 -0.25458970004E+02 -0.86284178143E+01 -0.14257410245E+02  0.94571682686E+02  0.89542842659E+02 0.  0.
         13    1    3    3    0    0 -0.11276667159E+02  0.15365492776E+02  0.33922670564E+02  0.38910414193E+02  0.10566000000E+00 0.  1.
         22    1    1    0    0    0  0.25458970004E+02  0.86284178143E+01  0.14257410245E+02  0.30428317314E+02  0.00000000000E+00 0. -1.
</event>
<event>
 5    1  0.9041381E-005  0.9118800E+02  0.7818608E-02  0.1130116E+00
         25   -1    0    0    0    0  0.00000000000E+00  0.00000000000E+00  0.99999998245E-14  0.12500000000E+03  0.12500000000E+03 0.  0.
        -13    1    3    3    0    0 -0.11529061307E+02  0.97064808864E+01  0.56831530547E+02  0.58795995222E+02  0.10566000000E+00 0.  1.
         23    2    1    0    0    0  0.87868449344E+01  0.10134804782E+02  0.26388760407E+02  0.95397811100E+02  0.90688768736E+02 0.  0.
         13    1    3    3    0    0  0.20315906241E+02  0.42832389569E+00 -0.30442770140E+02  0.36601815878E+02  0.10566000000E+00 0. -1.
         22    1    1    0    0    0 -0.87868449344E+01 -0.10134804782E+02 -0.26388760407E+02  0.29602188900E+02  0.00000000000E+00 0.  1.
</event>
<event>
 5    1  0.9041381E-005  0.9118800E+02  0.7818608E-02  0.1130116E+00
         25   -1    0    0    0    0  0.00000000000E+00  0.00000000000E+00  0.99999998245E-14  0.12500000000E+03  0.12500000000E+03 0.  0.
        -13    1    3    3    0    0 -0.62034817265E+01 -0.41685189402E+02 -0.24242617354E+02  0.48619480264E+02  0.10566000000E+00 0.  1.
         23    2    1    0    0    0 -0.28789500914E+02 -0.55932897714E+01 -0.54000764702E+01  0.95179183793E+02  0.90386923547E+02 0.  0.
         13    1    3    3    0    0 -0.22586019188E+02  0.36091899630E+02  0.18842540884E+02  0.46559703529E+02  0.10566000000E+00 0. -1.
         22    1    1    0    0    0  0.28789500914E+02  0.55932897714E+01  0.54000764702E+01  0.29820816207E+02  0.00000000000E+00 0. -1.
</event>
<event>
 5    1  0.9041381E-005  0.9118800E+02  0.7818608E-02  0.1130116E+00
         25   -1    0    0    0    0  0.00000000000E+00  0.00000000000E+00  0.99999998245E-14  0.12500000000E+03  0.12500000000E+03 0.  0.
        -13    1    3    3    0    0 -0.97758369222E+01  0.60964679025E+01  0.34829253918E+02  0.36685446719E+02  0.10566000000E+00 0.  1.
         23    2    1    0    0    0 -0.39849180085E+01  0.14504597055E+02 -0.24153622064E+02  0.96545468444E+02  0.92257070791E+02 0.  0.
         13    1    3    3    0    0  0.57909189137E+01  0.84081291523E+01 -0.58982875983E+02  0.59860021725E+02  0.10566000000E+00 0. -1.
         22    1    1    0    0    0  0.39849180085E+01 -0.14504597055E+02  0.24153622064E+02  0.28454531556E+02  0.00000000000E+00 0. -1.
</event>
<event>
 5    1  0.9041381E-005  0.9118800E+02  0.7818608E-02  0.1130116E+00
         25   -1    0    0    0    0  0.00000000000E+00  0.00000000000E+00  0.99999998245E-14  0.12500000000E+03  0.12500000000E+03 0.  0.
        -13    1    3    3    0    0  0.30511934530E+02  0.45027882852E+02 -0.62041911369E+01  0.54744785456E+02  0.10566000000E+00 0. -1.
         23    2    1    0    0    0 -0.73295293114E+01  0.26301175509E+02 -0.63549650416E+01  0.96966815847E+02  0.92826202991E+02 0.  0.
         13    1    3    3    0    0 -0.37841463841E+02 -0.18726707343E+02 -0.15077390471E+00  0.42222030391E+02  0.10566000000E+00 0.  1.
         22    1    1    0    0    0  0.73295293114E+01 -0.26301175509E+02  0.63549650416E+01  0.28033184153E+02  0.00000000000E+00 0. -1.
</event>
<event>
 5    1  0.9041381E-005  0.9118800E+02  0.7818608E-02  0.1130116E+00
         25   -1    0    0    0    0  0.00000000000E+00  0.00000000000E+00  0.99999998245E-14  0.12500000000E+03  0.12500000000E+03 0.  0.
        -13    1    3    3    0    0  0.17342592800E+02  0.36217291686E+02 -0.24214698857E+01  0.40228502614E+02  0.10566000000E+00 0. -1.
         23    2    1    0    0    0 -0.24398991709E+02  0.33961687572E+01  0.15054065136E+02  0.96130125810E+02  0.91692592135E+02 0.  0.
         13    1    3    3    0    0 -0.41741584509E+02 -0.32821122929E+02  0.17475535021E+02  0.55901623196E+02  0.10566000000E+00 0.  1.
         22    1    1    0    0    0  0.24398991709E+02 -0.33961687572E+01 -0.15054065136E+02  0.28869874190E+02  0.00000000000E+00 0.  1.
</event>
<event>
 5    1  0.9041381E-005  0.9118800E+02  0.7818608E-02  0.1130116E+00
         25   -1    0    0    0    0  0.00000000000E+00  0.00000000000E+00  0.99999998245E-14  0.12500000000E+03  0.12500000000E+03 0.  0.
        -13    1    3    3    0    0  0.20074682276E+02  0.22463333602E+02 -0.53650412750E+02  0.61530254162E+02  0.10566000000E+00 0. -1.
         23    2    1    0    0    0  0.68398160685E+01  0.17351599942E+02 -0.22392479486E+02  0.95857518261E+02  0.91320203489E+02 0.  0.
         13    1    3    3    0    0 -0.13234866207E+02 -0.51117336604E+01  0.31257933264E+02  0.34327264099E+02  0.10566000000E+00 0.  1.
         22    1    1    0    0    0 -0.68398160685E+01 -0.17351599942E+02  0.22392479486E+02  0.29142481739E+02  0.00000000000E+00 0. -1.
</event>
<event>
 5    1  0.9041381E-005  0.9118800E+02  0.7818608E-02  0.1130116E+00
         25   -1    0    0    0    0  0.00000000000E+00  0.00000000000E+00  0.99999998245E-14  0.12500000000E+03  0.12500000000E+03 0.  0.
        -13    1    3    3    0    0 -0.17133164355E+01  0.24293294413E+02 -0.28286724338E+02  0.37326258109E+02  0.10566000000E+00 0. -1.
         23    2    1    0    0    0 -0.22281784090E+01  0.44259595594E+01  0.27764572138E+02  0.96796713612E+02  0.92596859575E+02 0.  0.
         13    1    3    3    0    0 -0.51486197342E+00 -0.19867334854E+02  0.56051296476E+02  0.59470455503E+02  0.10566000000E+00 0.  1.
         22    1    1    0    0    0  0.22281784090E+01 -0.44259595594E+01 -0.27764572138E+02  0.28203286388E+02  0.00000000000E+00 0.  1.
</event>
<event>
 5    1  0.9041381E-005  0.9118800E+02  0.7818608E-02  0.1130116E+00
         25   -1    0    0    0    0  0.00000000000E+00  0.00000000000E+00  0.99999998245E-14  0.12500000000E+03  0.12500000000E+03 0.  0.
        -13    1    3    3    0    0  0.31971255691E+02 -0.36841588129E+02 -0.35708901088E+02  0.60453292609E+02  0.10566000000E+00 0.  1.
         23    2    1    0    0    0  0.56194812823E+01 -0.17913069935E+02 -0.23028106191E+02  0.95288885596E+02  0.90538507824E+02 0.  0.
         13    1    3    3    0    0 -0.26351774409E+02  0.18928518193E+02  0.12680794898E+02  0.34835592987E+02  0.10566000000E+00 0. -1.
         22    1    1    0    0    0 -0.56194812823E+01  0.17913069935E+02  0.23028106191E+02  0.29711114404E+02  0.00000000000E+00 0.  1.
</event>
<event>
 5    1  0.9041381E-005  0.9118800E+02  0.7818608E-02  0.1130116E+00
         25   -1    0    0    0    0  0.00000000000E+00  0.00000000000E+00  0.99999998245E-14  0.12500000000E+03  0.12500000000E+03 0.  0.
        -13    1    3    3    0    0  0.11610491132E+01 -0.22374434457E+02 -0.16685007863E+02  0.27934996040E+02  0.10566000000E+00 0. -1.
         23    2    1    0    0    0 -0.38160993527E+01  0.34825481288E+02  0.55943769808E+01  0.89522206734E+02  0.82192163152E+02 0.  0.
         13    1    3    3    0    0 -0.49771484658E+01  0.57199915745E+02  0.22279384844E+02  0.61587210695E+02  0.10566000000E+00 0.  1.
         22    1    1    0    0    0  0.38160993527E+01 -0.34825481288E+02 -0.55943769808E+01  0.35477793266E+02  0.00000000000E+00 0.  1.
</event>
<event>
 5    1  0.9041381E-005  0.9118800E+02  0.7818608E-02  0.1130116E+00
         25   -1    0    0    0    0  0.00000000000E+00  0.00000000000E+00  0.99999998245E-14  0.12500000000E+03  0.12500000000E+03 0.  0.
        -13    1    3    3    0    0 -0.34815335214E+02 -0.16412393052E+02  0.23887329184E+02  0.45299998580E+02  0.10566000000E+00 0.  1.
         23    2    1    0    0    0 -0.87715479673E+01 -0.34475901756E+02 -0.60693252064E+01  0.88911711538E+02  0.81258401932E+02 0.  0.
         13    1    3    3    0    0  0.26043787247E+02 -0.18063508704E+02 -0.29956654390E+02  0.43611712958E+02  0.10566000000E+00 0. -1.
         22    1    1    0    0    0  0.87715479673E+01  0.34475901756E+02  0.60693252064E+01  0.36088288462E+02  0.00000000000E+00 0.  1.
</event>
<event>
 5    1  0.9041381E-005  0.9118800E+02  0.7818608E-02  0.1130116E+00
         25   -1    0    0    0    0  0.00000000000E+00  0.00000000000E+00  0.99999998245E-14  0.12500000000E+03  0.12500000000E+03 0.  0.
        -13    1    3    3    0    0  0.38202859279E+02 -0.23736951241E+02  0.36646285153E+01  0.45125846003E+02  0.10566000000E+00 0. -1.
         23    2    1    0    0    0  0.15831481099E+02  0.13312231936E+02 -0.21480152430E+02  0.95179734050E+02  0.90387684518E+02 0.  0.
         13    1    3    3    0    0 -0.22371378180E+02  0.37049183177E+02 -0.25144780945E+02  0.50053888047E+02  0.10566000000E+00 0.  1.
         22    1    1    0    0    0 -0.15831481099E+02 -0.13312231936E+02  0.21480152430E+02  0.29820265950E+02  0.00000000000E+00 0.  1.
</event>
<event>
 5    1  0.9041381E-005  0.9118800E+02  0.7818608E-02  0.1130116E+00
         25   -1    0    0    0    0  0.00000000000E+00  0.00000000000E+00  0.99999998245E-14  0.12500000000E+03  0.12500000000E+03 0.  0.
        -13    1    3    3    0    0 -0.17555656770E+01 -0.26234142691E+02  0.40038131176E+02  0.47899638471E+02  0.10566000000E+00 0.  1.
         23    2    1    0    0    0  0.12545023884E+02  0.15332106392E+02  0.21946939323E+02  0.95434492118E+02  0.90739313583E+02 0.  0.
         13    1    3    3    0    0  0.14300589561E+02  0.41566249082E+02 -0.18091191853E+02  0.47534853647E+02  0.10566000000E+00 0. -1.
         22    1    1    0    0    0 -0.12545023884E+02 -0.15332106392E+02 -0.21946939323E+02  0.29565507882E+02  0.00000000000E+00 0.  1.
</event>
<event>
 5    1  0.9041381E-005  0.9118800E+02  0.7818608E-02  0.1130116E+00
         25   -1    0    0    0    0  0.00000000000E+00  0.00000000000E+00  0.99999998245E-14  0.12500000000E+03  0.12500000000E+03 0.  0.
        -13    1    3    3    0    0  0.51390111366E+01  0.55550052705E+02 -0.26247369173E+01  0.55849066232E+02  0.10566000000E+00 0. -1.
         23    2    1    0    0    0 -0.12795810202E+02  0.24750430458E+02  0.12368840055E+02  0.94515499497E+02  0.89464377683E+02 0.  0.
         13    1    3    3    0    0 -0.17934821339E+02 -0.30799622247E+02  0.14993576972E+02  0.38666433266E+02  0.10566000000E+00 0.  1.
         22    1    1    0    0    0  0.12795810202E+02 -0.24750430458E+02 -0.12368840055E+02  0.30484500503E+02  0.00000000000E+00 0. -1.
</event>
<event>
 5    1  0.9041381E-005  0.9118800E+02  0.7818608E-02  0.1130116E+00
         25   -1    0    0    0    0  0.00000000000E+00  0.00000000000E+00  0.99999998245E-14  0.12500000000E+03  0.12500000000E+03 0.  0.
        -13    1    3    3    0    0 -0.41261393034E+01  0.18404601524E+02 -0.25642117323E+02  0.31832117863E+02  0.10566000000E+00 0.  1.
         23    2    1    0    0    0 -0.40250511861E+02  0.79176609421E+01  0.90369205305E+01  0.82994536159E+02  0.71579564400E+02 0.  0.
         13    1    3    3    0    0 -0.36124372557E+02 -0.10486940582E+02  0.34679037853E+02  0.51162418296E+02  0.10566000000E+00 0. -1.
         22    1    1    0    0    0  0.40250511861E+02 -0.79176609421E+01 -0.90369205305E+01  0.42005463841E+02  0.00000000000E+00 0. -1.
</event>
<event>
 5    1  0.9041381E-005  0.9118800E+02  0.7818608E-02  0.1130116E+00
         25   -1    0    0    0    0  0.00000000000E+00  0.00000000000E+00  0.99999998245E-14  0.12500000000E+03  0.12500000000E+03 0.  0.
        -13    1    3    3    0    0  0.16036568879E+02  0.38111770911E+02  0.40601631863E+02  0.57949825689E+02  0.10566000000E+00 0.  1.
         23    2    1    0    0    0  0.19562502165E+02  0.21283624699E+02  0.76830744087E+01  0.95088233023E+02  0.90261056142E+02 0.  0.
         13    1    3    3    0    0  0.35259332863E+01 -0.16828146212E+02 -0.32918557454E+02  0.37138407335E+02  0.10566000000E+00 0. -1.
         22    1    1    0    0    0 -0.19562502165E+02 -0.21283624699E+02 -0.76830744087E+01  0.29911766977E+02  0.00000000000E+00 0.  1.
</event>
<event>
 5    1  0.9041381E-005  0.9118800E+02  0.7818608E-02  0.1130116E+00
         25   -1    0    0    0    0  0.00000000000E+00  0.00000000000E+00  0.99999998245E-14  0.12500000000E+03  0.12500000000E+03 0.  0.
        -13    1    3    3    0    0 -0.44419586749E+02  0.77807252330E+01  0.36780741188E+02  0.58193414219E+02  0.10566000000E+00 0. -1.
         23    2    1    0    0    0 -0.21565060236E+02  0.17350097096E+02  0.79612844802E+01  0.96199657245E+02  0.91787331976E+02 0.  0.
         13    1    3    3    0    0  0.22854526513E+02  0.95693718628E+01 -0.28819456708E+02  0.38006243026E+02  0.10566000000E+00 0.  1.
         22    1    1    0    0    0  0.21565060236E+02 -0.17350097096E+02 -0.79612844802E+01  0.28800342755E+02  0.00000000000E+00 0. -1.
</event>
<event>
 5    1  0.9041381E-005  0.9118800E+02  0.7818608E-02  0.1130116E+00
         25   -1    0    0    0    0  0.00000000000E+00  0.00000000000E+00  0.99999998245E-14  0.12500000000E+03  0.12500000000E+03 0.  0.
        -13    1    3    3    0    0 -0.23441619234E+01 -0.28586942231E+01 -0.60256065879E+02  0.60369461378E+02  0.10566000000E+00 0.  1.
         23    2    1    0    0    0 -0.12040315603E+02 -0.46637603620E+01 -0.26756087596E+02  0.95291279328E+02  0.90541812617E+02 0.  0.
         13    1    3    3    0    0 -0.96961536797E+01 -0.18050661389E+01  0.33499978283E+02  0.34921817950E+02  0.10566000000E+00 0. -1.
         22    1    1    0    0    0  0.12040315603E+02  0.46637603620E+01  0.26756087596E+02  0.29708720672E+02  0.00000000000E+00 0.  1.
</event>
<event>
 5    1  0.9041381E-005  0.9118800E+02  0.7818608E-02  0.1130116E+00
         25   -1    0    0    0    0  0.00000000000E+00  0.00000000000E+00  0.99999998245E-14  0.12500000000E+03  0.12500000000E+03 0.  0.
        -13    1    3    3    0    0  0.34236719413E+01 -0.32244247911E+02  0.36209893400E+01  0.32627224533E+02  0.10566000000E+00 0. -1.
         23    2    1    0    0    0 -0.57930667661E+01  0.28299436336E+02  0.10523997310E+02  0.94256346364E+02  0.89101552125E+02 0.  0.
         13    1    3    3    0    0 -0.92167387074E+01  0.60543684247E+02  0.69030079700E+01  0.61629121831E+02  0.10566000000E+00 0.  1.
         22    1    1    0    0    0  0.57930667661E+01 -0.28299436336E+02 -0.10523997310E+02  0.30743653636E+02  0.00000000000E+00 0.  1.
</event>
<event>
 5    1  0.9041381E-005  0.9118800E+02  0.7818608E-02  0.1130116E+00
         25   -1    0    0    0    0  0.00000000000E+00  0.00000000000E+00  0.99999998245E-14  0.12500000000E+03  0.12500000000E+03 0.  0.
        -13    1    3    3    0    0  0.20753442552E+02  0.49874615582E+02 -0.20114231555E+02  0.57643526369E+02  0.10566000000E+00 0.  1.
         23    2    1    0    0    0 -0.10516535819E+01  0.18215013663E+02 -0.22347229725E+02  0.96150539444E+02  0.91720416817E+02 0.  0.
         13    1    3    3    0    0 -0.21805096134E+02 -0.31659601919E+02 -0.22329981701E+01  0.38507013075E+02  0.10566000000E+00 0. -1.
         22    1    1    0    0    0  0.10516535819E+01 -0.18215013663E+02  0.22347229725E+02  0.28849460556E+02  0.00000000000E+00 0.  1.
</event>
<event>
 5    1  0.9041381E-005  0.9118800E+02  0.7818608E-02  0.1130116E+00
         25   -1    0    0    0    0  0.00000000000E+00  0.00000000000E+00  0.99999998245E-14  0.12500000000E+03  0.12500000000E+03 0.  0.
        -13    1    3    3    0    0 -0.11685290638E+02  0.41804303586E+01  0.44618785384E+02  0.46312732465E+02  0.10566000000E+00 0.  1.
         23    2    1    0    0    0 -0.28969610713E+02  0.26587255736E+01 -0.17844386159E+01  0.95853964460E+02  0.91315338881E+02 0.  0.
         13    1    3    3    0    0 -0.17284320075E+02 -0.15217047850E+01 -0.46403223999E+02  0.49541231994E+02  0.10566000000E+00 0. -1.
         22    1    1    0    0    0  0.28969610713E+02 -0.26587255736E+01  0.17844386159E+01  0.29146035540E+02  0.00000000000E+00 0.  1.
</event>
<event>
 5    1  0.9041381E-005  0.9118800E+02  0.7818608E-02  0.1130116E+00
         25   -1    0    0    0    0  0.00000000000E+00  0.00000000000E+00  0.99999998245E-14  0.12500000000E+03  0.12500000000E+03 0.  0.
        -13    1    3    3    0    0  0.29235950399E+01  0.26769203726E+02 -0.44339853475E+02  0.51876501870E+02  0.10566000000E+00 0. -1.
         23    2    1    0    0    0 -0.41836450921E+01  0.34552391294E+02 -0.85857888217E+01  0.89151898236E+02  0.81627045512E+02 0.  0.
         13    1    3    3    0    0 -0.71072401320E+01  0.77831875682E+01  0.35754064653E+02  0.37275396366E+02  0.10566000000E+00 0.  1.
         22    1    1    0    0    0  0.41836450921E+01 -0.34552391294E+02  0.85857888217E+01  0.35848101764E+02  0.00000000000E+00 0.  1.
</event>
<event>
 5    1  0.9041381E-005  0.9118800E+02  0.7818608E-02  0.1130116E+00
         25   -1    0    0    0    0  0.00000000000E+00  0.00000000000E+00  0.99999998245E-14  0.12500000000E+03  0.12500000000E+03 0.  0.
        -13    1    3    3    0    0  0.38909691290E+02 -0.34412910812E+02  0.24005221885E+02  0.57223022890E+02  0.10566000000E+00 0.  1.
         23    2    1    0    0    0  0.10725667280E+02 -0.27477562772E+02 -0.93079444019E+00  0.95488599274E+02  0.90813819535E+02 0.  0.
         13    1    3    3    0    0 -0.28184024010E+02  0.69353480396E+01 -0.24936016325E+02  0.38265576384E+02  0.10566000000E+00 0. -1.
         22    1    1    0    0    0 -0.10725667280E+02  0.27477562772E+02  0.93079444019E+00  0.29511400726E+02  0.00000000000E+00 0.  1.
</event>
<event>
 5    1  0.9041381E-005  0.9118800E+02  0.7818608E-02  0.1130116E+00
         25   -1    0    0    0    0  0.00000000000E+00  0.00000000000E+00  0.99999998245E-14  0.12500000000E+03  0.12500000000E+03 0.  0.
        -13    1    3    3    0    0  0.16806150324E+02  0.11772532497E+02  0.33739764795E+02  0.39489518895E+02  0.10566000000E+00 0. -1.
         23    2    1    0    0    0  0.31742739979E+02  0.15011340564E+02 -0.12139364027E+02  0.87847529748E+02  0.79604537791E+02 0.  0.
         13    1    3    3    0    0  0.14936589654E+02  0.32388080669E+01 -0.45879128821E+02  0.48358010853E+02  0.10566000000E+00 0.  1.
         22    1    1    0    0    0 -0.31742739979E+02 -0.15011340564E+02  0.12139364027E+02  0.37152470252E+02  0.00000000000E+00 0. -1.
</event>
<event>
 5    1  0.9041381E-005  0.9118800E+02  0.7818608E-02  0.1130116E+00
         25   -1    0    0    0    0  0.00000000000E+00  0.00000000000E+00  0.99999998245E-14  0.12500000000E+03  0.12500000000E+03 0.  0.
        -13    1    3    3    0    0  0.39704168507E+02  0.47136085273E+01  0.11532430038E+02  0.41613065362E+02  0.10566000000E+00 0.  1.
         23    2    1    0    0    0  0.12221670690E+01  0.74335602843E+01 -0.27496326875E+02  0.96490361236E+02  0.92182375262E+02 0.  0.
         13    1    3    3    0    0 -0.38482001438E+02  0.27199517570E+01 -0.39028756913E+02  0.54877295874E+02  0.10566000000E+00 0. -1.
         22    1    1    0    0    0 -0.12221670690E+01 -0.74335602843E+01  0.27496326875E+02  0.28509638764E+02  0.00000000000E+00 0. -1.
</event>
<event>
 5    1  0.9041381E-005  0.9118800E+02  0.7818608E-02  0.1130116E+00
         25   -1    0    0    0    0  0.00000000000E+00  0.00000000000E+00  0.99999998245E-14  0.12500000000E+03  0.12500000000E+03 0.  0.
        -13    1    3    3    0    0  0.40741622405E+02  0.50660281509E+01  0.50842313409E+01  0.41369131122E+02  0.10566000000E+00 0.  1.
         23    2    1    0    0    0 -0.29667566860E+01 -0.27927320948E+02  0.65893112768E+01  0.96152887083E+02  0.91723616210E+02 0.  0.
         13    1    3    3    0    0 -0.43708379091E+02 -0.32993349099E+02  0.15050799359E+01  0.54783755961E+02  0.10566000000E+00 0. -1.
         22    1    1    0    0    0  0.29667566860E+01  0.27927320948E+02 -0.65893112768E+01  0.28847112917E+02  0.00000000000E+00 0. -1.
</event>
<event>
 5    1  0.9041381E-005  0.9118800E+02  0.7818608E-02  0.1130116E+00
         25   -1    0    0    0    0  0.00000000000E+00  0.00000000000E+00  0.99999998245E-14  0.12500000000E+03  0.12500000000E+03 0.  0.
        -13    1    3    3    0    0  0.11404007427E+01 -0.43984531380E+02 -0.22939804937E+02  0.49620412424E+02  0.10566000000E+00 0. -1.
         23    2    1    0    0    0 -0.21701351027E+02 -0.49878481778E+01 -0.20262395351E+02  0.94893656297E+02  0.89991188870E+02 0.  0.
         13    1    3    3    0    0 -0.22841751769E+02  0.38996683202E+02  0.26774095867E+01  0.45273243873E+02  0.10566000000E+00 0.  1.
         22    1    1    0    0    0  0.21701351027E+02  0.49878481778E+01  0.20262395351E+02  0.30106343703E+02  0.00000000000E+00 0. -1.
</event>
<event>
 5    1  0.9041381E-005  0.9118800E+02  0.7818608E-02  0.1130116E+00
         25   -1    0    0    0    0  0.00000000000E+00  0.00000000000E+00  0.99999998245E-14  0.12500000000E+03  0.12500000000E+03 0.  0.
        -13    1    3    3    0    0 -0.82486893993E+01  0.39627865192E+02  0.17696304401E+02  0.44176678576E+02  0.10566000000E+00 0.  1.
         23    2    1    0    0    0 -0.22378352316E+02 -0.89102920865E+01  0.18326680758E+02  0.94733662510E+02  0.89768678432E+02 0.  0.
         13    1    3    3    0    0 -0.14129662917E+02 -0.48538157279E+02  0.63037635631E+00  0.50556983934E+02  0.10566000000E+00 0. -1.
         22    1    1    0    0    0  0.22378352316E+02  0.89102920865E+01 -0.18326680758E+02  0.30266337490E+02  0.00000000000E+00 0. -1.
</event>
<event>
 5    1  0.9041381E-005  0.9118800E+02  0.7818608E-02  0.1130116E+00
         25   -1    0    0    0    0  0.00000000000E+00  0.00000000000E+00  0.99999998245E-14  0.12500000000E+03  0.12500000000E+03 0.  0.
        -13    1    3    3    0    0 -0.27720708565E+02 -0.21685480941E+02  0.13572943122E+02  0.37721793648E+02  0.10566000000E+00 0. -1.
         23    2    1    0    0    0  0.13645820753E+02  0.16781177248E+02  0.21189766290E+02  0.94720922582E+02  0.89750936739E+02 0.  0.
         13    1    3    3    0    0  0.41366529317E+02  0.38466658189E+02  0.76168231676E+01  0.56999128934E+02  0.10566000000E+00 0.  1.
         22    1    1    0    0    0 -0.13645820753E+02 -0.16781177248E+02 -0.21189766290E+02  0.30279077418E+02  0.00000000000E+00 0.  1.
</event>
<event>
 5    1  0.9041381E-005  0.9118800E+02  0.7818608E-02  0.1130116E+00
         25   -1    0    0    0    0  0.00000000000E+00  0.00000000000E+00  0.99999998245E-14  0.12500000000E+03  0.12500000000E+03 0.  0.
        -13    1    3    3    0    0  0.21120810423E+02 -0.51591643058E-01 -0.13748940548E+02  0.25201901215E+02  0.10566000000E+00 0. -1.
         23    2    1    0    0    0 -0.10039539621E+02  0.11345881864E+02  0.36536355354E+02  0.85447166301E+02  0.75741610592E+02 0.  0.
         13    1    3    3    0    0 -0.31160350044E+02  0.11397473508E+02  0.50285295902E+02  0.60245265086E+02  0.10566000000E+00 0.  1.
         22    1    1    0    0    0  0.10039539621E+02 -0.11345881864E+02 -0.36536355354E+02  0.39552833699E+02  0.00000000000E+00 0.  1.
</event>
<event>
 5    1  0.9041381E-005  0.9118800E+02  0.7818608E-02  0.1130116E+00
         25   -1    0    0    0    0  0.00000000000E+00  0.00000000000E+00  0.99999998245E-14  0.12500000000E+03  0.12500000000E+03 0.  0.
        -13    1    3    3    0    0  0.44047027470E+01 -0.37301702588E+02 -0.46785167305E+02  0.59997345492E+02  0.10566000000E+00 0. -1.
         23    2    1    0    0    0  0.13788572811E+02 -0.18369511997E+02 -0.17430766580E+02  0.96166073199E+02  0.91741584354E+02 0.  0.
         13    1    3    3    0    0  0.93838700644E+01  0.18932190591E+02  0.29354400725E+02  0.36168727707E+02  0.10566000000E+00 0.  1.
         22    1    1    0    0    0 -0.13788572811E+02  0.18369511997E+02  0.17430766580E+02  0.28833926801E+02  0.00000000000E+00 0. -1.
</event>
<event>
 5    1  0.9041381E-005  0.9118800E+02  0.7818608E-02  0.1130116E+00
         25   -1    0    0    0    0  0.00000000000E+00  0.00000000000E+00  0.99999998245E-14  0.12500000000E+03  0.12500000000E+03 0.  0.
        -13    1    3    3    0    0  0.18972546341E+02 -0.45630061687E+02  0.14465093412E+01  0.49438482962E+02  0.10566000000E+00 0. -1.
         23    2    1    0    0    0  0.11708813560E+02  0.10065779187E+02  0.10494916749E+02  0.10633025166E+03  0.10467837845E+03 0.  0.
         13    1    3    3    0    0 -0.72637327812E+01  0.55695840874E+02  0.90484074080E+01  0.56891768695E+02  0.10566000000E+00 0.  1.
         22    1    1    0    0    0 -0.11708813560E+02 -0.10065779187E+02 -0.10494916749E+02  0.18669748343E+02  0.00000000000E+00 0.  1.
</event>
<event>
 5    1  0.9041381E-005  0.9118800E+02  0.7818608E-02  0.1130116E+00
         25   -1    0    0    0    0  0.00000000000E+00  0.00000000000E+00  0.99999998245E-14  0.12500000000E+03  0.12500000000E+03 0.  0.
        -13    1    3    3    0    0  0.33234435534E+02 -0.41195262701E+02  0.25128401997E+02  0.58592022710E+02  0.10566000000E+00 0.  1.
         23    2    1    0    0    0  0.26362230975E+02 -0.14959847960E+02  0.13530078182E+01  0.94658693121E+02  0.89664225198E+02 0.  0.
         13    1    3    3    0    0 -0.68722045597E+01  0.26235414741E+02 -0.23775394179E+02  0.36066670411E+02  0.10566000000E+00 0. -1.
         22    1    1    0    0    0 -0.26362230975E+02  0.14959847960E+02 -0.13530078182E+01  0.30341306879E+02  0.00000000000E+00 0.  1.
</event>
<event>
 5    1  0.9041381E-005  0.9118800E+02  0.7818608E-02  0.1130116E+00
         25   -1    0    0    0    0  0.00000000000E+00  0.00000000000E+00  0.99999998245E-14  0.12500000000E+03  0.12500000000E+03 0.  0.
        -13    1    3    3    0    0  0.11112769999E+02 -0.35392510667E+02 -0.33448084975E+02  0.49949064264E+02  0.10566000000E+00 0. -1.
         23    2    1    0    0    0 -0.13287856062E+02 -0.24729381169E+02  0.47649114574E+01  0.96525207763E+02  0.92229615313E+02 0.  0.
         13    1    3    3    0    0 -0.24400626061E+02  0.10663129498E+02  0.38212996433E+02  0.46576143499E+02  0.10566000000E+00 0.  1.
         22    1    1    0    0    0  0.13287856062E+02  0.24729381169E+02 -0.47649114574E+01  0.28474792237E+02  0.00000000000E+00 0.  1.
</event>
<event>
 5    1  0.9041381E-005  0.9118800E+02  0.7818608E-02  0.1130116E+00
         25   -1    0    0    0    0  0.00000000000E+00  0.00000000000E+00  0.99999998245E-14  0.12500000000E+03  0.12500000000E+03 0.  0.
        -13    1    3    3    0    0  0.52987518687E+02 -0.11314259346E+02  0.51298601206E+01  0.54424408403E+02  0.10566000000E+00 0.  1.
         23    2    1    0    0    0  0.13430750203E+02 -0.25105780266E+02  0.29841870702E+01  0.96371506742E+02  0.92021066531E+02 0.  0.
         13    1    3    3    0    0 -0.39556768484E+02 -0.13791520920E+02 -0.21456730503E+01  0.41947098339E+02  0.10566000000E+00 0. -1.
         22    1    1    0    0    0 -0.13430750203E+02  0.25105780266E+02 -0.29841870702E+01  0.28628493258E+02  0.00000000000E+00 0.  1.
</event>
<event>
 5    1  0.9041381E-005  0.9118800E+02  0.7818608E-02  0.1130116E+00
         25   -1    0    0    0    0  0.00000000000E+00  0.00000000000E+00  0.99999998245E-14  0.12500000000E+03  0.12500000000E+03 0.  0.
        -13    1    3    3    0    0  0.96085756187E+01 -0.11379336172E+02  0.30927554776E+02  0.34326940231E+02  0.10566000000E+00 0. -1.
         23    2    1    0    0    0  0.10007381174E+02  0.67218667452E+01 -0.27220909921E+02  0.95229055987E+02  0.90455867675E+02 0.  0.
         13    1    3    3    0    0  0.39880555520E+00  0.18101202917E+02 -0.58148464697E+02  0.60902115756E+02  0.10566000000E+00 0.  1.
         22    1    1    0    0    0 -0.10007381174E+02 -0.67218667452E+01  0.27220909921E+02  0.29770944013E+02  0.00000000000E+00 0.  1.
</event>
<event>
 5    1  0.9041381E-005  0.9118800E+02  0.7818608E-02  0.1130116E+00
         25   -1    0    0    0    0  0.00000000000E+00  0.00000000000E+00  0.99999998245E-14  0.12500000000E+03  0.12500000000E+03 0.  0.
        -13    1    3    3    0    0 -0.21551330709E+02 -0.20762919792E+02 -0.11674896614E+02  0.32122781147E+02  0.10566000000E+00 0. -1.
         23    2    1    0    0    0  0.15853473041E+02  0.24717289823E+02  0.86006733046E+01  0.94401820235E+02  0.89305403301E+02 0.  0.
         13    1    3    3    0    0  0.37404803750E+02  0.45480209615E+02  0.20275569919E+02  0.62279039088E+02  0.10566000000E+00 0.  1.
         22    1    1    0    0    0 -0.15853473041E+02 -0.24717289823E+02 -0.86006733046E+01  0.30598179765E+02  0.00000000000E+00 0.  1.
</event>
<event>
 5    1  0.9041381E-005  0.9118800E+02  0.7818608E-02  0.1130116E+00
         25   -1    0    0    0    0  0.00000000000E+00  0.00000000000E+00  0.99999998245E-14  0.12500000000E+03  0.12500000000E+03 0.  0.
        -13    1    3    3    0    0  0.37527763770E+02  0.95946385262E-01  0.24473609953E+02  0.44803024535E+02  0.10566000000E+00 0. -1.
         23    2    1    0    0    0  0.62392432519E+01 -0.25560303303E+02 -0.88701634091E+01  0.97234246630E+02  0.93185630102E+02 0.  0.
         13    1    3    3    0    0 -0.31288520519E+02 -0.25656249688E+02 -0.33343773362E+02  0.52431222095E+02  0.10566000000E+00 0.  1.
         22    1    1    0    0    0 -0.62392432519E+01  0.25560303303E+02  0.88701634091E+01  0.27765753370E+02  0.00000000000E+00 0.  1.
</event>
<event>
 5    1  0.9041381E-005  0.9118800E+02  0.7818608E-02  0.1130116E+00
         25   -1    0    0    0    0  0.00000000000E+00  0.00000000000E+00  0.99999998245E-14  0.12500000000E+03  0.12500000000E+03 0.  0.
        -13    1    3    3    0    0 -0.37508380009E+02  0.10658547802E+01 -0.20540414923E+02  0.42777732836E+02  0.10566000000E+00 0.  1.
         23    2    1    0    0    0  0.15392539508E+02 -0.14882532120E+02 -0.16105240931E+02  0.98208232229E+02  0.94483109905E+02 0.  0.
         13    1    3    3    0    0  0.52900919518E+02 -0.15948386901E+02  0.44351739921E+01  0.55430499393E+02  0.10566000000E+00 0. -1.
         22    1    1    0    0    0 -0.15392539508E+02  0.14882532120E+02  0.16105240931E+02  0.26791767771E+02  0.00000000000E+00 0. -1.
</event>
<event>
 5    1  0.9041381E-005  0.9118800E+02  0.7818608E-02  0.1130116E+00
         25   -1    0    0    0    0  0.00000000000E+00  0.00000000000E+00  0.99999998245E-14  0.12500000000E+03  0.12500000000E+03 0.  0.
        -13    1    3    3    0    0  0.23781452670E+02 -0.23053808507E+02 -0.11853928115E+02  0.35179004442E+02  0.10566000000E+00 0.  1.
         23    2    1    0    0    0 -0.69126470671E+01  0.24938506047E+02  0.11413850756E+02  0.96715909730E+02  0.92487715036E+02 0.  0.
         13    1    3    3    0    0 -0.30694099737E+02  0.47992314553E+02  0.23267778870E+02  0.61536905288E+02  0.10566000000E+00 0. -1.
         22    1    1    0    0    0  0.69126470671E+01 -0.24938506047E+02 -0.11413850756E+02  0.28284090270E+02  0.00000000000E+00 0. -1.
</event>
<event>
 5    1  0.9041381E-005  0.9118800E+02  0.7818608E-02  0.1130116E+00
         25   -1    0    0    0    0  0.00000000000E+00  0.00000000000E+00  0.99999998245E-14  0.12500000000E+03  0.12500000000E+03 0.  0.
        -13    1    3    3    0    0  0.36063516782E+02  0.19519783640E+01  0.17796932386E+01  0.36160281170E+02  0.10566000000E+00 0. -1.
         23    2    1    0    0    0 -0.20135682135E+02  0.10108619776E+02 -0.17860584792E+02  0.96248819538E+02  0.91854258935E+02 0.  0.
         13    1    3    3    0    0 -0.56199198917E+02  0.81566414120E+01 -0.19640278031E+02  0.60088538368E+02  0.10566000000E+00 0.  1.
         22    1    1    0    0    0  0.20135682135E+02 -0.10108619776E+02  0.17860584792E+02  0.28751180462E+02  0.00000000000E+00 0.  1.
</event>
<event>
 5    1  0.9041381E-005  0.9118800E+02  0.7818608E-02  0.1130116E+00
         25   -1    0    0    0    0  0.00000000000E+00  0.00000000000E+00  0.99999998245E-14  0.12500000000E+03  0.12500000000E+03 0.  0.
        -13    1    3    3    0    0  0.46151953757E+02 -0.32451552028E+02  0.20769028294E+02  0.60120460452E+02  0.10566000000E+00 0.  1.
         23    2    1    0    0    0  0.15853284382E+02 -0.23972572555E+02  0.34001883953E+01  0.96059161351E+02  0.91595798690E+02 0.  0.
         13    1    3    3    0    0 -0.30298669376E+02  0.84789794729E+01 -0.17368839899E+02  0.35938700899E+02  0.10566000000E+00 0. -1.
         22    1    1    0    0    0 -0.15853284382E+02  0.23972572555E+02 -0.34001883953E+01  0.28940838649E+02  0.00000000000E+00 0.  1.
</event>
<event>
 5    1  0.9041381E-005  0.9118800E+02  0.7818608E-02  0.1130116E+00
         25   -1    0    0    0    0  0.00000000000E+00  0.00000000000E+00  0.99999998245E-14  0.12500000000E+03  0.12500000000E+03 0.  0.
        -13    1    3    3    0    0 -0.22140973402E+02  0.63862297088E+01  0.26195887618E+02  0.34889000061E+02  0.10566000000E+00 0.  1.
         23    2    1    0    0    0  0.15492649186E+02  0.75990255873E+01 -0.22626403111E+02  0.96544394464E+02  0.92255615634E+02 0.  0.
         13    1    3    3    0    0  0.37633622588E+02  0.12127958785E+01 -0.48822290729E+02  0.61655394403E+02  0.10566000000E+00 0. -1.
         22    1    1    0    0    0 -0.15492649186E+02 -0.75990255873E+01  0.22626403111E+02  0.28455605536E+02  0.00000000000E+00 0. -1.
</event>
<event>
 5    1  0.9041381E-005  0.9118800E+02  0.7818608E-02  0.1130116E+00
         25   -1    0    0    0    0  0.00000000000E+00  0.00000000000E+00  0.99999998245E-14  0.12500000000E+03  0.12500000000E+03 0.  0.
        -13    1    3    3    0    0 -0.50639968851E+02 -0.19371665718E+02 -0.22423620642E+02  0.58672802938E+02  0.10566000000E+00 0.  1.
         23    2    1    0    0    0 -0.16480183390E+02 -0.22627490491E+02 -0.80838343986E+01  0.95863285204E+02  0.91328096997E+02 0.  0.
         13    1    3    3    0    0  0.34159785460E+02 -0.32558247733E+01  0.14339786244E+02  0.37190482266E+02  0.10566000000E+00 0. -1.
         22    1    1    0    0    0  0.16480183390E+02  0.22627490491E+02  0.80838343986E+01  0.29136714796E+02  0.00000000000E+00 0.  1.
</event>
<event>
 5    1  0.9041381E-005  0.9118800E+02  0.7818608E-02  0.1130116E+00
         25   -1    0    0    0    0  0.00000000000E+00  0.00000000000E+00  0.99999998245E-14  0.12500000000E+03  0.12500000000E+03 0.  0.
        -13    1    3    3    0    0  0.43575088274E+02 -0.24077324833E+02 -0.35070284321E+02  0.60896977721E+02  0.10566000000E+00 0.  1.
         23    2    1    0    0    0  0.20202763409E+02 -0.18932947189E+02 -0.99853939493E+01  0.95566749569E+02  0.90921325288E+02 0.  0.
         13    1    3    3    0    0 -0.23372324865E+02  0.51443776439E+01  0.25084890372E+02  0.34669771847E+02  0.10566000000E+00 0. -1.
         22    1    1    0    0    0 -0.20202763409E+02  0.18932947189E+02  0.99853939493E+01  0.29433250431E+02  0.00000000000E+00 0.  1.
</event>
<event>
 5    1  0.9041381E-005  0.9118800E+02  0.7818608E-02  0.1130116E+00
         25   -1    0    0    0    0  0.00000000000E+00  0.00000000000E+00  0.99999998245E-14  0.12500000000E+03  0.12500000000E+03 0.  0.
        -13    1    3    3    0    0  0.25017809068E+02 -0.12037508782E+02 -0.10901019137E+02  0.29826762656E+02  0.10566000000E+00 0.  1.
         23    2    1    0    0    0 -0.24757936184E+02  0.17387708357E+02  0.12579498191E+02  0.92235208215E+02  0.86219499266E+02 0.  0.
         13    1    3    3    0    0 -0.49775745252E+02  0.29425217139E+02  0.23480517328E+02  0.62408445559E+02  0.10566000000E+00 0. -1.
         22    1    1    0    0    0  0.24757936184E+02 -0.17387708357E+02 -0.12579498191E+02  0.32764791785E+02  0.00000000000E+00 0. -1.
</event>
<event>
 5    1  0.9041381E-005  0.9118800E+02  0.7818608E-02  0.1130116E+00
         25   -1    0    0    0    0  0.00000000000E+00  0.00000000000E+00  0.99999998245E-14  0.12500000000E+03  0.12500000000E+03 0.  0.
        -13    1    3    3    0    0  0.26748201920E+02 -0.23663278204E+02 -0.66288763829E+01  0.36323135980E+02  0.10566000000E+00 0. -1.
         23    2    1    0    0    0  0.35220748160E+01  0.28034819705E+02  0.94002867686E+01  0.95222130395E+02  0.90446296766E+02 0.  0.
         13    1    3    3    0    0 -0.23226127104E+02  0.51698097909E+02  0.16029163152E+02  0.58898994414E+02  0.10566000000E+00 0.  1.
         22    1    1    0    0    0 -0.35220748160E+01 -0.28034819705E+02 -0.94002867686E+01  0.29777869605E+02  0.00000000000E+00 0.  1.
</event>
<event>
 5    1  0.9041381E-005  0.9118800E+02  0.7818608E-02  0.1130116E+00
         25   -1    0    0    0    0  0.00000000000E+00  0.00000000000E+00  0.99999998245E-14  0.12500000000E+03  0.12500000000E+03 0.  0.
        -13    1    3    3    0    0 -0.11033986278E+02 -0.85471049517E+01  0.38097221651E+02  0.40573529767E+02  0.10566000000E+00 0.  1.
         23    2    1    0    0    0  0.27278066481E+02  0.12935221336E+02  0.81680092228E+01  0.93724942260E+02  0.88352903546E+02 0.  0.
         13    1    3    3    0    0  0.38312052760E+02  0.21482326288E+02 -0.29929212428E+02  0.53151412493E+02  0.10566000000E+00 0. -1.
         22    1    1    0    0    0 -0.27278066481E+02 -0.12935221336E+02 -0.81680092228E+01  0.31275057740E+02  0.00000000000E+00 0. -1.
</event>
<event>
 5    1  0.9041381E-005  0.9118800E+02  0.7818608E-02  0.1130116E+00
         25   -1    0    0    0    0  0.00000000000E+00  0.00000000000E+00  0.99999998245E-14  0.12500000000E+03  0.12500000000E+03 0.  0.
        -13    1    3    3    0    0  0.31258485141E+02 -0.35011957759E+02  0.55382166442E+01  0.47261116015E+02  0.10566000000E+00 0.  1.
         23    2    1    0    0    0 -0.55399352931E+01 -0.11669103224E+02  0.26425661557E+02  0.95586152210E+02  0.90947996418E+02 0.  0.
         13    1    3    3    0    0 -0.36798420434E+02  0.23342854534E+02  0.20887444912E+02  0.48325036195E+02  0.10566000000E+00 0. -1.
         22    1    1    0    0    0  0.55399352931E+01  0.11669103224E+02 -0.26425661557E+02  0.29413847790E+02  0.00000000000E+00 0. -1.
</event>
<event>
 5    1  0.9041381E-005  0.9118800E+02  0.7818608E-02  0.1130116E+00
         25   -1    0    0    0    0  0.00000000000E+00  0.00000000000E+00  0.99999998245E-14  0.12500000000E+03  0.12500000000E+03 0.  0.
        -13    1    3    3    0    0 -0.29694606168E+02  0.10139742222E+02 -0.14896131065E+02  0.34734563371E+02  0.10566000000E+00 0.  1.
         23    2    1    0    0    0  0.19104739439E+02 -0.90752952796E+01  0.18490934336E+02  0.96906109097E+02  0.92744419100E+02 0.  0.
         13    1    3    3    0    0  0.48799345608E+02 -0.19215037502E+02  0.33387065400E+02  0.62171545726E+02  0.10566000000E+00 0. -1.
         22    1    1    0    0    0 -0.19104739439E+02  0.90752952796E+01 -0.18490934336E+02  0.28093890903E+02  0.00000000000E+00 0. -1.
</event>
<event>
 5    1  0.9041381E-005  0.9118800E+02  0.7818608E-02  0.1130116E+00
         25   -1    0    0    0    0  0.00000000000E+00  0.00000000000E+00  0.99999998245E-14  0.12500000000E+03  0.12500000000E+03 0.  0.
        -13    1    3    3    0    0 -0.10041894358E+02  0.49127944930E+02  0.16614457269E+02  0.52824671980E+02  0.10566000000E+00 0. -1.
         23    2    1    0    0    0 -0.26538867041E+02  0.13013446989E+02  0.11942146527E+01  0.95418123538E+02  0.90716761872E+02 0.  0.
         13    1    3    3    0    0 -0.16496972684E+02 -0.36114497941E+02 -0.15420242617E+02  0.42593451558E+02  0.10566000000E+00 0.  1.
         22    1    1    0    0    0  0.26538867041E+02 -0.13013446989E+02 -0.11942146527E+01  0.29581876462E+02  0.00000000000E+00 0. -1.
</event>
<event>
 5    1  0.9041381E-005  0.9118800E+02  0.7818608E-02  0.1130116E+00
         25   -1    0    0    0    0  0.00000000000E+00  0.00000000000E+00  0.99999998245E-14  0.12500000000E+03  0.12500000000E+03 0.  0.
        -13    1    3    3    0    0 -0.30807952880E+02  0.46618897729E+02  0.14079791489E+02  0.57625543629E+02  0.10566000000E+00 0.  1.
         23    2    1    0    0    0 -0.28471691988E+01  0.29377812485E+02 -0.41501761240E+01  0.95194191829E+02  0.90407676429E+02 0.  0.
         13    1    3    3    0    0  0.27960783681E+02 -0.17241085244E+02 -0.18229967613E+02  0.37568648201E+02  0.10566000000E+00 0. -1.
         22    1    1    0    0    0  0.28471691988E+01 -0.29377812485E+02  0.41501761240E+01  0.29805808171E+02  0.00000000000E+00 0.  1.
</event>
<event>
 5    1  0.9041381E-005  0.9118800E+02  0.7818608E-02  0.1130116E+00
         25   -1    0    0    0    0  0.00000000000E+00  0.00000000000E+00  0.99999998245E-14  0.12500000000E+03  0.12500000000E+03 0.  0.
        -13    1    3    3    0    0  0.24437343120E+02  0.18171054749E+02  0.16321921161E+02  0.34551226373E+02  0.10566000000E+00 0.  1.
         23    2    1    0    0    0 -0.26645267554E+02  0.10602040693E+02 -0.12530058971E+02  0.93705017532E+02  0.88324709923E+02 0.  0.
         13    1    3    3    0    0 -0.51082610673E+02 -0.75690140559E+01 -0.28851980131E+02  0.59153791159E+02  0.10566000000E+00 0. -1.
         22    1    1    0    0    0  0.26645267554E+02 -0.10602040693E+02  0.12530058971E+02  0.31294982468E+02  0.00000000000E+00 0. -1.
</event>
<event>
 5    1  0.9041381E-005  0.9118800E+02  0.7818608E-02  0.1130116E+00
         25   -1    0    0    0    0  0.00000000000E+00  0.00000000000E+00  0.99999998245E-14  0.12500000000E+03  0.12500000000E+03 0.  0.
        -13    1    3    3    0    0  0.13093070787E+02 -0.74971700504E+01 -0.32487198962E+02  0.35819901198E+02  0.10566000000E+00 0. -1.
         23    2    1    0    0    0 -0.16887021350E+02 -0.87906414952E+01  0.20692497954E+02  0.96881921482E+02  0.92711813543E+02 0.  0.
         13    1    3    3    0    0 -0.29980092137E+02 -0.12934714449E+01  0.53179696917E+02  0.61062020284E+02  0.10566000000E+00 0.  1.
         22    1    1    0    0    0  0.16887021350E+02  0.87906414952E+01 -0.20692497954E+02  0.28118078518E+02  0.00000000000E+00 0.  1.
</event>
<event>
 5    1  0.9041381E-005  0.9118800E+02  0.7818608E-02  0.1130116E+00
         25   -1    0    0    0    0  0.00000000000E+00  0.00000000000E+00  0.99999998245E-14  0.12500000000E+03  0.12500000000E+03 0.  0.
        -13    1    3    3    0    0  0.44511736318E+02 -0.52259185285E+01 -0.72681036865E+01  0.45403098900E+02  0.10566000000E+00 0. -1.
         23    2    1    0    0    0 -0.47086683920E+01 -0.22636506872E+02 -0.13885423180E+02  0.98029868776E+02  0.94246841825E+02 0.  0.
         13    1    3    3    0    0 -0.49220404710E+02 -0.17410588343E+02 -0.66173194933E+01  0.52626769876E+02  0.10566000000E+00 0.  1.
         22    1    1    0    0    0  0.47086683920E+01  0.22636506872E+02  0.13885423180E+02  0.26970131224E+02  0.00000000000E+00 0. -1.
</event>
<event>
 5    1  0.9041381E-005  0.9118800E+02  0.7818608E-02  0.1130116E+00
         25   -1    0    0    0    0  0.00000000000E+00  0.00000000000E+00  0.99999998245E-14  0.12500000000E+03  0.12500000000E+03 0.  0.
        -13    1    3    3    0    0 -0.94372316272E+01  0.37354898556E+02  0.35907731671E+02  0.52667125845E+02  0.10566000000E+00 0. -1.
         23    2    1    0    0    0 -0.26896686601E+02  0.96593176135E+01  0.90226756342E+01  0.95030968610E+02  0.90181717396E+02 0.  0.
         13    1    3    3    0    0 -0.17459454973E+02 -0.27695580943E+02 -0.26885056037E+02  0.42363842766E+02  0.10566000000E+00 0.  1.
         22    1    1    0    0    0  0.26896686601E+02 -0.96593176135E+01 -0.90226756342E+01  0.29969031390E+02  0.00000000000E+00 0. -1.
</event>
<event>
 5    1  0.9041381E-005  0.9118800E+02  0.7818608E-02  0.1130116E+00
         25   -1    0    0    0    0  0.00000000000E+00  0.00000000000E+00  0.99999998245E-14  0.12500000000E+03  0.12500000000E+03 0.  0.
        -13    1    3    3    0    0  0.18113785306E+02  0.23563375264E+02 -0.46259859421E+02  0.54984794531E+02  0.10566000000E+00 0.  1.
         23    2    1    0    0    0  0.75179408360E+01 -0.10830256698E+02 -0.24873228230E+02  0.96848776632E+02  0.92667114760E+02 0.  0.
         13    1    3    3    0    0 -0.10595844470E+02 -0.34393631962E+02  0.21386631191E+02  0.41863982101E+02  0.10566000000E+00 0. -1.
         22    1    1    0    0    0 -0.75179408360E+01  0.10830256698E+02  0.24873228230E+02  0.28151223368E+02  0.00000000000E+00 0.  1.
</event>
<event>
 5    1  0.9041381E-005  0.9118800E+02  0.7818608E-02  0.1130116E+00
         25   -1    0    0    0    0  0.00000000000E+00  0.00000000000E+00  0.99999998245E-14  0.12500000000E+03  0.12500000000E+03 0.  0.
        -13    1    3    3    0    0 -0.26851738466E+02  0.45730810287E+02 -0.31577998917E+02  0.61721179897E+02  0.10566000000E+00 0. -1.
         23    2    1    0    0    0 -0.23851877246E+01  0.16378336613E+02 -0.80618292012E+01  0.10658989080E+03  0.10498796455E+03 0.  0.
         13    1    3    3    0    0  0.24466550742E+02 -0.29352473674E+02  0.23516169716E+02  0.44868710903E+02  0.10566000000E+00 0.  1.
         22    1    1    0    0    0  0.23851877246E+01 -0.16378336613E+02  0.80618292012E+01  0.18410109200E+02  0.00000000000E+00 0. -1.
</event>
<event>
 5    1  0.9041381E-005  0.9118800E+02  0.7818608E-02  0.1130116E+00
         25   -1    0    0    0    0  0.00000000000E+00  0.00000000000E+00  0.99999998245E-14  0.12500000000E+03  0.12500000000E+03 0.  0.
        -13    1    3    3    0    0  0.22199904490E+02  0.39627200873E+02  0.12965941570E+01  0.45440544988E+02  0.10566000000E+00 0. -1.
         23    2    1    0    0    0  0.13753121939E+02 -0.26209946725E+01  0.26264584412E+02  0.95236828622E+02  0.90466607958E+02 0.  0.
         13    1    3    3    0    0 -0.84467825516E+01 -0.42248195545E+02  0.24967990255E+02  0.49796283634E+02  0.10566000000E+00 0.  1.
         22    1    1    0    0    0 -0.13753121939E+02  0.26209946725E+01 -0.26264584412E+02  0.29763171378E+02  0.00000000000E+00 0.  1.
</event>
<event>
 5    1  0.9041381E-005  0.9118800E+02  0.7818608E-02  0.1130116E+00
         25   -1    0    0    0    0  0.00000000000E+00  0.00000000000E+00  0.99999998245E-14  0.12500000000E+03  0.12500000000E+03 0.  0.
        -13    1    3    3    0    0 -0.37058980833E+02  0.43760162244E+02  0.13738188365E+02  0.58966675704E+02  0.10566000000E+00 0. -1.
         23    2    1    0    0    0 -0.91117371784E+01  0.25055070032E+02 -0.55971017006E+01  0.97758343734E+02  0.93886026295E+02 0.  0.
         13    1    3    3    0    0  0.27947243654E+02 -0.18705092213E+02 -0.19335290066E+02  0.38791668030E+02  0.10566000000E+00 0.  1.
         22    1    1    0    0    0  0.91117371784E+01 -0.25055070032E+02  0.55971017006E+01  0.27241656266E+02  0.00000000000E+00 0. -1.
</event>
<event>
 5    1  0.9041381E-005  0.9118800E+02  0.7818608E-02  0.1130116E+00
         25   -1    0    0    0    0  0.00000000000E+00  0.00000000000E+00  0.99999998245E-14  0.12500000000E+03  0.12500000000E+03 0.  0.
        -13    1    3    3    0    0 -0.56887690143E+02  0.11178991006E+02 -0.11009302650E+02  0.59011821177E+02  0.10566000000E+00 0. -1.
         23    2    1    0    0    0 -0.35904459506E+02  0.20946923885E+02 -0.10331013657E+02  0.82167376034E+02  0.70120211127E+02 0.  0.
         13    1    3    3    0    0  0.20983230638E+02  0.97679328791E+01  0.67828899275E+00  0.23155554857E+02  0.10566000000E+00 0.  1.
         22    1    1    0    0    0  0.35904459506E+02 -0.20946923885E+02  0.10331013657E+02  0.42832623966E+02  0.00000000000E+00 0. -1.
</event>
<event>
 5    1  0.9041381E-005  0.9118800E+02  0.7818608E-02  0.1130116E+00
         25   -1    0    0    0    0  0.00000000000E+00  0.00000000000E+00  0.99999998245E-14  0.12500000000E+03  0.12500000000E+03 0.  0.
        -13    1    3    3    0    0  0.38697351700E+02  0.17701019533E+02  0.39267741781E+02  0.57903176335E+02  0.10566000000E+00 0. -1.
         23    2    1    0    0    0  0.24578749633E+02 -0.70965920908E+01  0.15131560186E+02  0.95277270205E+02  0.90522469869E+02 0.  0.
         13    1    3    3    0    0 -0.14118602066E+02 -0.24797611624E+02 -0.24136181595E+02  0.37374093870E+02  0.10566000000E+00 0.  1.
         22    1    1    0    0    0 -0.24578749633E+02  0.70965920908E+01 -0.15131560186E+02  0.29722729795E+02  0.00000000000E+00 0. -1.
</event>
<event>
 5    1  0.9041381E-005  0.9118800E+02  0.7818608E-02  0.1130116E+00
         25   -1    0    0    0    0  0.00000000000E+00  0.00000000000E+00  0.99999998245E-14  0.12500000000E+03  0.12500000000E+03 0.  0.
        -13    1    3    3    0    0 -0.74856772463E+00 -0.21658351706E+02  0.32445896623E+02  0.39017841098E+02  0.10566000000E+00 0. -1.
         23    2    1    0    0    0  0.26630512128E+02 -0.19199703417E+01 -0.12738739854E+02  0.95417134091E+02  0.90715398488E+02 0.  0.
         13    1    3    3    0    0  0.27379079853E+02  0.19738381365E+02 -0.45184636477E+02  0.56399292993E+02  0.10566000000E+00 0.  1.
         22    1    1    0    0    0 -0.26630512128E+02  0.19199703417E+01  0.12738739854E+02  0.29582865909E+02  0.00000000000E+00 0. -1.
</event>
<event>
 5    1  0.9041381E-005  0.9118800E+02  0.7818608E-02  0.1130116E+00
         25   -1    0    0    0    0  0.00000000000E+00  0.00000000000E+00  0.99999998245E-14  0.12500000000E+03  0.12500000000E+03 0.  0.
        -13    1    3    3    0    0  0.32208332184E+02 -0.22845961436E+01 -0.18209693604E+02  0.37070205648E+02  0.10566000000E+00 0.  1.
         23    2    1    0    0    0 -0.25821776064E+02 -0.68207152391E+01 -0.12361688562E+02  0.95570463483E+02  0.90926431090E+02 0.  0.
         13    1    3    3    0    0 -0.58030108248E+02 -0.45361190955E+01  0.58480050414E+01  0.58500257835E+02  0.10566000000E+00 0. -1.
         22    1    1    0    0    0  0.25821776064E+02  0.68207152391E+01  0.12361688562E+02  0.29429536517E+02  0.00000000000E+00 0. -1.
</event>
<event>
 5    1  0.9041381E-005  0.9118800E+02  0.7818608E-02  0.1130116E+00
         25   -1    0    0    0    0  0.00000000000E+00  0.00000000000E+00  0.99999998245E-14  0.12500000000E+03  0.12500000000E+03 0.  0.
        -13    1    3    3    0    0 -0.63413676747E+01 -0.33223551569E+02 -0.19366353700E+01  0.33878887872E+02  0.10566000000E+00 0. -1.
         23    2    1    0    0    0  0.23210098012E+02  0.19508414722E+02  0.30225379891E+01  0.94529971602E+02  0.89484595884E+02 0.  0.
         13    1    3    3    0    0  0.29551465687E+02  0.52731966291E+02  0.49591733591E+01  0.60651083730E+02  0.10566000000E+00 0.  1.
         22    1    1    0    0    0 -0.23210098012E+02 -0.19508414722E+02 -0.30225379891E+01  0.30470028398E+02  0.00000000000E+00 0.  1.
</event>
<event>
 5    1  0.9041381E-005  0.9118800E+02  0.7818608E-02  0.1130116E+00
         25   -1    0    0    0    0  0.00000000000E+00  0.00000000000E+00  0.99999998245E-14  0.12500000000E+03  0.12500000000E+03 0.  0.
        -13    1    3    3    0    0 -0.93398995859E+01  0.26007585005E+02 -0.52949844389E+02  0.59727090896E+02  0.10566000000E+00 0.  1.
         23    2    1    0    0    0 -0.84949129079E+01  0.19803172755E+02 -0.13717927315E+02  0.99455710495E+02  0.96119340529E+02 0.  0.
         13    1    3    3    0    0  0.84498667807E+00 -0.62044122494E+01  0.39231917074E+02  0.39728619599E+02  0.10566000000E+00 0. -1.
         22    1    1    0    0    0  0.84949129079E+01 -0.19803172755E+02  0.13717927315E+02  0.25544289505E+02  0.00000000000E+00 0.  1.
</event>
<event>
 5    1  0.9041381E-005  0.9118800E+02  0.7818608E-02  0.1130116E+00
         25   -1    0    0    0    0  0.00000000000E+00  0.00000000000E+00  0.99999998245E-14  0.12500000000E+03  0.12500000000E+03 0.  0.
        -13    1    3    3    0    0  0.43925280336E+02 -0.90517892464E+01  0.24596567412E+01  0.44915768016E+02  0.10566000000E+00 0.  1.
         23    2    1    0    0    0 -0.13208880630E+01 -0.14889486562E+02  0.25054022717E+02  0.95825600098E+02  0.91276503134E+02 0.  0.
         13    1    3    3    0    0 -0.45246168399E+02 -0.58376973158E+01  0.22594365976E+02  0.50909832082E+02  0.10566000000E+00 0. -1.
         22    1    1    0    0    0  0.13208880630E+01  0.14889486562E+02 -0.25054022717E+02  0.29174399902E+02  0.00000000000E+00 0. -1.
</event>
<event>
 5    1  0.9041381E-005  0.9118800E+02  0.7818608E-02  0.1130116E+00
         25   -1    0    0    0    0  0.00000000000E+00  0.00000000000E+00  0.99999998245E-14  0.12500000000E+03  0.12500000000E+03 0.  0.
        -13    1    3    3    0    0  0.42977983878E+02  0.23962012658E+02  0.35889656474E+02  0.60904546257E+02  0.10566000000E+00 0.  1.
         23    2    1    0    0    0  0.15893070924E+02  0.44976739716E+01  0.23047342342E+02  0.96645128045E+02  0.92392001879E+02 0.  0.
         13    1    3    3    0    0 -0.27084912954E+02 -0.19464338687E+02 -0.12842314132E+02  0.35740581788E+02  0.10566000000E+00 0. -1.
         22    1    1    0    0    0 -0.15893070924E+02 -0.44976739716E+01 -0.23047342342E+02  0.28354871955E+02  0.00000000000E+00 0.  1.
</event>
<event>
 5    1  0.9041381E-005  0.9118800E+02  0.7818608E-02  0.1130116E+00
         25   -1    0    0    0    0  0.00000000000E+00  0.00000000000E+00  0.99999998245E-14  0.12500000000E+03  0.12500000000E+03 0.  0.
        -13    1    3    3    0    0  0.34692017353E+02  0.13840378701E+02 -0.23720611200E+01  0.37426327480E+02  0.10566000000E+00 0.  1.
         23    2    1    0    0    0 -0.63410939382E+00 -0.29266899521E+02  0.91330724877E+01  0.94334603943E+02  0.89211271629E+02 0.  0.
         13    1    3    3    0    0 -0.35326126747E+02 -0.43107278222E+02  0.11505133608E+02  0.56908276463E+02  0.10566000000E+00 0. -1.
         22    1    1    0    0    0  0.63410939382E+00  0.29266899521E+02 -0.91330724877E+01  0.30665396057E+02  0.00000000000E+00 0. -1.
</event>
<event>
 5    1  0.9041381E-005  0.9118800E+02  0.7818608E-02  0.1130116E+00
         25   -1    0    0    0    0  0.00000000000E+00  0.00000000000E+00  0.99999998245E-14  0.12500000000E+03  0.12500000000E+03 0.  0.
        -13    1    3    3    0    0  0.17531847799E+02  0.15842620777E+02 -0.17973594699E+02  0.29688644138E+02  0.10566000000E+00 0.  1.
         23    2    1    0    0    0  0.12013263147E+02 -0.21986671623E+02  0.26631769416E+02  0.88435216906E+02  0.80522072915E+02 0.  0.
         13    1    3    3    0    0 -0.55185846512E+01 -0.37829292400E+02  0.44605364115E+02  0.58746572768E+02  0.10566000000E+00 0. -1.
         22    1    1    0    0    0 -0.12013263147E+02  0.21986671623E+02 -0.26631769416E+02  0.36564783094E+02  0.00000000000E+00 0. -1.
</event>
<event>
 5    1  0.9041381E-005  0.9118800E+02  0.7818608E-02  0.1130116E+00
         25   -1    0    0    0    0  0.00000000000E+00  0.00000000000E+00  0.99999998245E-14  0.12500000000E+03  0.12500000000E+03 0.  0.
        -13    1    3    3    0    0  0.59173475943E+01  0.21327884995E+02  0.27094659653E+02  0.34986074754E+02  0.10566000000E+00 0.  1.
         23    2    1    0    0    0 -0.16432828604E+02 -0.16273007037E+02 -0.16381668476E+02  0.96659081242E+02  0.92410877664E+02 0.  0.
         13    1    3    3    0    0 -0.22350176199E+02 -0.37600892032E+02 -0.43476328129E+02  0.61673006489E+02  0.10566000000E+00 0. -1.
         22    1    1    0    0    0  0.16432828604E+02  0.16273007037E+02  0.16381668476E+02  0.28340918758E+02  0.00000000000E+00 0. -1.
</event>
<event>
 5    1  0.9041381E-005  0.9118800E+02  0.7818608E-02  0.1130116E+00
         25   -1    0    0    0    0  0.00000000000E+00  0.00000000000E+00  0.99999998245E-14  0.12500000000E+03  0.12500000000E+03 0.  0.
        -13    1    3    3    0    0 -0.19252162951E+02  0.25779024188E+02 -0.16755544682E+02  0.36276208567E+02  0.10566000000E+00 0. -1.
         23    2    1    0    0    0  0.21176424172E+01 -0.50960985281E+01  0.29007301642E+02  0.95472416655E+02  0.90791542358E+02 0.  0.
         13    1    3    3    0    0  0.21369805369E+02 -0.30875122716E+02  0.45762846325E+02  0.59196208088E+02  0.10566000000E+00 0.  1.
         22    1    1    0    0    0 -0.21176424172E+01  0.50960985281E+01 -0.29007301642E+02  0.29527583345E+02  0.00000000000E+00 0.  1.
</event>
<event>
 5    1  0.9041381E-005  0.9118800E+02  0.7818608E-02  0.1130116E+00
         25   -1    0    0    0    0  0.00000000000E+00  0.00000000000E+00  0.99999998245E-14  0.12500000000E+03  0.12500000000E+03 0.  0.
        -13    1    3    3    0    0  0.17125404985E+02  0.56293559597E+02  0.19404268241E+02  0.61957898108E+02  0.10566000000E+00 0.  1.
         23    2    1    0    0    0  0.78012211802E+01  0.23979222934E+02  0.14402053999E+02  0.95960693124E+02  0.91461321229E+02 0.  0.
         13    1    3    3    0    0 -0.93241838043E+01 -0.32314336662E+02 -0.50022142417E+01  0.34002795016E+02  0.10566000000E+00 0. -1.
         22    1    1    0    0    0 -0.78012211802E+01 -0.23979222934E+02 -0.14402053999E+02  0.29039306876E+02  0.00000000000E+00 0.  1.
</event>
<event>
 5    1  0.9041381E-005  0.9118800E+02  0.7818608E-02  0.1130116E+00
         25   -1    0    0    0    0  0.00000000000E+00  0.00000000000E+00  0.99999998245E-14  0.12500000000E+03  0.12500000000E+03 0.  0.
        -13    1    3    3    0    0 -0.41962174717E+02  0.76661954709E+01 -0.41735304036E+02  0.59677813524E+02  0.10566000000E+00 0.  1.
         23    2    1    0    0    0 -0.13347362286E+02 -0.70990154255E+01 -0.24528799871E+02  0.96186632909E+02  0.91769593152E+02 0.  0.
         13    1    3    3    0    0  0.28614812430E+02 -0.14765210896E+02  0.17206504166E+02  0.36508819385E+02  0.10566000000E+00 0. -1.
         22    1    1    0    0    0  0.13347362286E+02  0.70990154255E+01  0.24528799871E+02  0.28813367091E+02  0.00000000000E+00 0.  1.
</event>
<event>
 5    1  0.9041381E-005  0.9118800E+02  0.7818608E-02  0.1130116E+00
         25   -1    0    0    0    0  0.00000000000E+00  0.00000000000E+00  0.99999998245E-14  0.12500000000E+03  0.12500000000E+03 0.  0.
        -13    1    3    3    0    0  0.12722255917E+02  0.31424296820E+02  0.15077481485E+02  0.37103690358E+02  0.10566000000E+00 0.  1.
         23    2    1    0    0    0 -0.17536145291E+02 -0.19500074760E+02 -0.18466882261E+01  0.98709705884E+02  0.95144240346E+02 0.  0.
         13    1    3    3    0    0 -0.30258401208E+02 -0.50924371580E+02 -0.16924169712E+02  0.61606015525E+02  0.10566000000E+00 0. -1.
         22    1    1    0    0    0  0.17536145291E+02  0.19500074760E+02  0.18466882261E+01  0.26290294116E+02  0.00000000000E+00 0.  1.
</event>
<event>
 5    1  0.9041381E-005  0.9118800E+02  0.7818608E-02  0.1130116E+00
         25   -1    0    0    0    0  0.00000000000E+00  0.00000000000E+00  0.99999998245E-14  0.12500000000E+03  0.12500000000E+03 0.  0.
        -13    1    3    3    0    0  0.30914857581E+02 -0.23386825372E+01 -0.34409056753E+02  0.46316219686E+02  0.10566000000E+00 0.  1.
         23    2    1    0    0    0  0.11916511762E+02 -0.27901957844E+02  0.18820647951E+01  0.94601567935E+02  0.89584552149E+02 0.  0.
         13    1    3    3    0    0 -0.18998345820E+02 -0.25563275307E+02  0.36291121548E+02  0.48285348250E+02  0.10566000000E+00 0. -1.
         22    1    1    0    0    0 -0.11916511762E+02  0.27901957844E+02 -0.18820647951E+01  0.30398432065E+02  0.00000000000E+00 0. -1.
</event>
<event>
 5    1  0.9041381E-005  0.9118800E+02  0.7818608E-02  0.1130116E+00
         25   -1    0    0    0    0  0.00000000000E+00  0.00000000000E+00  0.99999998245E-14  0.12500000000E+03  0.12500000000E+03 0.  0.
        -13    1    3    3    0    0 -0.17870867907E+02 -0.10535168435E+02 -0.15511949750E+00  0.20745913328E+02  0.10566000000E+00 0.  1.
         23    2    1    0    0    0  0.28914235115E+02  0.39405891472E+01  0.33804975843E+02  0.80341992578E+02  0.66786960887E+02 0.  0.
         13    1    3    3    0    0  0.46785103023E+02  0.14475757582E+02  0.33960095341E+02  0.59596079250E+02  0.10566000000E+00 0. -1.
         22    1    1    0    0    0 -0.28914235115E+02 -0.39405891472E+01 -0.33804975843E+02  0.44658007422E+02  0.00000000000E+00 0. -1.
</event>
<event>
 5    1  0.9041381E-005  0.9118800E+02  0.7818608E-02  0.1130116E+00
         25   -1    0    0    0    0  0.00000000000E+00  0.00000000000E+00  0.99999998245E-14  0.12500000000E+03  0.12500000000E+03 0.  0.
        -13    1    3    3    0    0 -0.82442155149E+01 -0.76928084661E+01 -0.32659546122E+02  0.34551461742E+02  0.10566000000E+00 0.  1.
         23    2    1    0    0    0 -0.24654307088E+02  0.26125516347E+02  0.61215621591E+01  0.88560310297E+02  0.80716030466E+02 0.  0.
         13    1    3    3    0    0 -0.16410091574E+02  0.33818324813E+02  0.38781108281E+02  0.54008848555E+02  0.10566000000E+00 0. -1.
         22    1    1    0    0    0  0.24654307088E+02 -0.26125516347E+02 -0.61215621591E+01  0.36439689703E+02  0.00000000000E+00 0.  1.
</event>
<event>
 5    1  0.9041381E-005  0.9118800E+02  0.7818608E-02  0.1130116E+00
         25   -1    0    0    0    0  0.00000000000E+00  0.00000000000E+00  0.99999998245E-14  0.12500000000E+03  0.12500000000E+03 0.  0.
        -13    1    3    3    0    0  0.61091907684E+02  0.28822704764E+01 -0.57244992011E+01  0.61427271815E+02  0.10566000000E+00 0.  1.
         23    2    1    0    0    0  0.25882185293E+02  0.40891127932E+01  0.51449548811E+01  0.98296462412E+02  0.94599765343E+02 0.  0.
         13    1    3    3    0    0 -0.35209722391E+02  0.12068423168E+01  0.10869454082E+02  0.36869190597E+02  0.10566000000E+00 0. -1.
         22    1    1    0    0    0 -0.25882185293E+02 -0.40891127932E+01 -0.51449548811E+01  0.26703537588E+02  0.00000000000E+00 0.  1.
</event>
<event>
 5    1  0.9041381E-005  0.9118800E+02  0.7818608E-02  0.1130116E+00
         25   -1    0    0    0    0  0.00000000000E+00  0.00000000000E+00  0.99999998245E-14  0.12500000000E+03  0.12500000000E+03 0.  0.
        -13    1    3    3    0    0  0.35002248654E+01  0.79842467009E+01  0.35721194825E+02  0.36769752423E+02  0.10566000000E+00 0. -1.
         23    2    1    0    0    0 -0.96096097444E+01 -0.25238465483E+02 -0.11221946574E+02  0.95755225693E+02  0.91180076898E+02 0.  0.
         13    1    3    3    0    0 -0.13109834610E+02 -0.33222712184E+02 -0.46943141400E+02  0.58985473269E+02  0.10566000000E+00 0.  1.
         22    1    1    0    0    0  0.96096097444E+01  0.25238465483E+02  0.11221946574E+02  0.29244774307E+02  0.00000000000E+00 0.  1.
</event>
<event>
 5    1  0.9041381E-005  0.9118800E+02  0.7818608E-02  0.1130116E+00
         25   -1    0    0    0    0  0.00000000000E+00  0.00000000000E+00  0.99999998245E-14  0.12500000000E+03  0.12500000000E+03 0.  0.
        -13    1    3    3    0    0  0.91934592098E+01 -0.36610258522E+02  0.35978543494E+02  0.52146883677E+02  0.10566000000E+00 0. -1.
         23    2    1    0    0    0 -0.54075252897E+01 -0.28289441017E+02 -0.43823528586E+01  0.95866877624E+02  0.91333013779E+02 0.  0.
         13    1    3    3    0    0 -0.14600984500E+02  0.83208175057E+01 -0.40360896352E+02  0.43719993947E+02  0.10566000000E+00 0.  1.
         22    1    1    0    0    0  0.54075252897E+01  0.28289441017E+02  0.43823528586E+01  0.29133122376E+02  0.00000000000E+00 0. -1.
</event>
<event>
 5    1  0.9041381E-005  0.9118800E+02  0.7818608E-02  0.1130116E+00
         25   -1    0    0    0    0  0.00000000000E+00  0.00000000000E+00  0.99999998245E-14  0.12500000000E+03  0.12500000000E+03 0.  0.
        -13    1    3    3    0    0 -0.33211735953E+02 -0.32147449102E+01 -0.15454801541E+02  0.36772490323E+02  0.10566000000E+00 0.  1.
         23    2    1    0    0    0  0.26274046504E+02 -0.64341055398E+01 -0.78810966822E+01  0.96824923803E+02  0.92634933749E+02 0.  0.
         13    1    3    3    0    0  0.59485782458E+02 -0.32193606296E+01  0.75737048583E+01  0.60052433479E+02  0.10566000000E+00 0. -1.
         22    1    1    0    0    0 -0.26274046504E+02  0.64341055398E+01  0.78810966822E+01  0.28175076197E+02  0.00000000000E+00 0. -1.
</event>
<event>
 5    1  0.9041381E-005  0.9118800E+02  0.7818608E-02  0.1130116E+00
         25   -1    0    0    0    0  0.00000000000E+00  0.00000000000E+00  0.99999998245E-14  0.12500000000E+03  0.12500000000E+03 0.  0.
        -13    1    3    3    0    0 -0.34703384388E+01 -0.34747647265E+02 -0.39270411518E+01  0.35140789057E+02  0.10566000000E+00 0. -1.
         23    2    1    0    0    0 -0.87489879438E+01  0.25329223051E+02 -0.11337314997E+02  0.95902765737E+02  0.91382117694E+02 0.  0.
         13    1    3    3    0    0 -0.52786495050E+01  0.60076870316E+02 -0.74102738453E+01  0.60761976680E+02  0.10566000000E+00 0.  1.
         22    1    1    0    0    0  0.87489879438E+01 -0.25329223051E+02  0.11337314997E+02  0.29097234263E+02  0.00000000000E+00 0.  1.
</event>
<event>
 5    1  0.9041381E-005  0.9118800E+02  0.7818608E-02  0.1130116E+00
         25   -1    0    0    0    0  0.00000000000E+00  0.00000000000E+00  0.99999998245E-14  0.12500000000E+03  0.12500000000E+03 0.  0.
        -13    1    3    3    0    0  0.17983344852E+02  0.39891670104E+02 -0.38324502383E+02  0.58168072709E+02  0.10566000000E+00 0.  1.
         23    2    1    0    0    0  0.20927987900E+02  0.82078824765E+01 -0.20138128902E+02  0.94818975366E+02  0.89887395342E+02 0.  0.
         13    1    3    3    0    0  0.29446430476E+01 -0.31683787627E+02  0.18186373481E+02  0.36650902656E+02  0.10566000000E+00 0. -1.
         22    1    1    0    0    0 -0.20927987900E+02 -0.82078824765E+01  0.20138128902E+02  0.30181024634E+02  0.00000000000E+00 0.  1.
</event>
<event>
 5    1  0.9041381E-005  0.9118800E+02  0.7818608E-02  0.1130116E+00
         25   -1    0    0    0    0  0.00000000000E+00  0.00000000000E+00  0.99999998245E-14  0.12500000000E+03  0.12500000000E+03 0.  0.
        -13    1    3    3    0    0  0.14361264866E+02 -0.19353177720E+02 -0.23578150583E+02  0.33715452916E+02  0.10566000000E+00 0. -1.
         23    2    1    0    0    0  0.82092250461E+01  0.15393093250E+02  0.25464101116E+02  0.94133203255E+02  0.88928627639E+02 0.  0.
         13    1    3    3    0    0 -0.61520398201E+01  0.34746270970E+02  0.49042251698E+02  0.60417750339E+02  0.10566000000E+00 0.  1.
         22    1    1    0    0    0 -0.82092250461E+01 -0.15393093250E+02 -0.25464101116E+02  0.30866796745E+02  0.00000000000E+00 0.  1.
</event>
<event>
 5    1  0.9041381E-005  0.9118800E+02  0.7818608E-02  0.1130116E+00
         25   -1    0    0    0    0  0.00000000000E+00  0.00000000000E+00  0.99999998245E-14  0.12500000000E+03  0.12500000000E+03 0.  0.
        -13    1    3    3    0    0 -0.16559721781E+02  0.29816703164E+02  0.52358828949E+01  0.34506315462E+02  0.10566000000E+00 0.  1.
         23    2    1    0    0    0  0.12198505729E+02 -0.25190021180E+02 -0.16810117234E+01  0.96961339022E+02  0.92818827591E+02 0.  0.
         13    1    3    3    0    0  0.28758227510E+02 -0.55006724344E+02 -0.69168946183E+01  0.62455023559E+02  0.10566000000E+00 0. -1.
         22    1    1    0    0    0 -0.12198505729E+02  0.25190021180E+02  0.16810117234E+01  0.28038660978E+02  0.00000000000E+00 0. -1.
</event>
<event>
 5    1  0.9041381E-005  0.9118800E+02  0.7818608E-02  0.1130116E+00
         25   -1    0    0    0    0  0.00000000000E+00  0.00000000000E+00  0.99999998245E-14  0.12500000000E+03  0.12500000000E+03 0.  0.
        -13    1    3    3    0    0 -0.93592187339E+01  0.33376681049E+02  0.23222264684E+02  0.41723884697E+02  0.10566000000E+00 0.  1.
         23    2    1    0    0    0  0.26855256743E+02  0.65760204858E+01 -0.76174769258E+01  0.96321178287E+02  0.91952675718E+02 0.  0.
         13    1    3    3    0    0  0.36214475477E+02 -0.26800660563E+02 -0.30839741610E+02  0.54597293589E+02  0.10566000000E+00 0. -1.
         22    1    1    0    0    0 -0.26855256743E+02 -0.65760204858E+01  0.76174769258E+01  0.28678821713E+02  0.00000000000E+00 0. -1.
</event>
<event>
 5    1  0.9041381E-005  0.9118800E+02  0.7818608E-02  0.1130116E+00
         25   -1    0    0    0    0  0.00000000000E+00  0.00000000000E+00  0.99999998245E-14  0.12500000000E+03  0.12500000000E+03 0.  0.
        -13    1    3    3    0    0  0.14040086515E+02 -0.13355132183E+02 -0.30877873626E+02  0.36454599554E+02  0.10566000000E+00 0.  1.
         23    2    1    0    0    0 -0.33268250626E+01 -0.18246443328E+02  0.24255891636E+02  0.94465613840E+02  0.89394650063E+02 0.  0.
         13    1    3    3    0    0 -0.17366911577E+02 -0.48913111448E+01  0.55133765262E+02  0.58011014286E+02  0.10566000000E+00 0. -1.
         22    1    1    0    0    0  0.33268250626E+01  0.18246443328E+02 -0.24255891636E+02  0.30534386160E+02  0.00000000000E+00 0. -1.
</event>
<event>
 5    1  0.9041381E-005  0.9118800E+02  0.7818608E-02  0.1130116E+00
         25   -1    0    0    0    0  0.00000000000E+00  0.00000000000E+00  0.99999998245E-14  0.12500000000E+03  0.12500000000E+03 0.  0.
        -13    1    3    3    0    0  0.19004175691E+02  0.16934093097E+02 -0.53630021032E+02  0.59364236057E+02  0.10566000000E+00 0. -1.
         23    2    1    0    0    0  0.12615613164E+02  0.20997383875E+02 -0.21396042636E+02  0.92475632741E+02  0.86567362124E+02 0.  0.
         13    1    3    3    0    0 -0.63885625269E+01  0.40632907780E+01  0.32233978395E+02  0.33111396684E+02  0.10566000000E+00 0.  1.
         22    1    1    0    0    0 -0.12615613164E+02 -0.20997383875E+02  0.21396042636E+02  0.32524367259E+02  0.00000000000E+00 0. -1.
</event>
<event>
 5    1  0.9041381E-005  0.9118800E+02  0.7818608E-02  0.1130116E+00
         25   -1    0    0    0    0  0.00000000000E+00  0.00000000000E+00  0.99999998245E-14  0.12500000000E+03  0.12500000000E+03 0.  0.
        -13    1    3    3    0    0 -0.27009909254E+02 -0.43512482901E+02 -0.11301222156E+02  0.52446164324E+02  0.10566000000E+00 0. -1.
         23    2    1    0    0    0  0.95796448499E+01 -0.20477845672E+02 -0.17874697243E+02  0.96179580844E+02  0.91759986983E+02 0.  0.
         13    1    3    3    0    0  0.36589554103E+02  0.23034637229E+02 -0.65734750869E+01  0.43733416520E+02  0.10566000000E+00 0.  1.
         22    1    1    0    0    0 -0.95796448499E+01  0.20477845672E+02  0.17874697243E+02  0.28820419156E+02  0.00000000000E+00 0. -1.
</event>
<event>
 5    1  0.9041381E-005  0.9118800E+02  0.7818608E-02  0.1130116E+00
         25   -1    0    0    0    0  0.00000000000E+00  0.00000000000E+00  0.99999998245E-14  0.12500000000E+03  0.12500000000E+03 0.  0.
        -13    1    3    3    0    0  0.36685870124E+02  0.33898766481E+00  0.11415206404E+02  0.38422468435E+02  0.10566000000E+00 0. -1.
         23    2    1    0    0    0 -0.86892368019E+01  0.11106452425E+02 -0.24124566437E+02  0.97056291809E+02  0.92946613453E+02 0.  0.
         13    1    3    3    0    0 -0.45375106926E+02  0.10767464760E+02 -0.35539772841E+02  0.58633823374E+02  0.10566000000E+00 0.  1.
         22    1    1    0    0    0  0.86892368019E+01 -0.11106452425E+02  0.24124566437E+02  0.27943708191E+02  0.00000000000E+00 0.  1.
</event>
<event>
 5    1  0.9041381E-005  0.9118800E+02  0.7818608E-02  0.1130116E+00
         25   -1    0    0    0    0  0.00000000000E+00  0.00000000000E+00  0.99999998245E-14  0.12500000000E+03  0.12500000000E+03 0.  0.
        -13    1    3    3    0    0 -0.28349159132E+02  0.14193707730E+02 -0.32766510306E+02  0.45593766287E+02  0.10566000000E+00 0.  1.
         23    2    1    0    0    0 -0.25972834626E+02 -0.20701817313E+02 -0.27707738265E+01  0.91670875106E+02  0.85397416686E+02 0.  0.
         13    1    3    3    0    0  0.23763245054E+01 -0.34895525042E+02  0.29995736479E+02  0.46077108819E+02  0.10566000000E+00 0. -1.
         22    1    1    0    0    0  0.25972834626E+02  0.20701817313E+02  0.27707738265E+01  0.33329124894E+02  0.00000000000E+00 0. -1.
</event>
<event>
 5    1  0.9041381E-005  0.9118800E+02  0.7818608E-02  0.1130116E+00
         25   -1    0    0    0    0  0.00000000000E+00  0.00000000000E+00  0.99999998245E-14  0.12500000000E+03  0.12500000000E+03 0.  0.
        -13    1    3    3    0    0 -0.14611502069E+02 -0.10162253298E+02  0.36346741773E+02  0.40470534792E+02  0.10566000000E+00 0. -1.
         23    2    1    0    0    0  0.27311011189E+02 -0.12533309093E+02  0.17110643052E+01  0.94901778955E+02  0.90002470737E+02 0.  0.
         13    1    3    3    0    0  0.41922513258E+02 -0.23710557954E+01 -0.34635677468E+02  0.54431244163E+02  0.10566000000E+00 0.  1.
         22    1    1    0    0    0 -0.27311011189E+02  0.12533309093E+02 -0.17110643052E+01  0.30098221045E+02  0.00000000000E+00 0.  1.
</event>
<event>
 5    1  0.9041381E-005  0.9118800E+02  0.7818608E-02  0.1130116E+00
         25   -1    0    0    0    0  0.00000000000E+00  0.00000000000E+00  0.99999998245E-14  0.12500000000E+03  0.12500000000E+03 0.  0.
        -13    1    3    3    0    0 -0.47703976149E+02 -0.31081672299E+02 -0.65557271356E+01  0.57312550245E+02  0.10566000000E+00 0.  1.
         23    2    1    0    0    0 -0.12791170410E+02 -0.21837607828E+02 -0.16519348447E+02  0.94777756053E+02  0.89830056290E+02 0.  0.
         13    1    3    3    0    0  0.34912805739E+02  0.92440644712E+01 -0.99636213113E+01  0.37465205807E+02  0.10566000000E+00 0. -1.
         22    1    1    0    0    0  0.12791170410E+02  0.21837607828E+02  0.16519348447E+02  0.30222243947E+02  0.00000000000E+00 0.  1.
</event>
<event>
 5    1  0.9041381E-005  0.9118800E+02  0.7818608E-02  0.1130116E+00
         25   -1    0    0    0    0  0.00000000000E+00  0.00000000000E+00  0.99999998245E-14  0.12500000000E+03  0.12500000000E+03 0.  0.
        -13    1    3    3    0    0  0.10686279243E+02 -0.15904278257E+02 -0.27447433442E+02  0.33474100399E+02  0.10566000000E+00 0. -1.
         23    2    1    0    0    0 -0.10880043960E+02  0.28280430896E+02  0.74859757422E+01  0.93787855552E+02  0.88441867281E+02 0.  0.
         13    1    3    3    0    0 -0.21566323204E+02  0.44184709152E+02  0.34933409184E+02  0.60313755153E+02  0.10566000000E+00 0.  1.
         22    1    1    0    0    0  0.10880043960E+02 -0.28280430896E+02 -0.74859757422E+01  0.31212144448E+02  0.00000000000E+00 0.  1.
</event>
<event>
 5    1  0.9041381E-005  0.9118800E+02  0.7818608E-02  0.1130116E+00
         25   -1    0    0    0    0  0.00000000000E+00  0.00000000000E+00  0.99999998245E-14  0.12500000000E+03  0.12500000000E+03 0.  0.
        -13    1    3    3    0    0  0.62690821042E+01 -0.34888033962E+02  0.48396139455E+02  0.59988947169E+02  0.10566000000E+00 0.  1.
         23    2    1    0    0    0 -0.95820559349E+01 -0.16664242595E+02  0.20210641662E+02  0.97107656721E+02  0.93015666316E+02 0.  0.
         13    1    3    3    0    0 -0.15851138039E+02  0.18223791368E+02 -0.28185497793E+02  0.37118709552E+02  0.10566000000E+00 0. -1.
         22    1    1    0    0    0  0.95820559349E+01  0.16664242595E+02 -0.20210641662E+02  0.27892343279E+02  0.00000000000E+00 0.  1.
</event>
<event>
 5    1  0.9041381E-005  0.9118800E+02  0.7818608E-02  0.1130116E+00
         25   -1    0    0    0    0  0.00000000000E+00  0.00000000000E+00  0.99999998245E-14  0.12500000000E+03  0.12500000000E+03 0.  0.
        -13    1    3    3    0    0 -0.49231899932E+02  0.87431991610E+01  0.31447681595E+02  0.59069377381E+02  0.10566000000E+00 0.  1.
         23    2    1    0    0    0 -0.27869790049E+02  0.66087019803E+00  0.10356349823E+01  0.97103145579E+02  0.93009603776E+02 0.  0.
         13    1    3    3    0    0  0.21362109883E+02 -0.80823289629E+01 -0.30412046613E+02  0.38033768198E+02  0.10566000000E+00 0. -1.
         22    1    1    0    0    0  0.27869790049E+02 -0.66087019803E+00 -0.10356349823E+01  0.27896854421E+02  0.00000000000E+00 0.  1.
</event>
<event>
 5    1  0.9041381E-005  0.9118800E+02  0.7818608E-02  0.1130116E+00
         25   -1    0    0    0    0  0.00000000000E+00  0.00000000000E+00  0.99999998245E-14  0.12500000000E+03  0.12500000000E+03 0.  0.
        -13    1    3    3    0    0 -0.16727642131E+02  0.89373506352E+01 -0.17281775360E+02  0.25658549672E+02  0.10566000000E+00 0. -1.
         23    2    1    0    0    0  0.15568672904E+01  0.87576622469E+01  0.39084211554E+02  0.84916386433E+02  0.74860514346E+02 0.  0.
         13    1    3    3    0    0  0.18284509421E+02 -0.17968838823E+00  0.56365986914E+02  0.59257836761E+02  0.10566000000E+00 0.  1.
         22    1    1    0    0    0 -0.15568672904E+01 -0.87576622469E+01 -0.39084211554E+02  0.40083613567E+02  0.00000000000E+00 0.  1.
</event>
<event>
 5    1  0.9041381E-005  0.9118800E+02  0.7818608E-02  0.1130116E+00
         25   -1    0    0    0    0  0.00000000000E+00  0.00000000000E+00  0.99999998245E-14  0.12500000000E+03  0.12500000000E+03 0.  0.
        -13    1    3    3    0    0  0.45310446839E+01 -0.20052058533E+02  0.55921479341E+02  0.59580520584E+02  0.10566000000E+00 0. -1.
         23    2    1    0    0    0  0.42326498605E+01  0.51163908991E+01  0.23231896958E+02  0.10083776051E+03  0.97900153874E+02 0.  0.
         13    1    3    3    0    0 -0.29839482342E+00  0.25168449432E+02 -0.32689582383E+02  0.41257239931E+02  0.10566000000E+00 0.  1.
         22    1    1    0    0    0 -0.42326498605E+01 -0.51163908991E+01 -0.23231896958E+02  0.24162239485E+02  0.00000000000E+00 0. -1.
</event>
<event>
 5    1  0.9041381E-005  0.9118800E+02  0.7818608E-02  0.1130116E+00
         25   -1    0    0    0    0  0.00000000000E+00  0.00000000000E+00  0.99999998245E-14  0.12500000000E+03  0.12500000000E+03 0.  0.
        -13    1    3    3    0    0 -0.35077642174E+02 -0.35933992979E+02  0.21134766305E+01  0.50261026446E+02  0.10566000000E+00 0. -1.
         23    2    1    0    0    0  0.73712680534E+01 -0.30796908267E+02 -0.23162429335E+01  0.93248619985E+02  0.87676422123E+02 0.  0.
         13    1    3    3    0    0  0.42448910228E+02  0.51370847119E+01 -0.44297195640E+01  0.42987593539E+02  0.10566000000E+00 0.  1.
         22    1    1    0    0    0 -0.73712680534E+01  0.30796908267E+02  0.23162429335E+01  0.31751380015E+02  0.00000000000E+00 0. -1.
</event>
<event>
 5    1  0.9041381E-005  0.9118800E+02  0.7818608E-02  0.1130116E+00
         25   -1    0    0    0    0  0.00000000000E+00  0.00000000000E+00  0.99999998245E-14  0.12500000000E+03  0.12500000000E+03 0.  0.
        -13    1    3    3    0    0 -0.10807734819E+02 -0.26928924500E+01 -0.59909231294E+02  0.60935916831E+02  0.10566000000E+00 0.  1.
         23    2    1    0    0    0 -0.11432944829E+02 -0.81212763698E+01 -0.24451631706E+02  0.96812242898E+02  0.92617820772E+02 0.  0.
         13    1    3    3    0    0 -0.62521000977E+00 -0.54283839198E+01  0.35457599588E+02  0.35876326068E+02  0.10566000000E+00 0. -1.
         22    1    1    0    0    0  0.11432944829E+02  0.81212763698E+01  0.24451631706E+02  0.28187757102E+02  0.00000000000E+00 0.  1.
</event>
<event>
 5    1  0.9041381E-005  0.9118800E+02  0.7818608E-02  0.1130116E+00
         25   -1    0    0    0    0  0.00000000000E+00  0.00000000000E+00  0.99999998245E-14  0.12500000000E+03  0.12500000000E+03 0.  0.
        -13    1    3    3    0    0 -0.16588507853E+02 -0.51352881315E+02 -0.31408443056E+02  0.62440359315E+02  0.10566000000E+00 0. -1.
         23    2    1    0    0    0 -0.80497995999E+01 -0.22636355949E+02 -0.16050044927E+02  0.96106958859E+02  0.91661004329E+02 0.  0.
         13    1    3    3    0    0  0.85387082530E+01  0.28716525366E+02  0.15358398129E+02  0.33666599544E+02  0.10566000000E+00 0.  1.
         22    1    1    0    0    0  0.80497995999E+01  0.22636355949E+02  0.16050044927E+02  0.28893041141E+02  0.00000000000E+00 0. -1.
</event>
<event>
 5    1  0.9041381E-005  0.9118800E+02  0.7818608E-02  0.1130116E+00
         25   -1    0    0    0    0  0.00000000000E+00  0.00000000000E+00  0.99999998245E-14  0.12500000000E+03  0.12500000000E+03 0.  0.
        -13    1    3    3    0    0  0.38547373113E+02  0.30180219102E+02  0.37880455667E+02  0.61900611342E+02  0.10566000000E+00 0.  1.
         23    2    1    0    0    0  0.20120701741E+02  0.18895177933E+02  0.14194170686E+02  0.93962202573E+02  0.88687939672E+02 0.  0.
         13    1    3    3    0    0 -0.18426671372E+02 -0.11285041169E+02 -0.23686284981E+02  0.32061591231E+02  0.10566000000E+00 0. -1.
         22    1    1    0    0    0 -0.20120701741E+02 -0.18895177933E+02 -0.14194170686E+02  0.31037797427E+02  0.00000000000E+00 0.  1.
</event>
<event>
 5    1  0.9041381E-005  0.9118800E+02  0.7818608E-02  0.1130116E+00
         25   -1    0    0    0    0  0.00000000000E+00  0.00000000000E+00  0.99999998245E-14  0.12500000000E+03  0.12500000000E+03 0.  0.
        -13    1    3    3    0    0  0.19523776247E+02 -0.29654343972E+02  0.40794926804E+02  0.54081375466E+02  0.10566000000E+00 0.  1.
         23    2    1    0    0    0  0.27518984831E+02 -0.86662525850E+01  0.59435478828E+01  0.95542840914E+02  0.90888449368E+02 0.  0.
         13    1    3    3    0    0  0.79952085837E+01  0.20988091387E+02 -0.34851378921E+02  0.41461465448E+02  0.10566000000E+00 0. -1.
         22    1    1    0    0    0 -0.27518984831E+02  0.86662525850E+01 -0.59435478828E+01  0.29457159086E+02  0.00000000000E+00 0.  1.
</event>
<event>
 5    1  0.9041381E-005  0.9118800E+02  0.7818608E-02  0.1130116E+00
         25   -1    0    0    0    0  0.00000000000E+00  0.00000000000E+00  0.99999998245E-14  0.12500000000E+03  0.12500000000E+03 0.  0.
        -13    1    3    3    0    0 -0.20833767075E+02 -0.28793594683E+02 -0.46374382822E+02  0.58426975717E+02  0.10566000000E+00 0. -1.
         23    2    1    0    0    0  0.26326397967E+01 -0.67150730238E+01 -0.29167427804E+02  0.94954004547E+02  0.90074975086E+02 0.  0.
         13    1    3    3    0    0  0.23466406871E+02  0.22078521660E+02  0.17206955018E+02  0.36527028830E+02  0.10566000000E+00 0.  1.
         22    1    1    0    0    0 -0.26326397967E+01  0.67150730238E+01  0.29167427804E+02  0.30045995453E+02  0.00000000000E+00 0. -1.
</event>
<event>
 5    1  0.9041381E-005  0.9118800E+02  0.7818608E-02  0.1130116E+00
         25   -1    0    0    0    0  0.00000000000E+00  0.00000000000E+00  0.99999998245E-14  0.12500000000E+03  0.12500000000E+03 0.  0.
        -13    1    3    3    0    0 -0.37200643755E+01  0.13805588853E+02  0.59894725388E+02  0.61577775665E+02  0.10566000000E+00 0.  1.
         23    2    1    0    0    0  0.21731504673E+01  0.61320437741E+00  0.31326713930E+02  0.93592013623E+02  0.88164638069E+02 0.  0.
         13    1    3    3    0    0  0.58932148427E+01 -0.13192384476E+02 -0.28568011458E+02  0.32014237958E+02  0.10566000000E+00 0. -1.
         22    1    1    0    0    0 -0.21731504673E+01 -0.61320437741E+00 -0.31326713930E+02  0.31407986377E+02  0.00000000000E+00 0.  1.
</event>
<event>
 5    1  0.9041381E-005  0.9118800E+02  0.7818608E-02  0.1130116E+00
         25   -1    0    0    0    0  0.00000000000E+00  0.00000000000E+00  0.99999998245E-14  0.12500000000E+03  0.12500000000E+03 0.  0.
        -13    1    3    3    0    0 -0.43702337194E+01 -0.50317558713E+02 -0.17414865053E+02  0.53425128418E+02  0.10566000000E+00 0.  1.
         23    2    1    0    0    0  0.28849727798E+01 -0.25652311476E+02  0.15268028430E+02  0.95008720532E+02  0.90150874278E+02 0.  0.
         13    1    3    3    0    0  0.72552064992E+01  0.24665247238E+02  0.32682893483E+02  0.41583592114E+02  0.10566000000E+00 0. -1.
         22    1    1    0    0    0 -0.28849727798E+01  0.25652311476E+02 -0.15268028430E+02  0.29991279468E+02  0.00000000000E+00 0.  1.
</event>
<event>
 5    1  0.9041381E-005  0.9118800E+02  0.7818608E-02  0.1130116E+00
         25   -1    0    0    0    0  0.00000000000E+00  0.00000000000E+00  0.99999998245E-14  0.12500000000E+03  0.12500000000E+03 0.  0.
        -13    1    3    3    0    0  0.49729240634E+02  0.26387279508E+02  0.29707189948E+01  0.56374836844E+02  0.10566000000E+00 0.  1.
         23    2    1    0    0    0  0.94417408881E+01  0.25597354479E+02  0.68897683019E+01  0.96860349423E+02  0.92682724150E+02 0.  0.
         13    1    3    3    0    0 -0.40287499745E+02 -0.78992502878E+00  0.39190493071E+01  0.40485512579E+02  0.10566000000E+00 0. -1.
         22    1    1    0    0    0 -0.94417408881E+01 -0.25597354479E+02 -0.68897683019E+01  0.28139650577E+02  0.00000000000E+00 0. -1.
</event>
<event>
 5    1  0.9041381E-005  0.9118800E+02  0.7818608E-02  0.1130116E+00
         25   -1    0    0    0    0  0.00000000000E+00  0.00000000000E+00  0.99999998245E-14  0.12500000000E+03  0.12500000000E+03 0.  0.
        -13    1    3    3    0    0  0.25453783554E+02  0.89476989233E+01  0.28596898207E+02  0.39316029356E+02  0.10566000000E+00 0. -1.
         23    2    1    0    0    0  0.48080394279E+00  0.63584710697E+01 -0.25371879194E+02  0.98839082955E+02  0.95314063699E+02 0.  0.
         13    1    3    3    0    0 -0.24972979611E+02 -0.25892278535E+01 -0.53968777402E+02  0.59523053599E+02  0.10566000000E+00 0.  1.
         22    1    1    0    0    0 -0.48080394279E+00 -0.63584710697E+01  0.25371879194E+02  0.26160917045E+02  0.00000000000E+00 0.  1.
</event>
<event>
 5    1  0.9041381E-005  0.9118800E+02  0.7818608E-02  0.1130116E+00
         25   -1    0    0    0    0  0.00000000000E+00  0.00000000000E+00  0.99999998245E-14  0.12500000000E+03  0.12500000000E+03 0.  0.
        -13    1    3    3    0    0  0.23787144068E+02  0.19297968119E+01  0.46142771522E+02  0.51949195051E+02  0.10566000000E+00 0.  1.
         23    2    1    0    0    0 -0.78605149128E+01  0.15870952646E+02  0.30110179855E+02  0.90067239395E+02  0.83016925074E+02 0.  0.
         13    1    3    3    0    0 -0.31647658981E+02  0.13941155834E+02 -0.16032591668E+02  0.38118044344E+02  0.10566000000E+00 0. -1.
         22    1    1    0    0    0  0.78605149128E+01 -0.15870952646E+02 -0.30110179855E+02  0.34932760605E+02  0.00000000000E+00 0. -1.
</event>
<event>
 5    1  0.9041381E-005  0.9118800E+02  0.7818608E-02  0.1130116E+00
         25   -1    0    0    0    0  0.00000000000E+00  0.00000000000E+00  0.99999998245E-14  0.12500000000E+03  0.12500000000E+03 0.  0.
        -13    1    3    3    0    0  0.51643609164E+01 -0.54499074080E+01  0.39678734277E+02  0.40382981964E+02  0.10566000000E+00 0.  1.
         23    2    1    0    0    0 -0.32420783901E+02 -0.22193859452E+00  0.42446254170E+01  0.92301783987E+02  0.86315966060E+02 0.  0.
         13    1    3    3    0    0 -0.37585144817E+02  0.52279688134E+01 -0.35434108860E+02  0.51918802024E+02  0.10566000000E+00 0. -1.
         22    1    1    0    0    0  0.32420783901E+02  0.22193859452E+00 -0.42446254170E+01  0.32698216013E+02  0.00000000000E+00 0. -1.
</event>
<event>
 5    1  0.9041381E-005  0.9118800E+02  0.7818608E-02  0.1130116E+00
         25   -1    0    0    0    0  0.00000000000E+00  0.00000000000E+00  0.99999998245E-14  0.12500000000E+03  0.12500000000E+03 0.  0.
        -13    1    3    3    0    0 -0.33405157164E+02 -0.16604907385E+02 -0.21192468606E+01  0.37364820965E+02  0.10566000000E+00 0. -1.
         23    2    1    0    0    0  0.20766185313E+02  0.65367283369E+00 -0.19180301899E+02  0.96723760477E+02  0.92498324953E+02 0.  0.
         13    1    3    3    0    0  0.54171342477E+02  0.17258580219E+02 -0.17061055039E+02  0.59358939512E+02  0.10566000000E+00 0.  1.
         22    1    1    0    0    0 -0.20766185313E+02 -0.65367283369E+00  0.19180301899E+02  0.28276239523E+02  0.00000000000E+00 0.  1.
</event>
<event>
 5    1  0.9041381E-005  0.9118800E+02  0.7818608E-02  0.1130116E+00
         25   -1    0    0    0    0  0.00000000000E+00  0.00000000000E+00  0.99999998245E-14  0.12500000000E+03  0.12500000000E+03 0.  0.
        -13    1    3    3    0    0  0.92841890205E+01  0.34882639419E+02  0.68970608889E+01  0.36750174306E+02  0.10566000000E+00 0. -1.
         23    2    1    0    0    0  0.18064046684E+02 -0.21612819589E+02 -0.77796686942E+01  0.95777628465E+02  0.91210783990E+02 0.  0.
         13    1    3    3    0    0  0.87798576631E+01 -0.56495459008E+02 -0.14676729583E+02  0.59027454158E+02  0.10566000000E+00 0.  1.
         22    1    1    0    0    0 -0.18064046684E+02  0.21612819589E+02  0.77796686942E+01  0.29222371535E+02  0.00000000000E+00 0.  1.
</event>
<event>
 5    1  0.9041381E-005  0.9118800E+02  0.7818608E-02  0.1130116E+00
         25   -1    0    0    0    0  0.00000000000E+00  0.00000000000E+00  0.99999998245E-14  0.12500000000E+03  0.12500000000E+03 0.  0.
        -13    1    3    3    0    0 -0.41793541740E+02  0.34501376283E+02  0.17539791153E+02  0.56962272903E+02  0.10566000000E+00 0. -1.
         23    2    1    0    0    0 -0.98452739096E+01  0.22379066754E+02 -0.76138556576E+01  0.99392914162E+02  0.96037641269E+02 0.  0.
         13    1    3    3    0    0  0.31948267830E+02 -0.12122309529E+02 -0.25153646811E+02  0.42430641258E+02  0.10566000000E+00 0.  1.
         22    1    1    0    0    0  0.98452739096E+01 -0.22379066754E+02  0.76138556576E+01  0.25607085838E+02  0.00000000000E+00 0. -1.
</event>
<event>
 5    1  0.9041381E-005  0.9118800E+02  0.7818608E-02  0.1130116E+00
         25   -1    0    0    0    0  0.00000000000E+00  0.00000000000E+00  0.99999998245E-14  0.12500000000E+03  0.12500000000E+03 0.  0.
        -13    1    3    3    0    0 -0.29978400742E+02 -0.27474412181E+02 -0.25430153799E+02  0.47960939545E+02  0.10566000000E+00 0. -1.
         23    2    1    0    0    0 -0.78655495771E+01  0.15115107344E+02 -0.23480347559E+02  0.95988621859E+02  0.91499483412E+02 0.  0.
         13    1    3    3    0    0  0.22112851165E+02  0.42589519525E+02  0.19498062398E+01  0.48027682314E+02  0.10566000000E+00 0.  1.
         22    1    1    0    0    0  0.78655495771E+01 -0.15115107344E+02  0.23480347559E+02  0.29011378141E+02  0.00000000000E+00 0.  1.
</event>
<event>
 5    1  0.9041381E-005  0.9118800E+02  0.7818608E-02  0.1130116E+00
         25   -1    0    0    0    0  0.00000000000E+00  0.00000000000E+00  0.99999998245E-14  0.12500000000E+03  0.12500000000E+03 0.  0.
        -13    1    3    3    0    0 -0.19684546167E+02  0.27744735313E+02  0.21860979498E+01  0.34088735437E+02  0.10566000000E+00 0. -1.
         23    2    1    0    0    0  0.27225338589E+02 -0.11602694394E+02  0.23013733769E+01  0.95316032983E+02  0.90575980512E+02 0.  0.
         13    1    3    3    0    0  0.46909884756E+02 -0.39347429706E+02  0.11527542709E+00  0.61227297546E+02  0.10566000000E+00 0.  1.
         22    1    1    0    0    0 -0.27225338589E+02  0.11602694394E+02 -0.23013733769E+01  0.29683967017E+02  0.00000000000E+00 0.  1.
</event>
<event>
 5    1  0.9041381E-005  0.9118800E+02  0.7818608E-02  0.1130116E+00
         25   -1    0    0    0    0  0.00000000000E+00  0.00000000000E+00  0.99999998245E-14  0.12500000000E+03  0.12500000000E+03 0.  0.
        -13    1    3    3    0    0 -0.36416291155E+02 -0.25648563445E+02  0.11928729285E+02  0.46111829444E+02  0.10566000000E+00 0.  1.
         23    2    1    0    0    0 -0.51809367381E+01  0.76552470434E+01  0.28772421690E+02  0.94779193216E+02  0.89832056104E+02 0.  0.
         13    1    3    3    0    0  0.31235354417E+02  0.33303810488E+02  0.16843692405E+02  0.48667363772E+02  0.10566000000E+00 0. -1.
         22    1    1    0    0    0  0.51809367381E+01 -0.76552470434E+01 -0.28772421690E+02  0.30220806784E+02  0.00000000000E+00 0. -1.
</event>
<event>
 5    1  0.9041381E-005  0.9118800E+02  0.7818608E-02  0.1130116E+00
         25   -1    0    0    0    0  0.00000000000E+00  0.00000000000E+00  0.99999998245E-14  0.12500000000E+03  0.12500000000E+03 0.  0.
        -13    1    3    3    0    0  0.22321425476E+02 -0.85570869757E+01  0.36597913717E+02  0.43713707521E+02  0.10566000000E+00 0. -1.
         23    2    1    0    0    0 -0.23786748101E+02 -0.11160771284E+02  0.10998850631E+02  0.96515847984E+02  0.92216929010E+02 0.  0.
         13    1    3    3    0    0 -0.46108173577E+02 -0.26036843082E+01 -0.25599063086E+02  0.52802140463E+02  0.10566000000E+00 0.  1.
         22    1    1    0    0    0  0.23786748101E+02  0.11160771284E+02 -0.10998850631E+02  0.28484152016E+02  0.00000000000E+00 0.  1.
</event>
<event>
 5    1  0.9041381E-005  0.9118800E+02  0.7818608E-02  0.1130116E+00
         25   -1    0    0    0    0  0.00000000000E+00  0.00000000000E+00  0.99999998245E-14  0.12500000000E+03  0.12500000000E+03 0.  0.
        -13    1    3    3    0    0  0.36737102535E+01 -0.14126287634E+02  0.58075863555E+02  0.59882094494E+02  0.10566000000E+00 0.  1.
         23    2    1    0    0    0  0.89178093614E+01  0.39726668017E+01  0.27719858095E+02  0.95611227686E+02  0.90982453921E+02 0.  0.
         13    1    3    3    0    0  0.52440991080E+01  0.18098954436E+02 -0.30356005460E+02  0.35729133192E+02  0.10566000000E+00 0. -1.
         22    1    1    0    0    0 -0.89178093614E+01 -0.39726668017E+01 -0.27719858095E+02  0.29388772314E+02  0.00000000000E+00 0.  1.
</event>
<event>
 5    1  0.9041381E-005  0.9118800E+02  0.7818608E-02  0.1130116E+00
         25   -1    0    0    0    0  0.00000000000E+00  0.00000000000E+00  0.99999998245E-14  0.12500000000E+03  0.12500000000E+03 0.  0.
        -13    1    3    3    0    0  0.22334783558E+02 -0.17950974963E+02 -0.17292666171E+01  0.28706821241E+02  0.10566000000E+00 0.  1.
         23    2    1    0    0    0 -0.22909190964E+02  0.22240095819E+02 -0.13458840526E+02  0.90350421633E+02  0.83442227969E+02 0.  0.
         13    1    3    3    0    0 -0.45243974522E+02  0.40191070782E+02 -0.11729573909E+02  0.61643600392E+02  0.10566000000E+00 0. -1.
         22    1    1    0    0    0  0.22909190964E+02 -0.22240095819E+02  0.13458840526E+02  0.34649578367E+02  0.00000000000E+00 0. -1.
</event>
<event>
 5    1  0.9041381E-005  0.9118800E+02  0.7818608E-02  0.1130116E+00
         25   -1    0    0    0    0  0.00000000000E+00  0.00000000000E+00  0.99999998245E-14  0.12500000000E+03  0.12500000000E+03 0.  0.
        -13    1    3    3    0    0  0.61708969201E+01  0.55790014910E+02 -0.19550359921E+02  0.59437643540E+02  0.10566000000E+00 0.  1.
         23    2    1    0    0    0  0.48433335775E+01  0.28585672060E+02  0.43603467545E+01  0.95680873971E+02  0.91078090081E+02 0.  0.
         13    1    3    3    0    0 -0.13275633426E+01 -0.27204342850E+02  0.23910706676E+02  0.36243230432E+02  0.10566000000E+00 0. -1.
         22    1    1    0    0    0 -0.48433335775E+01 -0.28585672060E+02 -0.43603467545E+01  0.29319126029E+02  0.00000000000E+00 0.  1.
</event>
<event>
 5    1  0.9041381E-005  0.9118800E+02  0.7818608E-02  0.1130116E+00
         25   -1    0    0    0    0  0.00000000000E+00  0.00000000000E+00  0.99999998245E-14  0.12500000000E+03  0.12500000000E+03 0.  0.
        -13    1    3    3    0    0  0.37857460743E+02 -0.13499092330E+02 -0.10023238039E+02  0.41423294080E+02  0.10566000000E+00 0.  1.
         23    2    1    0    0    0  0.45216475469E+01  0.28755510828E+02 -0.48081660942E+01  0.95496726271E+02  0.90825005190E+02 0.  0.
         13    1    3    3    0    0 -0.33335813196E+02  0.42254603158E+02  0.52150719450E+01  0.54073432191E+02  0.10566000000E+00 0. -1.
         22    1    1    0    0    0 -0.45216475469E+01 -0.28755510828E+02  0.48081660942E+01  0.29503273729E+02  0.00000000000E+00 0. -1.
</event>
<event>
 5    1  0.9041381E-005  0.9118800E+02  0.7818608E-02  0.1130116E+00
         25   -1    0    0    0    0  0.00000000000E+00  0.00000000000E+00  0.99999998245E-14  0.12500000000E+03  0.12500000000E+03 0.  0.
        -13    1    3    3    0    0  0.66703800179E+01 -0.32308829890E+02  0.22124962374E+02  0.39722532429E+02  0.10566000000E+00 0. -1.
         23    2    1    0    0    0 -0.29611888459E+02  0.25661362877E+01 -0.13337957341E+01  0.95247218540E+02  0.90480962832E+02 0.  0.
         13    1    3    3    0    0 -0.36282268477E+02  0.34874966178E+02 -0.23458758108E+02  0.55524686111E+02  0.10566000000E+00 0.  1.
         22    1    1    0    0    0  0.29611888459E+02 -0.25661362877E+01  0.13337957341E+01  0.29752781460E+02  0.00000000000E+00 0.  1.
</event>
<event>
 5    1  0.9041381E-005  0.9118800E+02  0.7818608E-02  0.1130116E+00
         25   -1    0    0    0    0  0.00000000000E+00  0.00000000000E+00  0.99999998245E-14  0.12500000000E+03  0.12500000000E+03 0.  0.
        -13    1    3    3    0    0  0.10922048770E+02 -0.27120421191E+02 -0.29732927151E+02  0.41699718415E+02  0.10566000000E+00 0. -1.
         23    2    1    0    0    0 -0.17762554080E+02 -0.21880191745E+02  0.13423598228E+02  0.93783912679E+02  0.88436294415E+02 0.  0.
         13    1    3    3    0    0 -0.28684602850E+02  0.52402294466E+01  0.43156525379E+02  0.52084194264E+02  0.10566000000E+00 0.  1.
         22    1    1    0    0    0  0.17762554080E+02  0.21880191745E+02 -0.13423598228E+02  0.31216087321E+02  0.00000000000E+00 0.  1.
</event>
<event>
 5    1  0.9041381E-005  0.9118800E+02  0.7818608E-02  0.1130116E+00
         25   -1    0    0    0    0  0.00000000000E+00  0.00000000000E+00  0.99999998245E-14  0.12500000000E+03  0.12500000000E+03 0.  0.
        -13    1    3    3    0    0 -0.13443577387E+02 -0.32028433534E+02  0.54030063529E+01  0.35153292438E+02  0.10566000000E+00 0.  1.
         23    2    1    0    0    0  0.12962475909E+02  0.19530160604E+02  0.19198720087E+02  0.94700762255E+02  0.89722854189E+02 0.  0.
         13    1    3    3    0    0  0.26406053296E+02  0.51558594138E+02  0.13795713734E+02  0.59547469817E+02  0.10566000000E+00 0. -1.
         22    1    1    0    0    0 -0.12962475909E+02 -0.19530160604E+02 -0.19198720087E+02  0.30299237745E+02  0.00000000000E+00 0. -1.
</event>
<event>
 5    1  0.9041381E-005  0.9118800E+02  0.7818608E-02  0.1130116E+00
         25   -1    0    0    0    0  0.00000000000E+00  0.00000000000E+00  0.99999998245E-14  0.12500000000E+03  0.12500000000E+03 0.  0.
        -13    1    3    3    0    0  0.13623512480E+02 -0.36505675089E+02 -0.35477627787E+02  0.52696656852E+02  0.10566000000E+00 0. -1.
         23    2    1    0    0    0  0.43393477405E+00  0.31438267344E+01 -0.29991410799E+02  0.94841142799E+02  0.89918216730E+02 0.  0.
         13    1    3    3    0    0 -0.13189577706E+02  0.39649501823E+02  0.54862169880E+01  0.42144485947E+02  0.10566000000E+00 0.  1.
         22    1    1    0    0    0 -0.43393477405E+00 -0.31438267344E+01  0.29991410799E+02  0.30158857201E+02  0.00000000000E+00 0. -1.
</event>
<event>
 5    1  0.9041381E-005  0.9118800E+02  0.7818608E-02  0.1130116E+00
         25   -1    0    0    0    0  0.00000000000E+00  0.00000000000E+00  0.99999998245E-14  0.12500000000E+03  0.12500000000E+03 0.  0.
        -13    1    3    3    0    0 -0.29056052234E+02  0.57514449862E+01  0.45326256672E+02  0.54146227927E+02  0.10566000000E+00 0. -1.
         23    2    1    0    0    0 -0.16862447536E+02 -0.19338954503E+02  0.15323203322E+02  0.95114587869E+02  0.90297546851E+02 0.  0.
         13    1    3    3    0    0  0.12193604698E+02 -0.25090399489E+02 -0.30003053349E+02  0.40968359942E+02  0.10566000000E+00 0.  1.
         22    1    1    0    0    0  0.16862447536E+02  0.19338954503E+02 -0.15323203322E+02  0.29885412131E+02  0.00000000000E+00 0. -1.
</event>
<event>
 5    1  0.9041381E-005  0.9118800E+02  0.7818608E-02  0.1130116E+00
         25   -1    0    0    0    0  0.00000000000E+00  0.00000000000E+00  0.99999998245E-14  0.12500000000E+03  0.12500000000E+03 0.  0.
        -13    1    3    3    0    0 -0.52439898102E+02 -0.88932778711E+01 -0.19585094616E+01  0.53224808385E+02  0.10566000000E+00 0. -1.
         23    2    1    0    0    0 -0.15023941890E+02 -0.25880225972E+02  0.42220588927E+01  0.94778638224E+02  0.89831283838E+02 0.  0.
         13    1    3    3    0    0  0.37415956212E+02 -0.16986948101E+02  0.61805683544E+01  0.41553829839E+02  0.10566000000E+00 0.  1.
         22    1    1    0    0    0  0.15023941890E+02  0.25880225972E+02 -0.42220588927E+01  0.30221361776E+02  0.00000000000E+00 0. -1.
</event>
<event>
 4    1  0.9041381E-005  0.9118800E+02  0.7818608E-02  0.1130116E+00
         25   -1    0    0    0    0  0.00000000000E+00  0.00000000000E+00  0.99999998245E-14  0.12500000000E+03  0.12500000000E+03 0.  0.
        -13    1    1    0    0    0  0.13047976631E+02 -0.26302625693E+00 -0.63626520690E+01  0.14519413981E+02  0.10566000000E+00 0.  1.
         13    1    1    0    0    0 -0.40036833315E+02 -0.30165521309E+02 -0.27837546886E+02  0.57339749550E+02  0.10566000000E+00 0. -1.
         22    1    1    0    0    0  0.26988856684E+02  0.30428547566E+02  0.34200198955E+02  0.53140836469E+02  0.00000000000E+00 0. -1.
</event>
<event>
 5    1  0.9041381E-005  0.9118800E+02  0.7818608E-02  0.1130116E+00
         25   -1    0    0    0    0  0.00000000000E+00  0.00000000000E+00  0.99999998245E-14  0.12500000000E+03  0.12500000000E+03 0.  0.
        -13    1    3    3    0    0  0.10954547963E+02  0.33527651747E+01 -0.38067685819E+02  0.39754283078E+02  0.10566000000E+00 0. -1.
         23    2    1    0    0    0 -0.17950517017E+02 -0.24436036627E+02 -0.53756880222E+00  0.94674599303E+02  0.89686397106E+02 0.  0.
         13    1    3    3    0    0 -0.28905064980E+02 -0.27788801801E+02  0.37530117016E+02  0.54920316226E+02  0.10566000000E+00 0.  1.
         22    1    1    0    0    0  0.17950517017E+02  0.24436036627E+02  0.53756880222E+00  0.30325400697E+02  0.00000000000E+00 0.  1.
</event>
<event>
 5    1  0.9041381E-005  0.9118800E+02  0.7818608E-02  0.1130116E+00
         25   -1    0    0    0    0  0.00000000000E+00  0.00000000000E+00  0.99999998245E-14  0.12500000000E+03  0.12500000000E+03 0.  0.
        -13    1    3    3    0    0  0.82509190815E+01 -0.37034590955E+02 -0.39509634716E+01  0.38147868477E+02  0.10566000000E+00 0. -1.
         23    2    1    0    0    0  0.25922586372E+02 -0.96123785123E+01  0.29289640010E+02  0.84722694767E+02  0.74536391728E+02 0.  0.
         13    1    3    3    0    0  0.17671667291E+02  0.27422212443E+02  0.33240603482E+02  0.46574826290E+02  0.10566000000E+00 0.  1.
         22    1    1    0    0    0 -0.25922586372E+02  0.96123785123E+01 -0.29289640010E+02  0.40277305233E+02  0.00000000000E+00 0.  1.
</event>
<event>
 5    1  0.9041381E-005  0.9118800E+02  0.7818608E-02  0.1130116E+00
         25   -1    0    0    0    0  0.00000000000E+00  0.00000000000E+00  0.99999998245E-14  0.12500000000E+03  0.12500000000E+03 0.  0.
        -13    1    3    3    0    0 -0.10723009146E+02  0.27071445157E+02  0.34662460732E+02  0.45269674353E+02  0.10566000000E+00 0.  1.
         23    2    1    0    0    0 -0.24644863202E+02 -0.13241944143E+02  0.68178787292E+01  0.96204135066E+02  0.91793429866E+02 0.  0.
         13    1    3    3    0    0 -0.13921854056E+02 -0.40313389299E+02 -0.27844582003E+02  0.50934460713E+02  0.10566000000E+00 0. -1.
         22    1    1    0    0    0  0.24644863202E+02  0.13241944143E+02 -0.68178787292E+01  0.28795864934E+02  0.00000000000E+00 0.  1.
</event>
<event>
 5    1  0.9041381E-005  0.9118800E+02  0.7818608E-02  0.1130116E+00
         25   -1    0    0    0    0  0.00000000000E+00  0.00000000000E+00  0.99999998245E-14  0.12500000000E+03  0.12500000000E+03 0.  0.
        -13    1    3    3    0    0  0.20095556486E+02  0.21441531434E+02  0.48828617576E+02  0.56989610625E+02  0.10566000000E+00 0. -1.
         23    2    1    0    0    0  0.43403420472E+01  0.25900712645E+02  0.14553578366E+02  0.94975141502E+02  0.90104302757E+02 0.  0.
         13    1    3    3    0    0 -0.15755214439E+02  0.44591812111E+01 -0.34275039210E+02  0.37985530877E+02  0.10566000000E+00 0.  1.
         22    1    1    0    0    0 -0.43403420472E+01 -0.25900712645E+02 -0.14553578366E+02  0.30024858498E+02  0.00000000000E+00 0. -1.
</event>
<event>
 5    1  0.9041381E-005  0.9118800E+02  0.7818608E-02  0.1130116E+00
         25   -1    0    0    0    0  0.00000000000E+00  0.00000000000E+00  0.99999998245E-14  0.12500000000E+03  0.12500000000E+03 0.  0.
        -13    1    3    3    0    0  0.11125462352E+02  0.62689915425E+01 -0.52347097350E+02  0.53882334141E+02  0.10566000000E+00 0. -1.
         23    2    1    0    0    0  0.19492560603E+02 -0.12818466655E+02 -0.13294063411E+02  0.98148461343E+02  0.94404000635E+02 0.  0.
         13    1    3    3    0    0  0.83670982515E+01 -0.19087458198E+02  0.39053033939E+02  0.44266127202E+02  0.10566000000E+00 0.  1.
         22    1    1    0    0    0 -0.19492560603E+02  0.12818466655E+02  0.13294063411E+02  0.26851538657E+02  0.00000000000E+00 0. -1.
</event>
<event>
 5    1  0.9041381E-005  0.9118800E+02  0.7818608E-02  0.1130116E+00
         25   -1    0    0    0    0  0.00000000000E+00  0.00000000000E+00  0.99999998245E-14  0.12500000000E+03  0.12500000000E+03 0.  0.
        -13    1    3    3    0    0  0.30936706465E+02 -0.22759936983E+02  0.21890357007E+02  0.44207391150E+02  0.10566000000E+00 0.  1.
         23    2    1    0    0    0 -0.10472461323E+02 -0.32917192156E+02  0.14757479512E+02  0.87436757499E+02  0.78956883011E+02 0.  0.
         13    1    3    3    0    0 -0.41409167788E+02 -0.10157255173E+02 -0.71328774951E+01  0.43229366349E+02  0.10566000000E+00 0. -1.
         22    1    1    0    0    0  0.10472461323E+02  0.32917192156E+02 -0.14757479512E+02  0.37563242501E+02  0.00000000000E+00 0.  1.
</event>
<event>
 5    1  0.9041381E-005  0.9118800E+02  0.7818608E-02  0.1130116E+00
         25   -1    0    0    0    0  0.00000000000E+00  0.00000000000E+00  0.99999998245E-14  0.12500000000E+03  0.12500000000E+03 0.  0.
        -13    1    3    3    0    0 -0.21017756070E+02 -0.29947998091E+02 -0.17948518098E+02  0.40752780590E+02  0.10566000000E+00 0.  1.
         23    2    1    0    0    0 -0.98919787839E+01 -0.11461910001E+01  0.27531211762E+02  0.95723172659E+02  0.91136124367E+02 0.  0.
         13    1    3    3    0    0  0.11125777286E+02  0.28801807091E+02  0.45479729860E+02  0.54970392068E+02  0.10566000000E+00 0. -1.
         22    1    1    0    0    0  0.98919787839E+01  0.11461910001E+01 -0.27531211762E+02  0.29276827341E+02  0.00000000000E+00 0. -1.
</event>
<event>
 5    1  0.9041381E-005  0.9118800E+02  0.7818608E-02  0.1130116E+00
         25   -1    0    0    0    0  0.00000000000E+00  0.00000000000E+00  0.99999998245E-14  0.12500000000E+03  0.12500000000E+03 0.  0.
        -13    1    3    3    0    0  0.19249270201E+02 -0.63960765297E+01 -0.33472985597E+02  0.39139444644E+02  0.10566000000E+00 0. -1.
         23    2    1    0    0    0 -0.89516173980E+01  0.27381935075E+02  0.26500392566E+01  0.96070352049E+02  0.91611069268E+02 0.  0.
         13    1    3    3    0    0 -0.28200887599E+02  0.33778011605E+02  0.36123024854E+02  0.56930907405E+02  0.10566000000E+00 0.  1.
         22    1    1    0    0    0  0.89516173980E+01 -0.27381935075E+02 -0.26500392566E+01  0.28929647951E+02  0.00000000000E+00 0.  1.
</event>
<event>
 5    1  0.9041381E-005  0.9118800E+02  0.7818608E-02  0.1130116E+00
         25   -1    0    0    0    0  0.00000000000E+00  0.00000000000E+00  0.99999998245E-14  0.12500000000E+03  0.12500000000E+03 0.  0.
        -13    1    3    3    0    0  0.15237195446E+02 -0.46685464523E+02 -0.32325677296E+02  0.58793412041E+02  0.10566000000E+00 0.  1.
         23    2    1    0    0    0  0.18379352516E+01 -0.29963565440E+02 -0.34049009866E+01  0.94787641426E+02  0.89843810897E+02 0.  0.
         13    1    3    3    0    0 -0.13399260194E+02  0.16721899083E+02  0.28920776309E+02  0.35994229385E+02  0.10566000000E+00 0. -1.
         22    1    1    0    0    0 -0.18379352516E+01  0.29963565440E+02  0.34049009866E+01  0.30212358574E+02  0.00000000000E+00 0.  1.
</event>
<event>
 5    1  0.9041381E-005  0.9118800E+02  0.7818608E-02  0.1130116E+00
         25   -1    0    0    0    0  0.00000000000E+00  0.00000000000E+00  0.99999998245E-14  0.12500000000E+03  0.12500000000E+03 0.  0.
        -13    1    3    3    0    0 -0.33734721355E+02 -0.21240765452E+02 -0.40311314580E+02  0.56694045446E+02  0.10566000000E+00 0.  1.
         23    2    1    0    0    0 -0.29520820091E+02  0.35904943361E+01 -0.24834277586E+02  0.86255815770E+02  0.77064608885E+02 0.  0.
         13    1    3    3    0    0  0.42139012637E+01  0.24831259788E+02  0.15477036994E+02  0.29561770324E+02  0.10566000000E+00 0. -1.
         22    1    1    0    0    0  0.29520820091E+02 -0.35904943361E+01  0.24834277586E+02  0.38744184230E+02  0.00000000000E+00 0.  1.
</event>
<event>
 5    1  0.9041381E-005  0.9118800E+02  0.7818608E-02  0.1130116E+00
         25   -1    0    0    0    0  0.00000000000E+00  0.00000000000E+00  0.99999998245E-14  0.12500000000E+03  0.12500000000E+03 0.  0.
        -13    1    3    3    0    0 -0.67104433868E+01  0.23145954413E+02 -0.23069228470E+02  0.33361140904E+02  0.10566000000E+00 0.  1.
         23    2    1    0    0    0 -0.14687245508E+01 -0.21342452187E+02  0.20152962055E+02  0.95609537317E+02  0.90980131508E+02 0.  0.
         13    1    3    3    0    0  0.52417188360E+01 -0.44488406600E+02  0.43222190525E+02  0.62248396413E+02  0.10566000000E+00 0. -1.
         22    1    1    0    0    0  0.14687245508E+01  0.21342452187E+02 -0.20152962055E+02  0.29390462683E+02  0.00000000000E+00 0. -1.
</event>
<event>
 5    1  0.9041381E-005  0.9118800E+02  0.7818608E-02  0.1130116E+00
         25   -1    0    0    0    0  0.00000000000E+00  0.00000000000E+00  0.99999998245E-14  0.12500000000E+03  0.12500000000E+03 0.  0.
        -13    1    3    3    0    0 -0.36104563522E+02  0.92750419080E+01  0.41023890395E+02  0.55430466863E+02  0.10566000000E+00 0. -1.
         23    2    1    0    0    0 -0.24213583408E+02 -0.12899538511E+02  0.90649923441E+01  0.96105886387E+02  0.91659541766E+02 0.  0.
         13    1    3    3    0    0  0.11890980113E+02 -0.22174580419E+02 -0.31958898051E+02  0.40675419524E+02  0.10566000000E+00 0.  1.
         22    1    1    0    0    0  0.24213583408E+02  0.12899538511E+02 -0.90649923441E+01  0.28894113613E+02  0.00000000000E+00 0. -1.
</event>
<event>
 5    1  0.9041381E-005  0.9118800E+02  0.7818608E-02  0.1130116E+00
         25   -1    0    0    0    0  0.00000000000E+00  0.00000000000E+00  0.99999998245E-14  0.12500000000E+03  0.12500000000E+03 0.  0.
        -13    1    3    3    0    0  0.23849715659E+02  0.64778803322E+01 -0.39190911664E+02  0.46332608298E+02  0.10566000000E+00 0. -1.
         23    2    1    0    0    0  0.32308422079E+02  0.22532059216E+02 -0.46671337633E+01  0.85335028460E+02  0.75556317505E+02 0.  0.
         13    1    3    3    0    0  0.84587064198E+01  0.16054178883E+02  0.34523777900E+02  0.39002420162E+02  0.10566000000E+00 0.  1.
         22    1    1    0    0    0 -0.32308422079E+02 -0.22532059216E+02  0.46671337633E+01  0.39664971540E+02  0.00000000000E+00 0. -1.
</event>
<event>
 5    1  0.9041381E-005  0.9118800E+02  0.7818608E-02  0.1130116E+00
         25   -1    0    0    0    0  0.00000000000E+00  0.00000000000E+00  0.99999998245E-14  0.12500000000E+03  0.12500000000E+03 0.  0.
        -13    1    3    3    0    0  0.87497215347E+01  0.33420488324E+02 -0.13034301741E+01  0.34571617854E+02  0.10566000000E+00 0. -1.
         23    2    1    0    0    0 -0.53541036771E+01 -0.22397109166E+02  0.18507069739E+02  0.95456666479E+02  0.90769855237E+02 0.  0.
         13    1    3    3    0    0 -0.14103825212E+02 -0.55817597491E+02  0.19810499913E+02  0.60885048625E+02  0.10566000000E+00 0.  1.
         22    1    1    0    0    0  0.53541036771E+01  0.22397109166E+02 -0.18507069739E+02  0.29543333521E+02  0.00000000000E+00 0.  1.
</event>
<event>
 5    1  0.9041381E-005  0.9118800E+02  0.7818608E-02  0.1130116E+00
         25   -1    0    0    0    0  0.00000000000E+00  0.00000000000E+00  0.99999998245E-14  0.12500000000E+03  0.12500000000E+03 0.  0.
        -13    1    3    3    0    0  0.10716572803E+02  0.93982669955E+01  0.38850779836E+02  0.41383168233E+02  0.10566000000E+00 0. -1.
         23    2    1    0    0    0  0.17482372204E+02 -0.25712739024E+02  0.38089885305E+00  0.93904608542E+02  0.88606727371E+02 0.  0.
         13    1    3    3    0    0  0.67657994011E+01 -0.35111006020E+02 -0.38469880983E+02  0.52521440309E+02  0.10566000000E+00 0.  1.
         22    1    1    0    0    0 -0.17482372204E+02  0.25712739024E+02 -0.38089885305E+00  0.31095391458E+02  0.00000000000E+00 0.  1.
</event>
<event>
 5    1  0.9041381E-005  0.9118800E+02  0.7818608E-02  0.1130116E+00
         25   -1    0    0    0    0  0.00000000000E+00  0.00000000000E+00  0.99999998245E-14  0.12500000000E+03  0.12500000000E+03 0.  0.
        -13    1    3    3    0    0  0.41705915268E+02  0.35010670177E+02  0.14792081211E+02  0.56426476278E+02  0.10566000000E+00 0. -1.
         23    2    1    0    0    0  0.15976022571E+02  0.20195994341E+02 -0.12157169205E+02  0.96523549243E+02  0.92227367472E+02 0.  0.
         13    1    3    3    0    0 -0.25729892697E+02 -0.14814675836E+02 -0.26949250416E+02  0.40097072965E+02  0.10566000000E+00 0.  1.
         22    1    1    0    0    0 -0.15976022571E+02 -0.20195994341E+02  0.12157169205E+02  0.28476450757E+02  0.00000000000E+00 0.  1.
</event>
<event>
 5    1  0.9041381E-005  0.9118800E+02  0.7818608E-02  0.1130116E+00
         25   -1    0    0    0    0  0.00000000000E+00  0.00000000000E+00  0.99999998245E-14  0.12500000000E+03  0.12500000000E+03 0.  0.
        -13    1    3    3    0    0  0.19371854548E+02  0.20917364181E+01  0.54488994321E+02  0.57868003041E+02  0.10566000000E+00 0.  1.
         23    2    1    0    0    0 -0.78976151487E+01  0.21118760433E+01  0.27792847899E+02  0.96029761137E+02  0.91555667680E+02 0.  0.
         13    1    3    3    0    0 -0.27269469696E+02  0.20139625171E-01 -0.26696146422E+02  0.38161758096E+02  0.10566000000E+00 0. -1.
         22    1    1    0    0    0  0.78976151487E+01 -0.21118760433E+01 -0.27792847899E+02  0.28970238863E+02  0.00000000000E+00 0.  1.
</event>
<event>
 5    1  0.9041381E-005  0.9118800E+02  0.7818608E-02  0.1130116E+00
         25   -1    0    0    0    0  0.00000000000E+00  0.00000000000E+00  0.99999998245E-14  0.12500000000E+03  0.12500000000E+03 0.  0.
        -13    1    3    3    0    0 -0.23003476343E+02 -0.53881740753E+02  0.20195951130E+02  0.61970069522E+02  0.10566000000E+00 0. -1.
         23    2    1    0    0    0 -0.12754721465E+02 -0.26402236602E+02  0.41947687150E+01  0.95379785588E+02  0.90663920040E+02 0.  0.
         13    1    3    3    0    0  0.10248754878E+02  0.27479504151E+02 -0.16001182415E+02  0.33409716066E+02  0.10566000000E+00 0.  1.
         22    1    1    0    0    0  0.12754721465E+02  0.26402236602E+02 -0.41947687150E+01  0.29620214412E+02  0.00000000000E+00 0. -1.
</event>
<event>
 5    1  0.9041381E-005  0.9118800E+02  0.7818608E-02  0.1130116E+00
         25   -1    0    0    0    0  0.00000000000E+00  0.00000000000E+00  0.99999998245E-14  0.12500000000E+03  0.12500000000E+03 0.  0.
        -13    1    3    3    0    0  0.20513900300E+02 -0.21929609688E+02  0.24427115124E+02  0.38709469177E+02  0.10566000000E+00 0.  1.
         23    2    1    0    0    0 -0.28462444152E+02 -0.73376390812E+01 -0.57419602206E+00  0.95601337182E+02  0.90968864430E+02 0.  0.
         13    1    3    3    0    0 -0.48976344452E+02  0.14591970607E+02 -0.25001311146E+02  0.56891868006E+02  0.10566000000E+00 0. -1.
         22    1    1    0    0    0  0.28462444152E+02  0.73376390812E+01  0.57419602206E+00  0.29398662818E+02  0.00000000000E+00 0. -1.
</event>
<event>
 5    1  0.9041381E-005  0.9118800E+02  0.7818608E-02  0.1130116E+00
         25   -1    0    0    0    0  0.00000000000E+00  0.00000000000E+00  0.99999998245E-14  0.12500000000E+03  0.12500000000E+03 0.  0.
        -13    1    3    3    0    0  0.16198639767E+02  0.46081634159E+02  0.36587713500E+02  0.61029377191E+02  0.10566000000E+00 0.  1.
         23    2    1    0    0    0  0.12306221399E+02  0.26322663465E+02  0.10242471681E+02  0.94190359899E+02  0.89008931994E+02 0.  0.
         13    1    3    3    0    0 -0.38924183679E+01 -0.19758970694E+02 -0.26345241819E+02  0.33160982708E+02  0.10566000000E+00 0. -1.
         22    1    1    0    0    0 -0.12306221399E+02 -0.26322663465E+02 -0.10242471681E+02  0.30809640101E+02  0.00000000000E+00 0.  1.
</event>
<event>
 5    1  0.9041381E-005  0.9118800E+02  0.7818608E-02  0.1130116E+00
         25   -1    0    0    0    0  0.00000000000E+00  0.00000000000E+00  0.99999998245E-14  0.12500000000E+03  0.12500000000E+03 0.  0.
        -13    1    3    3    0    0 -0.22803043214E+02 -0.24038228490E+02  0.10111181277E+02  0.34641916223E+02  0.10566000000E+00 0. -1.
         23    2    1    0    0    0  0.20039186688E+02  0.19707048626E+02 -0.10208035276E+01  0.96875654523E+02  0.92703363642E+02 0.  0.
         13    1    3    3    0    0  0.42842229902E+02  0.43745277116E+02 -0.11131984805E+02  0.62233738299E+02  0.10566000000E+00 0.  1.
         22    1    1    0    0    0 -0.20039186688E+02 -0.19707048626E+02  0.10208035276E+01  0.28124345477E+02  0.00000000000E+00 0.  1.
</event>
<event>
 5    1  0.9041381E-005  0.9118800E+02  0.7818608E-02  0.1130116E+00
         25   -1    0    0    0    0  0.00000000000E+00  0.00000000000E+00  0.99999998245E-14  0.12500000000E+03  0.12500000000E+03 0.  0.
        -13    1    3    3    0    0 -0.39436153774E+02 -0.19977130773E+02 -0.32951761929E+02  0.55137335415E+02  0.10566000000E+00 0. -1.
         23    2    1    0    0    0 -0.28440108131E+02  0.67170725181E+00  0.11921261200E+01  0.96526993383E+02  0.92232035355E+02 0.  0.
         13    1    3    3    0    0  0.10996045643E+02  0.20648838025E+02  0.34143888049E+02  0.41389657968E+02  0.10566000000E+00 0.  1.
         22    1    1    0    0    0  0.28440108131E+02 -0.67170725181E+00 -0.11921261200E+01  0.28473006617E+02  0.00000000000E+00 0. -1.
</event>
<event>
 5    1  0.9041381E-005  0.9118800E+02  0.7818608E-02  0.1130116E+00
         25   -1    0    0    0    0  0.00000000000E+00  0.00000000000E+00  0.99999998245E-14  0.12500000000E+03  0.12500000000E+03 0.  0.
        -13    1    3    3    0    0  0.18948604899E+02  0.33899975996E+02  0.12417234577E+02  0.40773237285E+02  0.10566000000E+00 0.  1.
         23    2    1    0    0    0  0.19074807444E+02 -0.19043421603E+02 -0.69780610845E+01  0.97157702647E+02  0.93082896720E+02 0.  0.
         13    1    3    3    0    0  0.12620254481E+00 -0.52943397599E+02 -0.19395295661E+02  0.56384465362E+02  0.10566000000E+00 0. -1.
         22    1    1    0    0    0 -0.19074807444E+02  0.19043421603E+02  0.69780610845E+01  0.27842297353E+02  0.00000000000E+00 0. -1.
</event>
<event>
 5    1  0.9041381E-005  0.9118800E+02  0.7818608E-02  0.1130116E+00
         25   -1    0    0    0    0  0.00000000000E+00  0.00000000000E+00  0.99999998245E-14  0.12500000000E+03  0.12500000000E+03 0.  0.
        -13    1    3    3    0    0  0.90755859355E+01 -0.18041703323E+02 -0.32813126539E+02  0.38530270647E+02  0.10566000000E+00 0. -1.
         23    2    1    0    0    0  0.77066242284E+01 -0.14090734492E+02  0.24341383873E+02  0.95837629994E+02  0.91292976173E+02 0.  0.
         13    1    3    3    0    0 -0.13689617072E+01  0.39509688307E+01  0.57154510412E+02  0.57307359347E+02  0.10566000000E+00 0.  1.
         22    1    1    0    0    0 -0.77066242284E+01  0.14090734492E+02 -0.24341383873E+02  0.29162370006E+02  0.00000000000E+00 0.  1.
</event>
<event>
 5    1  0.9041381E-005  0.9118800E+02  0.7818608E-02  0.1130116E+00
         25   -1    0    0    0    0  0.00000000000E+00  0.00000000000E+00  0.99999998245E-14  0.12500000000E+03  0.12500000000E+03 0.  0.
        -13    1    3    3    0    0  0.13900210006E+01  0.45453582507E+02  0.15722137648E+02  0.48116079405E+02  0.10566000000E+00 0.  1.
         23    2    1    0    0    0 -0.17625969625E+01  0.17947413359E+02 -0.23034367113E+02  0.95745966729E+02  0.91167382776E+02 0.  0.
         13    1    3    3    0    0 -0.31526179631E+01 -0.27506169148E+02 -0.38756504760E+02  0.47629887324E+02  0.10566000000E+00 0. -1.
         22    1    1    0    0    0  0.17625969625E+01 -0.17947413359E+02  0.23034367113E+02  0.29254033271E+02  0.00000000000E+00 0.  1.
</event>
<event>
 5    1  0.9041381E-005  0.9118800E+02  0.7818608E-02  0.1130116E+00
         25   -1    0    0    0    0  0.00000000000E+00  0.00000000000E+00  0.99999998245E-14  0.12500000000E+03  0.12500000000E+03 0.  0.
        -13    1    3    3    0    0  0.29461662538E+02  0.19036551107E+02  0.13884429791E+02  0.37724904138E+02  0.10566000000E+00 0.  1.
         23    2    1    0    0    0 -0.27091501096E+02  0.80996798018E+01  0.12463126044E+01  0.96696156805E+02  0.92461014493E+02 0.  0.
         13    1    3    3    0    0 -0.56553163634E+02 -0.10936871305E+02 -0.12638117186E+02  0.58971252667E+02  0.10566000000E+00 0. -1.
         22    1    1    0    0    0  0.27091501096E+02 -0.80996798018E+01 -0.12463126044E+01  0.28303843195E+02  0.00000000000E+00 0. -1.
</event>
<event>
 5    1  0.9041381E-005  0.9118800E+02  0.7818608E-02  0.1130116E+00
         25   -1    0    0    0    0  0.00000000000E+00  0.00000000000E+00  0.99999998245E-14  0.12500000000E+03  0.12500000000E+03 0.  0.
        -13    1    3    3    0    0 -0.54265003820E+02  0.17876772313E+02  0.99409022542E+01  0.57992260946E+02  0.10566000000E+00 0.  1.
         23    2    1    0    0    0 -0.15913482383E+02  0.22019311551E+02  0.82627221911E+01  0.96603493512E+02  0.92335656049E+02 0.  0.
         13    1    3    3    0    0  0.38351521437E+02  0.41425392371E+01 -0.16781800631E+01  0.38611232566E+02  0.10566000000E+00 0. -1.
         22    1    1    0    0    0  0.15913482383E+02 -0.22019311551E+02 -0.82627221911E+01  0.28396506488E+02  0.00000000000E+00 0.  1.
</event>
<event>
 5    1  0.9041381E-005  0.9118800E+02  0.7818608E-02  0.1130116E+00
         25   -1    0    0    0    0  0.00000000000E+00  0.00000000000E+00  0.99999998245E-14  0.12500000000E+03  0.12500000000E+03 0.  0.
        -13    1    3    3    0    0 -0.76423417115E+01  0.18218309821E+02 -0.37243832781E+02  0.42159535622E+02  0.10566000000E+00 0.  1.
         23    2    1    0    0    0  0.17630730295E+00  0.26157529007E+02  0.14501499117E+02  0.95091123648E+02  0.90265059198E+02 0.  0.
         13    1    3    3    0    0  0.78186490144E+01  0.79392191859E+01  0.51745331898E+02  0.52931588026E+02  0.10566000000E+00 0. -1.
         22    1    1    0    0    0 -0.17630730295E+00 -0.26157529007E+02 -0.14501499117E+02  0.29908876352E+02  0.00000000000E+00 0. -1.
</event>
<event>
 5    1  0.9041381E-005  0.9118800E+02  0.7818608E-02  0.1130116E+00
         25   -1    0    0    0    0  0.00000000000E+00  0.00000000000E+00  0.99999998245E-14  0.12500000000E+03  0.12500000000E+03 0.  0.
        -13    1    3    3    0    0 -0.23319965264E+02  0.14236034171E+02  0.37929092262E+02  0.46745188551E+02  0.10566000000E+00 0.  1.
         23    2    1    0    0    0  0.94348851801E+01 -0.17924905778E+02  0.21396382158E+02  0.95536047873E+02  0.90879106335E+02 0.  0.
         13    1    3    3    0    0  0.32754850444E+02 -0.32160939949E+02 -0.16532710104E+02  0.48790859322E+02  0.10566000000E+00 0. -1.
         22    1    1    0    0    0 -0.94348851801E+01  0.17924905778E+02 -0.21396382158E+02  0.29463952127E+02  0.00000000000E+00 0.  1.
</event>
<event>
 5    1  0.9041381E-005  0.9118800E+02  0.7818608E-02  0.1130116E+00
         25   -1    0    0    0    0  0.00000000000E+00  0.00000000000E+00  0.99999998245E-14  0.12500000000E+03  0.12500000000E+03 0.  0.
        -13    1    3    3    0    0 -0.22084657026E+02  0.16318557363E+02 -0.22170904824E+02  0.35292882783E+02  0.10566000000E+00 0.  1.
         23    2    1    0    0    0  0.27429187216E+02 -0.72848221039E+01  0.44662079120E+01  0.96270642932E+02  0.91883952533E+02 0.  0.
         13    1    3    3    0    0  0.49513844242E+02 -0.23603379467E+02  0.26637112736E+02  0.60977760149E+02  0.10566000000E+00 0. -1.
         22    1    1    0    0    0 -0.27429187216E+02  0.72848221039E+01 -0.44662079120E+01  0.28729357068E+02  0.00000000000E+00 0. -1.
</event>
<event>
 5    1  0.9041381E-005  0.9118800E+02  0.7818608E-02  0.1130116E+00
         25   -1    0    0    0    0  0.00000000000E+00  0.00000000000E+00  0.99999998245E-14  0.12500000000E+03  0.12500000000E+03 0.  0.
        -13    1    3    3    0    0  0.14038790692E+02  0.12576370084E+02 -0.38801391437E+02  0.43137128673E+02  0.10566000000E+00 0.  1.
         23    2    1    0    0    0 -0.23263583555E+02  0.16697563886E+02 -0.10856059578E+01  0.96343735417E+02  0.91983334655E+02 0.  0.
         13    1    3    3    0    0 -0.37302374247E+02  0.41211938021E+01  0.37715785480E+02  0.53206606744E+02  0.10566000000E+00 0. -1.
         22    1    1    0    0    0  0.23263583555E+02 -0.16697563886E+02  0.10856059578E+01  0.28656264583E+02  0.00000000000E+00 0. -1.
</event>
<event>
 5    1  0.9041381E-005  0.9118800E+02  0.7818608E-02  0.1130116E+00
         25   -1    0    0    0    0  0.00000000000E+00  0.00000000000E+00  0.99999998245E-14  0.12500000000E+03  0.12500000000E+03 0.  0.
        -13    1    3    3    0    0 -0.35962293895E+01 -0.39612269487E+02  0.15712411182E+02  0.42766292672E+02  0.10566000000E+00 0. -1.
         23    2    1    0    0    0 -0.16260614062E+02 -0.35475334370E+02 -0.20190656462E+02  0.81061753259E+02  0.68120762729E+02 0.  0.
         13    1    3    3    0    0 -0.12664384673E+02  0.41369351169E+01 -0.35903067644E+02  0.38295460587E+02  0.10566000000E+00 0.  1.
         22    1    1    0    0    0  0.16260614062E+02  0.35475334370E+02  0.20190656462E+02  0.43938246741E+02  0.00000000000E+00 0. -1.
</event>
<event>
 5    1  0.9041381E-005  0.9118800E+02  0.7818608E-02  0.1130116E+00
         25   -1    0    0    0    0  0.00000000000E+00  0.00000000000E+00  0.99999998245E-14  0.12500000000E+03  0.12500000000E+03 0.  0.
        -13    1    3    3    0    0  0.87418993596E+01  0.48365162605E+02  0.24689982523E+02  0.55001965049E+02  0.10566000000E+00 0. -1.
         23    2    1    0    0    0  0.13035681410E+02  0.66279325921E+01  0.23916632258E+02  0.96966737992E+02  0.92826098151E+02 0.  0.
         13    1    3    3    0    0  0.42937820503E+01 -0.41737230013E+02 -0.77335026535E+00  0.41964772942E+02  0.10566000000E+00 0.  1.
         22    1    1    0    0    0 -0.13035681410E+02 -0.66279325921E+01 -0.23916632258E+02  0.28033262008E+02  0.00000000000E+00 0. -1.
</event>
<event>
 5    1  0.9041381E-005  0.9118800E+02  0.7818608E-02  0.1130116E+00
         25   -1    0    0    0    0  0.00000000000E+00  0.00000000000E+00  0.99999998245E-14  0.12500000000E+03  0.12500000000E+03 0.  0.
        -13    1    3    3    0    0 -0.13276114139E+02 -0.95411848350E+01 -0.33333539599E+02  0.37127152340E+02  0.10566000000E+00 0.  1.
         23    2    1    0    0    0  0.20339278634E+02 -0.14584571445E+01  0.17177644684E+02  0.98337576451E+02  0.94654076050E+02 0.  0.
         13    1    3    3    0    0  0.33615392773E+02  0.80827276904E+01  0.50511184283E+02  0.61210424111E+02  0.10566000000E+00 0. -1.
         22    1    1    0    0    0 -0.20339278634E+02  0.14584571445E+01 -0.17177644684E+02  0.26662423549E+02  0.00000000000E+00 0. -1.
</event>
<event>
 5    1  0.9041381E-005  0.9118800E+02  0.7818608E-02  0.1130116E+00
         25   -1    0    0    0    0  0.00000000000E+00  0.00000000000E+00  0.99999998245E-14  0.12500000000E+03  0.12500000000E+03 0.  0.
        -13    1    3    3    0    0  0.43958068494E+01 -0.32943785014E+02  0.14472006500E+02  0.36250051381E+02  0.10566000000E+00 0.  1.
         23    2    1    0    0    0 -0.22419253304E+02  0.18703472235E+02  0.22227066151E+01  0.95718893173E+02  0.91130254543E+02 0.  0.
         13    1    3    3    0    0 -0.26815060153E+02  0.51647257249E+02 -0.12249299885E+02  0.59468841792E+02  0.10566000000E+00 0. -1.
         22    1    1    0    0    0  0.22419253304E+02 -0.18703472235E+02 -0.22227066151E+01  0.29281106827E+02  0.00000000000E+00 0.  1.
</event>
<event>
 5    1  0.9041381E-005  0.9118800E+02  0.7818608E-02  0.1130116E+00
         25   -1    0    0    0    0  0.00000000000E+00  0.00000000000E+00  0.99999998245E-14  0.12500000000E+03  0.12500000000E+03 0.  0.
        -13    1    3    3    0    0 -0.15012076136E+02 -0.88335658155E+01 -0.40468179858E+02  0.44057678786E+02  0.10566000000E+00 0. -1.
         23    2    1    0    0    0 -0.22517150048E+02  0.14657896693E+01  0.12955563117E+02  0.98980445790E+02  0.95499274591E+02 0.  0.
         13    1    3    3    0    0 -0.75050739122E+01  0.10299355485E+02  0.53423742975E+02  0.54922767004E+02  0.10566000000E+00 0.  1.
         22    1    1    0    0    0  0.22517150048E+02 -0.14657896693E+01 -0.12955563117E+02  0.26019554210E+02  0.00000000000E+00 0.  1.
</event>
<event>
 5    1  0.9041381E-005  0.9118800E+02  0.7818608E-02  0.1130116E+00
         25   -1    0    0    0    0  0.00000000000E+00  0.00000000000E+00  0.99999998245E-14  0.12500000000E+03  0.12500000000E+03 0.  0.
        -13    1    3    3    0    0 -0.14897450970E+02  0.40400793466E+02 -0.19720381985E+02  0.47360983813E+02  0.10566000000E+00 0. -1.
         23    2    1    0    0    0 -0.16310415229E+02 -0.84520967843E+01 -0.22062790507E+02  0.96290518815E+02  0.91910987937E+02 0.  0.
         13    1    3    3    0    0 -0.14129642592E+01 -0.48852890250E+02 -0.23424085215E+01  0.48929535002E+02  0.10566000000E+00 0.  1.
         22    1    1    0    0    0  0.16310415229E+02  0.84520967843E+01  0.22062790507E+02  0.28709481185E+02  0.00000000000E+00 0.  1.
</event>
<event>
 5    1  0.9041381E-005  0.9118800E+02  0.7818608E-02  0.1130116E+00
         25   -1    0    0    0    0  0.00000000000E+00  0.00000000000E+00  0.99999998245E-14  0.12500000000E+03  0.12500000000E+03 0.  0.
        -13    1    3    3    0    0  0.21374714437E+02 -0.31862297378E+02 -0.38489761528E+01  0.38560474491E+02  0.10566000000E+00 0.  1.
         23    2    1    0    0    0  0.11811842489E+02  0.17654600782E+02  0.21302897978E+02  0.94916482685E+02  0.90022889708E+02 0.  0.
         13    1    3    3    0    0 -0.95628719483E+01  0.49516898160E+02  0.25151874131E+02  0.56356008195E+02  0.10566000000E+00 0. -1.
         22    1    1    0    0    0 -0.11811842489E+02 -0.17654600782E+02 -0.21302897978E+02  0.30083517315E+02  0.00000000000E+00 0. -1.
</event>
<event>
 5    1  0.9041381E-005  0.9118800E+02  0.7818608E-02  0.1130116E+00
         25   -1    0    0    0    0  0.00000000000E+00  0.00000000000E+00  0.99999998245E-14  0.12500000000E+03  0.12500000000E+03 0.  0.
        -13    1    3    3    0    0 -0.21914693851E+01  0.38206564502E+02 -0.31307864814E+02  0.49444288572E+02  0.10566000000E+00 0.  1.
         23    2    1    0    0    0 -0.55388921034E+01  0.38088858218E+02  0.52488374146E+01  0.86154269986E+02  0.76899723645E+02 0.  0.
         13    1    3    3    0    0 -0.33474227183E+01 -0.11770628417E+00  0.36556702228E+02  0.36709981415E+02  0.10566000000E+00 0. -1.
         22    1    1    0    0    0  0.55388921034E+01 -0.38088858218E+02 -0.52488374146E+01  0.38845730014E+02  0.00000000000E+00 0.  1.
</event>
<event>
 5    1  0.9041381E-005  0.9118800E+02  0.7818608E-02  0.1130116E+00
         25   -1    0    0    0    0  0.00000000000E+00  0.00000000000E+00  0.99999998245E-14  0.12500000000E+03  0.12500000000E+03 0.  0.
        -13    1    3    3    0    0  0.28958201003E+02 -0.19123377603E+02 -0.23259871662E+02  0.41776952618E+02  0.10566000000E+00 0.  1.
         23    2    1    0    0    0  0.22754520574E+02  0.40134518131E+00  0.23168071734E+02  0.92524026845E+02  0.86637213202E+02 0.  0.
         13    1    3    3    0    0 -0.62036804297E+01  0.19524722784E+02  0.46427943395E+02  0.50747074227E+02  0.10566000000E+00 0. -1.
         22    1    1    0    0    0 -0.22754520574E+02 -0.40134518131E+00 -0.23168071734E+02  0.32475973155E+02  0.00000000000E+00 0. -1.
</event>
<event>
 5    1  0.9041381E-005  0.9118800E+02  0.7818608E-02  0.1130116E+00
         25   -1    0    0    0    0  0.00000000000E+00  0.00000000000E+00  0.99999998245E-14  0.12500000000E+03  0.12500000000E+03 0.  0.
        -13    1    3    3    0    0 -0.24153870589E+02 -0.23791621878E+02 -0.21872478308E+02  0.40346836398E+02  0.10566000000E+00 0.  1.
         23    2    1    0    0    0 -0.54522415828E+01 -0.75906661508E+01  0.27707856816E+02  0.95758411804E+02  0.91184444677E+02 0.  0.
         13    1    3    3    0    0  0.18701629006E+02  0.16200955727E+02  0.49580335123E+02  0.55411575406E+02  0.10566000000E+00 0. -1.
         22    1    1    0    0    0  0.54522415828E+01  0.75906661508E+01 -0.27707856816E+02  0.29241588196E+02  0.00000000000E+00 0. -1.
</event>
<event>
 5    1  0.9041381E-005  0.9118800E+02  0.7818608E-02  0.1130116E+00
         25   -1    0    0    0    0  0.00000000000E+00  0.00000000000E+00  0.99999998245E-14  0.12500000000E+03  0.12500000000E+03 0.  0.
        -13    1    3    3    0    0 -0.17811672310E+02  0.25798808663E+02 -0.27996362772E+02  0.42031436942E+02  0.10566000000E+00 0.  1.
         23    2    1    0    0    0 -0.31608064515E+01  0.18287862021E+02  0.22899564076E+02  0.95524134795E+02  0.90862718970E+02 0.  0.
         13    1    3    3    0    0  0.14650865859E+02 -0.75109466416E+01  0.50895926848E+02  0.53492697853E+02  0.10566000000E+00 0. -1.
         22    1    1    0    0    0  0.31608064515E+01 -0.18287862021E+02 -0.22899564076E+02  0.29475865205E+02  0.00000000000E+00 0. -1.
</event>
<event>
 5    1  0.9041381E-005  0.9118800E+02  0.7818608E-02  0.1130116E+00
         25   -1    0    0    0    0  0.00000000000E+00  0.00000000000E+00  0.99999998245E-14  0.12500000000E+03  0.12500000000E+03 0.  0.
        -13    1    3    3    0    0 -0.16603449336E+02 -0.39326856828E+02  0.13798618058E+02  0.44863005051E+02  0.10566000000E+00 0.  1.
         23    2    1    0    0    0  0.25290756020E+02 -0.19109603578E+02  0.10934278689E+02  0.91468555959E+02  0.85100757869E+02 0.  0.
         13    1    3    3    0    0  0.41894205356E+02  0.20217253250E+02 -0.28643393692E+01  0.46605550908E+02  0.10566000000E+00 0. -1.
         22    1    1    0    0    0 -0.25290756020E+02  0.19109603578E+02 -0.10934278689E+02  0.33531444041E+02  0.00000000000E+00 0.  1.
</event>
<event>
 5    1  0.9041381E-005  0.9118800E+02  0.7818608E-02  0.1130116E+00
         25   -1    0    0    0    0  0.00000000000E+00  0.00000000000E+00  0.99999998245E-14  0.12500000000E+03  0.12500000000E+03 0.  0.
        -13    1    3    3    0    0 -0.40407002151E+02 -0.73119469968E+01 -0.31568964086E+02  0.51795762850E+02  0.10566000000E+00 0. -1.
         23    2    1    0    0    0 -0.68651576889E+01 -0.26310646647E+02 -0.16555143157E+02  0.93165218989E+02  0.87557436847E+02 0.  0.
         13    1    3    3    0    0  0.33541844462E+02 -0.18998699650E+02  0.15013820928E+02  0.41369456139E+02  0.10566000000E+00 0.  1.
         22    1    1    0    0    0  0.68651576889E+01  0.26310646647E+02  0.16555143157E+02  0.31834781011E+02  0.00000000000E+00 0. -1.
</event>
<event>
 5    1  0.9041381E-005  0.9118800E+02  0.7818608E-02  0.1130116E+00
         25   -1    0    0    0    0  0.00000000000E+00  0.00000000000E+00  0.99999998245E-14  0.12500000000E+03  0.12500000000E+03 0.  0.
        -13    1    3    3    0    0 -0.53137538768E+02  0.17987754340E+02  0.18193588994E+02  0.58976055963E+02  0.10566000000E+00 0.  1.
         23    2    1    0    0    0 -0.29122806191E+02 -0.99119373031E+00 -0.22327894227E+01  0.95774913960E+02  0.91207063816E+02 0.  0.
         13    1    3    3    0    0  0.24014732576E+02 -0.18978948070E+02 -0.20426378417E+02  0.36798857996E+02  0.10566000000E+00 0. -1.
         22    1    1    0    0    0  0.29122806191E+02  0.99119373031E+00  0.22327894227E+01  0.29225086040E+02  0.00000000000E+00 0.  1.
</event>
<event>
 5    1  0.9041381E-005  0.9118800E+02  0.7818608E-02  0.1130116E+00
         25   -1    0    0    0    0  0.00000000000E+00  0.00000000000E+00  0.99999998245E-14  0.12500000000E+03  0.12500000000E+03 0.  0.
        -13    1    3    3    0    0  0.15438103179E+02  0.80256990302E+01 -0.59523632131E+01  0.18389906649E+02  0.10566000000E+00 0.  1.
         23    2    1    0    0    0 -0.25139489808E+02  0.15533674159E+02  0.36795869965E+02  0.77806514993E+02  0.61859750631E+02 0.  0.
         13    1    3    3    0    0 -0.40577592987E+02  0.75079751291E+01  0.42748233178E+02  0.59416608344E+02  0.10566000000E+00 0. -1.
         22    1    1    0    0    0  0.25139489808E+02 -0.15533674159E+02 -0.36795869965E+02  0.47193485007E+02  0.00000000000E+00 0. -1.
</event>
<event>
 5    1  0.9041381E-005  0.9118800E+02  0.7818608E-02  0.1130116E+00
         25   -1    0    0    0    0  0.00000000000E+00  0.00000000000E+00  0.99999998245E-14  0.12500000000E+03  0.12500000000E+03 0.  0.
        -13    1    3    3    0    0 -0.29258520912E+02  0.30007528383E+02  0.14851471188E+02  0.44464482074E+02  0.10566000000E+00 0.  1.
         23    2    1    0    0    0  0.20365137947E+02  0.12809841891E+02 -0.46653795687E+01  0.10049292634E+03  0.97458871248E+02 0.  0.
         13    1    3    3    0    0  0.49623658859E+02 -0.17197686492E+02 -0.19516850757E+02  0.56028444265E+02  0.10566000000E+00 0. -1.
         22    1    1    0    0    0 -0.20365137947E+02 -0.12809841891E+02  0.46653795687E+01  0.24507073661E+02  0.00000000000E+00 0. -1.
</event>
<event>
 5    1  0.9041381E-005  0.9118800E+02  0.7818608E-02  0.1130116E+00
         25   -1    0    0    0    0  0.00000000000E+00  0.00000000000E+00  0.99999998245E-14  0.12500000000E+03  0.12500000000E+03 0.  0.
        -13    1    3    3    0    0 -0.50836676214E+02 -0.19619785446E+01 -0.31310673458E+02  0.59737646797E+02  0.10566000000E+00 0.  1.
         23    2    1    0    0    0 -0.17961657427E+02  0.10714877514E+02 -0.18011042789E+02  0.97398779012E+02  0.93406074498E+02 0.  0.
         13    1    3    3    0    0  0.32875018787E+02  0.12676856059E+02  0.13299630670E+02  0.37661132216E+02  0.10566000000E+00 0. -1.
         22    1    1    0    0    0  0.17961657427E+02 -0.10714877514E+02  0.18011042789E+02  0.27601220988E+02  0.00000000000E+00 0.  1.
</event>
<event>
 5    1  0.9041381E-005  0.9118800E+02  0.7818608E-02  0.1130116E+00
         25   -1    0    0    0    0  0.00000000000E+00  0.00000000000E+00  0.99999998245E-14  0.12500000000E+03  0.12500000000E+03 0.  0.
        -13    1    3    3    0    0  0.32591675388E+02 -0.24786436453E+02 -0.96320342627E+01  0.42063903584E+02  0.10566000000E+00 0. -1.
         23    2    1    0    0    0  0.69192933857E+01  0.22375828617E+02 -0.16714974254E+02  0.96225971926E+02  0.91823161466E+02 0.  0.
         13    1    3    3    0    0 -0.25672382002E+02  0.47162265070E+02 -0.70829399914E+01  0.54162068343E+02  0.10566000000E+00 0.  1.
         22    1    1    0    0    0 -0.69192933857E+01 -0.22375828617E+02  0.16714974254E+02  0.28774028074E+02  0.00000000000E+00 0.  1.
</event>
<event>
 5    1  0.9041381E-005  0.9118800E+02  0.7818608E-02  0.1130116E+00
         25   -1    0    0    0    0  0.00000000000E+00  0.00000000000E+00  0.99999998245E-14  0.12500000000E+03  0.12500000000E+03 0.  0.
        -13    1    3    3    0    0  0.15791571654E+02  0.48739522951E+02  0.43151559469E+01  0.51415431221E+02  0.10566000000E+00 0.  1.
         23    2    1    0    0    0  0.33319032528E+02  0.27420520275E+02 -0.70744788037E+01  0.81272535963E+02  0.68506452183E+02 0.  0.
         13    1    3    3    0    0  0.17527460874E+02 -0.21319002676E+02 -0.11389634751E+02  0.29857104742E+02  0.10566000000E+00 0. -1.
         22    1    1    0    0    0 -0.33319032528E+02 -0.27420520275E+02  0.70744788037E+01  0.43727464037E+02  0.00000000000E+00 0.  1.
</event>
<event>
 5    1  0.9041381E-005  0.9118800E+02  0.7818608E-02  0.1130116E+00
         25   -1    0    0    0    0  0.00000000000E+00  0.00000000000E+00  0.99999998245E-14  0.12500000000E+03  0.12500000000E+03 0.  0.
        -13    1    3    3    0    0  0.54760957246E+02  0.26553883145E+02 -0.67933969296E+01  0.61237509374E+02  0.10566000000E+00 0.  1.
         23    2    1    0    0    0  0.22617300810E+02  0.16862860461E+02 -0.10241154046E+02  0.94987009561E+02  0.90120765589E+02 0.  0.
         13    1    3    3    0    0 -0.32143656436E+02 -0.96910226835E+01 -0.34477571168E+01  0.33749500187E+02  0.10566000000E+00 0. -1.
         22    1    1    0    0    0 -0.22617300810E+02 -0.16862860461E+02  0.10241154046E+02  0.30012990439E+02  0.00000000000E+00 0.  1.
</event>
<event>
 5    1  0.9041381E-005  0.9118800E+02  0.7818608E-02  0.1130116E+00
         25   -1    0    0    0    0  0.00000000000E+00  0.00000000000E+00  0.99999998245E-14  0.12500000000E+03  0.12500000000E+03 0.  0.
        -13    1    3    3    0    0  0.10078256575E+02 -0.31270026658E+02 -0.42014426857E+02  0.53334876497E+02  0.10566000000E+00 0.  1.
         23    2    1    0    0    0  0.79201217386E+01 -0.31800374378E+02 -0.33565345732E+01  0.92056738727E+02  0.85960366925E+02 0.  0.
         13    1    3    3    0    0 -0.21581348364E+01 -0.53034771974E+00  0.38657892284E+02  0.38721862230E+02  0.10566000000E+00 0. -1.
         22    1    1    0    0    0 -0.79201217386E+01  0.31800374378E+02  0.33565345732E+01  0.32943261273E+02  0.00000000000E+00 0.  1.
</event>
<event>
 5    1  0.9041381E-005  0.9118800E+02  0.7818608E-02  0.1130116E+00
         25   -1    0    0    0    0  0.00000000000E+00  0.00000000000E+00  0.99999998245E-14  0.12500000000E+03  0.12500000000E+03 0.  0.
        -13    1    3    3    0    0  0.58151895111E+01 -0.14564751977E+02 -0.58142925562E+02  0.60220921499E+02  0.10566000000E+00 0. -1.
         23    2    1    0    0    0 -0.49868793797E+00 -0.17886496216E+02 -0.24214025551E+02  0.94891953403E+02  0.89988823476E+02 0.  0.
         13    1    3    3    0    0 -0.63138774490E+01 -0.33217442383E+01  0.33928900012E+02  0.34671031904E+02  0.10566000000E+00 0.  1.
         22    1    1    0    0    0  0.49868793797E+00  0.17886496216E+02  0.24214025551E+02  0.30108046597E+02  0.00000000000E+00 0. -1.
</event>
<event>
 5    1  0.9041381E-005  0.9118800E+02  0.7818608E-02  0.1130116E+00
         25   -1    0    0    0    0  0.00000000000E+00  0.00000000000E+00  0.99999998245E-14  0.12500000000E+03  0.12500000000E+03 0.  0.
        -13    1    3    3    0    0 -0.40940490176E+02  0.38903257106E+02  0.19544351365E+02  0.59762697258E+02  0.10566000000E+00 0. -1.
         23    2    1    0    0    0 -0.90200795767E+01  0.26377010365E+02  0.10345914791E+02  0.95265399545E+02  0.90506076516E+02 0.  0.
         13    1    3    3    0    0  0.31920410599E+02 -0.12526246742E+02 -0.91984365732E+01  0.35502702287E+02  0.10566000000E+00 0.  1.
         22    1    1    0    0    0  0.90200795767E+01 -0.26377010365E+02 -0.10345914791E+02  0.29734600455E+02  0.00000000000E+00 0. -1.
</event>
<event>
 5    1  0.9041381E-005  0.9118800E+02  0.7818608E-02  0.1130116E+00
         25   -1    0    0    0    0  0.00000000000E+00  0.00000000000E+00  0.99999998245E-14  0.12500000000E+03  0.12500000000E+03 0.  0.
        -13    1    3    3    0    0 -0.46493774960E+02  0.46793542996E+01  0.42357782786E-01  0.46728796527E+02  0.10566000000E+00 0. -1.
         23    2    1    0    0    0  0.43643128430E+01 -0.12589164755E+02 -0.17295021573E+02  0.10316763716E+03  0.10083109288E+03 0.  0.
         13    1    3    3    0    0  0.50858087803E+02 -0.17268519055E+02 -0.17337379356E+02  0.56438840636E+02  0.10566000000E+00 0.  1.
         22    1    1    0    0    0 -0.43643128430E+01  0.12589164755E+02  0.17295021573E+02  0.21832362837E+02  0.00000000000E+00 0. -1.
</event>
<event>
 5    1  0.9041381E-005  0.9118800E+02  0.7818608E-02  0.1130116E+00
         25   -1    0    0    0    0  0.00000000000E+00  0.00000000000E+00  0.99999998245E-14  0.12500000000E+03  0.12500000000E+03 0.  0.
        -13    1    3    3    0    0 -0.23979561108E+02 -0.80297786270E+01 -0.52207152094E+02  0.58009435349E+02  0.10566000000E+00 0.  1.
         23    2    1    0    0    0 -0.90604774013E+01 -0.17879902686E+02 -0.12976214790E+02  0.10112186521E+03  0.98262232329E+02 0.  0.
         13    1    3    3    0    0  0.14919083707E+02 -0.98501240592E+01  0.39230937304E+02  0.43112429860E+02  0.10566000000E+00 0. -1.
         22    1    1    0    0    0  0.90604774013E+01  0.17879902686E+02  0.12976214790E+02  0.23878134791E+02  0.00000000000E+00 0.  1.
</event>
<event>
 5    1  0.9041381E-005  0.9118800E+02  0.7818608E-02  0.1130116E+00
         25   -1    0    0    0    0  0.00000000000E+00  0.00000000000E+00  0.99999998245E-14  0.12500000000E+03  0.12500000000E+03 0.  0.
        -13    1    3    3    0    0  0.21263376838E+02 -0.10007518518E+02  0.26447489143E+02  0.35380255333E+02  0.10566000000E+00 0.  1.
         23    2    1    0    0    0 -0.26086684942E+02 -0.18755485058E+02 -0.44083045641E+01  0.92569821151E+02  0.86703259960E+02 0.  0.
         13    1    3    3    0    0 -0.47350061780E+02 -0.87479665406E+01 -0.30855793707E+02  0.57189565818E+02  0.10566000000E+00 0. -1.
         22    1    1    0    0    0  0.26086684942E+02  0.18755485058E+02  0.44083045641E+01  0.32430178849E+02  0.00000000000E+00 0. -1.
</event>
<event>
 5    1  0.9041381E-005  0.9118800E+02  0.7818608E-02  0.1130116E+00
         25   -1    0    0    0    0  0.00000000000E+00  0.00000000000E+00  0.99999998245E-14  0.12500000000E+03  0.12500000000E+03 0.  0.
        -13    1    3    3    0    0  0.32876363651E+02  0.22067956776E+02 -0.11894713640E+01  0.39614088521E+02  0.10566000000E+00 0.  1.
         23    2    1    0    0    0 -0.21985706026E+02  0.13096337563E+02  0.11980475120E+02  0.96743724394E+02  0.92525299775E+02 0.  0.
         13    1    3    3    0    0 -0.54862069677E+02 -0.89716192130E+01  0.13169946484E+02  0.57129635873E+02  0.10566000000E+00 0. -1.
         22    1    1    0    0    0  0.21985706026E+02 -0.13096337563E+02 -0.11980475120E+02  0.28256275606E+02  0.00000000000E+00 0. -1.
</event>
<event>
 5    1  0.9041381E-005  0.9118800E+02  0.7818608E-02  0.1130116E+00
         25   -1    0    0    0    0  0.00000000000E+00  0.00000000000E+00  0.99999998245E-14  0.12500000000E+03  0.12500000000E+03 0.  0.
        -13    1    3    3    0    0 -0.80341485716E+01 -0.28664600517E+02  0.30078434541E+02  0.42319383910E+02  0.10566000000E+00 0. -1.
         23    2    1    0    0    0  0.28168917723E+02 -0.62584850323E+01 -0.26526238936E+01  0.96022543692E+02  0.91545813246E+02 0.  0.
         13    1    3    3    0    0  0.36203066295E+02  0.22406115484E+02 -0.32731058435E+02  0.53703159782E+02  0.10566000000E+00 0.  1.
         22    1    1    0    0    0 -0.28168917723E+02  0.62584850323E+01  0.26526238936E+01  0.28977456308E+02  0.00000000000E+00 0.  1.
</event>
<event>
 5    1  0.9041381E-005  0.9118800E+02  0.7818608E-02  0.1130116E+00
         25   -1    0    0    0    0  0.00000000000E+00  0.00000000000E+00  0.99999998245E-14  0.12500000000E+03  0.12500000000E+03 0.  0.
        -13    1    3    3    0    0  0.18748442546E+02  0.12144793732E+02  0.31602555416E+02  0.38700552781E+02  0.10566000000E+00 0.  1.
         23    2    1    0    0    0  0.77521090719E+01 -0.18314484347E+02 -0.18157511782E+02  0.98070262421E+02  0.94300400875E+02 0.  0.
         13    1    3    3    0    0 -0.10996333474E+02 -0.30459278080E+02 -0.49760067199E+02  0.59369709639E+02  0.10566000000E+00 0. -1.
         22    1    1    0    0    0 -0.77521090719E+01  0.18314484347E+02  0.18157511782E+02  0.26929737579E+02  0.00000000000E+00 0. -1.
</event>
<event>
 5    1  0.9041381E-005  0.9118800E+02  0.7818608E-02  0.1130116E+00
         25   -1    0    0    0    0  0.00000000000E+00  0.00000000000E+00  0.99999998245E-14  0.12500000000E+03  0.12500000000E+03 0.  0.
        -13    1    3    3    0    0 -0.27345357912E+02 -0.14799697862E+02  0.20465093769E+02  0.37224063227E+02  0.10566000000E+00 0.  1.
         23    2    1    0    0    0  0.49290829773E+01  0.29245401976E+02  0.57968497325E+00  0.95336462949E+02  0.90604170639E+02 0.  0.
         13    1    3    3    0    0  0.32274440890E+02  0.44045099837E+02 -0.19885408796E+02  0.58112399722E+02  0.10566000000E+00 0. -1.
         22    1    1    0    0    0 -0.49290829773E+01 -0.29245401976E+02 -0.57968497325E+00  0.29663537051E+02  0.00000000000E+00 0. -1.
</event>
<event>
 5    1  0.9041381E-005  0.9118800E+02  0.7818608E-02  0.1130116E+00
         25   -1    0    0    0    0  0.00000000000E+00  0.00000000000E+00  0.99999998245E-14  0.12500000000E+03  0.12500000000E+03 0.  0.
        -13    1    3    3    0    0  0.31419879410E+02 -0.44667712650E+02  0.23947098622E+02  0.59631267569E+02  0.10566000000E+00 0.  1.
         23    2    1    0    0    0  0.13567618376E+02 -0.26237392825E+02 -0.10361694134E+01  0.95444041249E+02  0.90752467251E+02 0.  0.
         13    1    3    3    0    0 -0.17852261034E+02  0.18430319825E+02 -0.24983268035E+02  0.35812773679E+02  0.10566000000E+00 0. -1.
         22    1    1    0    0    0 -0.13567618376E+02  0.26237392825E+02  0.10361694134E+01  0.29555958751E+02  0.00000000000E+00 0.  1.
</event>
<event>
 5    1  0.9041381E-005  0.9118800E+02  0.7818608E-02  0.1130116E+00
         25   -1    0    0    0    0  0.00000000000E+00  0.00000000000E+00  0.99999998245E-14  0.12500000000E+03  0.12500000000E+03 0.  0.
        -13    1    3    3    0    0 -0.22903287883E+02 -0.98434758406E+01  0.22306175067E+02  0.33451924050E+02  0.10566000000E+00 0.  1.
         23    2    1    0    0    0  0.82275793523E+01  0.17140393211E+02 -0.23310774513E+02  0.94918804050E+02  0.90026112947E+02 0.  0.
         13    1    3    3    0    0  0.31130867236E+02  0.26983869051E+02 -0.45616949580E+02  0.61466879999E+02  0.10566000000E+00 0. -1.
         22    1    1    0    0    0 -0.82275793523E+01 -0.17140393211E+02  0.23310774513E+02  0.30081195950E+02  0.00000000000E+00 0. -1.
</event>
<event>
 5    1  0.9041381E-005  0.9118800E+02  0.7818608E-02  0.1130116E+00
         25   -1    0    0    0    0  0.00000000000E+00  0.00000000000E+00  0.99999998245E-14  0.12500000000E+03  0.12500000000E+03 0.  0.
        -13    1    3    3    0    0 -0.97970017010E+01 -0.13999915077E+02  0.43722164297E+02  0.46942706348E+02  0.10566000000E+00 0.  1.
         23    2    1    0    0    0 -0.33684154181E+01  0.24925441343E+02  0.15414928222E+02  0.95500104057E+02  0.90829653827E+02 0.  0.
         13    1    3    3    0    0  0.64285862829E+01  0.38925356420E+02 -0.28307236075E+02  0.48557397709E+02  0.10566000000E+00 0. -1.
         22    1    1    0    0    0  0.33684154181E+01 -0.24925441343E+02 -0.15414928222E+02  0.29499895943E+02  0.00000000000E+00 0.  1.
</event>
<event>
 5    1  0.9041381E-005  0.9118800E+02  0.7818608E-02  0.1130116E+00
         25   -1    0    0    0    0  0.00000000000E+00  0.00000000000E+00  0.99999998245E-14  0.12500000000E+03  0.12500000000E+03 0.  0.
        -13    1    3    3    0    0 -0.56193951209E+02  0.16628678904E+02  0.84772253114E+01  0.59212731972E+02  0.10566000000E+00 0.  1.
         23    2    1    0    0    0 -0.33813166833E+02  0.12656027877E+02 -0.88883538944E+01  0.87817905817E+02  0.79558006852E+02 0.  0.
         13    1    3    3    0    0  0.22380784377E+02 -0.39726510267E+01 -0.17365579206E+02  0.28605173845E+02  0.10566000000E+00 0. -1.
         22    1    1    0    0    0  0.33813166833E+02 -0.12656027877E+02  0.88883538944E+01  0.37182094183E+02  0.00000000000E+00 0.  1.
</event>
<event>
 5    1  0.9041381E-005  0.9118800E+02  0.7818608E-02  0.1130116E+00
         25   -1    0    0    0    0  0.00000000000E+00  0.00000000000E+00  0.99999998245E-14  0.12500000000E+03  0.12500000000E+03 0.  0.
        -13    1    3    3    0    0 -0.11951807547E+02 -0.57088724318E+02  0.53172627729E+01  0.58568358312E+02  0.10566000000E+00 0. -1.
         23    2    1    0    0    0  0.46523200451E+01 -0.24949031149E+02  0.14336864523E+02  0.95851347863E+02  0.91311756996E+02 0.  0.
         13    1    3    3    0    0  0.16604127592E+02  0.32139693169E+02  0.90196017503E+01  0.37282989551E+02  0.10566000000E+00 0.  1.
         22    1    1    0    0    0 -0.46523200451E+01  0.24949031149E+02 -0.14336864523E+02  0.29148652137E+02  0.00000000000E+00 0. -1.
</event>
<event>
 5    1  0.9041381E-005  0.9118800E+02  0.7818608E-02  0.1130116E+00
         25   -1    0    0    0    0  0.00000000000E+00  0.00000000000E+00  0.99999998245E-14  0.12500000000E+03  0.12500000000E+03 0.  0.
        -13    1    3    3    0    0  0.41735046915E+02  0.37508081916E+01 -0.10287429629E+02  0.43147712286E+02  0.10566000000E+00 0.  1.
         23    2    1    0    0    0  0.59475485515E+01 -0.24086291387E+02  0.15925015742E+02  0.95519007939E+02  0.90855665672E+02 0.  0.
         13    1    3    3    0    0 -0.35787498363E+02 -0.27837099578E+02  0.26212445371E+02  0.52371295653E+02  0.10566000000E+00 0. -1.
         22    1    1    0    0    0 -0.59475485515E+01  0.24086291387E+02 -0.15925015742E+02  0.29480992061E+02  0.00000000000E+00 0. -1.
</event>
<event>
 5    1  0.9041381E-005  0.9118800E+02  0.7818608E-02  0.1130116E+00
         25   -1    0    0    0    0  0.00000000000E+00  0.00000000000E+00  0.99999998245E-14  0.12500000000E+03  0.12500000000E+03 0.  0.
        -13    1    3    3    0    0  0.56896343081E+02 -0.22092118499E+02 -0.12822283855E+02  0.62367280549E+02  0.10566000000E+00 0.  1.
         23    2    1    0    0    0  0.26514879627E+02 -0.10586685697E+02 -0.30784613380E+01  0.96284260764E+02  0.91902476522E+02 0.  0.
         13    1    3    3    0    0 -0.30381463454E+02  0.11505432803E+02  0.97438225174E+01  0.33916980215E+02  0.10566000000E+00 0. -1.
         22    1    1    0    0    0 -0.26514879627E+02  0.10586685697E+02  0.30784613380E+01  0.28715739236E+02  0.00000000000E+00 0.  1.
</event>
<event>
 5    1  0.9041381E-005  0.9118800E+02  0.7818608E-02  0.1130116E+00
         25   -1    0    0    0    0  0.00000000000E+00  0.00000000000E+00  0.99999998245E-14  0.12500000000E+03  0.12500000000E+03 0.  0.
        -13    1    3    3    0    0 -0.12602600087E+02 -0.71081563702E+01 -0.30292272177E+02  0.33570587329E+02  0.10566000000E+00 0. -1.
         23    2    1    0    0    0  0.12904432720E+02  0.10623095599E+02  0.23781435914E+02  0.95932299057E+02  0.91422506881E+02 0.  0.
         13    1    3    3    0    0  0.25507032808E+02  0.17731251969E+02  0.54073708091E+02  0.62361711729E+02  0.10566000000E+00 0.  1.
         22    1    1    0    0    0 -0.12904432720E+02 -0.10623095599E+02 -0.23781435914E+02  0.29067700943E+02  0.00000000000E+00 0.  1.
</event>
<event>
 5    1  0.9041381E-005  0.9118800E+02  0.7818608E-02  0.1130116E+00
         25   -1    0    0    0    0  0.00000000000E+00  0.00000000000E+00  0.99999998245E-14  0.12500000000E+03  0.12500000000E+03 0.  0.
        -13    1    3    3    0    0 -0.48704042637E+01  0.44177454310E+02 -0.10876896930E+02  0.45756817611E+02  0.10566000000E+00 0.  1.
         23    2    1    0    0    0  0.27243364410E+02  0.83774777417E+01  0.42718574288E+01  0.96179316393E+02  0.91759626733E+02 0.  0.
         13    1    3    3    0    0  0.32113768674E+02 -0.35799976568E+02  0.15148754359E+02  0.50422498782E+02  0.10566000000E+00 0. -1.
         22    1    1    0    0    0 -0.27243364410E+02 -0.83774777417E+01 -0.42718574288E+01  0.28820683607E+02  0.00000000000E+00 0. -1.
</event>
<event>
 5    1  0.9041381E-005  0.9118800E+02  0.7818608E-02  0.1130116E+00
         25   -1    0    0    0    0  0.00000000000E+00  0.00000000000E+00  0.99999998245E-14  0.12500000000E+03  0.12500000000E+03 0.  0.
        -13    1    3    3    0    0  0.74609491850E+01  0.16786561216E+02  0.32108484841E+02  0.36992166238E+02  0.10566000000E+00 0.  1.
         23    2    1    0    0    0 -0.30728452020E+02  0.47870990750E+01 -0.71814217273E+01  0.93082498545E+02  0.87439262555E+02 0.  0.
         13    1    3    3    0    0 -0.38189401205E+02 -0.11999462141E+02 -0.39289906568E+02  0.56090332307E+02  0.10566000000E+00 0. -1.
         22    1    1    0    0    0  0.30728452020E+02 -0.47870990750E+01  0.71814217273E+01  0.31917501455E+02  0.00000000000E+00 0. -1.
</event>
<event>
 5    1  0.9041381E-005  0.9118800E+02  0.7818608E-02  0.1130116E+00
         25   -1    0    0    0    0  0.00000000000E+00  0.00000000000E+00  0.99999998245E-14  0.12500000000E+03  0.12500000000E+03 0.  0.
        -13    1    3    3    0    0  0.12959012998E+02  0.36523662245E+02 -0.44657175864E+02  0.59128575510E+02  0.10566000000E+00 0. -1.
         23    2    1    0    0    0  0.18673943379E+02  0.98066115816E+01 -0.20085609917E+02  0.95874109151E+02  0.91342910440E+02 0.  0.
         13    1    3    3    0    0  0.57149303810E+01 -0.26717050663E+02  0.24571565947E+02  0.36745533641E+02  0.10566000000E+00 0.  1.
         22    1    1    0    0    0 -0.18673943379E+02 -0.98066115816E+01  0.20085609917E+02  0.29125890849E+02  0.00000000000E+00 0. -1.
</event>
<event>
 5    1  0.9041381E-005  0.9118800E+02  0.7818608E-02  0.1130116E+00
         25   -1    0    0    0    0  0.00000000000E+00  0.00000000000E+00  0.99999998245E-14  0.12500000000E+03  0.12500000000E+03 0.  0.
        -13    1    3    3    0    0  0.44095650788E+02 -0.34862443133E+02  0.16482423710E+02  0.58578987828E+02  0.10566000000E+00 0.  1.
         23    2    1    0    0    0  0.25654246790E+02 -0.17003309429E+02 -0.70731717356E+01  0.93420217412E+02  0.87920727664E+02 0.  0.
         13    1    3    3    0    0 -0.18441403998E+02  0.17859133703E+02 -0.23555595445E+02  0.34841229583E+02  0.10566000000E+00 0. -1.
         22    1    1    0    0    0 -0.25654246790E+02  0.17003309429E+02  0.70731717356E+01  0.31579782588E+02  0.00000000000E+00 0.  1.
</event>
<event>
 5    1  0.9041381E-005  0.9118800E+02  0.7818608E-02  0.1130116E+00
         25   -1    0    0    0    0  0.00000000000E+00  0.00000000000E+00  0.99999998245E-14  0.12500000000E+03  0.12500000000E+03 0.  0.
        -13    1    3    3    0    0  0.54749580076E-01 -0.79963462199E+00  0.41241939611E+02  0.41249862545E+02  0.10566000000E+00 0.  1.
         23    2    1    0    0    0  0.19321425674E+02 -0.20612199514E+02 -0.61269914024E+01  0.96091172930E+02  0.91639474205E+02 0.  0.
         13    1    3    3    0    0  0.19266676094E+02 -0.19812564892E+02 -0.47368931014E+02  0.54841310385E+02  0.10566000000E+00 0. -1.
         22    1    1    0    0    0 -0.19321425674E+02  0.20612199514E+02  0.61269914024E+01  0.28908827070E+02  0.00000000000E+00 0. -1.
</event>
<event>
 5    1  0.9041381E-005  0.9118800E+02  0.7818608E-02  0.1130116E+00
         25   -1    0    0    0    0  0.00000000000E+00  0.00000000000E+00  0.99999998245E-14  0.12500000000E+03  0.12500000000E+03 0.  0.
        -13    1    3    3    0    0  0.53056068195E+02 -0.18091384202E+01 -0.26307414937E+02  0.59247874214E+02  0.10566000000E+00 0.  1.
         23    2    1    0    0    0  0.27649883516E+02  0.11261811480E+02 -0.53802894380E+01  0.94663685611E+02  0.89671184908E+02 0.  0.
         13    1    3    3    0    0 -0.25406184679E+02  0.13070949901E+02  0.20927125499E+02  0.35415811397E+02  0.10566000000E+00 0. -1.
         22    1    1    0    0    0 -0.27649883516E+02 -0.11261811480E+02  0.53802894380E+01  0.30336314389E+02  0.00000000000E+00 0.  1.
</event>
<event>
 5    1  0.9041381E-005  0.9118800E+02  0.7818608E-02  0.1130116E+00
         25   -1    0    0    0    0  0.00000000000E+00  0.00000000000E+00  0.99999998245E-14  0.12500000000E+03  0.12500000000E+03 0.  0.
        -13    1    3    3    0    0  0.26031658640E+02  0.24370561362E+02 -0.84646762955E+01  0.36650148997E+02  0.10566000000E+00 0.  1.
         23    2    1    0    0    0 -0.16992050073E+02  0.98571608742E+01 -0.31739094014E+02  0.87673555286E+02  0.79330881890E+02 0.  0.
         13    1    3    3    0    0 -0.43023708713E+02 -0.14513400488E+02 -0.23274417718E+02  0.51023406289E+02  0.10566000000E+00 0. -1.
         22    1    1    0    0    0  0.16992050073E+02 -0.98571608742E+01  0.31739094014E+02  0.37326444714E+02  0.00000000000E+00 0. -1.
</event>
<event>
 5    1  0.9041381E-005  0.9118800E+02  0.7818608E-02  0.1130116E+00
         25   -1    0    0    0    0  0.00000000000E+00  0.00000000000E+00  0.99999998245E-14  0.12500000000E+03  0.12500000000E+03 0.  0.
        -13    1    3    3    0    0 -0.29156994372E+02  0.30370818032E+02 -0.53991813359E+01  0.42446192195E+02  0.10566000000E+00 0.  1.
         23    2    1    0    0    0  0.13378653726E+02  0.49560598294E+01 -0.25389377299E+02  0.95876617913E+02  0.91346343540E+02 0.  0.
         13    1    3    3    0    0  0.42535648098E+02 -0.25414758203E+02 -0.19990195963E+02  0.53430425717E+02  0.10566000000E+00 0. -1.
         22    1    1    0    0    0 -0.13378653726E+02 -0.49560598294E+01  0.25389377299E+02  0.29123382087E+02  0.00000000000E+00 0.  1.
</event>
<event>
 5    1  0.9041381E-005  0.9118800E+02  0.7818608E-02  0.1130116E+00
         25   -1    0    0    0    0  0.00000000000E+00  0.00000000000E+00  0.99999998245E-14  0.12500000000E+03  0.12500000000E+03 0.  0.
        -13    1    3    3    0    0 -0.34213962843E+02  0.20440537058E+02 -0.31735164316E+02  0.50946468247E+02  0.10566000000E+00 0. -1.
         23    2    1    0    0    0  0.23105795605E+01  0.27821666858E+02 -0.54288158879E+01  0.96559606778E+02  0.92276224969E+02 0.  0.
         13    1    3    3    0    0  0.36524542404E+02  0.73811298004E+01  0.26306348429E+02  0.45613138531E+02  0.10566000000E+00 0.  1.
         22    1    1    0    0    0 -0.23105795605E+01 -0.27821666858E+02  0.54288158879E+01  0.28440393222E+02  0.00000000000E+00 0.  1.
</event>
<event>
 5    1  0.9041381E-005  0.9118800E+02  0.7818608E-02  0.1130116E+00
         25   -1    0    0    0    0  0.00000000000E+00  0.00000000000E+00  0.99999998245E-14  0.12500000000E+03  0.12500000000E+03 0.  0.
        -13    1    3    3    0    0  0.44530508536E+02  0.19546132798E+02  0.12111343784E+02  0.50116996220E+02  0.10566000000E+00 0.  1.
         23    2    1    0    0    0  0.19713610941E+02 -0.18017853079E+02  0.13321567931E+02  0.95154838616E+02  0.90353249272E+02 0.  0.
         13    1    3    3    0    0 -0.24816897595E+02 -0.37563985877E+02  0.12102241477E+01  0.45037842396E+02  0.10566000000E+00 0. -1.
         22    1    1    0    0    0 -0.19713610941E+02  0.18017853079E+02 -0.13321567931E+02  0.29845161384E+02  0.00000000000E+00 0.  1.
</event>
<event>
 5    1  0.9041381E-005  0.9118800E+02  0.7818608E-02  0.1130116E+00
         25   -1    0    0    0    0  0.00000000000E+00  0.00000000000E+00  0.99999998245E-14  0.12500000000E+03  0.12500000000E+03 0.  0.
        -13    1    3    3    0    0 -0.29613104326E+02 -0.26933000152E+02 -0.11274905893E+01  0.40045035199E+02  0.10566000000E+00 0.  1.
         23    2    1    0    0    0  0.19327020876E+02 -0.96975107185E+01 -0.20280987555E+02  0.95353855119E+02  0.90628162178E+02 0.  0.
         13    1    3    3    0    0  0.48940125202E+02  0.17235489434E+02 -0.19153496966E+02  0.55308819920E+02  0.10566000000E+00 0. -1.
         22    1    1    0    0    0 -0.19327020876E+02  0.96975107185E+01  0.20280987555E+02  0.29646144881E+02  0.00000000000E+00 0. -1.
</event>
<event>
 5    1  0.9041381E-005  0.9118800E+02  0.7818608E-02  0.1130116E+00
         25   -1    0    0    0    0  0.00000000000E+00  0.00000000000E+00  0.99999998245E-14  0.12500000000E+03  0.12500000000E+03 0.  0.
        -13    1    3    3    0    0 -0.18867985668E+02 -0.49839640276E+02 -0.23698350769E+02  0.58323353977E+02  0.10566000000E+00 0.  1.
         23    2    1    0    0    0 -0.20009309775E+02 -0.14539020194E+02 -0.18696344913E+02  0.93995018158E+02  0.88734179095E+02 0.  0.
         13    1    3    3    0    0 -0.11413241070E+01  0.35300620081E+02  0.50020058555E+01  0.35671664181E+02  0.10566000000E+00 0. -1.
         22    1    1    0    0    0  0.20009309775E+02  0.14539020194E+02  0.18696344913E+02  0.31004981842E+02  0.00000000000E+00 0.  1.
</event>
<event>
 5    1  0.9041381E-005  0.9118800E+02  0.7818608E-02  0.1130116E+00
         25   -1    0    0    0    0  0.00000000000E+00  0.00000000000E+00  0.99999998245E-14  0.12500000000E+03  0.12500000000E+03 0.  0.
        -13    1    3    3    0    0  0.47435817391E+02 -0.33335024199E+02  0.79707582420E+01  0.58522856739E+02  0.10566000000E+00 0. -1.
         23    2    1    0    0    0  0.27877929998E+02 -0.61830436439E+01 -0.76289869233E+01  0.95443098079E+02  0.90751168145E+02 0.  0.
         13    1    3    3    0    0 -0.19557887393E+02  0.27151980555E+02 -0.15599745165E+02  0.36920241340E+02  0.10566000000E+00 0.  1.
         22    1    1    0    0    0 -0.27877929998E+02  0.61830436439E+01  0.76289869233E+01  0.29556901921E+02  0.00000000000E+00 0. -1.
</event>
<event>
 5    1  0.9041381E-005  0.9118800E+02  0.7818608E-02  0.1130116E+00
         25   -1    0    0    0    0  0.00000000000E+00  0.00000000000E+00  0.99999998245E-14  0.12500000000E+03  0.12500000000E+03 0.  0.
        -13    1    3    3    0    0 -0.19585187981E+02  0.42643036494E+02 -0.16050602418E+02  0.49594769399E+02  0.10566000000E+00 0.  1.
         23    2    1    0    0    0 -0.13861899498E+02  0.21553450397E+02  0.20502182030E+02  0.92181667475E+02  0.86141841568E+02 0.  0.
         13    1    3    3    0    0  0.57232884832E+01 -0.21089586097E+02  0.36552784448E+02  0.42586898076E+02  0.10566000000E+00 0. -1.
         22    1    1    0    0    0  0.13861899498E+02 -0.21553450397E+02 -0.20502182030E+02  0.32818332525E+02  0.00000000000E+00 0.  1.
</event>
<event>
 5    1  0.9041381E-005  0.9118800E+02  0.7818608E-02  0.1130116E+00
         25   -1    0    0    0    0  0.00000000000E+00  0.00000000000E+00  0.99999998245E-14  0.12500000000E+03  0.12500000000E+03 0.  0.
        -13    1    3    3    0    0  0.22975147217E+02 -0.41040795869E+02 -0.62357677780E+01  0.47445761444E+02  0.10566000000E+00 0.  1.
         23    2    1    0    0    0  0.16229467980E+02 -0.28330431945E+01 -0.28428108196E+02  0.92143050960E+02  0.86085787096E+02 0.  0.
         13    1    3    3    0    0 -0.67456792371E+01  0.38207752675E+02 -0.22192340418E+02  0.44697289516E+02  0.10566000000E+00 0. -1.
         22    1    1    0    0    0 -0.16229467980E+02  0.28330431945E+01  0.28428108196E+02  0.32856949040E+02  0.00000000000E+00 0. -1.
</event>
<event>
 5    1  0.9041381E-005  0.9118800E+02  0.7818608E-02  0.1130116E+00
         25   -1    0    0    0    0  0.00000000000E+00  0.00000000000E+00  0.99999998245E-14  0.12500000000E+03  0.12500000000E+03 0.  0.
        -13    1    3    3    0    0  0.51753574892E+02  0.21289436443E+02 -0.18673718533E+02  0.58994843385E+02  0.10566000000E+00 0. -1.
         23    2    1    0    0    0  0.25896291316E+02 -0.37741224745E+01 -0.14037245130E+02  0.95303095191E+02  0.90558123864E+02 0.  0.
         13    1    3    3    0    0 -0.25857283576E+02 -0.25063558918E+02  0.46364734027E+01  0.36308251806E+02  0.10566000000E+00 0.  1.
         22    1    1    0    0    0 -0.25896291316E+02  0.37741224745E+01  0.14037245130E+02  0.29696904809E+02  0.00000000000E+00 0. -1.
</event>
<event>
 5    1  0.9041381E-005  0.9118800E+02  0.7818608E-02  0.1130116E+00
         25   -1    0    0    0    0  0.00000000000E+00  0.00000000000E+00  0.99999998245E-14  0.12500000000E+03  0.12500000000E+03 0.  0.
        -13    1    3    3    0    0 -0.45098460802E+02 -0.28646847703E+02  0.20057299229E+02  0.57068550590E+02  0.10566000000E+00 0.  1.
         23    2    1    0    0    0 -0.28708513559E+02  0.81927091147E+00  0.41656897090E-01  0.96279768614E+02  0.91896366377E+02 0.  0.
         13    1    3    3    0    0  0.16389947243E+02  0.29466118615E+02 -0.20015642332E+02  0.39211218023E+02  0.10566000000E+00 0. -1.
         22    1    1    0    0    0  0.28708513559E+02 -0.81927091147E+00 -0.41656897090E-01  0.28720231386E+02  0.00000000000E+00 0. -1.
</event>
<event>
 5    1  0.9041381E-005  0.9118800E+02  0.7818608E-02  0.1130116E+00
         25   -1    0    0    0    0  0.00000000000E+00  0.00000000000E+00  0.99999998245E-14  0.12500000000E+03  0.12500000000E+03 0.  0.
        -13    1    3    3    0    0 -0.19028886714E+02 -0.36883497581E+02  0.35553824236E+02  0.54649579186E+02  0.10566000000E+00 0.  1.
         23    2    1    0    0    0  0.83236238960E+01 -0.45969468638E+01  0.24987783690E+02  0.98264181910E+02  0.94557101677E+02 0.  0.
         13    1    3    3    0    0  0.27352510610E+02  0.32286550717E+02 -0.10566040546E+02  0.43614602724E+02  0.10566000000E+00 0. -1.
         22    1    1    0    0    0 -0.83236238960E+01  0.45969468638E+01 -0.24987783690E+02  0.26735818090E+02  0.00000000000E+00 0.  1.
</event>
<event>
 5    1  0.9041381E-005  0.9118800E+02  0.7818608E-02  0.1130116E+00
         25   -1    0    0    0    0  0.00000000000E+00  0.00000000000E+00  0.99999998245E-14  0.12500000000E+03  0.12500000000E+03 0.  0.
        -13    1    3    3    0    0  0.38551771840E+02 -0.70930329189E+01 -0.10787902364E+02  0.40656367637E+02  0.10566000000E+00 0. -1.
         23    2    1    0    0    0 -0.11754131919E+02 -0.26950779495E+02 -0.63346428596E+01  0.94922901857E+02  0.90031802516E+02 0.  0.
         13    1    3    3    0    0 -0.50305903758E+02 -0.19857746576E+02  0.44532595049E+01  0.54266534220E+02  0.10566000000E+00 0.  1.
         22    1    1    0    0    0  0.11754131919E+02  0.26950779495E+02  0.63346428596E+01  0.30077098143E+02  0.00000000000E+00 0.  1.
</event>
<event>
 5    1  0.9041381E-005  0.9118800E+02  0.7818608E-02  0.1130116E+00
         25   -1    0    0    0    0  0.00000000000E+00  0.00000000000E+00  0.99999998245E-14  0.12500000000E+03  0.12500000000E+03 0.  0.
        -13    1    3    3    0    0 -0.78857968414E+01 -0.18941602762E+02 -0.41502925596E+02  0.46297668452E+02  0.10566000000E+00 0.  1.
         23    2    1    0    0    0  0.21145806901E+02  0.11993914400E+02 -0.17543916504E+02  0.95020204497E+02  0.90166796129E+02 0.  0.
         13    1    3    3    0    0  0.29031603742E+02  0.30935517162E+02  0.23959009092E+02  0.48722536044E+02  0.10566000000E+00 0. -1.
         22    1    1    0    0    0 -0.21145806901E+02 -0.11993914400E+02  0.17543916504E+02  0.29979795503E+02  0.00000000000E+00 0. -1.
</event>
<event>
 5    1  0.9041381E-005  0.9118800E+02  0.7818608E-02  0.1130116E+00
         25   -1    0    0    0    0  0.00000000000E+00  0.00000000000E+00  0.99999998245E-14  0.12500000000E+03  0.12500000000E+03 0.  0.
        -13    1    3    3    0    0  0.22209961689E+02  0.36263871899E+01 -0.40755156905E+02  0.46555634037E+02  0.10566000000E+00 0. -1.
         23    2    1    0    0    0 -0.21273055841E+02  0.85482945716E+01 -0.17821424042E+02  0.95961759699E+02  0.91462778903E+02 0.  0.
         13    1    3    3    0    0 -0.43483017530E+02  0.49219073817E+01  0.22933732862E+02  0.49406125661E+02  0.10566000000E+00 0.  1.
         22    1    1    0    0    0  0.21273055841E+02 -0.85482945716E+01  0.17821424042E+02  0.29038240301E+02  0.00000000000E+00 0.  1.
</event>
<event>
 5    1  0.9041381E-005  0.9118800E+02  0.7818608E-02  0.1130116E+00
         25   -1    0    0    0    0  0.00000000000E+00  0.00000000000E+00  0.99999998245E-14  0.12500000000E+03  0.12500000000E+03 0.  0.
        -13    1    3    3    0    0 -0.39715072921E+02  0.92086909256E+01 -0.35577098961E+02  0.54109408980E+02  0.10566000000E+00 0.  1.
         23    2    1    0    0    0 -0.26058027306E+01  0.21601947996E+02 -0.87487060683E+01  0.10154847078E+03  0.98803429566E+02 0.  0.
         13    1    3    3    0    0  0.37109270190E+02  0.12393257070E+02  0.26828392892E+02  0.47439061796E+02  0.10566000000E+00 0. -1.
         22    1    1    0    0    0  0.26058027306E+01 -0.21601947996E+02  0.87487060683E+01  0.23451529224E+02  0.00000000000E+00 0.  1.
</event>
<event>
 5    1  0.9041381E-005  0.9118800E+02  0.7818608E-02  0.1130116E+00
         25   -1    0    0    0    0  0.00000000000E+00  0.00000000000E+00  0.99999998245E-14  0.12500000000E+03  0.12500000000E+03 0.  0.
        -13    1    3    3    0    0 -0.17964042653E+02 -0.27497077044E+02 -0.13002532060E+02  0.35325247040E+02  0.10566000000E+00 0.  1.
         23    2    1    0    0    0  0.46298881542E+01  0.11553276224E+02  0.26775701535E+02  0.95472855734E+02  0.90792146871E+02 0.  0.
         13    1    3    3    0    0  0.22593930807E+02  0.39050353268E+02  0.39778233595E+02  0.60147608694E+02  0.10566000000E+00 0. -1.
         22    1    1    0    0    0 -0.46298881542E+01 -0.11553276224E+02 -0.26775701535E+02  0.29527144266E+02  0.00000000000E+00 0. -1.
</event>
<event>
 5    1  0.9041381E-005  0.9118800E+02  0.7818608E-02  0.1130116E+00
         25   -1    0    0    0    0  0.00000000000E+00  0.00000000000E+00  0.99999998245E-14  0.12500000000E+03  0.12500000000E+03 0.  0.
        -13    1    3    3    0    0  0.42567303977E+02  0.36353248993E+02 -0.50939832437E+01  0.56209375637E+02  0.10566000000E+00 0.  1.
         23    2    1    0    0    0  0.18627365282E+02  0.11967980243E+02  0.17158691263E+02  0.96988717018E+02  0.92855690480E+02 0.  0.
         13    1    3    3    0    0 -0.23939938694E+02 -0.24385268750E+02  0.22252674506E+02  0.40779341381E+02  0.10566000000E+00 0. -1.
         22    1    1    0    0    0 -0.18627365282E+02 -0.11967980243E+02 -0.17158691263E+02  0.28011282982E+02  0.00000000000E+00 0.  1.
</event>
<event>
 5    1  0.9041381E-005  0.9118800E+02  0.7818608E-02  0.1130116E+00
         25   -1    0    0    0    0  0.00000000000E+00  0.00000000000E+00  0.99999998245E-14  0.12500000000E+03  0.12500000000E+03 0.  0.
        -13    1    3    3    0    0  0.20624111117E+02 -0.14259225569E+02  0.53570697932E+02  0.59148206348E+02  0.10566000000E+00 0.  1.
         23    2    1    0    0    0  0.21819195408E+02 -0.15024129403E+01  0.18958496404E+02  0.96055931198E+02  0.91591390422E+02 0.  0.
         13    1    3    3    0    0  0.11950842912E+01  0.12756812629E+02 -0.34612201528E+02  0.36907724850E+02  0.10566000000E+00 0. -1.
         22    1    1    0    0    0 -0.21819195408E+02  0.15024129403E+01 -0.18958496404E+02  0.28944068802E+02  0.00000000000E+00 0.  1.
</event>
<event>
 5    1  0.9041381E-005  0.9118800E+02  0.7818608E-02  0.1130116E+00
         25   -1    0    0    0    0  0.00000000000E+00  0.00000000000E+00  0.99999998245E-14  0.12500000000E+03  0.12500000000E+03 0.  0.
        -13    1    3    3    0    0 -0.50029153958E+01  0.25903288312E+02 -0.24277736318E+02  0.35852882068E+02  0.10566000000E+00 0.  1.
         23    2    1    0    0    0  0.16834434797E+02  0.70069022532E-01  0.24537483103E+02  0.95242796139E+02  0.90474853052E+02 0.  0.
         13    1    3    3    0    0  0.21837350193E+02 -0.25833219289E+02  0.48815219421E+02  0.59389914071E+02  0.10566000000E+00 0. -1.
         22    1    1    0    0    0 -0.16834434797E+02 -0.70069022532E-01 -0.24537483103E+02  0.29757203861E+02  0.00000000000E+00 0. -1.
</event>
<event>
 5    1  0.9041381E-005  0.9118800E+02  0.7818608E-02  0.1130116E+00
         25   -1    0    0    0    0  0.00000000000E+00  0.00000000000E+00  0.99999998245E-14  0.12500000000E+03  0.12500000000E+03 0.  0.
        -13    1    3    3    0    0  0.23880795345E+02  0.29842171557E+02 -0.20792436982E+02  0.43510736482E+02  0.10566000000E+00 0. -1.
         23    2    1    0    0    0 -0.16690997977E+02  0.22589649680E+02  0.10242324674E+02  0.95103730987E+02  0.90282516286E+02 0.  0.
         13    1    3    3    0    0 -0.40571793322E+02 -0.72525218773E+01  0.31034761656E+02  0.51592994505E+02  0.10566000000E+00 0.  1.
         22    1    1    0    0    0  0.16690997977E+02 -0.22589649680E+02 -0.10242324674E+02  0.29896269013E+02  0.00000000000E+00 0.  1.
</event>
<event>
 5    1  0.9041381E-005  0.9118800E+02  0.7818608E-02  0.1130116E+00
         25   -1    0    0    0    0  0.00000000000E+00  0.00000000000E+00  0.99999998245E-14  0.12500000000E+03  0.12500000000E+03 0.  0.
        -13    1    3    3    0    0 -0.28230507740E+01 -0.41083915724E+02 -0.12339902406E+02  0.42990023288E+02  0.10566000000E+00 0.  1.
         23    2    1    0    0    0 -0.17355365195E+02  0.74943148986E+01 -0.23430440925E+02  0.94894202904E+02  0.89991948117E+02 0.  0.
         13    1    3    3    0    0 -0.14532314421E+02  0.48578230623E+02 -0.11090538520E+02  0.51904179616E+02  0.10566000000E+00 0. -1.
         22    1    1    0    0    0  0.17355365195E+02 -0.74943148986E+01  0.23430440925E+02  0.30105797096E+02  0.00000000000E+00 0. -1.
</event>
<event>
 5    1  0.9041381E-005  0.9118800E+02  0.7818608E-02  0.1130116E+00
         25   -1    0    0    0    0  0.00000000000E+00  0.00000000000E+00  0.99999998245E-14  0.12500000000E+03  0.12500000000E+03 0.  0.
        -13    1    3    3    0    0 -0.36897398184E+02  0.12700831920E+01 -0.27150978170E+02  0.45828134194E+02  0.10566000000E+00 0. -1.
         23    2    1    0    0    0 -0.27173371583E+01  0.28485522483E+02 -0.18303189077E+01  0.96326685234E+02  0.91960161529E+02 0.  0.
         13    1    3    3    0    0  0.34180061026E+02  0.27215439291E+02  0.25320659263E+02  0.50498551039E+02  0.10566000000E+00 0.  1.
         22    1    1    0    0    0  0.27173371583E+01 -0.28485522483E+02  0.18303189077E+01  0.28673314766E+02  0.00000000000E+00 0. -1.
</event>
<event>
 5    1  0.9041381E-005  0.9118800E+02  0.7818608E-02  0.1130116E+00
         25   -1    0    0    0    0  0.00000000000E+00  0.00000000000E+00  0.99999998245E-14  0.12500000000E+03  0.12500000000E+03 0.  0.
        -13    1    3    3    0    0 -0.43560245347E+02  0.35650419491E+02  0.10545821822E+02  0.57268428531E+02  0.10566000000E+00 0. -1.
         23    2    1    0    0    0 -0.13820760206E+02  0.13352418206E+02  0.21639589910E+02  0.96059157993E+02  0.91595794108E+02 0.  0.
         13    1    3    3    0    0  0.29739485140E+02 -0.22298001285E+02  0.11093768088E+02  0.38790729461E+02  0.10566000000E+00 0.  1.
         22    1    1    0    0    0  0.13820760206E+02 -0.13352418206E+02 -0.21639589910E+02  0.28940842007E+02  0.00000000000E+00 0. -1.
</event>
<event>
 5    1  0.9041381E-005  0.9118800E+02  0.7818608E-02  0.1130116E+00
         25   -1    0    0    0    0  0.00000000000E+00  0.00000000000E+00  0.99999998245E-14  0.12500000000E+03  0.12500000000E+03 0.  0.
        -13    1    3    3    0    0  0.34367668580E+02  0.23249537621E+02  0.18352084229E+01  0.41533803067E+02  0.10566000000E+00 0. -1.
         23    2    1    0    0    0  0.10211141639E+02 -0.19346500119E+02 -0.20192675796E+02  0.95229231850E+02  0.90456110697E+02 0.  0.
         13    1    3    3    0    0 -0.24156526941E+02 -0.42596037740E+02 -0.22027884219E+02  0.53695428783E+02  0.10566000000E+00 0.  1.
         22    1    1    0    0    0 -0.10211141639E+02  0.19346500119E+02  0.20192675796E+02  0.29770768150E+02  0.00000000000E+00 0.  1.
</event>
<event>
 5    1  0.9041381E-005  0.9118800E+02  0.7818608E-02  0.1130116E+00
         25   -1    0    0    0    0  0.00000000000E+00  0.00000000000E+00  0.99999998245E-14  0.12500000000E+03  0.12500000000E+03 0.  0.
        -13    1    3    3    0    0  0.30427328546E+01  0.47255525346E+02  0.30575276898E+01  0.47452107841E+02  0.10566000000E+00 0.  1.
         23    2    1    0    0    0 -0.25602493373E+02  0.81255283445E+01  0.97875997410E+01  0.96411383620E+02  0.92075218735E+02 0.  0.
         13    1    3    3    0    0 -0.28645226228E+02 -0.39129997001E+02  0.67300720512E+01  0.48959275779E+02  0.10566000000E+00 0. -1.
         22    1    1    0    0    0  0.25602493373E+02 -0.81255283445E+01 -0.97875997410E+01  0.28588616380E+02  0.00000000000E+00 0. -1.
</event>
<event>
 5    1  0.9041381E-005  0.9118800E+02  0.7818608E-02  0.1130116E+00
         25   -1    0    0    0    0  0.00000000000E+00  0.00000000000E+00  0.99999998245E-14  0.12500000000E+03  0.12500000000E+03 0.  0.
        -13    1    3    3    0    0 -0.11371749398E+02 -0.65689941245E+00 -0.44163072274E+02  0.45608511464E+02  0.10566000000E+00 0.  1.
         23    2    1    0    0    0 -0.27617184569E+02 -0.32740693922E+01  0.43635284066E+01  0.96849177738E+02  0.92667655816E+02 0.  0.
         13    1    3    3    0    0 -0.16245435170E+02 -0.26171699797E+01  0.48526600681E+02  0.51240666274E+02  0.10566000000E+00 0. -1.
         22    1    1    0    0    0  0.27617184569E+02  0.32740693922E+01 -0.43635284066E+01  0.28150822262E+02  0.00000000000E+00 0. -1.
</event>
<event>
 5    1  0.9041381E-005  0.9118800E+02  0.7818608E-02  0.1130116E+00
         25   -1    0    0    0    0  0.00000000000E+00  0.00000000000E+00  0.99999998245E-14  0.12500000000E+03  0.12500000000E+03 0.  0.
        -13    1    3    3    0    0 -0.56654868830E+02  0.23789264309E+02 -0.40958537265E+01  0.61583199335E+02  0.10566000000E+00 0.  1.
         23    2    1    0    0    0 -0.28632173778E+02  0.54336236824E+01 -0.64019879091E+01  0.95161918782E+02  0.90363043859E+02 0.  0.
         13    1    3    3    0    0  0.28022695052E+02 -0.18355640626E+02 -0.23061341825E+01  0.33578719447E+02  0.10566000000E+00 0. -1.
         22    1    1    0    0    0  0.28632173778E+02 -0.54336236824E+01  0.64019879091E+01  0.29838081218E+02  0.00000000000E+00 0.  1.
</event>
<event>
 5    1  0.9041381E-005  0.9118800E+02  0.7818608E-02  0.1130116E+00
         25   -1    0    0    0    0  0.00000000000E+00  0.00000000000E+00  0.99999998245E-14  0.12500000000E+03  0.12500000000E+03 0.  0.
        -13    1    3    3    0    0  0.13244666968E+02  0.16057175510E+02 -0.48414557416E+02  0.52699474592E+02  0.10566000000E+00 0.  1.
         23    2    1    0    0    0  0.96623657857E+01 -0.17346475682E+02 -0.21382388102E+02  0.95820074501E+02  0.91268935708E+02 0.  0.
         13    1    3    3    0    0 -0.35823011821E+01 -0.33403651192E+02  0.27032169314E+02  0.43120599909E+02  0.10566000000E+00 0. -1.
         22    1    1    0    0    0 -0.96623657857E+01  0.17346475682E+02  0.21382388102E+02  0.29179925499E+02  0.00000000000E+00 0. -1.
</event>
<event>
 5    1  0.9041381E-005  0.9118800E+02  0.7818608E-02  0.1130116E+00
         25   -1    0    0    0    0  0.00000000000E+00  0.00000000000E+00  0.99999998245E-14  0.12500000000E+03  0.12500000000E+03 0.  0.
        -13    1    3    3    0    0  0.13406606185E+02  0.30042654256E+02 -0.13859186177E+02  0.35698548565E+02  0.10566000000E+00 0.  1.
         23    2    1    0    0    0  0.65812544807E+01 -0.24770204384E+02  0.12014144797E+02  0.96694247741E+02  0.92458433554E+02 0.  0.
         13    1    3    3    0    0 -0.68253517046E+01 -0.54812858640E+02  0.25873330974E+02  0.60995699175E+02  0.10566000000E+00 0. -1.
         22    1    1    0    0    0 -0.65812544807E+01  0.24770204384E+02 -0.12014144797E+02  0.28305752259E+02  0.00000000000E+00 0. -1.
</event>
<event>
 5    1  0.9041381E-005  0.9118800E+02  0.7818608E-02  0.1130116E+00
         25   -1    0    0    0    0  0.00000000000E+00  0.00000000000E+00  0.99999998245E-14  0.12500000000E+03  0.12500000000E+03 0.  0.
        -13    1    3    3    0    0  0.78101960134E+01  0.27780453031E+02  0.41488388106E+02  0.50537612172E+02  0.10566000000E+00 0. -1.
         23    2    1    0    0    0 -0.19860728466E+02  0.13155534204E+02  0.35255471051E+02  0.82450442371E+02  0.70623017443E+02 0.  0.
         13    1    3    3    0    0 -0.27670924480E+02 -0.14624918828E+02 -0.62329170546E+01  0.31912830199E+02  0.10566000000E+00 0.  1.
         22    1    1    0    0    0  0.19860728466E+02 -0.13155534204E+02 -0.35255471051E+02  0.42549557629E+02  0.00000000000E+00 0.  1.
</event>
<event>
 5    1  0.9041381E-005  0.9118800E+02  0.7818608E-02  0.1130116E+00
         25   -1    0    0    0    0  0.00000000000E+00  0.00000000000E+00  0.99999998245E-14  0.12500000000E+03  0.12500000000E+03 0.  0.
        -13    1    3    3    0    0 -0.41689065991E+01 -0.13928988368E+02  0.49974890320E+02  0.52047068368E+02  0.10566000000E+00 0.  1.
         23    2    1    0    0    0 -0.20064085633E+02  0.11310847818E+02  0.18057953001E+02  0.95732398847E+02  0.91148777895E+02 0.  0.
         13    1    3    3    0    0 -0.15895179034E+02  0.25239836186E+02 -0.31916937319E+02  0.43685330479E+02  0.10566000000E+00 0. -1.
         22    1    1    0    0    0  0.20064085633E+02 -0.11310847818E+02 -0.18057953001E+02  0.29267601153E+02  0.00000000000E+00 0. -1.
</event>
<event>
 5    1  0.9041381E-005  0.9118800E+02  0.7818608E-02  0.1130116E+00
         25   -1    0    0    0    0  0.00000000000E+00  0.00000000000E+00  0.99999998245E-14  0.12500000000E+03  0.12500000000E+03 0.  0.
        -13    1    3    3    0    0  0.43101415688E+02  0.66141983200E+01  0.22586993290E+02  0.49108686438E+02  0.10566000000E+00 0.  1.
         23    2    1    0    0    0  0.21405870035E+02  0.47156014372E+01 -0.18960425645E+02  0.96018179672E+02  0.91539854261E+02 0.  0.
         13    1    3    3    0    0 -0.21695545653E+02 -0.18985968828E+01 -0.41547418935E+02  0.46909493235E+02  0.10566000000E+00 0. -1.
         22    1    1    0    0    0 -0.21405870035E+02 -0.47156014372E+01  0.18960425645E+02  0.28981820328E+02  0.00000000000E+00 0.  1.
</event>
<event>
 5    1  0.9041381E-005  0.9118800E+02  0.7818608E-02  0.1130116E+00
         25   -1    0    0    0    0  0.00000000000E+00  0.00000000000E+00  0.99999998245E-14  0.12500000000E+03  0.12500000000E+03 0.  0.
        -13    1    3    3    0    0  0.16334394921E+02 -0.84041316044E+01 -0.32206830681E+02  0.37077391925E+02  0.10566000000E+00 0. -1.
         23    2    1    0    0    0 -0.97783778661E+01  0.26506919978E+02  0.71994809226E+01  0.95844108555E+02  0.91301846305E+02 0.  0.
         13    1    3    3    0    0 -0.26112772787E+02  0.34911051582E+02  0.39406311603E+02  0.58766716630E+02  0.10566000000E+00 0.  1.
         22    1    1    0    0    0  0.97783778661E+01 -0.26506919978E+02 -0.71994809226E+01  0.29155891445E+02  0.00000000000E+00 0.  1.
</event>
<event>
 5    1  0.9041381E-005  0.9118800E+02  0.7818608E-02  0.1130116E+00
         25   -1    0    0    0    0  0.00000000000E+00  0.00000000000E+00  0.99999998245E-14  0.12500000000E+03  0.12500000000E+03 0.  0.
        -13    1    3    3    0    0 -0.39672992674E+02  0.46703563823E+01 -0.90141060527E+01  0.40951481638E+02  0.10566000000E+00 0. -1.
         23    2    1    0    0    0  0.12827471910E+02  0.11644934612E+02 -0.23448966903E+02  0.95845196167E+02  0.91303335327E+02 0.  0.
         13    1    3    3    0    0  0.52500464583E+02  0.69745782301E+01 -0.14434860850E+02  0.54893714529E+02  0.10566000000E+00 0.  1.
         22    1    1    0    0    0 -0.12827471910E+02 -0.11644934612E+02  0.23448966903E+02  0.29154803833E+02  0.00000000000E+00 0.  1.
</event>
<event>
 5    1  0.9041381E-005  0.9118800E+02  0.7818608E-02  0.1130116E+00
         25   -1    0    0    0    0  0.00000000000E+00  0.00000000000E+00  0.99999998245E-14  0.12500000000E+03  0.12500000000E+03 0.  0.
        -13    1    3    3    0    0  0.29432835465E+02  0.47401174841E+02 -0.12486440381E+02  0.57175917459E+02  0.10566000000E+00 0.  1.
         23    2    1    0    0    0  0.27973684832E+00  0.34925000366E+02 -0.55632365034E+01  0.89633582262E+02  0.82361371804E+02 0.  0.
         13    1    3    3    0    0 -0.29153098617E+02 -0.12476174475E+02  0.69232038777E+01  0.32457664803E+02  0.10566000000E+00 0. -1.
         22    1    1    0    0    0 -0.27973684832E+00 -0.34925000366E+02  0.55632365034E+01  0.35366417738E+02  0.00000000000E+00 0.  1.
</event>
<event>
 5    1  0.9041381E-005  0.9118800E+02  0.7818608E-02  0.1130116E+00
         25   -1    0    0    0    0  0.00000000000E+00  0.00000000000E+00  0.99999998245E-14  0.12500000000E+03  0.12500000000E+03 0.  0.
        -13    1    3    3    0    0 -0.34827826124E+02  0.34855177998E+02  0.37948253540E+02  0.62192781065E+02  0.10566000000E+00 0. -1.
         23    2    1    0    0    0 -0.17198813858E+02  0.18936173885E+02  0.14379186266E+02  0.95654832132E+02  0.91042341978E+02 0.  0.
         13    1    3    3    0    0  0.17629012266E+02 -0.15919004113E+02 -0.23569067274E+02  0.33462051067E+02  0.10566000000E+00 0.  1.
         22    1    1    0    0    0  0.17198813858E+02 -0.18936173885E+02 -0.14379186266E+02  0.29345167868E+02  0.00000000000E+00 0. -1.
</event>
<event>
 5    1  0.9041381E-005  0.9118800E+02  0.7818608E-02  0.1130116E+00
         25   -1    0    0    0    0  0.00000000000E+00  0.00000000000E+00  0.99999998245E-14  0.12500000000E+03  0.12500000000E+03 0.  0.
        -13    1    3    3    0    0  0.23665374802E+02 -0.26335320954E+02  0.63076249636E+01  0.35963820584E+02  0.10566000000E+00 0. -1.
         23    2    1    0    0    0 -0.28403741561E+02  0.31295921573E+01  0.60430839887E+01  0.95792368363E+02  0.91230982077E+02 0.  0.
         13    1    3    3    0    0 -0.52069116363E+02  0.29464913111E+02 -0.26454097487E+00  0.59828547780E+02  0.10566000000E+00 0.  1.
         22    1    1    0    0    0  0.28403741561E+02 -0.31295921573E+01 -0.60430839887E+01  0.29207631637E+02  0.00000000000E+00 0.  1.
</event>
<event>
 5    1  0.9041381E-005  0.9118800E+02  0.7818608E-02  0.1130116E+00
         25   -1    0    0    0    0  0.00000000000E+00  0.00000000000E+00  0.99999998245E-14  0.12500000000E+03  0.12500000000E+03 0.  0.
        -13    1    3    3    0    0  0.20145674205E+02 -0.34131358774E+02  0.13094039684E+02  0.41740422617E+02  0.10566000000E+00 0.  1.
         23    2    1    0    0    0  0.21772395089E+02  0.99586534178E+01 -0.17425924949E+02  0.95387927696E+02  0.90675145017E+02 0.  0.
         13    1    3    3    0    0  0.16267208846E+01  0.44090012192E+02 -0.30519964634E+02  0.53647505079E+02  0.10566000000E+00 0. -1.
         22    1    1    0    0    0 -0.21772395089E+02 -0.99586534178E+01  0.17425924949E+02  0.29612072304E+02  0.00000000000E+00 0. -1.
</event>
<event>
 5    1  0.9041381E-005  0.9118800E+02  0.7818608E-02  0.1130116E+00
         25   -1    0    0    0    0  0.00000000000E+00  0.00000000000E+00  0.99999998245E-14  0.12500000000E+03  0.12500000000E+03 0.  0.
        -13    1    3    3    0    0 -0.44936412832E+02  0.83002824044E+01 -0.25872811439E+02  0.52512754851E+02  0.10566000000E+00 0. -1.
         23    2    1    0    0    0 -0.18390122057E+02 -0.21068717911E+02 -0.82816282355E+01  0.95833703870E+02  0.91287600295E+02 0.  0.
         13    1    3    3    0    0  0.26546290775E+02 -0.29369000315E+02  0.17591183204E+02  0.43320949020E+02  0.10566000000E+00 0.  1.
         22    1    1    0    0    0  0.18390122057E+02  0.21068717911E+02  0.82816282355E+01  0.29166296130E+02  0.00000000000E+00 0.  1.
</event>
<event>
 5    1  0.9041381E-005  0.9118800E+02  0.7818608E-02  0.1130116E+00
         25   -1    0    0    0    0  0.00000000000E+00  0.00000000000E+00  0.99999998245E-14  0.12500000000E+03  0.12500000000E+03 0.  0.
        -13    1    3    3    0    0 -0.47240991493E+02 -0.32212237606E+02 -0.67320084337E+01  0.57573176310E+02  0.10566000000E+00 0. -1.
         23    2    1    0    0    0 -0.30148060267E+02 -0.19537261512E+01 -0.11545517649E+02  0.92657743407E+02  0.86829924864E+02 0.  0.
         13    1    3    3    0    0  0.17092931227E+02  0.30258511455E+02 -0.48135092157E+01  0.35084567097E+02  0.10566000000E+00 0.  1.
         22    1    1    0    0    0  0.30148060267E+02  0.19537261512E+01  0.11545517649E+02  0.32342256593E+02  0.00000000000E+00 0. -1.
</event>
<event>
 5    1  0.9041381E-005  0.9118800E+02  0.7818608E-02  0.1130116E+00
         25   -1    0    0    0    0  0.00000000000E+00  0.00000000000E+00  0.99999998245E-14  0.12500000000E+03  0.12500000000E+03 0.  0.
        -13    1    3    3    0    0  0.45213832716E+02 -0.12443234431E+02  0.24186012431E+02  0.52764563045E+02  0.10566000000E+00 0.  1.
         23    2    1    0    0    0  0.16830978589E+02  0.17151338461E+02  0.19531894452E+02  0.94033160443E+02  0.88787893943E+02 0.  0.
         13    1    3    3    0    0 -0.28382854127E+02  0.29594572892E+02 -0.46541179785E+01  0.41268597399E+02  0.10566000000E+00 0. -1.
         22    1    1    0    0    0 -0.16830978589E+02 -0.17151338461E+02 -0.19531894452E+02  0.30966839557E+02  0.00000000000E+00 0.  1.
</event>
<event>
 5    1  0.9041381E-005  0.9118800E+02  0.7818608E-02  0.1130116E+00
         25   -1    0    0    0    0  0.00000000000E+00  0.00000000000E+00  0.99999998245E-14  0.12500000000E+03  0.12500000000E+03 0.  0.
        -13    1    3    3    0    0  0.37016000055E+02  0.83343259134E+00  0.20151864013E+02  0.42154331417E+02  0.10566000000E+00 0. -1.
         23    2    1    0    0    0  0.43648497103E+01 -0.27340270503E+02 -0.10845953265E+02  0.95264885970E+02  0.90505367202E+02 0.  0.
         13    1    3    3    0    0 -0.32651150345E+02 -0.28173703094E+02 -0.30997817278E+02  0.53110554553E+02  0.10566000000E+00 0.  1.
         22    1    1    0    0    0 -0.43648497103E+01  0.27340270503E+02  0.10845953265E+02  0.29735114030E+02  0.00000000000E+00 0.  1.
</event>
<event>
 5    1  0.9041381E-005  0.9118800E+02  0.7818608E-02  0.1130116E+00
         25   -1    0    0    0    0  0.00000000000E+00  0.00000000000E+00  0.99999998245E-14  0.12500000000E+03  0.12500000000E+03 0.  0.
        -13    1    3    3    0    0 -0.50571890668E+02 -0.25221249754E+02 -0.11621988762E+02  0.57694968167E+02  0.10566000000E+00 0. -1.
         23    2    1    0    0    0 -0.29821292228E+02  0.35351117010E+01 -0.10542808246E+02  0.93173010029E+02  0.87568558897E+02 0.  0.
         13    1    3    3    0    0  0.20750598440E+02  0.28756361455E+02  0.10791805159E+01  0.35478041862E+02  0.10566000000E+00 0.  1.
         22    1    1    0    0    0  0.29821292228E+02 -0.35351117010E+01  0.10542808246E+02  0.31826989971E+02  0.00000000000E+00 0.  1.
</event>
<event>
 5    1  0.9041381E-005  0.9118800E+02  0.7818608E-02  0.1130116E+00
         25   -1    0    0    0    0  0.00000000000E+00  0.00000000000E+00  0.99999998245E-14  0.12500000000E+03  0.12500000000E+03 0.  0.
        -13    1    3    3    0    0  0.22564535861E+02 -0.36685476471E+02 -0.44321167469E+02  0.61800966921E+02  0.10566000000E+00 0. -1.
         23    2    1    0    0    0  0.15911764630E+02 -0.17692316857E+02 -0.16902115562E+02  0.95812950819E+02  0.91259178742E+02 0.  0.
         13    1    3    3    0    0 -0.66527712310E+01  0.18993159613E+02  0.27419051907E+02  0.34011983898E+02  0.10566000000E+00 0.  1.
         22    1    1    0    0    0 -0.15911764630E+02  0.17692316857E+02  0.16902115562E+02  0.29187049181E+02  0.00000000000E+00 0. -1.
</event>
<event>
 5    1  0.9041381E-005  0.9118800E+02  0.7818608E-02  0.1130116E+00
         25   -1    0    0    0    0  0.00000000000E+00  0.00000000000E+00  0.99999998245E-14  0.12500000000E+03  0.12500000000E+03 0.  0.
        -13    1    3    3    0    0  0.29048438730E+01  0.61348017608E+02 -0.47781216999E+00  0.61418701149E+02  0.10566000000E+00 0. -1.
         23    2    1    0    0    0  0.95601555704E+01  0.29166183038E+02  0.63285557276E+00  0.94300434634E+02  0.89163381825E+02 0.  0.
         13    1    3    3    0    0  0.66553116974E+01 -0.32181834570E+02  0.11106677427E+01  0.32881733485E+02  0.10566000000E+00 0.  1.
         22    1    1    0    0    0 -0.95601555704E+01 -0.29166183038E+02 -0.63285557276E+00  0.30699565366E+02  0.00000000000E+00 0. -1.
</event>
<event>
 5    1  0.9041381E-005  0.9118800E+02  0.7818608E-02  0.1130116E+00
         25   -1    0    0    0    0  0.00000000000E+00  0.00000000000E+00  0.99999998245E-14  0.12500000000E+03  0.12500000000E+03 0.  0.
        -13    1    3    3    0    0 -0.20323081097E+02 -0.33980631244E+02  0.10813732694E+02  0.41044596524E+02  0.10566000000E+00 0. -1.
         23    2    1    0    0    0  0.26410217120E+02 -0.46203270133E+01  0.10414623825E+02  0.96236978958E+02  0.91838144251E+02 0.  0.
         13    1    3    3    0    0  0.46733298217E+02  0.29360304231E+02 -0.39910886903E+00  0.55192382434E+02  0.10566000000E+00 0.  1.
         22    1    1    0    0    0 -0.26410217120E+02  0.46203270133E+01 -0.10414623825E+02  0.28763021042E+02  0.00000000000E+00 0.  1.
</event>
<event>
 5    1  0.9041381E-005  0.9118800E+02  0.7818608E-02  0.1130116E+00
         25   -1    0    0    0    0  0.00000000000E+00  0.00000000000E+00  0.99999998245E-14  0.12500000000E+03  0.12500000000E+03 0.  0.
        -13    1    3    3    0    0 -0.47096690410E+02 -0.33240235922E+02  0.20120431208E+02  0.61056158148E+02  0.10566000000E+00 0.  1.
         23    2    1    0    0    0 -0.22359276285E+02 -0.22509756437E+02  0.27013818916E+01  0.93157829299E+02  0.87546886436E+02 0.  0.
         13    1    3    3    0    0  0.24737414125E+02  0.10730479485E+02 -0.17419049316E+02  0.32101671151E+02  0.10566000000E+00 0. -1.
         22    1    1    0    0    0  0.22359276285E+02  0.22509756437E+02 -0.27013818916E+01  0.31842170701E+02  0.00000000000E+00 0.  1.
</event>
<event>
 5    1  0.9041381E-005  0.9118800E+02  0.7818608E-02  0.1130116E+00
         25   -1    0    0    0    0  0.00000000000E+00  0.00000000000E+00  0.99999998245E-14  0.12500000000E+03  0.12500000000E+03 0.  0.
        -13    1    3    3    0    0 -0.27587722584E+02 -0.36884276144E+02  0.65143495899E+01  0.46518600352E+02  0.10566000000E+00 0.  1.
         23    2    1    0    0    0 -0.26446723802E+02  0.11902317386E+02 -0.14398639342E+01  0.95962652202E+02  0.91463998657E+02 0.  0.
         13    1    3    3    0    0  0.11409987822E+01  0.48786593530E+02 -0.79542135241E+01  0.49444051850E+02  0.10566000000E+00 0. -1.
         22    1    1    0    0    0  0.26446723802E+02 -0.11902317386E+02  0.14398639342E+01  0.29037347798E+02  0.00000000000E+00 0. -1.
</event>
<event>
 5    1  0.9041381E-005  0.9118800E+02  0.7818608E-02  0.1130116E+00
         25   -1    0    0    0    0  0.00000000000E+00  0.00000000000E+00  0.99999998245E-14  0.12500000000E+03  0.12500000000E+03 0.  0.
        -13    1    3    3    0    0  0.14745059445E+02 -0.35119742658E+02 -0.50870151001E+01  0.38427880361E+02  0.10566000000E+00 0. -1.
         23    2    1    0    0    0  0.14084033020E+02  0.10561311901E+02 -0.29814321987E+02  0.90376379583E+02  0.83481105023E+02 0.  0.
         13    1    3    3    0    0 -0.66102642468E+00  0.45681054559E+02 -0.24727306887E+02  0.51948499222E+02  0.10566000000E+00 0.  1.
         22    1    1    0    0    0 -0.14084033020E+02 -0.10561311901E+02  0.29814321987E+02  0.34623620417E+02  0.00000000000E+00 0.  1.
</event>
<event>
 5    1  0.9041381E-005  0.9118800E+02  0.7818608E-02  0.1130116E+00
         25   -1    0    0    0    0  0.00000000000E+00  0.00000000000E+00  0.99999998245E-14  0.12500000000E+03  0.12500000000E+03 0.  0.
        -13    1    3    3    0    0  0.48473587577E+02 -0.55041375797E+01 -0.38787576283E+02  0.62325528165E+02  0.10566000000E+00 0. -1.
         23    2    1    0    0    0  0.25529856420E+02 -0.47425611339E+01 -0.17084612519E+02  0.93917055482E+02  0.88624284880E+02 0.  0.
         13    1    3    3    0    0 -0.22943731157E+02  0.76157644581E+00  0.21702963763E+02  0.31591527317E+02  0.10566000000E+00 0.  1.
         22    1    1    0    0    0 -0.25529856420E+02  0.47425611339E+01  0.17084612519E+02  0.31082944518E+02  0.00000000000E+00 0. -1.
</event>
<event>
 5    1  0.9041381E-005  0.9118800E+02  0.7818608E-02  0.1130116E+00
         25   -1    0    0    0    0  0.00000000000E+00  0.00000000000E+00  0.99999998245E-14  0.12500000000E+03  0.12500000000E+03 0.  0.
        -13    1    3    3    0    0 -0.55069939507E+02  0.37225915770E+01 -0.99518394899E+01  0.56085704048E+02  0.10566000000E+00 0. -1.
         23    2    1    0    0    0 -0.23553302386E+02  0.19907284393E+02  0.34566708266E+01  0.93967652387E+02  0.88695620504E+02 0.  0.
         13    1    3    3    0    0  0.31516637121E+02  0.16184692816E+02  0.13408510317E+02  0.37881948338E+02  0.10566000000E+00 0.  1.
         22    1    1    0    0    0  0.23553302386E+02 -0.19907284393E+02 -0.34566708266E+01  0.31032347613E+02  0.00000000000E+00 0. -1.
</event>
<event>
 5    1  0.9041381E-005  0.9118800E+02  0.7818608E-02  0.1130116E+00
         25   -1    0    0    0    0  0.00000000000E+00  0.00000000000E+00  0.99999998245E-14  0.12500000000E+03  0.12500000000E+03 0.  0.
        -13    1    3    3    0    0  0.13895416097E+02  0.46740292287E+02  0.12865329272E+02  0.50430797861E+02  0.10566000000E+00 0. -1.
         23    2    1    0    0    0  0.11279311774E+02  0.18684440610E+02 -0.21154830066E+02  0.94604967016E+02  0.89589294862E+02 0.  0.
         13    1    3    3    0    0 -0.26161043232E+01 -0.28055851677E+02 -0.34020159338E+02  0.44174169155E+02  0.10566000000E+00 0.  1.
         22    1    1    0    0    0 -0.11279311774E+02 -0.18684440610E+02  0.21154830066E+02  0.30395032984E+02  0.00000000000E+00 0.  1.
</event>
<event>
 5    1  0.9041381E-005  0.9118800E+02  0.7818608E-02  0.1130116E+00
         25   -1    0    0    0    0  0.00000000000E+00  0.00000000000E+00  0.99999998245E-14  0.12500000000E+03  0.12500000000E+03 0.  0.
        -13    1    3    3    0    0 -0.18469576718E+02  0.58218041907E+02  0.36001289589E+01  0.61183639645E+02  0.10566000000E+00 0.  1.
         23    2    1    0    0    0 -0.79357795170E+00  0.18706719067E+02 -0.56429647659E+01  0.10544458756E+03  0.10361537961E+03 0.  0.
         13    1    3    3    0    0  0.17675998767E+02 -0.39511322840E+02 -0.92430937249E+01  0.44260947919E+02  0.10566000000E+00 0. -1.
         22    1    1    0    0    0  0.79357795170E+00 -0.18706719067E+02  0.56429647659E+01  0.19555412436E+02  0.00000000000E+00 0.  1.
</event>
<event>
 5    1  0.9041381E-005  0.9118800E+02  0.7818608E-02  0.1130116E+00
         25   -1    0    0    0    0  0.00000000000E+00  0.00000000000E+00  0.99999998245E-14  0.12500000000E+03  0.12500000000E+03 0.  0.
        -13    1    3    3    0    0  0.47813480496E+02 -0.30556718465E+01 -0.20758797155E+02  0.52214987033E+02  0.10566000000E+00 0. -1.
         23    2    1    0    0    0  0.19325185870E+02 -0.20890658288E+02  0.68701343708E+01  0.95724051529E+02  0.91137329795E+02 0.  0.
         13    1    3    3    0    0 -0.28488294625E+02 -0.17834986441E+02  0.27628931526E+02  0.43509064496E+02  0.10566000000E+00 0.  1.
         22    1    1    0    0    0 -0.19325185870E+02  0.20890658288E+02 -0.68701343708E+01  0.29275948471E+02  0.00000000000E+00 0. -1.
</event>
<event>
 4    1  0.9041381E-005  0.9118800E+02  0.7818608E-02  0.1130116E+00
         25   -1    0    0    0    0  0.00000000000E+00  0.00000000000E+00  0.99999998245E-14  0.12500000000E+03  0.12500000000E+03 0.  0.
        -13    1    1    0    0    0  0.47811250379E+02 -0.26439524640E+02  0.27422220809E+02  0.61130626400E+02  0.10566000000E+00 0. -1.
         13    1    1    0    0    0 -0.37945652825E+01  0.74434499403E+01 -0.95903154838E+01  0.12719630019E+02  0.10566000000E+00 0.  1.
         22    1    1    0    0    0 -0.44016685096E+02  0.18996074700E+02 -0.17831905326E+02  0.51149743581E+02  0.00000000000E+00 0. -1.
</event>
<event>
 5    1  0.9041381E-005  0.9118800E+02  0.7818608E-02  0.1130116E+00
         25   -1    0    0    0    0  0.00000000000E+00  0.00000000000E+00  0.99999998245E-14  0.12500000000E+03  0.12500000000E+03 0.  0.
        -13    1    3    3    0    0  0.29215127088E+02  0.66610252656E+01  0.31960794429E+02  0.43810917052E+02  0.10566000000E+00 0.  1.
         23    2    1    0    0    0  0.24173003722E+02  0.20171220844E+01 -0.18348410592E+02  0.94585084880E+02  0.89561549898E+02 0.  0.
         13    1    3    3    0    0 -0.50421233661E+01 -0.46439031812E+01 -0.50309205021E+02  0.50774167828E+02  0.10566000000E+00 0. -1.
         22    1    1    0    0    0 -0.24173003722E+02 -0.20171220844E+01  0.18348410592E+02  0.30414915120E+02  0.00000000000E+00 0. -1.
</event>
<event>
 5    1  0.9041381E-005  0.9118800E+02  0.7818608E-02  0.1130116E+00
         25   -1    0    0    0    0  0.00000000000E+00  0.00000000000E+00  0.99999998245E-14  0.12500000000E+03  0.12500000000E+03 0.  0.
        -13    1    3    3    0    0 -0.11297926159E+02  0.39495485890E+02  0.16739394819E+02  0.44359385074E+02  0.10566000000E+00 0. -1.
         23    2    1    0    0    0 -0.10874488989E+02  0.96981159567E+01 -0.25249070760E+02  0.95848266979E+02  0.91307539364E+02 0.  0.
         13    1    3    3    0    0  0.42343717037E+00 -0.29797369934E+02 -0.41988465580E+02  0.51488881904E+02  0.10566000000E+00 0.  1.
         22    1    1    0    0    0  0.10874488989E+02 -0.96981159567E+01  0.25249070760E+02  0.29151733021E+02  0.00000000000E+00 0.  1.
</event>
<event>
 5    1  0.9041381E-005  0.9118800E+02  0.7818608E-02  0.1130116E+00
         25   -1    0    0    0    0  0.00000000000E+00  0.00000000000E+00  0.99999998245E-14  0.12500000000E+03  0.12500000000E+03 0.  0.
        -13    1    3    3    0    0 -0.26740485600E+02  0.82598838256E+01  0.22660370252E+02  0.36010870511E+02  0.10566000000E+00 0.  1.
         23    2    1    0    0    0  0.21641850122E+02  0.23378566876E+02 -0.33180528578E+01  0.92969755845E+02  0.87277940863E+02 0.  0.
         13    1    3    3    0    0  0.48382335723E+02  0.15118683050E+02 -0.25978423110E+02  0.56958885334E+02  0.10566000000E+00 0. -1.
         22    1    1    0    0    0 -0.21641850122E+02 -0.23378566876E+02  0.33180528578E+01  0.32030244155E+02  0.00000000000E+00 0.  1.
</event>
<event>
 5    1  0.9041381E-005  0.9118800E+02  0.7818608E-02  0.1130116E+00
         25   -1    0    0    0    0  0.00000000000E+00  0.00000000000E+00  0.99999998245E-14  0.12500000000E+03  0.12500000000E+03 0.  0.
        -13    1    3    3    0    0 -0.14894251022E+02  0.33432198088E+02  0.24277717194E+01  0.36680455587E+02  0.10566000000E+00 0. -1.
         23    2    1    0    0    0  0.56761427058E+01 -0.19382230466E+02 -0.18996552370E+02  0.97273506247E+02  0.93238278415E+02 0.  0.
         13    1    3    3    0    0  0.20570393728E+02 -0.52814428554E+02 -0.21424324089E+02  0.60593050661E+02  0.10566000000E+00 0.  1.
         22    1    1    0    0    0 -0.56761427058E+01  0.19382230466E+02  0.18996552370E+02  0.27726493753E+02  0.00000000000E+00 0.  1.
</event>
<event>
 5    1  0.9041381E-005  0.9118800E+02  0.7818608E-02  0.1130116E+00
         25   -1    0    0    0    0  0.00000000000E+00  0.00000000000E+00  0.99999998245E-14  0.12500000000E+03  0.12500000000E+03 0.  0.
        -13    1    3    3    0    0 -0.16955657334E+02 -0.20171205644E+02 -0.29757437022E+02  0.39747805913E+02  0.10566000000E+00 0.  1.
         23    2    1    0    0    0  0.16393351534E+02  0.21158066091E+02 -0.10830561117E+02  0.96126018817E+02  0.91686993103E+02 0.  0.
         13    1    3    3    0    0  0.33349008868E+02  0.41329271736E+02  0.18926875905E+02  0.56378212904E+02  0.10566000000E+00 0. -1.
         22    1    1    0    0    0 -0.16393351534E+02 -0.21158066091E+02  0.10830561117E+02  0.28873981183E+02  0.00000000000E+00 0. -1.
</event>
<event>
 5    1  0.9041381E-005  0.9118800E+02  0.7818608E-02  0.1130116E+00
         25   -1    0    0    0    0  0.00000000000E+00  0.00000000000E+00  0.99999998245E-14  0.12500000000E+03  0.12500000000E+03 0.  0.
        -13    1    3    3    0    0  0.47718863065E+02  0.23932901568E+02 -0.44391257763E+01  0.53568560476E+02  0.10566000000E+00 0.  1.
         23    2    1    0    0    0  0.26609231395E+02 -0.10521535358E+02  0.69580720667E+01  0.95552272268E+02  0.90901419499E+02 0.  0.
         13    1    3    3    0    0 -0.21109631671E+02 -0.34454436926E+02  0.11397197843E+02  0.41983711792E+02  0.10566000000E+00 0. -1.
         22    1    1    0    0    0 -0.26609231395E+02  0.10521535358E+02 -0.69580720667E+01  0.29447727732E+02  0.00000000000E+00 0.  1.
</event>
<event>
 5    1  0.9041381E-005  0.9118800E+02  0.7818608E-02  0.1130116E+00
         25   -1    0    0    0    0  0.00000000000E+00  0.00000000000E+00  0.99999998245E-14  0.12500000000E+03  0.12500000000E+03 0.  0.
        -13    1    3    3    0    0  0.21457314103E+02 -0.26009768396E+02  0.37785465918E+02  0.50642639931E+02  0.10566000000E+00 0. -1.
         23    2    1    0    0    0  0.28543019719E+02 -0.59254472909E+01 -0.20103710921E+01  0.95779177078E+02  0.91212906267E+02 0.  0.
         13    1    3    3    0    0  0.70857056157E+01  0.20084321105E+02 -0.39795837010E+02  0.45136537147E+02  0.10566000000E+00 0.  1.
         22    1    1    0    0    0 -0.28543019719E+02  0.59254472909E+01  0.20103710921E+01  0.29220822922E+02  0.00000000000E+00 0.  1.
</event>
<event>
 5    1  0.9041381E-005  0.9118800E+02  0.7818608E-02  0.1130116E+00
         25   -1    0    0    0    0  0.00000000000E+00  0.00000000000E+00  0.99999998245E-14  0.12500000000E+03  0.12500000000E+03 0.  0.
        -13    1    3    3    0    0 -0.40188415531E+02  0.23128979225E+02  0.16045305484E+02  0.49066499926E+02  0.10566000000E+00 0. -1.
         23    2    1    0    0    0 -0.28111643864E+02 -0.14769491646E+02 -0.28775829858E+01  0.93114534846E+02  0.87485048503E+02 0.  0.
         13    1    3    3    0    0  0.12076771667E+02 -0.37898470871E+02 -0.18922888470E+02  0.44048034920E+02  0.10566000000E+00 0.  1.
         22    1    1    0    0    0  0.28111643864E+02  0.14769491646E+02  0.28775829858E+01  0.31885465154E+02  0.00000000000E+00 0.  1.
</event>
<event>
 5    1  0.9041381E-005  0.9118800E+02  0.7818608E-02  0.1130116E+00
         25   -1    0    0    0    0  0.00000000000E+00  0.00000000000E+00  0.99999998245E-14  0.12500000000E+03  0.12500000000E+03 0.  0.
        -13    1    3    3    0    0  0.32783054461E+02  0.80543402787E+01  0.63060312542E+01  0.34342076980E+02  0.10566000000E+00 0.  1.
         23    2    1    0    0    0 -0.28487608275E+02  0.20596760105E+01  0.55149461352E+01  0.95910470588E+02  0.91392656418E+02 0.  0.
         13    1    3    3    0    0 -0.61270662736E+02 -0.59946642681E+01 -0.79108511897E+00  0.61568393608E+02  0.10566000000E+00 0. -1.
         22    1    1    0    0    0  0.28487608275E+02 -0.20596760105E+01 -0.55149461352E+01  0.29089529412E+02  0.00000000000E+00 0. -1.
</event>
<event>
 5    1  0.9041381E-005  0.9118800E+02  0.7818608E-02  0.1130116E+00
         25   -1    0    0    0    0  0.00000000000E+00  0.00000000000E+00  0.99999998245E-14  0.12500000000E+03  0.12500000000E+03 0.  0.
        -13    1    3    3    0    0  0.58402708166E+02  0.73417609274E+01 -0.13535170858E+02  0.60398590951E+02  0.10566000000E+00 0. -1.
         23    2    1    0    0    0  0.27229668417E+02  0.10685558555E+02  0.25531051611E+01  0.95637535020E+02  0.91018590161E+02 0.  0.
         13    1    3    3    0    0 -0.31173039749E+02  0.33437976275E+01  0.16088276019E+02  0.35238944069E+02  0.10566000000E+00 0.  1.
         22    1    1    0    0    0 -0.27229668417E+02 -0.10685558555E+02 -0.25531051611E+01  0.29362464980E+02  0.00000000000E+00 0. -1.
</event>
<event>
 5    1  0.9041381E-005  0.9118800E+02  0.7818608E-02  0.1130116E+00
         25   -1    0    0    0    0  0.00000000000E+00  0.00000000000E+00  0.99999998245E-14  0.12500000000E+03  0.12500000000E+03 0.  0.
        -13    1    3    3    0    0 -0.47824384894E+02 -0.20053450290E+02  0.21279958723E+02  0.56054977177E+02  0.10566000000E+00 0.  1.
         23    2    1    0    0    0 -0.22577877455E+02  0.92191972025E+01  0.17679480403E+02  0.94878277361E+02  0.89969824610E+02 0.  0.
         13    1    3    3    0    0  0.25246507439E+02  0.29272647492E+02 -0.36004783202E+01  0.38823300185E+02  0.10566000000E+00 0. -1.
         22    1    1    0    0    0  0.22577877455E+02 -0.92191972025E+01 -0.17679480403E+02  0.30121722639E+02  0.00000000000E+00 0.  1.
</event>
<event>
 5    1  0.9041381E-005  0.9118800E+02  0.7818608E-02  0.1130116E+00
         25   -1    0    0    0    0  0.00000000000E+00  0.00000000000E+00  0.99999998245E-14  0.12500000000E+03  0.12500000000E+03 0.  0.
        -13    1    3    3    0    0  0.33007523832E+02  0.31397313773E+02 -0.34357739249E+02  0.57059209178E+02  0.10566000000E+00 0. -1.
         23    2    1    0    0    0  0.20157570403E+02 -0.19325668329E+01 -0.31227506280E+01  0.10451063616E+03  0.10248248162E+03 0.  0.
         13    1    3    3    0    0 -0.12849953429E+02 -0.33329880606E+02  0.31234988621E+02  0.47451426981E+02  0.10566000000E+00 0.  1.
         22    1    1    0    0    0 -0.20157570403E+02  0.19325668329E+01  0.31227506280E+01  0.20489363841E+02  0.00000000000E+00 0. -1.
</event>
<event>
 5    1  0.9041381E-005  0.9118800E+02  0.7818608E-02  0.1130116E+00
         25   -1    0    0    0    0  0.00000000000E+00  0.00000000000E+00  0.99999998245E-14  0.12500000000E+03  0.12500000000E+03 0.  0.
        -13    1    3    3    0    0  0.52844463481E+02  0.63911683641E+01  0.19073935629E+02  0.56543881527E+02  0.10566000000E+00 0. -1.
         23    2    1    0    0    0  0.26952962791E+02  0.43279833351E+01 -0.10362369865E+02  0.95801158376E+02  0.91243024906E+02 0.  0.
         13    1    3    3    0    0 -0.25891500690E+02 -0.20631850290E+01 -0.29436305494E+02  0.39257276849E+02  0.10566000000E+00 0.  1.
         22    1    1    0    0    0 -0.26952962791E+02 -0.43279833351E+01  0.10362369865E+02  0.29198841624E+02  0.00000000000E+00 0. -1.
</event>
<event>
 5    1  0.9041381E-005  0.9118800E+02  0.7818608E-02  0.1130116E+00
         25   -1    0    0    0    0  0.00000000000E+00  0.00000000000E+00  0.99999998245E-14  0.12500000000E+03  0.12500000000E+03 0.  0.
        -13    1    3    3    0    0 -0.11435967099E+02  0.21076207616E+02  0.27143917163E+02  0.36218659196E+02  0.10566000000E+00 0.  1.
         23    2    1    0    0    0 -0.16808681261E+01 -0.24976692781E+01 -0.27926467671E+02  0.96911723690E+02  0.92751986083E+02 0.  0.
         13    1    3    3    0    0  0.97550989729E+01 -0.23573876895E+02 -0.55070384834E+02  0.60693064494E+02  0.10566000000E+00 0. -1.
         22    1    1    0    0    0  0.16808681261E+01  0.24976692781E+01  0.27926467671E+02  0.28088276310E+02  0.00000000000E+00 0. -1.
</event>
<event>
 5    1  0.9041381E-005  0.9118800E+02  0.7818608E-02  0.1130116E+00
         25   -1    0    0    0    0  0.00000000000E+00  0.00000000000E+00  0.99999998245E-14  0.12500000000E+03  0.12500000000E+03 0.  0.
        -13    1    3    3    0    0 -0.28650451790E+02 -0.14019397876E+02  0.86327676159E+01  0.33044330003E+02  0.10566000000E+00 0.  1.
         23    2    1    0    0    0  0.27818344267E+02  0.96616031264E+01 -0.30907509491E+01  0.95389873453E+02  0.90677827297E+02 0.  0.
         13    1    3    3    0    0  0.56468796056E+02  0.23681001003E+02 -0.11723518565E+02  0.62345543450E+02  0.10566000000E+00 0. -1.
         22    1    1    0    0    0 -0.27818344267E+02 -0.96616031264E+01  0.30907509491E+01  0.29610126547E+02  0.00000000000E+00 0. -1.
</event>
<event>
 5    1  0.9041381E-005  0.9118800E+02  0.7818608E-02  0.1130116E+00
         25   -1    0    0    0    0  0.00000000000E+00  0.00000000000E+00  0.99999998245E-14  0.12500000000E+03  0.12500000000E+03 0.  0.
        -13    1    3    3    0    0 -0.22429082422E+02 -0.16341064723E+02 -0.25309634110E+02  0.37559058526E+02  0.10566000000E+00 0.  1.
         23    2    1    0    0    0  0.27392223439E+02 -0.72149082907E+01  0.44817446802E+01  0.96321177814E+02  0.91952675075E+02 0.  0.
         13    1    3    3    0    0  0.49821305861E+02  0.91261564320E+01  0.29791378790E+02  0.58762119288E+02  0.10566000000E+00 0. -1.
         22    1    1    0    0    0 -0.27392223439E+02  0.72149082907E+01 -0.44817446802E+01  0.28678822186E+02  0.00000000000E+00 0. -1.
</event>
<event>
 5    1  0.9041381E-005  0.9118800E+02  0.7818608E-02  0.1130116E+00
         25   -1    0    0    0    0  0.00000000000E+00  0.00000000000E+00  0.99999998245E-14  0.12500000000E+03  0.12500000000E+03 0.  0.
        -13    1    3    3    0    0 -0.55750664050E+02  0.13910459994E+02 -0.14953923166E+02  0.59373970908E+02  0.10566000000E+00 0. -1.
         23    2    1    0    0    0 -0.29007672133E+02 -0.66790964027E+01 -0.34383468207E+01  0.95035394210E+02  0.90187851468E+02 0.  0.
         13    1    3    3    0    0  0.26742991918E+02 -0.20589556396E+02  0.11515576346E+02  0.35661423302E+02  0.10566000000E+00 0.  1.
         22    1    1    0    0    0  0.29007672133E+02  0.66790964027E+01  0.34383468207E+01  0.29964605790E+02  0.00000000000E+00 0. -1.
</event>
<event>
 5    1  0.9041381E-005  0.9118800E+02  0.7818608E-02  0.1130116E+00
         25   -1    0    0    0    0  0.00000000000E+00  0.00000000000E+00  0.99999998245E-14  0.12500000000E+03  0.12500000000E+03 0.  0.
        -13    1    3    3    0    0  0.19661132599E+02 -0.26652653857E+02 -0.52951149282E+02  0.62456060290E+02  0.10566000000E+00 0. -1.
         23    2    1    0    0    0  0.94481656177E+01 -0.10888726905E+02 -0.25233081353E+02  0.95939019257E+02  0.91431694802E+02 0.  0.
         13    1    3    3    0    0 -0.10212966981E+02  0.15763926951E+02  0.27718067928E+02  0.33482958967E+02  0.10566000000E+00 0.  1.
         22    1    1    0    0    0 -0.94481656177E+01  0.10888726905E+02  0.25233081353E+02  0.29060980743E+02  0.00000000000E+00 0. -1.
</event>
<event>
 5    1  0.9041381E-005  0.9118800E+02  0.7818608E-02  0.1130116E+00
         25   -1    0    0    0    0  0.00000000000E+00  0.00000000000E+00  0.99999998245E-14  0.12500000000E+03  0.12500000000E+03 0.  0.
        -13    1    3    3    0    0 -0.46924737892E+02  0.29137489450E+02 -0.17137743762E+02  0.57832843117E+02  0.10566000000E+00 0. -1.
         23    2    1    0    0    0 -0.29126011331E+02 -0.16276985142E+01 -0.49234072872E+01  0.95415986110E+02  0.90713816629E+02 0.  0.
         13    1    3    3    0    0  0.17798726561E+02 -0.30765187965E+02  0.12214336475E+02  0.37583142993E+02  0.10566000000E+00 0.  1.
         22    1    1    0    0    0  0.29126011331E+02  0.16276985142E+01  0.49234072872E+01  0.29584013890E+02  0.00000000000E+00 0. -1.
</event>
<event>
 5    1  0.9041381E-005  0.9118800E+02  0.7818608E-02  0.1130116E+00
         25   -1    0    0    0    0  0.00000000000E+00  0.00000000000E+00  0.99999998245E-14  0.12500000000E+03  0.12500000000E+03 0.  0.
        -13    1    3    3    0    0  0.13588614506E+02 -0.46632331053E+02  0.36324219563E+02  0.60652162653E+02  0.10566000000E+00 0. -1.
         23    2    1    0    0    0 -0.33864462189E+01 -0.23697751138E+02  0.21582191883E+02  0.92768921311E+02  0.86989828875E+02 0.  0.
         13    1    3    3    0    0 -0.16975060725E+02  0.22934579916E+02 -0.14742027680E+02  0.32116758658E+02  0.10566000000E+00 0.  1.
         22    1    1    0    0    0  0.33864462189E+01  0.23697751138E+02 -0.21582191883E+02  0.32231078689E+02  0.00000000000E+00 0. -1.
</event>
<event>
 5    1  0.9041381E-005  0.9118800E+02  0.7818608E-02  0.1130116E+00
         25   -1    0    0    0    0  0.00000000000E+00  0.00000000000E+00  0.99999998245E-14  0.12500000000E+03  0.12500000000E+03 0.  0.
        -13    1    3    3    0    0  0.31635287844E+02 -0.24646623443E+02 -0.60226717441E+01  0.40552820162E+02  0.10566000000E+00 0.  1.
         23    2    1    0    0    0  0.24096553139E+01  0.10382107772E+02  0.26406090983E+02  0.96524111226E+02  0.92228129149E+02 0.  0.
         13    1    3    3    0    0 -0.29225632530E+02  0.35028731214E+02  0.32428762727E+02  0.55971291063E+02  0.10566000000E+00 0. -1.
         22    1    1    0    0    0 -0.24096553139E+01 -0.10382107772E+02 -0.26406090983E+02  0.28475888774E+02  0.00000000000E+00 0. -1.
</event>
<event>
 5    1  0.9041381E-005  0.9118800E+02  0.7818608E-02  0.1130116E+00
         25   -1    0    0    0    0  0.00000000000E+00  0.00000000000E+00  0.99999998245E-14  0.12500000000E+03  0.12500000000E+03 0.  0.
        -13    1    3    3    0    0  0.58720299675E+02  0.20217837858E+01  0.61755084207E+00  0.58758435451E+02  0.10566000000E+00 0. -1.
         23    2    1    0    0    0  0.28978604838E+02 -0.13657641917E+02 -0.40749744337E+01  0.92706097515E+02  0.86899507356E+02 0.  0.
         13    1    3    3    0    0 -0.29741694836E+02 -0.15679425702E+02 -0.46925252758E+01  0.33947662064E+02  0.10566000000E+00 0.  1.
         22    1    1    0    0    0 -0.28978604838E+02  0.13657641917E+02  0.40749744337E+01  0.32293902485E+02  0.00000000000E+00 0. -1.
</event>
<event>
 5    1  0.9041381E-005  0.9118800E+02  0.7818608E-02  0.1130116E+00
         25   -1    0    0    0    0  0.00000000000E+00  0.00000000000E+00  0.99999998245E-14  0.12500000000E+03  0.12500000000E+03 0.  0.
        -13    1    3    3    0    0 -0.15802396291E+02 -0.18895195908E+02 -0.26297094664E+02  0.36031826331E+02  0.10566000000E+00 0. -1.
         23    2    1    0    0    0 -0.68778106069E+01 -0.17363277950E+00  0.29054769233E+02  0.95141767597E+02  0.90335164245E+02 0.  0.
         13    1    3    3    0    0  0.89245856845E+01  0.18721563128E+02  0.55351863897E+02  0.59109941266E+02  0.10566000000E+00 0.  1.
         22    1    1    0    0    0  0.68778106069E+01  0.17363277950E+00 -0.29054769233E+02  0.29858232403E+02  0.00000000000E+00 0.  1.
</event>
<event>
 5    1  0.9041381E-005  0.9118800E+02  0.7818608E-02  0.1130116E+00
         25   -1    0    0    0    0  0.00000000000E+00  0.00000000000E+00  0.99999998245E-14  0.12500000000E+03  0.12500000000E+03 0.  0.
        -13    1    3    3    0    0  0.55071318026E+02 -0.11939595662E+02 -0.12174352620E+02  0.57650932685E+02  0.10566000000E+00 0.  1.
         23    2    1    0    0    0  0.20699938578E+02 -0.25911677511E+01 -0.22080780957E+02  0.94622993974E+02  0.89614443554E+02 0.  0.
         13    1    3    3    0    0 -0.34371379448E+02  0.93484279107E+01 -0.99064283369E+01  0.36972061290E+02  0.10566000000E+00 0. -1.
         22    1    1    0    0    0 -0.20699938578E+02  0.25911677511E+01  0.22080780957E+02  0.30377006026E+02  0.00000000000E+00 0.  1.
</event>
<event>
 5    1  0.9041381E-005  0.9118800E+02  0.7818608E-02  0.1130116E+00
         25   -1    0    0    0    0  0.00000000000E+00  0.00000000000E+00  0.99999998245E-14  0.12500000000E+03  0.12500000000E+03 0.  0.
        -13    1    3    3    0    0 -0.10201841358E+02  0.48614419171E+01 -0.48465744657E+02  0.49765959790E+02  0.10566000000E+00 0. -1.
         23    2    1    0    0    0  0.12037588755E+02 -0.20324243970E+02 -0.16138897888E+02  0.96391566610E+02  0.92048311514E+02 0.  0.
         13    1    3    3    0    0  0.22239430113E+02 -0.25185685887E+02  0.32326846769E+02  0.46625606821E+02  0.10566000000E+00 0.  1.
         22    1    1    0    0    0 -0.12037588755E+02  0.20324243970E+02  0.16138897888E+02  0.28608433390E+02  0.00000000000E+00 0.  1.
</event>
<event>
 5    1  0.9041381E-005  0.9118800E+02  0.7818608E-02  0.1130116E+00
         25   -1    0    0    0    0  0.00000000000E+00  0.00000000000E+00  0.99999998245E-14  0.12500000000E+03  0.12500000000E+03 0.  0.
        -13    1    3    3    0    0 -0.42951523026E+01 -0.28817178836E+02  0.10148211917E+02  0.30852479617E+02  0.10566000000E+00 0. -1.
         23    2    1    0    0    0  0.22492704163E+02  0.11356890848E+02  0.32347151677E+02  0.83997086300E+02  0.73309423507E+02 0.  0.
         13    1    3    3    0    0  0.26787856466E+02  0.40174069684E+02  0.22198939760E+02  0.53144606683E+02  0.10566000000E+00 0.  1.
         22    1    1    0    0    0 -0.22492704163E+02 -0.11356890848E+02 -0.32347151677E+02  0.41002913700E+02  0.00000000000E+00 0.  1.
</event>
<event>
 4    1  0.9041381E-005  0.9118800E+02  0.7818608E-02  0.1130116E+00
         25   -1    0    0    0    0  0.00000000000E+00  0.00000000000E+00  0.99999998245E-14  0.12500000000E+03  0.12500000000E+03 0.  0.
        -13    1    1    0    0    0  0.41843626606E+02  0.32443116704E+02 -0.26680586650E+02  0.59290047875E+02  0.10566000000E+00 0. -1.
         13    1    1    0    0    0 -0.62131724552E+00 -0.13666943238E+02  0.11900620584E+01  0.13733127260E+02  0.10566000000E+00 0.  1.
         22    1    1    0    0    0 -0.41222309361E+02 -0.18776173466E+02  0.25490524592E+02  0.51976824865E+02  0.00000000000E+00 0. -1.
</event>
<event>
 5    1  0.9041381E-005  0.9118800E+02  0.7818608E-02  0.1130116E+00
         25   -1    0    0    0    0  0.00000000000E+00  0.00000000000E+00  0.99999998245E-14  0.12500000000E+03  0.12500000000E+03 0.  0.
        -13    1    3    3    0    0 -0.70480094968E+01  0.33006890677E+02 -0.37848095128E+02  0.50711130325E+02  0.10566000000E+00 0.  1.
         23    2    1    0    0    0 -0.24159492173E+02 -0.26581975845E+01 -0.15996641716E+02  0.95902927594E+02  0.91382339094E+02 0.  0.
         13    1    3    3    0    0 -0.17111482676E+02 -0.35665088262E+02  0.21851453411E+02  0.45191797268E+02  0.10566000000E+00 0. -1.
         22    1    1    0    0    0  0.24159492173E+02  0.26581975845E+01  0.15996641716E+02  0.29097072406E+02  0.00000000000E+00 0.  1.
</event>
<event>
 5    1  0.9041381E-005  0.9118800E+02  0.7818608E-02  0.1130116E+00
         25   -1    0    0    0    0  0.00000000000E+00  0.00000000000E+00  0.99999998245E-14  0.12500000000E+03  0.12500000000E+03 0.  0.
        -13    1    3    3    0    0  0.46320867313E+02  0.31806027867E+02 -0.23582984228E+01  0.56238944627E+02  0.10566000000E+00 0.  1.
         23    2    1    0    0    0  0.26326755753E+02  0.30978052377E+01  0.14181558984E+02  0.94936549084E+02  0.90050748308E+02 0.  0.
         13    1    3    3    0    0 -0.19994111560E+02 -0.28708222629E+02  0.16539857407E+02  0.38697604456E+02  0.10566000000E+00 0. -1.
         22    1    1    0    0    0 -0.26326755753E+02 -0.30978052377E+01 -0.14181558984E+02  0.30063450916E+02  0.00000000000E+00 0.  1.
</event>
<event>
 5    1  0.9041381E-005  0.9118800E+02  0.7818608E-02  0.1130116E+00
         25   -1    0    0    0    0  0.00000000000E+00  0.00000000000E+00  0.99999998245E-14  0.12500000000E+03  0.12500000000E+03 0.  0.
        -13    1    3    3    0    0 -0.38709174911E+02 -0.37954681617E+02  0.11499920666E+02  0.55418565646E+02  0.10566000000E+00 0.  1.
         23    2    1    0    0    0 -0.19379390126E+02 -0.89461338158E+01  0.24394248205E+02  0.92585907118E+02  0.86726447981E+02 0.  0.
         13    1    3    3    0    0  0.19329784785E+02  0.29008547801E+02  0.12894327539E+02  0.37167341472E+02  0.10566000000E+00 0. -1.
         22    1    1    0    0    0  0.19379390126E+02  0.89461338158E+01 -0.24394248205E+02  0.32414092882E+02  0.00000000000E+00 0.  1.
</event>
<event>
 5    1  0.9041381E-005  0.9118800E+02  0.7818608E-02  0.1130116E+00
         25   -1    0    0    0    0  0.00000000000E+00  0.00000000000E+00  0.99999998245E-14  0.12500000000E+03  0.12500000000E+03 0.  0.
        -13    1    3    3    0    0  0.41170618299E+02  0.80390980043E+01 -0.44023758114E+02  0.60809122263E+02  0.10566000000E+00 0. -1.
         23    2    1    0    0    0  0.10541821096E+02  0.41896450399E+01 -0.26186808268E+02  0.96461744187E+02  0.92143562156E+02 0.  0.
         13    1    3    3    0    0 -0.30628797203E+02 -0.38494529644E+01  0.17836949847E+02  0.35652621925E+02  0.10566000000E+00 0.  1.
         22    1    1    0    0    0 -0.10541821096E+02 -0.41896450399E+01  0.26186808268E+02  0.28538255813E+02  0.00000000000E+00 0. -1.
</event>
<event>
 5    1  0.9041381E-005  0.9118800E+02  0.7818608E-02  0.1130116E+00
         25   -1    0    0    0    0  0.00000000000E+00  0.00000000000E+00  0.99999998245E-14  0.12500000000E+03  0.12500000000E+03 0.  0.
        -13    1    3    3    0    0 -0.29427524956E+02 -0.30004325237E+02 -0.16906851271E+02  0.45300017018E+02  0.10566000000E+00 0. -1.
         23    2    1    0    0    0 -0.37955624507E+01  0.96578229422E+01 -0.29127304977E+02  0.94079460977E+02  0.88853054219E+02 0.  0.
         13    1    3    3    0    0  0.25631962505E+02  0.39662148179E+02 -0.12220453706E+02  0.48779443958E+02  0.10566000000E+00 0.  1.
         22    1    1    0    0    0  0.37955624507E+01 -0.96578229422E+01  0.29127304977E+02  0.30920539023E+02  0.00000000000E+00 0.  1.
</event>
<event>
 5    1  0.9041381E-005  0.9118800E+02  0.7818608E-02  0.1130116E+00
         25   -1    0    0    0    0  0.00000000000E+00  0.00000000000E+00  0.99999998245E-14  0.12500000000E+03  0.12500000000E+03 0.  0.
        -13    1    3    3    0    0 -0.76507357717E+01  0.16277911137E+02  0.26709470647E+02  0.32201104563E+02  0.10566000000E+00 0.  1.
         23    2    1    0    0    0  0.85532464511E+01 -0.17919642471E+02 -0.22960599083E+02  0.94644428495E+02  0.89644336819E+02 0.  0.
         13    1    3    3    0    0  0.16203982223E+02 -0.34197553608E+02 -0.49670069730E+02  0.62443323932E+02  0.10566000000E+00 0. -1.
         22    1    1    0    0    0 -0.85532464511E+01  0.17919642471E+02  0.22960599083E+02  0.30355571505E+02  0.00000000000E+00 0. -1.
</event>
<event>
 5    1  0.9041381E-005  0.9118800E+02  0.7818608E-02  0.1130116E+00
         25   -1    0    0    0    0  0.00000000000E+00  0.00000000000E+00  0.99999998245E-14  0.12500000000E+03  0.12500000000E+03 0.  0.
        -13    1    3    3    0    0 -0.47414822378E+01  0.24887946511E+02 -0.25039778386E+02  0.35621527213E+02  0.10566000000E+00 0.  1.
         23    2    1    0    0    0 -0.15323630205E+02 -0.18186482566E+02  0.16230903171E+02  0.96207570292E+02  0.91798107676E+02 0.  0.
         13    1    3    3    0    0 -0.10582147967E+02 -0.43074429076E+02  0.41270681556E+02  0.60586043079E+02  0.10566000000E+00 0. -1.
         22    1    1    0    0    0  0.15323630205E+02  0.18186482566E+02 -0.16230903171E+02  0.28792429708E+02  0.00000000000E+00 0. -1.
</event>
<event>
 5    1  0.9041381E-005  0.9118800E+02  0.7818608E-02  0.1130116E+00
         25   -1    0    0    0    0  0.00000000000E+00  0.00000000000E+00  0.99999998245E-14  0.12500000000E+03  0.12500000000E+03 0.  0.
        -13    1    3    3    0    0  0.22611574389E+02  0.31464189481E+02  0.80853775499E+00  0.38754914699E+02  0.10566000000E+00 0.  1.
         23    2    1    0    0    0 -0.24648599920E+02  0.62980748008E+01 -0.16086374863E+02  0.94900320925E+02  0.90000445727E+02 0.  0.
         13    1    3    3    0    0 -0.47260174309E+02 -0.25166114680E+02 -0.16894912618E+02  0.56145406225E+02  0.10566000000E+00 0. -1.
         22    1    1    0    0    0  0.24648599920E+02 -0.62980748008E+01  0.16086374863E+02  0.30099679075E+02  0.00000000000E+00 0. -1.
</event>
<event>
 5    1  0.9041381E-005  0.9118800E+02  0.7818608E-02  0.1130116E+00
         25   -1    0    0    0    0  0.00000000000E+00  0.00000000000E+00  0.99999998245E-14  0.12500000000E+03  0.12500000000E+03 0.  0.
        -13    1    3    3    0    0 -0.49670397942E+01  0.24263410018E+02  0.23981805964E+02  0.34474958033E+02  0.10566000000E+00 0.  1.
         23    2    1    0    0    0  0.21135113098E+02 -0.21122188492E+02 -0.55836650902E+01  0.94602349298E+02  0.89585642402E+02 0.  0.
         13    1    3    3    0    0  0.26102152892E+02 -0.45385598510E+02 -0.29565471054E+02  0.60127391266E+02  0.10566000000E+00 0. -1.
         22    1    1    0    0    0 -0.21135113098E+02  0.21122188492E+02  0.55836650902E+01  0.30397650702E+02  0.00000000000E+00 0. -1.
</event>
<event>
 5    1  0.9041381E-005  0.9118800E+02  0.7818608E-02  0.1130116E+00
         25   -1    0    0    0    0  0.00000000000E+00  0.00000000000E+00  0.99999998245E-14  0.12500000000E+03  0.12500000000E+03 0.  0.
        -13    1    3    3    0    0  0.34356954150E+02 -0.17993555093E+02 -0.85127407255E+01  0.39707004950E+02  0.10566000000E+00 0. -1.
         23    2    1    0    0    0 -0.21393228478E+01  0.23614235982E+02 -0.17168615265E+02  0.95725946755E+02  0.91139929168E+02 0.  0.
         13    1    3    3    0    0 -0.36496276998E+02  0.41607791076E+02 -0.86558745392E+01  0.56018941805E+02  0.10566000000E+00 0.  1.
         22    1    1    0    0    0  0.21393228478E+01 -0.23614235982E+02  0.17168615265E+02  0.29274053245E+02  0.00000000000E+00 0.  1.
</event>
<event>
 5    1  0.9041381E-005  0.9118800E+02  0.7818608E-02  0.1130116E+00
         25   -1    0    0    0    0  0.00000000000E+00  0.00000000000E+00  0.99999998245E-14  0.12500000000E+03  0.12500000000E+03 0.  0.
        -13    1    3    3    0    0  0.58793024427E+01  0.51928856429E+02 -0.42510253803E+01  0.52433335848E+02  0.10566000000E+00 0. -1.
         23    2    1    0    0    0  0.10486722832E+02  0.18253598439E+02  0.21373981359E+02  0.94999795153E+02  0.90138497814E+02 0.  0.
         13    1    3    3    0    0  0.46074203897E+01 -0.33675257990E+02  0.25625006739E+02  0.42566459305E+02  0.10566000000E+00 0.  1.
         22    1    1    0    0    0 -0.10486722832E+02 -0.18253598439E+02 -0.21373981359E+02  0.30000204847E+02  0.00000000000E+00 0.  1.
</event>
<event>
 5    1  0.9041381E-005  0.9118800E+02  0.7818608E-02  0.1130116E+00
         25   -1    0    0    0    0  0.00000000000E+00  0.00000000000E+00  0.99999998245E-14  0.12500000000E+03  0.12500000000E+03 0.  0.
        -13    1    3    3    0    0  0.25888964553E+02 -0.12028601357E+02  0.17717406269E+02  0.33598264615E+02  0.10566000000E+00 0. -1.
         23    2    1    0    0    0 -0.18824055922E+02  0.93228095124E+01 -0.20096919104E+02  0.95928604849E+02  0.91417455730E+02 0.  0.
         13    1    3    3    0    0 -0.44713020475E+02  0.21351410870E+02 -0.37814325373E+02  0.62330340233E+02  0.10566000000E+00 0.  1.
         22    1    1    0    0    0  0.18824055922E+02 -0.93228095124E+01  0.20096919104E+02  0.29071395151E+02  0.00000000000E+00 0.  1.
</event>
<event>
 5    1  0.9041381E-005  0.9118800E+02  0.7818608E-02  0.1130116E+00
         25   -1    0    0    0    0  0.00000000000E+00  0.00000000000E+00  0.99999998245E-14  0.12500000000E+03  0.12500000000E+03 0.  0.
        -13    1    3    3    0    0  0.26124744130E+02 -0.16618119099E+02 -0.13041781422E+02  0.33597073755E+02  0.10566000000E+00 0.  1.
         23    2    1    0    0    0 -0.17185649149E+02  0.97074740661E+01  0.22173817176E+02  0.95313980435E+02  0.90573147836E+02 0.  0.
         13    1    3    3    0    0 -0.43310393279E+02  0.26325593165E+02  0.35215598598E+02  0.61716906680E+02  0.10566000000E+00 0. -1.
         22    1    1    0    0    0  0.17185649149E+02 -0.97074740661E+01 -0.22173817176E+02  0.29686019565E+02  0.00000000000E+00 0. -1.
</event>
<event>
 5    1  0.9041381E-005  0.9118800E+02  0.7818608E-02  0.1130116E+00
         25   -1    0    0    0    0  0.00000000000E+00  0.00000000000E+00  0.99999998245E-14  0.12500000000E+03  0.12500000000E+03 0.  0.
        -13    1    3    3    0    0 -0.50799515561E+02 -0.29527839507E+02  0.18062519376E+02  0.61471536970E+02  0.10566000000E+00 0. -1.
         23    2    1    0    0    0 -0.19988102220E+02 -0.15815025390E+02  0.15213229823E+02  0.95316980947E+02  0.90577288747E+02 0.  0.
         13    1    3    3    0    0  0.30811413340E+02  0.13712814117E+02 -0.28492895536E+01  0.33845443977E+02  0.10566000000E+00 0.  1.
         22    1    1    0    0    0  0.19988102220E+02  0.15815025390E+02 -0.15213229823E+02  0.29683019053E+02  0.00000000000E+00 0. -1.
</event>
<event>
 5    1  0.9041381E-005  0.9118800E+02  0.7818608E-02  0.1130116E+00
         25   -1    0    0    0    0  0.00000000000E+00  0.00000000000E+00  0.99999998245E-14  0.12500000000E+03  0.12500000000E+03 0.  0.
        -13    1    3    3    0    0  0.61013760292E+01 -0.42893573202E+02 -0.35190372674E+02  0.55816296047E+02  0.10566000000E+00 0.  1.
         23    2    1    0    0    0 -0.48790640209E+01 -0.29567684884E+02  0.19664840475E-01  0.95032456860E+02  0.90183780222E+02 0.  0.
         13    1    3    3    0    0 -0.10980440050E+02  0.13325888318E+02  0.35210037514E+02  0.39216160813E+02  0.10566000000E+00 0. -1.
         22    1    1    0    0    0  0.48790640209E+01  0.29567684884E+02 -0.19664840475E-01  0.29967543140E+02  0.00000000000E+00 0.  1.
</event>
<event>
 5    1  0.9041381E-005  0.9118800E+02  0.7818608E-02  0.1130116E+00
         25   -1    0    0    0    0  0.00000000000E+00  0.00000000000E+00  0.99999998245E-14  0.12500000000E+03  0.12500000000E+03 0.  0.
        -13    1    3    3    0    0  0.19958442356E+01 -0.61003396285E+00  0.39307274401E+02  0.39362780904E+02  0.10566000000E+00 0.  1.
         23    2    1    0    0    0 -0.48414659535E+01  0.27325040335E+02 -0.92077355950E+01  0.95761668709E+02  0.91188909288E+02 0.  0.
         13    1    3    3    0    0 -0.68373101890E+01  0.27935074298E+02 -0.48515009996E+02  0.56398887805E+02  0.10566000000E+00 0. -1.
         22    1    1    0    0    0  0.48414659535E+01 -0.27325040335E+02  0.92077355950E+01  0.29238331291E+02  0.00000000000E+00 0. -1.
</event>
<event>
 5    1  0.9041381E-005  0.9118800E+02  0.7818608E-02  0.1130116E+00
         25   -1    0    0    0    0  0.00000000000E+00  0.00000000000E+00  0.99999998245E-14  0.12500000000E+03  0.12500000000E+03 0.  0.
        -13    1    3    3    0    0 -0.27761860221E+02  0.26907739379E+02 -0.18204932813E+02  0.42733804701E+02  0.10566000000E+00 0.  1.
         23    2    1    0    0    0  0.20767034425E+02  0.67016654605E+01 -0.20095009501E+02  0.95335350236E+02  0.90602635497E+02 0.  0.
         13    1    3    3    0    0  0.48528894646E+02 -0.20206073918E+02 -0.18900766875E+01  0.52601545535E+02  0.10566000000E+00 0. -1.
         22    1    1    0    0    0 -0.20767034425E+02 -0.67016654605E+01  0.20095009501E+02  0.29664649764E+02  0.00000000000E+00 0. -1.
</event>
<event>
 5    1  0.9041381E-005  0.9118800E+02  0.7818608E-02  0.1130116E+00
         25   -1    0    0    0    0  0.00000000000E+00  0.00000000000E+00  0.99999998245E-14  0.12500000000E+03  0.12500000000E+03 0.  0.
        -13    1    3    3    0    0  0.60753122913E+01 -0.41286435676E+02  0.10167627694E+01  0.41743552326E+02  0.10566000000E+00 0.  1.
         23    2    1    0    0    0  0.28672274971E+02  0.69466293136E+01 -0.39333793323E+01  0.95237162706E+02  0.90467069570E+02 0.  0.
         13    1    3    3    0    0  0.22596962679E+02  0.48233064989E+02 -0.49501421017E+01  0.53493610380E+02  0.10566000000E+00 0. -1.
         22    1    1    0    0    0 -0.28672274971E+02 -0.69466293136E+01  0.39333793323E+01  0.29762837294E+02  0.00000000000E+00 0. -1.
</event>
<event>
 5    1  0.9041381E-005  0.9118800E+02  0.7818608E-02  0.1130116E+00
         25   -1    0    0    0    0  0.00000000000E+00  0.00000000000E+00  0.99999998245E-14  0.12500000000E+03  0.12500000000E+03 0.  0.
        -13    1    3    3    0    0  0.41131572196E+02 -0.10638442801E+02 -0.18037500834E+02  0.46155663758E+02  0.10566000000E+00 0. -1.
         23    2    1    0    0    0  0.18326148244E+02  0.14252124095E+02  0.18065809700E+02  0.95583266143E+02  0.90944029687E+02 0.  0.
         13    1    3    3    0    0 -0.22805423951E+02  0.24890566896E+02  0.36103310535E+02  0.49427602386E+02  0.10566000000E+00 0.  1.
         22    1    1    0    0    0 -0.18326148244E+02 -0.14252124095E+02 -0.18065809700E+02  0.29416733857E+02  0.00000000000E+00 0.  1.
</event>
<event>
 5    1  0.9041381E-005  0.9118800E+02  0.7818608E-02  0.1130116E+00
         25   -1    0    0    0    0  0.00000000000E+00  0.00000000000E+00  0.99999998245E-14  0.12500000000E+03  0.12500000000E+03 0.  0.
        -13    1    3    3    0    0 -0.58745954733E+02  0.32462805627E+01  0.87989724206E+01  0.59489987516E+02  0.10566000000E+00 0.  1.
         23    2    1    0    0    0 -0.13473425711E+02 -0.14678555985E+00  0.14453016107E+02  0.10524033348E+03  0.10336867693E+03 0.  0.
         13    1    3    3    0    0  0.45272529022E+02 -0.33930661225E+01  0.56540436866E+01  0.45750345964E+02  0.10566000000E+00 0. -1.
         22    1    1    0    0    0  0.13473425711E+02  0.14678555985E+00 -0.14453016107E+02  0.19759666520E+02  0.00000000000E+00 0. -1.
</event>
<event>
 5    1  0.9041381E-005  0.9118800E+02  0.7818608E-02  0.1130116E+00
         25   -1    0    0    0    0  0.00000000000E+00  0.00000000000E+00  0.99999998245E-14  0.12500000000E+03  0.12500000000E+03 0.  0.
        -13    1    3    3    0    0 -0.23026484594E+02  0.22457863570E+02 -0.10968627013E+02  0.33983769235E+02  0.10566000000E+00 0.  1.
         23    2    1    0    0    0  0.27675525409E+02 -0.84339692307E+01  0.53947371622E+01  0.95569238327E+02  0.90924746805E+02 0.  0.
         13    1    3    3    0    0  0.50702010002E+02 -0.30891832800E+02  0.16363364175E+02  0.61585469091E+02  0.10566000000E+00 0. -1.
         22    1    1    0    0    0 -0.27675525409E+02  0.84339692307E+01 -0.53947371622E+01  0.29430761673E+02  0.00000000000E+00 0. -1.
</event>
<event>
 5    1  0.9041381E-005  0.9118800E+02  0.7818608E-02  0.1130116E+00
         25   -1    0    0    0    0  0.00000000000E+00  0.00000000000E+00  0.99999998245E-14  0.12500000000E+03  0.12500000000E+03 0.  0.
        -13    1    3    3    0    0  0.25915601402E+02  0.21440361530E+02 -0.22054419534E+02  0.40220841408E+02  0.10566000000E+00 0.  1.
         23    2    1    0    0    0  0.96682619722E+01 -0.25516672497E+02  0.56837761539E+01  0.97127411741E+02  0.93042210503E+02 0.  0.
         13    1    3    3    0    0 -0.16247339430E+02 -0.46957034026E+02  0.27738195688E+02  0.56906570334E+02  0.10566000000E+00 0. -1.
         22    1    1    0    0    0 -0.96682619722E+01  0.25516672497E+02 -0.56837761539E+01  0.27872588259E+02  0.00000000000E+00 0. -1.
</event>
<event>
 5    1  0.9041381E-005  0.9118800E+02  0.7818608E-02  0.1130116E+00
         25   -1    0    0    0    0  0.00000000000E+00  0.00000000000E+00  0.99999998245E-14  0.12500000000E+03  0.12500000000E+03 0.  0.
        -13    1    3    3    0    0 -0.24748664210E+02  0.31149471586E+02  0.38834821707E+02  0.55596227402E+02  0.10566000000E+00 0.  1.
         23    2    1    0    0    0 -0.13523885674E+02  0.27354170168E+02  0.18540686479E+01  0.94429038617E+02  0.89343492513E+02 0.  0.
         13    1    3    3    0    0  0.11224778536E+02 -0.37953014182E+01 -0.36980753059E+02  0.38832811215E+02  0.10566000000E+00 0. -1.
         22    1    1    0    0    0  0.13523885674E+02 -0.27354170168E+02 -0.18540686479E+01  0.30570961383E+02  0.00000000000E+00 0.  1.
</event>
<event>
 5    1  0.9041381E-005  0.9118800E+02  0.7818608E-02  0.1130116E+00
         25   -1    0    0    0    0  0.00000000000E+00  0.00000000000E+00  0.99999998245E-14  0.12500000000E+03  0.12500000000E+03 0.  0.
        -13    1    3    3    0    0  0.41656979266E+02 -0.11807078363E+02 -0.35645700942E+01  0.43444543329E+02  0.10566000000E+00 0. -1.
         23    2    1    0    0    0  0.80720171038E+01  0.24726871083E+02  0.13207739184E+02  0.95827753120E+02  0.91279451576E+02 0.  0.
         13    1    3    3    0    0 -0.33584962163E+02  0.36533949445E+02  0.16772309278E+02  0.52383209792E+02  0.10566000000E+00 0.  1.
         22    1    1    0    0    0 -0.80720171038E+01 -0.24726871083E+02 -0.13207739184E+02  0.29172246880E+02  0.00000000000E+00 0.  1.
</event>
<event>
 5    1  0.9041381E-005  0.9118800E+02  0.7818608E-02  0.1130116E+00
         25   -1    0    0    0    0  0.00000000000E+00  0.00000000000E+00  0.99999998245E-14  0.12500000000E+03  0.12500000000E+03 0.  0.
        -13    1    3    3    0    0  0.39466115662E+02  0.10539627089E+02 -0.83988167063E+01  0.41703828490E+02  0.10566000000E+00 0.  1.
         23    2    1    0    0    0  0.47043147158E+01 -0.24338401359E+02  0.14790753410E+02  0.96133847778E+02  0.91697665970E+02 0.  0.
         13    1    3    3    0    0 -0.34761800946E+02 -0.34878028449E+02  0.23189570117E+02  0.54430019288E+02  0.10566000000E+00 0. -1.
         22    1    1    0    0    0 -0.47043147158E+01  0.24338401359E+02 -0.14790753410E+02  0.28866152222E+02  0.00000000000E+00 0.  1.
</event>
<event>
 5    1  0.9041381E-005  0.9118800E+02  0.7818608E-02  0.1130116E+00
         25   -1    0    0    0    0  0.00000000000E+00  0.00000000000E+00  0.99999998245E-14  0.12500000000E+03  0.12500000000E+03 0.  0.
        -13    1    3    3    0    0 -0.26258996146E+02 -0.16493796327E+02 -0.18830520715E+02  0.36279193353E+02  0.10566000000E+00 0. -1.
         23    2    1    0    0    0  0.19272200066E+02  0.20213789873E+02 -0.94725527930E+01  0.95508573232E+02  0.90841308378E+02 0.  0.
         13    1    3    3    0    0  0.45531196213E+02  0.36707586200E+02  0.93579679219E+01  0.59229379879E+02  0.10566000000E+00 0.  1.
         22    1    1    0    0    0 -0.19272200066E+02 -0.20213789873E+02  0.94725527930E+01  0.29491426768E+02  0.00000000000E+00 0.  1.
</event>
<event>
 5    1  0.9041381E-005  0.9118800E+02  0.7818608E-02  0.1130116E+00
         25   -1    0    0    0    0  0.00000000000E+00  0.00000000000E+00  0.99999998245E-14  0.12500000000E+03  0.12500000000E+03 0.  0.
        -13    1    3    3    0    0  0.36330387582E+02  0.40227502954E+02  0.35613510659E+01  0.54321666407E+02  0.10566000000E+00 0.  1.
         23    2    1    0    0    0  0.25134197799E+01  0.23534045837E+02  0.18575186816E+02  0.94913355825E+02  0.90018547846E+02 0.  0.
         13    1    3    3    0    0 -0.33816967802E+02 -0.16693457117E+02  0.15013835750E+02  0.40591689418E+02  0.10566000000E+00 0. -1.
         22    1    1    0    0    0 -0.25134197799E+01 -0.23534045837E+02 -0.18575186816E+02  0.30086644175E+02  0.00000000000E+00 0.  1.
</event>
<event>
 5    1  0.9041381E-005  0.9118800E+02  0.7818608E-02  0.1130116E+00
         25   -1    0    0    0    0  0.00000000000E+00  0.00000000000E+00  0.99999998245E-14  0.12500000000E+03  0.12500000000E+03 0.  0.
        -13    1    3    3    0    0 -0.52405827949E+02  0.60683427898E+01 -0.17172759741E+02  0.55480721232E+02  0.10566000000E+00 0.  1.
         23    2    1    0    0    0 -0.31415294663E+02  0.13721082120E+02  0.86671189425E+01  0.89640308484E+02  0.82371579571E+02 0.  0.
         13    1    3    3    0    0  0.20990533286E+02  0.76527393300E+01  0.25839878683E+02  0.34159587253E+02  0.10566000000E+00 0. -1.
         22    1    1    0    0    0  0.31415294663E+02 -0.13721082120E+02 -0.86671189425E+01  0.35359691516E+02  0.00000000000E+00 0. -1.
</event>
<event>
 5    1  0.9041381E-005  0.9118800E+02  0.7818608E-02  0.1130116E+00
         25   -1    0    0    0    0  0.00000000000E+00  0.00000000000E+00  0.99999998245E-14  0.12500000000E+03  0.12500000000E+03 0.  0.
        -13    1    3    3    0    0 -0.28093827466E+02  0.50817669604E+02  0.18338039084E+02  0.60893296242E+02  0.10566000000E+00 0. -1.
         23    2    1    0    0    0 -0.20137106152E+02  0.16118711766E+02  0.87661643835E+01  0.97757357852E+02  0.93884713682E+02 0.  0.
         13    1    3    3    0    0  0.79567213141E+01 -0.34698957838E+02 -0.95718747010E+01  0.36864061611E+02  0.10566000000E+00 0.  1.
         22    1    1    0    0    0  0.20137106152E+02 -0.16118711766E+02 -0.87661643835E+01  0.27242642148E+02  0.00000000000E+00 0. -1.
</event>
<event>
 5    1  0.9041381E-005  0.9118800E+02  0.7818608E-02  0.1130116E+00
         25   -1    0    0    0    0  0.00000000000E+00  0.00000000000E+00  0.99999998245E-14  0.12500000000E+03  0.12500000000E+03 0.  0.
        -13    1    3    3    0    0 -0.17338013008E+02 -0.49065913775E+02  0.24482155484E+02  0.57510500700E+02  0.10566000000E+00 0.  1.
         23    2    1    0    0    0  0.95623385185E+01 -0.24767557680E+02  0.12170244320E+02  0.95794091725E+02  0.91233343308E+02 0.  0.
         13    1    3    3    0    0  0.26900351527E+02  0.24298356095E+02 -0.12311911164E+02  0.38283591024E+02  0.10566000000E+00 0. -1.
         22    1    1    0    0    0 -0.95623385185E+01  0.24767557680E+02 -0.12170244320E+02  0.29205908275E+02  0.00000000000E+00 0.  1.
</event>
<event>
 5    1  0.9041381E-005  0.9118800E+02  0.7818608E-02  0.1130116E+00
         25   -1    0    0    0    0  0.00000000000E+00  0.00000000000E+00  0.99999998245E-14  0.12500000000E+03  0.12500000000E+03 0.  0.
        -13    1    3    3    0    0 -0.79444923855E+01 -0.27397410031E+02  0.17616911785E+02  0.33527597297E+02  0.10566000000E+00 0. -1.
         23    2    1    0    0    0  0.10185227422E+01  0.16788081330E+02 -0.24538340210E+02  0.95250929366E+02  0.90486089216E+02 0.  0.
         13    1    3    3    0    0  0.89630151277E+01  0.44185491360E+02 -0.42155251995E+02  0.61723332069E+02  0.10566000000E+00 0.  1.
         22    1    1    0    0    0 -0.10185227422E+01 -0.16788081330E+02  0.24538340210E+02  0.29749070634E+02  0.00000000000E+00 0.  1.
</event>
<event>
 5    1  0.9041381E-005  0.9118800E+02  0.7818608E-02  0.1130116E+00
         25   -1    0    0    0    0  0.00000000000E+00  0.00000000000E+00  0.99999998245E-14  0.12500000000E+03  0.12500000000E+03 0.  0.
        -13    1    3    3    0    0  0.13068975031E+02  0.48860229945E+02  0.16699186044E+02  0.53263441094E+02  0.10566000000E+00 0. -1.
         23    2    1    0    0    0  0.22648732396E+02  0.16952876077E+02 -0.89712137320E+01  0.95320920461E+02  0.90582725258E+02 0.  0.
         13    1    3    3    0    0  0.95797573653E+01 -0.31907353868E+02 -0.25670399776E+02  0.42057479367E+02  0.10566000000E+00 0.  1.
         22    1    1    0    0    0 -0.22648732396E+02 -0.16952876077E+02  0.89712137320E+01  0.29679079539E+02  0.00000000000E+00 0. -1.
</event>
<event>
 5    1  0.9041381E-005  0.9118800E+02  0.7818608E-02  0.1130116E+00
         25   -1    0    0    0    0  0.00000000000E+00  0.00000000000E+00  0.99999998245E-14  0.12500000000E+03  0.12500000000E+03 0.  0.
        -13    1    3    3    0    0  0.82757027619E+01 -0.50348241505E+02 -0.20036119818E+02  0.54816876418E+02  0.10566000000E+00 0.  1.
         23    2    1    0    0    0  0.52020966402E+01 -0.27745515456E+02  0.12150516280E+02  0.94267110724E+02  0.89116652097E+02 0.  0.
         13    1    3    3    0    0 -0.30736061217E+01  0.22602726048E+02  0.32186636099E+02  0.39450234306E+02  0.10566000000E+00 0. -1.
         22    1    1    0    0    0 -0.52020966402E+01  0.27745515456E+02 -0.12150516280E+02  0.30732889276E+02  0.00000000000E+00 0. -1.
</event>
<event>
 5    1  0.9041381E-005  0.9118800E+02  0.7818608E-02  0.1130116E+00
         25   -1    0    0    0    0  0.00000000000E+00  0.00000000000E+00  0.99999998245E-14  0.12500000000E+03  0.12500000000E+03 0.  0.
        -13    1    3    3    0    0 -0.45987756983E+02  0.21154484267E+02  0.34690459678E+02  0.61366319375E+02  0.10566000000E+00 0. -1.
         23    2    1    0    0    0 -0.21326206728E+02  0.14679584187E+01  0.17943935711E+02  0.97090381154E+02  0.92992447482E+02 0.  0.
         13    1    3    3    0    0  0.24661550256E+02 -0.19686525848E+02 -0.16746523968E+02  0.35724061779E+02  0.10566000000E+00 0.  1.
         22    1    1    0    0    0  0.21326206728E+02 -0.14679584187E+01 -0.17943935711E+02  0.27909618846E+02  0.00000000000E+00 0. -1.
</event>
<event>
 5    1  0.9041381E-005  0.9118800E+02  0.7818608E-02  0.1130116E+00
         25   -1    0    0    0    0  0.00000000000E+00  0.00000000000E+00  0.99999998245E-14  0.12500000000E+03  0.12500000000E+03 0.  0.
        -13    1    3    3    0    0  0.18268687124E+02  0.29320032388E+02 -0.38304928316E+02  0.51581856556E+02  0.10566000000E+00 0.  1.
         23    2    1    0    0    0  0.17528295510E+02 -0.11370065755E+02 -0.19528109426E+02  0.96401632975E+02  0.92061980447E+02 0.  0.
         13    1    3    3    0    0 -0.74039161446E+00 -0.40690098143E+02  0.18776818890E+02  0.44819776419E+02  0.10566000000E+00 0. -1.
         22    1    1    0    0    0 -0.17528295510E+02  0.11370065755E+02  0.19528109426E+02  0.28598367025E+02  0.00000000000E+00 0.  1.
</event>
<event>
 5    1  0.9041381E-005  0.9118800E+02  0.7818608E-02  0.1130116E+00
         25   -1    0    0    0    0  0.00000000000E+00  0.00000000000E+00  0.99999998245E-14  0.12500000000E+03  0.12500000000E+03 0.  0.
        -13    1    3    3    0    0  0.38507944465E+02  0.79570010606E+01  0.43579509393E+02  0.58697192912E+02  0.10566000000E+00 0.  1.
         23    2    1    0    0    0  0.17718993364E+02 -0.11544360676E+02  0.22287839868E+02  0.94275696994E+02  0.89128694866E+02 0.  0.
         13    1    3    3    0    0 -0.20788951101E+02 -0.19501361736E+02 -0.21291669526E+02  0.35578504081E+02  0.10566000000E+00 0. -1.
         22    1    1    0    0    0 -0.17718993364E+02  0.11544360676E+02 -0.22287839868E+02  0.30724303006E+02  0.00000000000E+00 0.  1.
</event>
<event>
 5    1  0.9041381E-005  0.9118800E+02  0.7818608E-02  0.1130116E+00
         25   -1    0    0    0    0  0.00000000000E+00  0.00000000000E+00  0.99999998245E-14  0.12500000000E+03  0.12500000000E+03 0.  0.
        -13    1    3    3    0    0 -0.22216688452E+02  0.12311195960E+02 -0.31743783448E+02  0.40654959640E+02  0.10566000000E+00 0.  1.
         23    2    1    0    0    0 -0.91211497384E+01 -0.24401897022E+02  0.93757290752E+01  0.97313320053E+02  0.93291639568E+02 0.  0.
         13    1    3    3    0    0  0.13095538714E+02 -0.36713092982E+02  0.41119512523E+02  0.56658360413E+02  0.10566000000E+00 0. -1.
         22    1    1    0    0    0  0.91211497384E+01  0.24401897022E+02 -0.93757290752E+01  0.27686679947E+02  0.00000000000E+00 0. -1.
</event>
<event>
 5    1  0.9041381E-005  0.9118800E+02  0.7818608E-02  0.1130116E+00
         25   -1    0    0    0    0  0.00000000000E+00  0.00000000000E+00  0.99999998245E-14  0.12500000000E+03  0.12500000000E+03 0.  0.
        -13    1    3    3    0    0 -0.56522888186E+00  0.45666040991E+02 -0.35139439867E+02  0.57623764036E+02  0.10566000000E+00 0.  1.
         23    2    1    0    0    0  0.98322947335E+01  0.28157730840E+02 -0.38900415144E+01  0.94922362979E+02  0.90031054335E+02 0.  0.
         13    1    3    3    0    0  0.10397523615E+02 -0.17508310151E+02  0.31249398352E+02  0.37298598943E+02  0.10566000000E+00 0. -1.
         22    1    1    0    0    0 -0.98322947335E+01 -0.28157730840E+02  0.38900415144E+01  0.30077637021E+02  0.00000000000E+00 0.  1.
</event>
<event>
 5    1  0.9041381E-005  0.9118800E+02  0.7818608E-02  0.1130116E+00
         25   -1    0    0    0    0  0.00000000000E+00  0.00000000000E+00  0.99999998245E-14  0.12500000000E+03  0.12500000000E+03 0.  0.
        -13    1    3    3    0    0  0.32722202459E+02 -0.20642327199E+02  0.18353690738E+02  0.42821925852E+02  0.10566000000E+00 0. -1.
         23    2    1    0    0    0 -0.29169673306E+01  0.15713639400E+02  0.26176389936E+02  0.94330299127E+02  0.89205239654E+02 0.  0.
         13    1    3    3    0    0 -0.35639169790E+02  0.36355966599E+02  0.78226991976E+01  0.51508373275E+02  0.10566000000E+00 0.  1.
         22    1    1    0    0    0  0.29169673306E+01 -0.15713639400E+02 -0.26176389936E+02  0.30669700873E+02  0.00000000000E+00 0. -1.
</event>
<event>
 5    1  0.9041381E-005  0.9118800E+02  0.7818608E-02  0.1130116E+00
         25   -1    0    0    0    0  0.00000000000E+00  0.00000000000E+00  0.99999998245E-14  0.12500000000E+03  0.12500000000E+03 0.  0.
        -13    1    3    3    0    0  0.10998363378E+02 -0.39406848409E+02 -0.26400644909E+02  0.48691569231E+02  0.10566000000E+00 0.  1.
         23    2    1    0    0    0 -0.23138978013E+02 -0.87124637224E+01 -0.15306211483E+02  0.95920807481E+02  0.91406793348E+02 0.  0.
         13    1    3    3    0    0 -0.34137341391E+02  0.30694384687E+02  0.11094433426E+02  0.47229238249E+02  0.10566000000E+00 0. -1.
         22    1    1    0    0    0  0.23138978013E+02  0.87124637224E+01  0.15306211483E+02  0.29079192519E+02  0.00000000000E+00 0.  1.
</event>
<event>
 5    1  0.9041381E-005  0.9118800E+02  0.7818608E-02  0.1130116E+00
         25   -1    0    0    0    0  0.00000000000E+00  0.00000000000E+00  0.99999998245E-14  0.12500000000E+03  0.12500000000E+03 0.  0.
        -13    1    3    3    0    0  0.14888177442E+02  0.17606031534E+01 -0.44407378088E+02  0.46869861784E+02  0.10566000000E+00 0. -1.
         23    2    1    0    0    0  0.11810698056E+02 -0.26784234859E+02 -0.55134810977E+01  0.95212648668E+02  0.90433191733E+02 0.  0.
         13    1    3    3    0    0 -0.30774793864E+01 -0.28544838013E+02  0.38893896990E+02  0.48342786884E+02  0.10566000000E+00 0.  1.
         22    1    1    0    0    0 -0.11810698056E+02  0.26784234859E+02  0.55134810977E+01  0.29787351332E+02  0.00000000000E+00 0.  1.
</event>
<event>
 5    1  0.9041381E-005  0.9118800E+02  0.7818608E-02  0.1130116E+00
         25   -1    0    0    0    0  0.00000000000E+00  0.00000000000E+00  0.99999998245E-14  0.12500000000E+03  0.12500000000E+03 0.  0.
        -13    1    3    3    0    0  0.47756046314E+02  0.35062914699E+01 -0.98140487267E+01  0.48880065015E+02  0.10566000000E+00 0. -1.
         23    2    1    0    0    0 -0.90182830771E+00  0.10732836781E+02 -0.22823313886E+02  0.99762909510E+02  0.96518015818E+02 0.  0.
         13    1    3    3    0    0 -0.48657874622E+02  0.72265453111E+01 -0.13009265159E+02  0.50882844495E+02  0.10566000000E+00 0.  1.
         22    1    1    0    0    0  0.90182830771E+00 -0.10732836781E+02  0.22823313886E+02  0.25237090490E+02  0.00000000000E+00 0.  1.
</event>
<event>
 5    1  0.9041381E-005  0.9118800E+02  0.7818608E-02  0.1130116E+00
         25   -1    0    0    0    0  0.00000000000E+00  0.00000000000E+00  0.99999998245E-14  0.12500000000E+03  0.12500000000E+03 0.  0.
        -13    1    3    3    0    0 -0.21515163994E+02 -0.36584211113E+02  0.40766736519E+02  0.58849339460E+02  0.10566000000E+00 0.  1.
         23    2    1    0    0    0 -0.16895919153E+02 -0.37690838125E+01  0.22244503296E+02  0.96813194511E+02  0.92619105090E+02 0.  0.
         13    1    3    3    0    0  0.46192448414E+01  0.32815127301E+02 -0.18522233223E+02  0.37963855050E+02  0.10566000000E+00 0. -1.
         22    1    1    0    0    0  0.16895919153E+02  0.37690838125E+01 -0.22244503296E+02  0.28186805489E+02  0.00000000000E+00 0.  1.
</event>
<event>
 5    1  0.9041381E-005  0.9118800E+02  0.7818608E-02  0.1130116E+00
         25   -1    0    0    0    0  0.00000000000E+00  0.00000000000E+00  0.99999998245E-14  0.12500000000E+03  0.12500000000E+03 0.  0.
        -13    1    3    3    0    0 -0.14438298399E+02  0.11703062044E+02  0.28056593920E+02  0.33654267906E+02  0.10566000000E+00 0.  1.
         23    2    1    0    0    0  0.90197785256E+01 -0.62096415758E+01 -0.26856418153E+02  0.95996840704E+02  0.91510710717E+02 0.  0.
         13    1    3    3    0    0  0.23458076924E+02 -0.17912703620E+02 -0.54913012073E+02  0.62342572797E+02  0.10566000000E+00 0. -1.
         22    1    1    0    0    0 -0.90197785256E+01  0.62096415758E+01  0.26856418153E+02  0.29003159296E+02  0.00000000000E+00 0. -1.
</event>
<event>
 5    1  0.9041381E-005  0.9118800E+02  0.7818608E-02  0.1130116E+00
         25   -1    0    0    0    0  0.00000000000E+00  0.00000000000E+00  0.99999998245E-14  0.12500000000E+03  0.12500000000E+03 0.  0.
        -13    1    3    3    0    0 -0.81683468754E+01  0.39896983313E+02  0.31460901714E+02  0.51461545535E+02  0.10566000000E+00 0.  1.
         23    2    1    0    0    0  0.41983401829E+01  0.23680251133E+02 -0.10990823295E+02  0.98558015379E+02  0.94944741006E+02 0.  0.
         13    1    3    3    0    0  0.12366687058E+02 -0.16216732180E+02 -0.42451725010E+02  0.47096469844E+02  0.10566000000E+00 0. -1.
         22    1    1    0    0    0 -0.41983401829E+01 -0.23680251133E+02  0.10990823295E+02  0.26441984621E+02  0.00000000000E+00 0.  1.
</event>
<event>
 5    1  0.9041381E-005  0.9118800E+02  0.7818608E-02  0.1130116E+00
         25   -1    0    0    0    0  0.00000000000E+00  0.00000000000E+00  0.99999998245E-14  0.12500000000E+03  0.12500000000E+03 0.  0.
        -13    1    3    3    0    0 -0.20634254519E+02  0.20053022439E+02 -0.16887849894E+02  0.33363255335E+02  0.10566000000E+00 0. -1.
         23    2    1    0    0    0  0.14360688222E+02 -0.19615323095E+02  0.16226702303E+02  0.95771655299E+02  0.91202597686E+02 0.  0.
         13    1    3    3    0    0  0.34994942741E+02 -0.39668345534E+02  0.33114552197E+02  0.62408399964E+02  0.10566000000E+00 0.  1.
         22    1    1    0    0    0 -0.14360688222E+02  0.19615323095E+02 -0.16226702303E+02  0.29228344701E+02  0.00000000000E+00 0.  1.
</event>
<event>
 5    1  0.9041381E-005  0.9118800E+02  0.7818608E-02  0.1130116E+00
         25   -1    0    0    0    0  0.00000000000E+00  0.00000000000E+00  0.99999998245E-14  0.12500000000E+03  0.12500000000E+03 0.  0.
        -13    1    3    3    0    0  0.30451264586E+02 -0.14200175660E+02  0.46121267253E+02  0.57062307706E+02  0.10566000000E+00 0.  1.
         23    2    1    0    0    0  0.27100394538E+02 -0.38607775185E+01  0.83285101876E+01  0.96387047180E+02  0.92042174001E+02 0.  0.
         13    1    3    3    0    0 -0.33508700485E+01  0.10339398142E+02 -0.37792757065E+02  0.39324739473E+02  0.10566000000E+00 0. -1.
         22    1    1    0    0    0 -0.27100394538E+02  0.38607775185E+01 -0.83285101876E+01  0.28612952820E+02  0.00000000000E+00 0.  1.
</event>
<event>
 5    1  0.9041381E-005  0.9118800E+02  0.7818608E-02  0.1130116E+00
         25   -1    0    0    0    0  0.00000000000E+00  0.00000000000E+00  0.99999998245E-14  0.12500000000E+03  0.12500000000E+03 0.  0.
        -13    1    3    3    0    0 -0.37107067772E+02 -0.29244288786E+02 -0.30187078563E+02  0.56066333761E+02  0.10566000000E+00 0. -1.
         23    2    1    0    0    0 -0.43290841960E+01 -0.27514643381E+02 -0.69199349765E+01  0.96300138146E+02  0.91924069408E+02 0.  0.
         13    1    3    3    0    0  0.32777983576E+02  0.17296454048E+01  0.23267143587E+02  0.40233804384E+02  0.10566000000E+00 0.  1.
         22    1    1    0    0    0  0.43290841960E+01  0.27514643381E+02  0.69199349765E+01  0.28699861854E+02  0.00000000000E+00 0. -1.
</event>
<event>
 5    1  0.9041381E-005  0.9118800E+02  0.7818608E-02  0.1130116E+00
         25   -1    0    0    0    0  0.00000000000E+00  0.00000000000E+00  0.99999998245E-14  0.12500000000E+03  0.12500000000E+03 0.  0.
        -13    1    3    3    0    0  0.21270775773E+02  0.15463351468E+02 -0.55851522180E+02  0.61733012517E+02  0.10566000000E+00 0. -1.
         23    2    1    0    0    0  0.51879779724E+01  0.25452124918E+01 -0.28100920503E+02  0.96311065632E+02  0.91938927598E+02 0.  0.
         13    1    3    3    0    0 -0.16082797801E+02 -0.12918138976E+02  0.27750601677E+02  0.34578053114E+02  0.10566000000E+00 0.  1.
         22    1    1    0    0    0 -0.51879779724E+01 -0.25452124918E+01  0.28100920503E+02  0.28688934368E+02  0.00000000000E+00 0. -1.
</event>
<event>
 5    1  0.9041381E-005  0.9118800E+02  0.7818608E-02  0.1130116E+00
         25   -1    0    0    0    0  0.00000000000E+00  0.00000000000E+00  0.99999998245E-14  0.12500000000E+03  0.12500000000E+03 0.  0.
        -13    1    3    3    0    0 -0.28665676949E+02 -0.14436299919E+02 -0.50197441841E+02  0.59581222895E+02  0.10566000000E+00 0.  1.
         23    2    1    0    0    0 -0.31705271443E+01 -0.15453467529E+02 -0.24981403495E+02  0.95454570207E+02  0.90766968396E+02 0.  0.
         13    1    3    3    0    0  0.25495149805E+02 -0.10171676103E+01  0.25216038345E+02  0.35873347312E+02  0.10566000000E+00 0. -1.
         22    1    1    0    0    0  0.31705271443E+01  0.15453467529E+02  0.24981403495E+02  0.29545429793E+02  0.00000000000E+00 0.  1.
</event>
<event>
 5    1  0.9041381E-005  0.9118800E+02  0.7818608E-02  0.1130116E+00
         25   -1    0    0    0    0  0.00000000000E+00  0.00000000000E+00  0.99999998245E-14  0.12500000000E+03  0.12500000000E+03 0.  0.
        -13    1    3    3    0    0  0.24147734002E+02 -0.17676150501E+02 -0.13261174320E+02  0.32732694090E+02  0.10566000000E+00 0. -1.
         23    2    1    0    0    0 -0.24189883588E+02  0.18359871282E+02  0.71425219694E+00  0.94623273750E+02  0.89614833802E+02 0.  0.
         13    1    3    3    0    0 -0.48337617590E+02  0.36036021784E+02  0.13975426517E+02  0.61890579660E+02  0.10566000000E+00 0.  1.
         22    1    1    0    0    0  0.24189883588E+02 -0.18359871282E+02 -0.71425219694E+00  0.30376726250E+02  0.00000000000E+00 0.  1.
</event>
<event>
 5    1  0.9041381E-005  0.9118800E+02  0.7818608E-02  0.1130116E+00
         25   -1    0    0    0    0  0.00000000000E+00  0.00000000000E+00  0.99999998245E-14  0.12500000000E+03  0.12500000000E+03 0.  0.
        -13    1    3    3    0    0  0.11126647225E+02  0.21300694985E+02  0.25731568695E+02  0.35208616514E+02  0.10566000000E+00 0. -1.
         23    2    1    0    0    0  0.89097363960E+01  0.95613665421E-01 -0.29378915984E+02  0.94299621354E+02  0.89162241664E+02 0.  0.
         13    1    3    3    0    0 -0.22169108285E+01 -0.21205081320E+02 -0.55110484679E+02  0.59091004840E+02  0.10566000000E+00 0.  1.
         22    1    1    0    0    0 -0.89097363960E+01 -0.95613665421E-01  0.29378915984E+02  0.30700378646E+02  0.00000000000E+00 0.  1.
</event>
<event>
 5    1  0.9041381E-005  0.9118800E+02  0.7818608E-02  0.1130116E+00
         25   -1    0    0    0    0  0.00000000000E+00  0.00000000000E+00  0.99999998245E-14  0.12500000000E+03  0.12500000000E+03 0.  0.
        -13    1    3    3    0    0 -0.30136884873E+02  0.23913236560E+02 -0.81881627010E+01  0.39333597408E+02  0.10566000000E+00 0. -1.
         23    2    1    0    0    0  0.22537561712E+02  0.16751838983E+02  0.94951125266E+01  0.95356738386E+02  0.90632138872E+02 0.  0.
         13    1    3    3    0    0  0.52674446584E+02 -0.71613975776E+01  0.17683275228E+02  0.56023140978E+02  0.10566000000E+00 0.  1.
         22    1    1    0    0    0 -0.22537561712E+02 -0.16751838983E+02 -0.94951125266E+01  0.29643261614E+02  0.00000000000E+00 0.  1.
</event>
<event>
 5    1  0.9041381E-005  0.9118800E+02  0.7818608E-02  0.1130116E+00
         25   -1    0    0    0    0  0.00000000000E+00  0.00000000000E+00  0.99999998245E-14  0.12500000000E+03  0.12500000000E+03 0.  0.
        -13    1    3    3    0    0  0.26677686944E+02 -0.67548039017E+01 -0.48945669074E+02  0.56151723407E+02  0.10566000000E+00 0. -1.
         23    2    1    0    0    0  0.12083071740E+02 -0.22144500098E+02 -0.16703521258E+02  0.94744634696E+02  0.89783955549E+02 0.  0.
         13    1    3    3    0    0 -0.14594615205E+02 -0.15389696196E+02  0.32242147816E+02  0.38592911289E+02  0.10566000000E+00 0.  1.
         22    1    1    0    0    0 -0.12083071740E+02  0.22144500098E+02  0.16703521258E+02  0.30255365304E+02  0.00000000000E+00 0. -1.
</event>
<event>
 5    1  0.9041381E-005  0.9118800E+02  0.7818608E-02  0.1130116E+00
         25   -1    0    0    0    0  0.00000000000E+00  0.00000000000E+00  0.99999998245E-14  0.12500000000E+03  0.12500000000E+03 0.  0.
        -13    1    3    3    0    0  0.87079508430E+01 -0.46104825988E+02 -0.36593293478E+02  0.59502635899E+02  0.10566000000E+00 0. -1.
         23    2    1    0    0    0 -0.46191209770E+01 -0.14397248332E+02 -0.24971397973E+02  0.95807744951E+02  0.91252047855E+02 0.  0.
         13    1    3    3    0    0 -0.13327071820E+02  0.31707577656E+02  0.11621895505E+02  0.36305109052E+02  0.10566000000E+00 0.  1.
         22    1    1    0    0    0  0.46191209770E+01  0.14397248332E+02  0.24971397973E+02  0.29192255049E+02  0.00000000000E+00 0. -1.
</event>
<event>
 5    1  0.9041381E-005  0.9118800E+02  0.7818608E-02  0.1130116E+00
         25   -1    0    0    0    0  0.00000000000E+00  0.00000000000E+00  0.99999998245E-14  0.12500000000E+03  0.12500000000E+03 0.  0.
        -13    1    3    3    0    0  0.44014435361E+02  0.21101364773E+02 -0.33986854146E+02  0.59478193771E+02  0.10566000000E+00 0.  1.
         23    2    1    0    0    0  0.26586629639E+02  0.77071535427E+01 -0.34479742845E+01  0.97104881826E+02  0.93011937172E+02 0.  0.
         13    1    3    3    0    0 -0.17427805722E+02 -0.13394211230E+02  0.30538879862E+02  0.37626688055E+02  0.10566000000E+00 0. -1.
         22    1    1    0    0    0 -0.26586629639E+02 -0.77071535427E+01  0.34479742845E+01  0.27895118174E+02  0.00000000000E+00 0.  1.
</event>
<event>
 5    1  0.9041381E-005  0.9118800E+02  0.7818608E-02  0.1130116E+00
         25   -1    0    0    0    0  0.00000000000E+00  0.00000000000E+00  0.99999998245E-14  0.12500000000E+03  0.12500000000E+03 0.  0.
        -13    1    3    3    0    0 -0.14782412465E+01  0.56331243701E+02 -0.24515917935E+02  0.61452710358E+02  0.10566000000E+00 0.  1.
         23    2    1    0    0    0 -0.78582630230E+01  0.24654734279E+02 -0.14776824371E+02  0.95201296025E+02  0.90417498341E+02 0.  0.
         13    1    3    3    0    0 -0.63800217765E+01 -0.31676509422E+02  0.97390935639E+01  0.33748585667E+02  0.10566000000E+00 0. -1.
         22    1    1    0    0    0  0.78582630230E+01 -0.24654734279E+02  0.14776824371E+02  0.29798703975E+02  0.00000000000E+00 0.  1.
</event>
<event>
 5    1  0.9041381E-005  0.9118800E+02  0.7818608E-02  0.1130116E+00
         25   -1    0    0    0    0  0.00000000000E+00  0.00000000000E+00  0.99999998245E-14  0.12500000000E+03  0.12500000000E+03 0.  0.
        -13    1    3    3    0    0  0.65191948005E+01  0.34527240031E+01  0.38564271777E+02  0.39263665463E+02  0.10566000000E+00 0. -1.
         23    2    1    0    0    0 -0.33639101076E+02  0.51922026887E+01  0.72960665747E+01  0.90189359709E+02  0.83200600522E+02 0.  0.
         13    1    3    3    0    0 -0.40158295877E+02  0.17394786857E+01 -0.31268205202E+02  0.50925694246E+02  0.10566000000E+00 0.  1.
         22    1    1    0    0    0  0.33639101076E+02 -0.51922026887E+01 -0.72960665747E+01  0.34810640291E+02  0.00000000000E+00 0.  1.
</event>
<event>
 5    1  0.9041381E-005  0.9118800E+02  0.7818608E-02  0.1130116E+00
         25   -1    0    0    0    0  0.00000000000E+00  0.00000000000E+00  0.99999998245E-14  0.12500000000E+03  0.12500000000E+03 0.  0.
        -13    1    3    3    0    0 -0.34548395990E+02 -0.31285121294E+02  0.34290320606E+02  0.57863526778E+02  0.10566000000E+00 0.  1.
         23    2    1    0    0    0 -0.27817218256E+02 -0.32044704833E+01  0.11178666942E+02  0.94849894574E+02  0.89930382205E+02 0.  0.
         13    1    3    3    0    0  0.67311777332E+01  0.28080650811E+02 -0.23111653664E+02  0.36986367796E+02  0.10566000000E+00 0. -1.
         22    1    1    0    0    0  0.27817218256E+02  0.32044704833E+01 -0.11178666942E+02  0.30150105426E+02  0.00000000000E+00 0.  1.
</event>
<event>
 5    1  0.9041381E-005  0.9118800E+02  0.7818608E-02  0.1130116E+00
         25   -1    0    0    0    0  0.00000000000E+00  0.00000000000E+00  0.99999998245E-14  0.12500000000E+03  0.12500000000E+03 0.  0.
        -13    1    3    3    0    0  0.28443018792E+02  0.11732298359E+02 -0.43142161225E+02  0.52989710153E+02  0.10566000000E+00 0.  1.
         23    2    1    0    0    0  0.29904422185E+02 -0.12310930273E+02 -0.17274097210E+02  0.88336286265E+02  0.80368349282E+02 0.  0.
         13    1    3    3    0    0  0.14614033929E+01 -0.24043228632E+02  0.25868064016E+02  0.35346576113E+02  0.10566000000E+00 0. -1.
         22    1    1    0    0    0 -0.29904422185E+02  0.12310930273E+02  0.17274097210E+02  0.36663713735E+02  0.00000000000E+00 0.  1.
</event>
<event>
 5    1  0.9041381E-005  0.9118800E+02  0.7818608E-02  0.1130116E+00
         25   -1    0    0    0    0  0.00000000000E+00  0.00000000000E+00  0.99999998245E-14  0.12500000000E+03  0.12500000000E+03 0.  0.
        -13    1    3    3    0    0  0.42631333605E+02 -0.57266246921E+01  0.32149127960E+02  0.53701046805E+02  0.10566000000E+00 0. -1.
         23    2    1    0    0    0  0.20148556276E+02  0.18320225987E+02  0.31246120165E+01  0.97589086107E+02  0.93660405331E+02 0.  0.
         13    1    3    3    0    0 -0.22482777329E+02  0.24046850679E+02 -0.29024515944E+02  0.43888039302E+02  0.10566000000E+00 0.  1.
         22    1    1    0    0    0 -0.20148556276E+02 -0.18320225987E+02 -0.31246120165E+01  0.27410913893E+02  0.00000000000E+00 0. -1.
</event>
<event>
 5    1  0.9041381E-005  0.9118800E+02  0.7818608E-02  0.1130116E+00
         25   -1    0    0    0    0  0.00000000000E+00  0.00000000000E+00  0.99999998245E-14  0.12500000000E+03  0.12500000000E+03 0.  0.
        -13    1    3    3    0    0  0.82094787343E+00  0.13325672757E+02  0.37018614885E+02  0.39352719371E+02  0.10566000000E+00 0. -1.
         23    2    1    0    0    0 -0.11221789708E+02  0.18352771057E+02 -0.18649287508E+02  0.96529863114E+02  0.92235924555E+02 0.  0.
         13    1    3    3    0    0 -0.12042737582E+02  0.50270982999E+01 -0.55667902393E+02  0.57177143743E+02  0.10566000000E+00 0.  1.
         22    1    1    0    0    0  0.11221789708E+02 -0.18352771057E+02  0.18649287508E+02  0.28470136886E+02  0.00000000000E+00 0.  1.
</event>
<event>
 5    1  0.9041381E-005  0.9118800E+02  0.7818608E-02  0.1130116E+00
         25   -1    0    0    0    0  0.00000000000E+00  0.00000000000E+00  0.99999998245E-14  0.12500000000E+03  0.12500000000E+03 0.  0.
        -13    1    3    3    0    0  0.22534546033E+02  0.28316399987E+02  0.43789653744E+02  0.56808179096E+02  0.10566000000E+00 0.  1.
         23    2    1    0    0    0 -0.17537459803E+01  0.19362299547E+01  0.29460574902E+02  0.95423825722E+02  0.90724618657E+02 0.  0.
         13    1    3    3    0    0 -0.24288292013E+02 -0.26380170033E+02 -0.14329078842E+02  0.38615646626E+02  0.10566000000E+00 0. -1.
         22    1    1    0    0    0  0.17537459803E+01 -0.19362299547E+01 -0.29460574902E+02  0.29576174278E+02  0.00000000000E+00 0. -1.
</event>
<event>
 5    1  0.9041381E-005  0.9118800E+02  0.7818608E-02  0.1130116E+00
         25   -1    0    0    0    0  0.00000000000E+00  0.00000000000E+00  0.99999998245E-14  0.12500000000E+03  0.12500000000E+03 0.  0.
        -13    1    3    3    0    0  0.49007102524E+01 -0.45692822503E+02  0.14699224921E+02  0.48248620359E+02  0.10566000000E+00 0.  1.
         23    2    1    0    0    0 -0.26015012835E+02 -0.10720053024E+02  0.12114667278E+01  0.96836760107E+02  0.92650904079E+02 0.  0.
         13    1    3    3    0    0 -0.30915723088E+02  0.34972769478E+02 -0.13487758193E+02  0.48588139748E+02  0.10566000000E+00 0. -1.
         22    1    1    0    0    0  0.26015012835E+02  0.10720053024E+02 -0.12114667278E+01  0.28163239893E+02  0.00000000000E+00 0.  1.
</event>
<event>
 5    1  0.9041381E-005  0.9118800E+02  0.7818608E-02  0.1130116E+00
         25   -1    0    0    0    0  0.00000000000E+00  0.00000000000E+00  0.99999998245E-14  0.12500000000E+03  0.12500000000E+03 0.  0.
        -13    1    3    3    0    0  0.29587874397E+02  0.48605699977E+02 -0.10310163185E+02  0.57829637822E+02  0.10566000000E+00 0.  1.
         23    2    1    0    0    0  0.52107820878E+01  0.27431459346E+02  0.92550844745E+01  0.95584123327E+02  0.90945207855E+02 0.  0.
         13    1    3    3    0    0 -0.24377092310E+02 -0.21174240632E+02  0.19565247659E+02  0.37754485506E+02  0.10566000000E+00 0. -1.
         22    1    1    0    0    0 -0.52107820878E+01 -0.27431459346E+02 -0.92550844745E+01  0.29415876673E+02  0.00000000000E+00 0.  1.
</event>
<event>
 5    1  0.9041381E-005  0.9118800E+02  0.7818608E-02  0.1130116E+00
         25   -1    0    0    0    0  0.00000000000E+00  0.00000000000E+00  0.99999998245E-14  0.12500000000E+03  0.12500000000E+03 0.  0.
        -13    1    3    3    0    0  0.26187064120E+02  0.16120925133E+02 -0.45449078352E+02  0.54875098555E+02  0.10566000000E+00 0. -1.
         23    2    1    0    0    0 -0.59718404074E+01  0.20126795571E+02 -0.17624506069E+02  0.97588798057E+02  0.93660020896E+02 0.  0.
         13    1    3    3    0    0 -0.32158904527E+02  0.40058704381E+01  0.27824572283E+02  0.42713699502E+02  0.10566000000E+00 0.  1.
         22    1    1    0    0    0  0.59718404074E+01 -0.20126795571E+02  0.17624506069E+02  0.27411201943E+02  0.00000000000E+00 0. -1.
</event>
<event>
 5    1  0.9041381E-005  0.9118800E+02  0.7818608E-02  0.1130116E+00
         25   -1    0    0    0    0  0.00000000000E+00  0.00000000000E+00  0.99999998245E-14  0.12500000000E+03  0.12500000000E+03 0.  0.
        -13    1    3    3    0    0 -0.24695325498E+02  0.17535796891E+02 -0.15778932807E+02  0.34151854395E+02  0.10566000000E+00 0. -1.
         23    2    1    0    0    0  0.24377542859E+02 -0.16530443174E+02 -0.18762097441E+01  0.95486607949E+02  0.90811078549E+02 0.  0.
         13    1    3    3    0    0  0.49072868356E+02 -0.34066240065E+02  0.13902723063E+02  0.61334753554E+02  0.10566000000E+00 0.  1.
         22    1    1    0    0    0 -0.24377542859E+02  0.16530443174E+02  0.18762097441E+01  0.29513392051E+02  0.00000000000E+00 0.  1.
</event>
<event>
 5    1  0.9041381E-005  0.9118800E+02  0.7818608E-02  0.1130116E+00
         25   -1    0    0    0    0  0.00000000000E+00  0.00000000000E+00  0.99999998245E-14  0.12500000000E+03  0.12500000000E+03 0.  0.
        -13    1    3    3    0    0  0.94615460931E+01 -0.17485363147E+02  0.49864123193E+02  0.53681474688E+02  0.10566000000E+00 0. -1.
         23    2    1    0    0    0  0.47522927512E+01  0.15681007072E+02  0.23699575645E+02  0.96187708266E+02  0.91771057892E+02 0.  0.
         13    1    3    3    0    0 -0.47092533418E+01  0.33166370219E+02 -0.26164547548E+02  0.42506233578E+02  0.10566000000E+00 0.  1.
         22    1    1    0    0    0 -0.47522927512E+01 -0.15681007072E+02 -0.23699575645E+02  0.28812291734E+02  0.00000000000E+00 0. -1.
</event>
<event>
 5    1  0.9041381E-005  0.9118800E+02  0.7818608E-02  0.1130116E+00
         25   -1    0    0    0    0  0.00000000000E+00  0.00000000000E+00  0.99999998245E-14  0.12500000000E+03  0.12500000000E+03 0.  0.
        -13    1    3    3    0    0  0.85733883746E+01 -0.35765299644E+02  0.66999591958E+01  0.37383957309E+02  0.10566000000E+00 0.  1.
         23    2    1    0    0    0 -0.15317943633E+02  0.16731121117E+02  0.17857077469E+02  0.96130552019E+02  0.91693173164E+02 0.  0.
         13    1    3    3    0    0 -0.23891332007E+02  0.52496420761E+02  0.11157118274E+02  0.58746594710E+02  0.10566000000E+00 0. -1.
         22    1    1    0    0    0  0.15317943633E+02 -0.16731121117E+02 -0.17857077469E+02  0.28869447981E+02  0.00000000000E+00 0. -1.
</event>
<event>
 5    1  0.9041381E-005  0.9118800E+02  0.7818608E-02  0.1130116E+00
         25   -1    0    0    0    0  0.00000000000E+00  0.00000000000E+00  0.99999998245E-14  0.12500000000E+03  0.12500000000E+03 0.  0.
        -13    1    3    3    0    0  0.21927096339E+02 -0.30353360552E+02 -0.99465468083E+01  0.38743631840E+02  0.10566000000E+00 0.  1.
         23    2    1    0    0    0 -0.27381721774E+02 -0.12015544298E+02 -0.14912123845E+02  0.91585879786E+02  0.85272914495E+02 0.  0.
         13    1    3    3    0    0 -0.49308818113E+02  0.18337816254E+02 -0.49655770370E+01  0.52842247946E+02  0.10566000000E+00 0. -1.
         22    1    1    0    0    0  0.27381721774E+02  0.12015544298E+02  0.14912123845E+02  0.33414120214E+02  0.00000000000E+00 0. -1.
</event>
<event>
 5    1  0.9041381E-005  0.9118800E+02  0.7818608E-02  0.1130116E+00
         25   -1    0    0    0    0  0.00000000000E+00  0.00000000000E+00  0.99999998245E-14  0.12500000000E+03  0.12500000000E+03 0.  0.
        -13    1    3    3    0    0  0.14882975275E+02 -0.32964460035E+02 -0.44928000247E+02  0.57677508169E+02  0.10566000000E+00 0.  1.
         23    2    1    0    0    0 -0.92422963859E+01 -0.11696469489E+02 -0.26094026854E+02  0.94947950511E+02  0.90066573310E+02 0.  0.
         13    1    3    3    0    0 -0.24125271661E+02  0.21267990546E+02  0.18833973392E+02  0.37270442342E+02  0.10566000000E+00 0. -1.
         22    1    1    0    0    0  0.92422963859E+01  0.11696469489E+02  0.26094026854E+02  0.30052049489E+02  0.00000000000E+00 0.  1.
</event>
<event>
 5    1  0.9041381E-005  0.9118800E+02  0.7818608E-02  0.1130116E+00
         25   -1    0    0    0    0  0.00000000000E+00  0.00000000000E+00  0.99999998245E-14  0.12500000000E+03  0.12500000000E+03 0.  0.
        -13    1    3    3    0    0  0.27989659120E+02 -0.64489037020E+01 -0.21747845643E+02  0.36027618999E+02  0.10566000000E+00 0.  1.
         23    2    1    0    0    0 -0.21997061882E+02 -0.22012089658E+02 -0.19181633792E+02  0.88444044296E+02  0.80535775119E+02 0.  0.
         13    1    3    3    0    0 -0.49986721002E+02 -0.15563185956E+02  0.25662118511E+01  0.52416425297E+02  0.10566000000E+00 0. -1.
         22    1    1    0    0    0  0.21997061882E+02  0.22012089658E+02  0.19181633792E+02  0.36555955704E+02  0.00000000000E+00 0. -1.
</event>
<event>
 5    1  0.9041381E-005  0.9118800E+02  0.7818608E-02  0.1130116E+00
         25   -1    0    0    0    0  0.00000000000E+00  0.00000000000E+00  0.99999998245E-14  0.12500000000E+03  0.12500000000E+03 0.  0.
        -13    1    3    3    0    0 -0.17203587783E+01 -0.13655870861E+02  0.57081026167E+02  0.58717094237E+02  0.10566000000E+00 0.  1.
         23    2    1    0    0    0  0.16755162653E+01  0.89126902363E+01  0.27270746197E+02  0.96260880318E+02  0.91870670398E+02 0.  0.
         13    1    3    3    0    0  0.33958750436E+01  0.22568561097E+02 -0.29810279971E+02  0.37543786081E+02  0.10566000000E+00 0. -1.
         22    1    1    0    0    0 -0.16755162653E+01 -0.89126902363E+01 -0.27270746197E+02  0.28739119682E+02  0.00000000000E+00 0.  1.
</event>
<event>
 5    1  0.9041381E-005  0.9118800E+02  0.7818608E-02  0.1130116E+00
         25   -1    0    0    0    0  0.00000000000E+00  0.00000000000E+00  0.99999998245E-14  0.12500000000E+03  0.12500000000E+03 0.  0.
        -13    1    3    3    0    0  0.54339921091E+02 -0.15218536303E+02  0.20484843047E+02  0.60033913999E+02  0.10566000000E+00 0. -1.
         23    2    1    0    0    0  0.23795526932E+02  0.41485555741E+01  0.14873010894E+02  0.96633751246E+02  0.92376608573E+02 0.  0.
         13    1    3    3    0    0 -0.30544394159E+02  0.19367091877E+02 -0.56118321532E+01  0.36599837246E+02  0.10566000000E+00 0.  1.
         22    1    1    0    0    0 -0.23795526932E+02 -0.41485555741E+01 -0.14873010894E+02  0.28366248754E+02  0.00000000000E+00 0. -1.
</event>
<event>
 5    1  0.9041381E-005  0.9118800E+02  0.7818608E-02  0.1130116E+00
         25   -1    0    0    0    0  0.00000000000E+00  0.00000000000E+00  0.99999998245E-14  0.12500000000E+03  0.12500000000E+03 0.  0.
        -13    1    3    3    0    0  0.19632070959E+02 -0.36442824332E+02 -0.24105169965E+01  0.41464676673E+02  0.10566000000E+00 0. -1.
         23    2    1    0    0    0 -0.19566285396E+02 -0.51267125304E+01 -0.21808102347E+02  0.95255823535E+02  0.90492849905E+02 0.  0.
         13    1    3    3    0    0 -0.39198356355E+02  0.31316111801E+02 -0.19397585351E+02  0.53791146862E+02  0.10566000000E+00 0.  1.
         22    1    1    0    0    0  0.19566285396E+02  0.51267125304E+01  0.21808102347E+02  0.29744176465E+02  0.00000000000E+00 0.  1.
</event>
<event>
 5    1  0.9041381E-005  0.9118800E+02  0.7818608E-02  0.1130116E+00
         25   -1    0    0    0    0  0.00000000000E+00  0.00000000000E+00  0.99999998245E-14  0.12500000000E+03  0.12500000000E+03 0.  0.
        -13    1    3    3    0    0 -0.42361837679E+02  0.21094161794E+00  0.10683671255E+02  0.43688920603E+02  0.10566000000E+00 0.  1.
         23    2    1    0    0    0 -0.88107790438E+01  0.80701608595E+01 -0.27435954158E+02  0.95075279379E+02  0.90243115221E+02 0.  0.
         13    1    3    3    0    0  0.33551058635E+02  0.78592192416E+01 -0.38119625413E+02  0.51386358777E+02  0.10566000000E+00 0. -1.
         22    1    1    0    0    0  0.88107790438E+01 -0.80701608595E+01  0.27435954158E+02  0.29924720621E+02  0.00000000000E+00 0. -1.
</event>
<event>
 5    1  0.9041381E-005  0.9118800E+02  0.7818608E-02  0.1130116E+00
         25   -1    0    0    0    0  0.00000000000E+00  0.00000000000E+00  0.99999998245E-14  0.12500000000E+03  0.12500000000E+03 0.  0.
        -13    1    3    3    0    0  0.34688369524E+01 -0.56411346343E+01 -0.48003944465E+02  0.48458694555E+02  0.10566000000E+00 0.  1.
         23    2    1    0    0    0  0.58251466780E+01  0.25451455188E+02 -0.11493054856E+02  0.96472833738E+02  0.92158604778E+02 0.  0.
         13    1    3    3    0    0  0.23563097255E+01  0.31092589822E+02  0.36510889609E+02  0.48014139183E+02  0.10566000000E+00 0. -1.
         22    1    1    0    0    0 -0.58251466780E+01 -0.25451455188E+02  0.11493054856E+02  0.28527166262E+02  0.00000000000E+00 0.  1.
</event>
<event>
 5    1  0.9041381E-005  0.9118800E+02  0.7818608E-02  0.1130116E+00
         25   -1    0    0    0    0  0.00000000000E+00  0.00000000000E+00  0.99999998245E-14  0.12500000000E+03  0.12500000000E+03 0.  0.
        -13    1    3    3    0    0 -0.17883902682E+02 -0.11842208028E+01  0.46998655094E+02  0.50300309132E+02  0.10566000000E+00 0. -1.
         23    2    1    0    0    0 -0.29540404508E+02  0.14068461725E+01  0.37237282155E+01  0.95192603829E+02  0.90405480793E+02 0.  0.
         13    1    3    3    0    0 -0.11656501826E+02  0.25910669754E+01 -0.43274926878E+02  0.44892294698E+02  0.10566000000E+00 0.  1.
         22    1    1    0    0    0  0.29540404508E+02 -0.14068461725E+01 -0.37237282155E+01  0.29807396171E+02  0.00000000000E+00 0.  1.
</event>
<event>
 5    1  0.9041381E-005  0.9118800E+02  0.7818608E-02  0.1130116E+00
         25   -1    0    0    0    0  0.00000000000E+00  0.00000000000E+00  0.99999998245E-14  0.12500000000E+03  0.12500000000E+03 0.  0.
        -13    1    3    3    0    0  0.94853869834E+01 -0.29077649351E+02  0.36462364518E+02  0.47591989329E+02  0.10566000000E+00 0. -1.
         23    2    1    0    0    0  0.34734757588E+02 -0.96604888626E+01  0.15292495916E+02  0.85837660169E+02  0.76383342701E+02 0.  0.
         13    1    3    3    0    0  0.25249370604E+02  0.19417160488E+02 -0.21169868602E+02  0.38245670840E+02  0.10566000000E+00 0.  1.
         22    1    1    0    0    0 -0.34734757588E+02  0.96604888626E+01 -0.15292495916E+02  0.39162339831E+02  0.00000000000E+00 0. -1.
</event>
<event>
 5    1  0.9041381E-005  0.9118800E+02  0.7818608E-02  0.1130116E+00
         25   -1    0    0    0    0  0.00000000000E+00  0.00000000000E+00  0.99999998245E-14  0.12500000000E+03  0.12500000000E+03 0.  0.
        -13    1    3    3    0    0 -0.33158330354E+01 -0.30102103472E+01  0.52368606354E+02  0.52559853601E+02  0.10566000000E+00 0.  1.
         23    2    1    0    0    0 -0.20895445760E+01 -0.25111541538E+02  0.15950058988E+02  0.95177858952E+02  0.90385091348E+02 0.  0.
         13    1    3    3    0    0  0.12262884594E+01 -0.22101331191E+02 -0.36418547366E+02  0.42618005351E+02  0.10566000000E+00 0. -1.
         22    1    1    0    0    0  0.20895445760E+01  0.25111541538E+02 -0.15950058988E+02  0.29822141048E+02  0.00000000000E+00 0.  1.
</event>
<event>
 5    1  0.9041381E-005  0.9118800E+02  0.7818608E-02  0.1130116E+00
         25   -1    0    0    0    0  0.00000000000E+00  0.00000000000E+00  0.99999998245E-14  0.12500000000E+03  0.12500000000E+03 0.  0.
        -13    1    3    3    0    0 -0.21779218395E+02  0.15012168189E+02 -0.47832386218E+02  0.54659380558E+02  0.10566000000E+00 0.  1.
         23    2    1    0    0    0  0.88194017303E+01  0.16815287198E+02 -0.28004415032E+02  0.91165358111E+02  0.84654235144E+02 0.  0.
         13    1    3    3    0    0  0.30598620126E+02  0.18031190084E+01  0.19827971185E+02  0.36505977553E+02  0.10566000000E+00 0. -1.
         22    1    1    0    0    0 -0.88194017303E+01 -0.16815287198E+02  0.28004415032E+02  0.33834641889E+02  0.00000000000E+00 0.  1.
</event>
<event>
 5    1  0.9041381E-005  0.9118800E+02  0.7818608E-02  0.1130116E+00
         25   -1    0    0    0    0  0.00000000000E+00  0.00000000000E+00  0.99999998245E-14  0.12500000000E+03  0.12500000000E+03 0.  0.
        -13    1    3    3    0    0  0.29058523536E+01  0.39800390526E+02 -0.14404220630E+02  0.42426498794E+02  0.10566000000E+00 0. -1.
         23    2    1    0    0    0  0.24001029975E+02 -0.85112108278E+01 -0.15562495700E+02  0.95155713746E+02  0.90354459970E+02 0.  0.
         13    1    3    3    0    0  0.21095177621E+02 -0.48311601354E+02 -0.11582750700E+01  0.52729214952E+02  0.10566000000E+00 0.  1.
         22    1    1    0    0    0 -0.24001029975E+02  0.85112108278E+01  0.15562495700E+02  0.29844286254E+02  0.00000000000E+00 0.  1.
</event>
<event>
 5    1  0.9041381E-005  0.9118800E+02  0.7818608E-02  0.1130116E+00
         25   -1    0    0    0    0  0.00000000000E+00  0.00000000000E+00  0.99999998245E-14  0.12500000000E+03  0.12500000000E+03 0.  0.
        -13    1    3    3    0    0 -0.11743651142E+02  0.20540799394E+02 -0.28454675127E+02  0.37006992346E+02  0.10566000000E+00 0.  1.
         23    2    1    0    0    0  0.25429800706E+02 -0.42950207308E+01  0.11309633921E+02  0.96839215451E+02  0.92654216648E+02 0.  0.
         13    1    3    3    0    0  0.37173451848E+02 -0.24835820125E+02  0.39764309048E+02  0.59832223105E+02  0.10566000000E+00 0. -1.
         22    1    1    0    0    0 -0.25429800706E+02  0.42950207308E+01 -0.11309633921E+02  0.28160784549E+02  0.00000000000E+00 0. -1.
</event>
<event>
 5    1  0.9041381E-005  0.9118800E+02  0.7818608E-02  0.1130116E+00
         25   -1    0    0    0    0  0.00000000000E+00  0.00000000000E+00  0.99999998245E-14  0.12500000000E+03  0.12500000000E+03 0.  0.
        -13    1    3    3    0    0 -0.26706652246E+02 -0.52332662022E+02  0.15165901446E+01  0.58772986977E+02  0.10566000000E+00 0.  1.
         23    2    1    0    0    0 -0.83975526304E+01 -0.35532780081E+02 -0.11362506922E+02  0.86761224994E+02  0.77880076068E+02 0.  0.
         13    1    3    3    0    0  0.18309099616E+02  0.16799881942E+02 -0.12879097066E+02  0.27988238016E+02  0.10566000000E+00 0. -1.
         22    1    1    0    0    0  0.83975526304E+01  0.35532780081E+02  0.11362506922E+02  0.38238775006E+02  0.00000000000E+00 0.  1.
</event>
<event>
 5    1  0.9041381E-005  0.9118800E+02  0.7818608E-02  0.1130116E+00
         25   -1    0    0    0    0  0.00000000000E+00  0.00000000000E+00  0.99999998245E-14  0.12500000000E+03  0.12500000000E+03 0.  0.
        -13    1    3    3    0    0  0.41874554402E+02  0.35451435175E+02 -0.10316340832E+02  0.55827597248E+02  0.10566000000E+00 0.  1.
         23    2    1    0    0    0  0.75270713660E+01  0.27836832038E+02  0.74157546417E+01  0.95225187857E+02  0.90450522188E+02 0.  0.
         13    1    3    3    0    0 -0.34347483036E+02 -0.76146031370E+01  0.17732095474E+02  0.39397590608E+02  0.10566000000E+00 0. -1.
         22    1    1    0    0    0 -0.75270713660E+01 -0.27836832038E+02 -0.74157546417E+01  0.29774812143E+02  0.00000000000E+00 0.  1.
</event>
<event>
 5    1  0.9041381E-005  0.9118800E+02  0.7818608E-02  0.1130116E+00
         25   -1    0    0    0    0  0.00000000000E+00  0.00000000000E+00  0.99999998245E-14  0.12500000000E+03  0.12500000000E+03 0.  0.
        -13    1    3    3    0    0 -0.40590918470E+01 -0.34374372053E+02 -0.22469425984E+02  0.41266935296E+02  0.10566000000E+00 0.  1.
         23    2    1    0    0    0  0.20218096819E+02 -0.83302505836E+01  0.19076001520E+02  0.95981758362E+02  0.91490106517E+02 0.  0.
         13    1    3    3    0    0  0.24277188666E+02  0.26044121469E+02  0.41545427504E+02  0.54714823066E+02  0.10566000000E+00 0. -1.
         22    1    1    0    0    0 -0.20218096819E+02  0.83302505836E+01 -0.19076001520E+02  0.29018241638E+02  0.00000000000E+00 0. -1.
</event>
<event>
 5    1  0.9041381E-005  0.9118800E+02  0.7818608E-02  0.1130116E+00
         25   -1    0    0    0    0  0.00000000000E+00  0.00000000000E+00  0.99999998245E-14  0.12500000000E+03  0.12500000000E+03 0.  0.
        -13    1    3    3    0    0  0.15216750910E+01  0.43348911645E+02  0.74419736263E+01  0.44009519099E+02  0.10566000000E+00 0. -1.
         23    2    1    0    0    0  0.47028239575E+01  0.51431459180E+01 -0.27954901678E+02  0.96189497905E+02  0.91773495500E+02 0.  0.
         13    1    3    3    0    0  0.31811488665E+01 -0.38205765727E+02 -0.35396875304E+02  0.52179978806E+02  0.10566000000E+00 0.  1.
         22    1    1    0    0    0 -0.47028239575E+01 -0.51431459180E+01  0.27954901678E+02  0.28810502095E+02  0.00000000000E+00 0. -1.
</event>
<event>
 5    1  0.9041381E-005  0.9118800E+02  0.7818608E-02  0.1130116E+00
         25   -1    0    0    0    0  0.00000000000E+00  0.00000000000E+00  0.99999998245E-14  0.12500000000E+03  0.12500000000E+03 0.  0.
        -13    1    3    3    0    0  0.30079775009E+02 -0.39314058760E+02 -0.16502668983E+02  0.52179855580E+02  0.10566000000E+00 0.  1.
         23    2    1    0    0    0  0.10150753109E+02 -0.85109775344E+00 -0.26475549005E+02  0.96632468363E+02  0.92374872616E+02 0.  0.
         13    1    3    3    0    0 -0.19929021900E+02  0.38462961007E+02 -0.99728800215E+01  0.44452612783E+02  0.10566000000E+00 0. -1.
         22    1    1    0    0    0 -0.10150753109E+02  0.85109775344E+00  0.26475549005E+02  0.28367531637E+02  0.00000000000E+00 0.  1.
</event>
<event>
 5    1  0.9041381E-005  0.9118800E+02  0.7818608E-02  0.1130116E+00
         25   -1    0    0    0    0  0.00000000000E+00  0.00000000000E+00  0.99999998245E-14  0.12500000000E+03  0.12500000000E+03 0.  0.
        -13    1    3    3    0    0 -0.51608034621E+01  0.19638800514E+02 -0.50545689919E+02  0.54471958946E+02  0.10566000000E+00 0. -1.
         23    2    1    0    0    0  0.82945627462E+01 -0.79972921643E+01 -0.33400266702E+02  0.89668225789E+02  0.82413933575E+02 0.  0.
         13    1    3    3    0    0  0.13455366208E+02 -0.27636092678E+02  0.17145423217E+02  0.35196266842E+02  0.10566000000E+00 0.  1.
         22    1    1    0    0    0 -0.82945627462E+01  0.79972921643E+01  0.33400266702E+02  0.35331774211E+02  0.00000000000E+00 0. -1.
</event>
<event>
 5    1  0.9041381E-005  0.9118800E+02  0.7818608E-02  0.1130116E+00
         25   -1    0    0    0    0  0.00000000000E+00  0.00000000000E+00  0.99999998245E-14  0.12500000000E+03  0.12500000000E+03 0.  0.
        -13    1    3    3    0    0 -0.16724690694E+02  0.32787227639E+02 -0.46407025989E+02  0.59231248512E+02  0.10566000000E+00 0.  1.
         23    2    1    0    0    0 -0.51039668994E+01  0.26753883334E+02 -0.13595627895E+02  0.94558878972E+02  0.89524967149E+02 0.  0.
         13    1    3    3    0    0  0.11620723795E+02 -0.60333443050E+01  0.32811398094E+02  0.35327630460E+02  0.10566000000E+00 0. -1.
         22    1    1    0    0    0  0.51039668994E+01 -0.26753883334E+02  0.13595627895E+02  0.30441121028E+02  0.00000000000E+00 0.  1.
</event>
<event>
 5    1  0.9041381E-005  0.9118800E+02  0.7818608E-02  0.1130116E+00
         25   -1    0    0    0    0  0.00000000000E+00  0.00000000000E+00  0.99999998245E-14  0.12500000000E+03  0.12500000000E+03 0.  0.
        -13    1    3    3    0    0  0.36919673197E+02 -0.25772886524E+02 -0.36256206782E+02  0.57808542993E+02  0.10566000000E+00 0.  1.
         23    2    1    0    0    0  0.36532563604E+01 -0.10098389185E+02 -0.27308561763E+02  0.95655813323E+02  0.91043689132E+02 0.  0.
         13    1    3    3    0    0 -0.33266416837E+02  0.15674497338E+02  0.89476450192E+01  0.37847270330E+02  0.10566000000E+00 0. -1.
         22    1    1    0    0    0 -0.36532563604E+01  0.10098389185E+02  0.27308561763E+02  0.29344186677E+02  0.00000000000E+00 0.  1.
</event>
<event>
 5    1  0.9041381E-005  0.9118800E+02  0.7818608E-02  0.1130116E+00
         25   -1    0    0    0    0  0.00000000000E+00  0.00000000000E+00  0.99999998245E-14  0.12500000000E+03  0.12500000000E+03 0.  0.
        -13    1    3    3    0    0 -0.34162432211E+02  0.34068997718E+02  0.11057048526E+02  0.49497857188E+02  0.10566000000E+00 0.  1.
         23    2    1    0    0    0 -0.16615048901E+02  0.58989773810E+01 -0.22312917776E+02  0.96561925455E+02  0.92279365862E+02 0.  0.
         13    1    3    3    0    0  0.17547383309E+02 -0.28170020337E+02 -0.33369966302E+02  0.47064068267E+02  0.10566000000E+00 0. -1.
         22    1    1    0    0    0  0.16615048901E+02 -0.58989773810E+01  0.22312917776E+02  0.28438074545E+02  0.00000000000E+00 0. -1.
</event>
<event>
 5    1  0.9041381E-005  0.9118800E+02  0.7818608E-02  0.1130116E+00
         25   -1    0    0    0    0  0.00000000000E+00  0.00000000000E+00  0.99999998245E-14  0.12500000000E+03  0.12500000000E+03 0.  0.
        -13    1    3    3    0    0 -0.52504563369E+01 -0.60611881983E+00  0.42570929154E+02  0.42897900238E+02  0.10566000000E+00 0. -1.
         23    2    1    0    0    0 -0.24949882641E+02  0.13670608195E+02 -0.47972765052E+01  0.96148725607E+02  0.91717944818E+02 0.  0.
         13    1    3    3    0    0 -0.19699426305E+02  0.14276727015E+02 -0.47368205660E+02  0.53250825368E+02  0.10566000000E+00 0.  1.
         22    1    1    0    0    0  0.24949882641E+02 -0.13670608195E+02  0.47972765052E+01  0.28851274393E+02  0.00000000000E+00 0.  1.
</event>
<event>
 5    1  0.9041381E-005  0.9118800E+02  0.7818608E-02  0.1130116E+00
         25   -1    0    0    0    0  0.00000000000E+00  0.00000000000E+00  0.99999998245E-14  0.12500000000E+03  0.12500000000E+03 0.  0.
        -13    1    3    3    0    0 -0.31245794099E+02 -0.20388141673E+02 -0.58667012264E+01  0.37767781468E+02  0.10566000000E+00 0.  1.
         23    2    1    0    0    0 -0.18051409415E+01  0.28420892866E+02  0.57674016008E+01  0.95943699369E+02  0.91438092949E+02 0.  0.
         13    1    3    3    0    0  0.29440653157E+02  0.48809034539E+02  0.11634102827E+02  0.58175917901E+02  0.10566000000E+00 0. -1.
         22    1    1    0    0    0  0.18051409415E+01 -0.28420892866E+02 -0.57674016008E+01  0.29056300631E+02  0.00000000000E+00 0. -1.
</event>
<event>
 5    1  0.9041381E-005  0.9118800E+02  0.7818608E-02  0.1130116E+00
         25   -1    0    0    0    0  0.00000000000E+00  0.00000000000E+00  0.99999998245E-14  0.12500000000E+03  0.12500000000E+03 0.  0.
        -13    1    3    3    0    0 -0.15392924303E+02 -0.53572868460E+02  0.17296070451E+01  0.55767347599E+02  0.10566000000E+00 0.  1.
         23    2    1    0    0    0  0.10527302820E+02 -0.24917182139E+02  0.11474953102E+02  0.95616933123E+02  0.90990292234E+02 0.  0.
         13    1    3    3    0    0  0.25920227123E+02  0.28655686321E+02  0.97453460566E+01  0.39849585524E+02  0.10566000000E+00 0. -1.
         22    1    1    0    0    0 -0.10527302820E+02  0.24917182139E+02 -0.11474953102E+02  0.29383066877E+02  0.00000000000E+00 0.  1.
</event>
<event>
 5    1  0.9041381E-005  0.9118800E+02  0.7818608E-02  0.1130116E+00
         25   -1    0    0    0    0  0.00000000000E+00  0.00000000000E+00  0.99999998245E-14  0.12500000000E+03  0.12500000000E+03 0.  0.
        -13    1    3    3    0    0 -0.57417209509E+02  0.15149325897E+02 -0.45891160794E+01  0.59559291243E+02  0.10566000000E+00 0.  1.
         23    2    1    0    0    0 -0.27027391864E+02 -0.42378032815E+01 -0.97136341985E+01  0.95969092729E+02  0.91472800232E+02 0.  0.
         13    1    3    3    0    0  0.30389817645E+02 -0.19387129178E+02 -0.51245181191E+01  0.36409801486E+02  0.10566000000E+00 0. -1.
         22    1    1    0    0    0  0.27027391864E+02  0.42378032815E+01  0.97136341985E+01  0.29030907271E+02  0.00000000000E+00 0.  1.
</event>
<event>
 5    1  0.9041381E-005  0.9118800E+02  0.7818608E-02  0.1130116E+00
         25   -1    0    0    0    0  0.00000000000E+00  0.00000000000E+00  0.99999998245E-14  0.12500000000E+03  0.12500000000E+03 0.  0.
        -13    1    3    3    0    0  0.23574426480E+02 -0.63378981986E+01 -0.38033407887E+02  0.45193736479E+02  0.10566000000E+00 0. -1.
         23    2    1    0    0    0 -0.15008282839E+02  0.18800907781E+02 -0.14545655534E+02  0.96887746762E+02  0.92719667226E+02 0.  0.
         13    1    3    3    0    0 -0.38582709319E+02  0.25138805980E+02  0.23487752353E+02  0.51694010283E+02  0.10566000000E+00 0.  1.
         22    1    1    0    0    0  0.15008282839E+02 -0.18800907781E+02  0.14545655534E+02  0.28112253238E+02  0.00000000000E+00 0.  1.
</event>
<event>
 5    1  0.9041381E-005  0.9118800E+02  0.7818608E-02  0.1130116E+00
         25   -1    0    0    0    0  0.00000000000E+00  0.00000000000E+00  0.99999998245E-14  0.12500000000E+03  0.12500000000E+03 0.  0.
        -13    1    3    3    0    0  0.31893130415E+02  0.26097299313E+00  0.32708840530E+02  0.45685000683E+02  0.10566000000E+00 0. -1.
         23    2    1    0    0    0 -0.13532922470E+02  0.17749331731E+02  0.17359474014E+02  0.96724036612E+02  0.92498698115E+02 0.  0.
         13    1    3    3    0    0 -0.45426052885E+02  0.17488358738E+02 -0.15349366516E+02  0.51039035929E+02  0.10566000000E+00 0.  1.
         22    1    1    0    0    0  0.13532922470E+02 -0.17749331731E+02 -0.17359474014E+02  0.28275963388E+02  0.00000000000E+00 0. -1.
</event>
<event>
 5    1  0.9041381E-005  0.9118800E+02  0.7818608E-02  0.1130116E+00
         25   -1    0    0    0    0  0.00000000000E+00  0.00000000000E+00  0.99999998245E-14  0.12500000000E+03  0.12500000000E+03 0.  0.
        -13    1    3    3    0    0 -0.21060013456E+02  0.27408725593E+01  0.23487425550E+02  0.31665547085E+02  0.10566000000E+00 0. -1.
         23    2    1    0    0    0  0.23994819954E+02  0.21858462111E+02 -0.10078606171E+02  0.91012913440E+02  0.84428836070E+02 0.  0.
         13    1    3    3    0    0  0.45054833409E+02  0.19117589551E+02 -0.33566031722E+02  0.59347366356E+02  0.10566000000E+00 0.  1.
         22    1    1    0    0    0 -0.23994819954E+02 -0.21858462111E+02  0.10078606171E+02  0.33987086560E+02  0.00000000000E+00 0.  1.
</event>
<event>
 5    1  0.9041381E-005  0.9118800E+02  0.7818608E-02  0.1130116E+00
         25   -1    0    0    0    0  0.00000000000E+00  0.00000000000E+00  0.99999998245E-14  0.12500000000E+03  0.12500000000E+03 0.  0.
        -13    1    3    3    0    0 -0.19904944604E+02  0.55907918661E+02  0.11947851971E+02  0.60536472638E+02  0.10566000000E+00 0. -1.
         23    2    1    0    0    0 -0.17310563103E+02  0.18886763461E+02  0.93063462694E+01  0.97742459578E+02  0.93864875722E+02 0.  0.
         13    1    3    3    0    0  0.25943815011E+01 -0.37021155200E+02 -0.26415057017E+01  0.37205986939E+02  0.10566000000E+00 0.  1.
         22    1    1    0    0    0  0.17310563103E+02 -0.18886763461E+02 -0.93063462694E+01  0.27257540422E+02  0.00000000000E+00 0. -1.
</event>
<event>
 5    1  0.9041381E-005  0.9118800E+02  0.7818608E-02  0.1130116E+00
         25   -1    0    0    0    0  0.00000000000E+00  0.00000000000E+00  0.99999998245E-14  0.12500000000E+03  0.12500000000E+03 0.  0.
        -13    1    3    3    0    0 -0.24734948057E+01 -0.57308267234E+02  0.24531873897E+02  0.62387335821E+02  0.10566000000E+00 0. -1.
         23    2    1    0    0    0  0.12053574560E+01 -0.29824158984E+02  0.11728266454E+02  0.92929989402E+02  0.87220968526E+02 0.  0.
         13    1    3    3    0    0  0.36788522618E+01  0.27484108249E+02 -0.12803607443E+02  0.30542653582E+02  0.10566000000E+00 0.  1.
         22    1    1    0    0    0 -0.12053574560E+01  0.29824158984E+02 -0.11728266454E+02  0.32070010598E+02  0.00000000000E+00 0. -1.
</event>
<event>
 5    1  0.9041381E-005  0.9118800E+02  0.7818608E-02  0.1130116E+00
         25   -1    0    0    0    0  0.00000000000E+00  0.00000000000E+00  0.99999998245E-14  0.12500000000E+03  0.12500000000E+03 0.  0.
        -13    1    3    3    0    0 -0.53123767348E+02  0.29959400188E+02 -0.11371087524E+02  0.62040415153E+02  0.10566000000E+00 0.  1.
         23    2    1    0    0    0 -0.18882883146E+02  0.16690745943E+02 -0.46896989238E+01  0.99365305697E+02  0.96001700111E+02 0.  0.
         13    1    3    3    0    0  0.34240884202E+02 -0.13268654245E+02  0.66813885999E+01  0.37324890544E+02  0.10566000000E+00 0. -1.
         22    1    1    0    0    0  0.18882883146E+02 -0.16690745943E+02  0.46896989238E+01  0.25634694303E+02  0.00000000000E+00 0.  1.
</event>
<event>
 5    1  0.9041381E-005  0.9118800E+02  0.7818608E-02  0.1130116E+00
         25   -1    0    0    0    0  0.00000000000E+00  0.00000000000E+00  0.99999998245E-14  0.12500000000E+03  0.12500000000E+03 0.  0.
        -13    1    3    3    0    0 -0.10969910030E+02 -0.19177640503E+02  0.37263370168E+02  0.43320788794E+02  0.10566000000E+00 0.  1.
         23    2    1    0    0    0  0.20611287209E+02 -0.18850622106E+02 -0.55494058892E+01  0.96522517317E+02  0.92225968845E+02 0.  0.
         13    1    3    3    0    0  0.31581197240E+02  0.32701839722E+00 -0.42812776058E+02  0.53201728524E+02  0.10566000000E+00 0. -1.
         22    1    1    0    0    0 -0.20611287209E+02  0.18850622106E+02  0.55494058892E+01  0.28477482683E+02  0.00000000000E+00 0.  1.
</event>
<event>
 5    1  0.9041381E-005  0.9118800E+02  0.7818608E-02  0.1130116E+00
         25   -1    0    0    0    0  0.00000000000E+00  0.00000000000E+00  0.99999998245E-14  0.12500000000E+03  0.12500000000E+03 0.  0.
        -13    1    3    3    0    0  0.36338527535E+02 -0.18572359400E+02 -0.44705515808E+02  0.60531111214E+02  0.10566000000E+00 0.  1.
         23    2    1    0    0    0  0.24793614369E+02 -0.84842480723E+01 -0.13003372871E+02  0.95746051807E+02  0.91167499427E+02 0.  0.
         13    1    3    3    0    0 -0.11544913166E+02  0.10088111328E+02  0.31702142937E+02  0.35214940593E+02  0.10566000000E+00 0. -1.
         22    1    1    0    0    0 -0.24793614369E+02  0.84842480723E+01  0.13003372871E+02  0.29253948193E+02  0.00000000000E+00 0.  1.
</event>
<event>
 5    1  0.9041381E-005  0.9118800E+02  0.7818608E-02  0.1130116E+00
         25   -1    0    0    0    0  0.00000000000E+00  0.00000000000E+00  0.99999998245E-14  0.12500000000E+03  0.12500000000E+03 0.  0.
        -13    1    3    3    0    0 -0.48169158499E+02  0.19420878372E+02  0.95902981605E+01  0.52814991528E+02  0.10566000000E+00 0.  1.
         23    2    1    0    0    0 -0.20650141565E+02 -0.12550775160E+02  0.16743325872E+02  0.95601203000E+02  0.90968680050E+02 0.  0.
         13    1    3    3    0    0  0.27519016934E+02 -0.31971653533E+02  0.71530277115E+01  0.42786211472E+02  0.10566000000E+00 0. -1.
         22    1    1    0    0    0  0.20650141565E+02  0.12550775160E+02 -0.16743325872E+02  0.29398797000E+02  0.00000000000E+00 0. -1.
</event>
<event>
 5    1  0.9041381E-005  0.9118800E+02  0.7818608E-02  0.1130116E+00
         25   -1    0    0    0    0  0.00000000000E+00  0.00000000000E+00  0.99999998245E-14  0.12500000000E+03  0.12500000000E+03 0.  0.
        -13    1    3    3    0    0 -0.33868397673E+01  0.58212300178E+01  0.60353749060E+02  0.60728441377E+02  0.10566000000E+00 0. -1.
         23    2    1    0    0    0 -0.39482051770E+00  0.12874246935E+02  0.25297967350E+02  0.96611811093E+02  0.92346915342E+02 0.  0.
         13    1    3    3    0    0  0.29920192496E+01  0.70530169174E+01 -0.35055781710E+02  0.35883369715E+02  0.10566000000E+00 0.  1.
         22    1    1    0    0    0  0.39482051770E+00 -0.12874246935E+02 -0.25297967350E+02  0.28388188907E+02  0.00000000000E+00 0. -1.
</event>
<event>
 5    1  0.9041381E-005  0.9118800E+02  0.7818608E-02  0.1130116E+00
         25   -1    0    0    0    0  0.00000000000E+00  0.00000000000E+00  0.99999998245E-14  0.12500000000E+03  0.12500000000E+03 0.  0.
        -13    1    3    3    0    0 -0.15577780580E+02  0.30957360294E+01  0.18197078044E+02  0.24153584470E+02  0.10566000000E+00 0. -1.
         23    2    1    0    0    0 -0.20079699391E+01  0.62392832286E+00 -0.40497904932E+02  0.84447545898E+02  0.74073520738E+02 0.  0.
         13    1    3    3    0    0  0.13569810641E+02 -0.24718077065E+01 -0.58694982976E+02  0.60293961428E+02  0.10566000000E+00 0.  1.
         22    1    1    0    0    0  0.20079699391E+01 -0.62392832286E+00  0.40497904932E+02  0.40552454102E+02  0.00000000000E+00 0.  1.
</event>
<event>
 5    1  0.9041381E-005  0.9118800E+02  0.7818608E-02  0.1130116E+00
         25   -1    0    0    0    0  0.00000000000E+00  0.00000000000E+00  0.99999998245E-14  0.12500000000E+03  0.12500000000E+03 0.  0.
        -13    1    3    3    0    0  0.13750246734E+02  0.23785486917E+02  0.16138126342E+02  0.31863285439E+02  0.10566000000E+00 0.  1.
         23    2    1    0    0    0  0.12237348323E+02 -0.31887238101E+02 -0.29038412746E+01  0.90722004991E+02  0.83997031184E+02 0.  0.
         13    1    3    3    0    0 -0.15128984112E+01 -0.55672725018E+02 -0.19041967616E+02  0.58858719552E+02  0.10566000000E+00 0. -1.
         22    1    1    0    0    0 -0.12237348323E+02  0.31887238101E+02  0.29038412746E+01  0.34277995009E+02  0.00000000000E+00 0. -1.
</event>
<event>
 5    1  0.9041381E-005  0.9118800E+02  0.7818608E-02  0.1130116E+00
         25   -1    0    0    0    0  0.00000000000E+00  0.00000000000E+00  0.99999998245E-14  0.12500000000E+03  0.12500000000E+03 0.  0.
        -13    1    3    3    0    0 -0.40676019381E+02  0.98363981349E+01  0.32633752986E+02  0.53068505527E+02  0.10566000000E+00 0.  1.
         23    2    1    0    0    0 -0.45889900958E+01 -0.10288242292E+02  0.28209861825E+02  0.94623972219E+02  0.89615808063E+02 0.  0.
         13    1    3    3    0    0  0.36087029285E+02 -0.20124640427E+02 -0.44238911604E+01  0.41555466692E+02  0.10566000000E+00 0. -1.
         22    1    1    0    0    0  0.45889900958E+01  0.10288242292E+02 -0.28209861825E+02  0.30376027781E+02  0.00000000000E+00 0. -1.
</event>
<event>
 5    1  0.9041381E-005  0.9118800E+02  0.7818608E-02  0.1130116E+00
         25   -1    0    0    0    0  0.00000000000E+00  0.00000000000E+00  0.99999998245E-14  0.12500000000E+03  0.12500000000E+03 0.  0.
        -13    1    3    3    0    0  0.12256907434E+02 -0.53629257001E+02  0.24978305952E+02  0.60417347828E+02  0.10566000000E+00 0.  1.
         23    2    1    0    0    0 -0.39415211165E+01 -0.23228407572E+02  0.17459133796E+02  0.95675678014E+02  0.91070958617E+02 0.  0.
         13    1    3    3    0    0 -0.16198428551E+02  0.30400849429E+02 -0.75191721563E+01  0.35258330186E+02  0.10566000000E+00 0. -1.
         22    1    1    0    0    0  0.39415211165E+01  0.23228407572E+02 -0.17459133796E+02  0.29324321986E+02  0.00000000000E+00 0.  1.
</event>
<event>
 5    1  0.9041381E-005  0.9118800E+02  0.7818608E-02  0.1130116E+00
         25   -1    0    0    0    0  0.00000000000E+00  0.00000000000E+00  0.99999998245E-14  0.12500000000E+03  0.12500000000E+03 0.  0.
        -13    1    3    3    0    0 -0.34986669974E+02  0.32563135102E+02  0.31073107970E+01  0.47896674080E+02  0.10566000000E+00 0.  1.
         23    2    1    0    0    0 -0.13231679380E+02 -0.37291326120E+01  0.25692922222E+02  0.95860507527E+02  0.91324295135E+02 0.  0.
         13    1    3    3    0    0  0.21754990593E+02 -0.36292267714E+02  0.22585611425E+02  0.47963833447E+02  0.10566000000E+00 0. -1.
         22    1    1    0    0    0  0.13231679380E+02  0.37291326120E+01 -0.25692922222E+02  0.29139492473E+02  0.00000000000E+00 0. -1.
</event>
<event>
 5    1  0.9041381E-005  0.9118800E+02  0.7818608E-02  0.1130116E+00
         25   -1    0    0    0    0  0.00000000000E+00  0.00000000000E+00  0.99999998245E-14  0.12500000000E+03  0.12500000000E+03 0.  0.
        -13    1    3    3    0    0  0.16585993873E+02  0.14213397578E+02 -0.57551435571E+02  0.61557247858E+02  0.10566000000E+00 0.  1.
         23    2    1    0    0    0  0.13609897840E+01  0.10855397589E+02 -0.27281889867E+02  0.95606234254E+02  0.90975593230E+02 0.  0.
         13    1    3    3    0    0 -0.15225004089E+02 -0.33579999890E+01  0.30269545704E+02  0.34048986396E+02  0.10566000000E+00 0. -1.
         22    1    1    0    0    0 -0.13609897840E+01 -0.10855397589E+02  0.27281889867E+02  0.29393765746E+02  0.00000000000E+00 0.  1.
</event>
<event>
 5    1  0.9041381E-005  0.9118800E+02  0.7818608E-02  0.1130116E+00
         25   -1    0    0    0    0  0.00000000000E+00  0.00000000000E+00  0.99999998245E-14  0.12500000000E+03  0.12500000000E+03 0.  0.
        -13    1    3    3    0    0  0.31698983340E+02  0.11934548010E+01  0.36173435566E+02  0.48112144868E+02  0.10566000000E+00 0.  1.
         23    2    1    0    0    0 -0.63783712637E+01  0.22984623418E+02  0.14960205741E+02  0.96843574633E+02  0.92660097444E+02 0.  0.
         13    1    3    3    0    0 -0.38077354603E+02  0.21791168617E+02 -0.21213229826E+02  0.48731429765E+02  0.10566000000E+00 0. -1.
         22    1    1    0    0    0  0.63783712637E+01 -0.22984623418E+02 -0.14960205741E+02  0.28156425367E+02  0.00000000000E+00 0.  1.
</event>
<event>
 5    1  0.9041381E-005  0.9118800E+02  0.7818608E-02  0.1130116E+00
         25   -1    0    0    0    0  0.00000000000E+00  0.00000000000E+00  0.99999998245E-14  0.12500000000E+03  0.12500000000E+03 0.  0.
        -13    1    3    3    0    0  0.13698475067E+02 -0.35483424999E+02 -0.15545897433E+01  0.38067697358E+02  0.10566000000E+00 0. -1.
         23    2    1    0    0    0 -0.18587888080E+02  0.81377163232E+01 -0.21077752131E+02  0.95742460029E+02  0.91162574598E+02 0.  0.
         13    1    3    3    0    0 -0.32286363147E+02  0.43621141323E+02 -0.19523162388E+02  0.57674762671E+02  0.10566000000E+00 0.  1.
         22    1    1    0    0    0  0.18587888080E+02 -0.81377163232E+01  0.21077752131E+02  0.29257539971E+02  0.00000000000E+00 0.  1.
</event>
<event>
 5    1  0.9041381E-005  0.9118800E+02  0.7818608E-02  0.1130116E+00
         25   -1    0    0    0    0  0.00000000000E+00  0.00000000000E+00  0.99999998245E-14  0.12500000000E+03  0.12500000000E+03 0.  0.
        -13    1    3    3    0    0 -0.20020340252E+02  0.63398835953E+01 -0.36779851967E+02  0.42353002521E+02  0.10566000000E+00 0. -1.
         23    2    1    0    0    0  0.24425872060E+02 -0.10246538676E+02 -0.11306592059E+02  0.96199760336E+02  0.91787472369E+02 0.  0.
         13    1    3    3    0    0  0.44446212312E+02 -0.16586422272E+02  0.25473259908E+02  0.53846757814E+02  0.10566000000E+00 0.  1.
         22    1    1    0    0    0 -0.24425872060E+02  0.10246538676E+02  0.11306592059E+02  0.28800239664E+02  0.00000000000E+00 0.  1.
</event>
<event>
 5    1  0.9041381E-005  0.9118800E+02  0.7818608E-02  0.1130116E+00
         25   -1    0    0    0    0  0.00000000000E+00  0.00000000000E+00  0.99999998245E-14  0.12500000000E+03  0.12500000000E+03 0.  0.
        -13    1    3    3    0    0  0.46504270856E+01  0.17918755838E+02  0.46547969474E+02  0.50094240278E+02  0.10566000000E+00 0. -1.
         23    2    1    0    0    0 -0.19326852722E+02 -0.10022951362E+02  0.19390476615E+02  0.95845628570E+02  0.91303927311E+02 0.  0.
         13    1    3    3    0    0 -0.23977279808E+02 -0.27941707199E+02 -0.27157492859E+02  0.45751388292E+02  0.10566000000E+00 0.  1.
         22    1    1    0    0    0  0.19326852722E+02  0.10022951362E+02 -0.19390476615E+02  0.29154371430E+02  0.00000000000E+00 0.  1.
</event>
<event>
 5    1  0.9041381E-005  0.9118800E+02  0.7818608E-02  0.1130116E+00
         25   -1    0    0    0    0  0.00000000000E+00  0.00000000000E+00  0.99999998245E-14  0.12500000000E+03  0.12500000000E+03 0.  0.
        -13    1    3    3    0    0 -0.14050388245E+02 -0.25933668586E+02 -0.23178151276E+02  0.37512750322E+02  0.10566000000E+00 0. -1.
         23    2    1    0    0    0 -0.16978091317E+02  0.12893218844E+02  0.20079722229E+02  0.95713724687E+02  0.91123164847E+02 0.  0.
         13    1    3    3    0    0 -0.29277030724E+01  0.38826887430E+02  0.43257873504E+02  0.58200974364E+02  0.10566000000E+00 0.  1.
         22    1    1    0    0    0  0.16978091317E+02 -0.12893218844E+02 -0.20079722229E+02  0.29286275313E+02  0.00000000000E+00 0.  1.
</event>
<event>
 5    1  0.9041381E-005  0.9118800E+02  0.7818608E-02  0.1130116E+00
         25   -1    0    0    0    0  0.00000000000E+00  0.00000000000E+00  0.99999998245E-14  0.12500000000E+03  0.12500000000E+03 0.  0.
        -13    1    3    3    0    0  0.25971592785E+02 -0.15119431391E+02  0.38205849138E+02  0.48608835717E+02  0.10566000000E+00 0.  1.
         23    2    1    0    0    0 -0.16335104144E+02 -0.16447515361E+02  0.18709270338E+02  0.95210854569E+02  0.90430711831E+02 0.  0.
         13    1    3    3    0    0 -0.42306696929E+02 -0.13280839696E+01 -0.19496578800E+02  0.46602018851E+02  0.10566000000E+00 0. -1.
         22    1    1    0    0    0  0.16335104144E+02  0.16447515361E+02 -0.18709270338E+02  0.29789145431E+02  0.00000000000E+00 0.  1.
</event>
<event>
 5    1  0.9041381E-005  0.9118800E+02  0.7818608E-02  0.1130116E+00
         25   -1    0    0    0    0  0.00000000000E+00  0.00000000000E+00  0.99999998245E-14  0.12500000000E+03  0.12500000000E+03 0.  0.
        -13    1    3    3    0    0  0.20686710237E+02  0.32997441442E+02 -0.16165437119E+02  0.42167566249E+02  0.10566000000E+00 0.  1.
         23    2    1    0    0    0  0.27553785721E+02 -0.47110834676E+01  0.16510677974E+02  0.92534512138E+02  0.86652340040E+02 0.  0.
         13    1    3    3    0    0  0.68670754838E+01 -0.37708524909E+02  0.32676115093E+02  0.50366945888E+02  0.10566000000E+00 0. -1.
         22    1    1    0    0    0 -0.27553785721E+02  0.47110834676E+01 -0.16510677974E+02  0.32465487862E+02  0.00000000000E+00 0.  1.
</event>
<event>
 5    1  0.9041381E-005  0.9118800E+02  0.7818608E-02  0.1130116E+00
         25   -1    0    0    0    0  0.00000000000E+00  0.00000000000E+00  0.99999998245E-14  0.12500000000E+03  0.12500000000E+03 0.  0.
        -13    1    3    3    0    0  0.48106709058E+01 -0.15471461005E+02 -0.31750233067E+02  0.35645436230E+02  0.10566000000E+00 0.  1.
         23    2    1    0    0    0 -0.17139482375E+02  0.23217731177E+02  0.77330245862E+01  0.95123176770E+02  0.90309435789E+02 0.  0.
         13    1    3    3    0    0 -0.21950153281E+02  0.38689192182E+02  0.39483257653E+02  0.59477740540E+02  0.10566000000E+00 0. -1.
         22    1    1    0    0    0  0.17139482375E+02 -0.23217731177E+02 -0.77330245862E+01  0.29876823230E+02  0.00000000000E+00 0. -1.
</event>
<event>
 5    1  0.9041381E-005  0.9118800E+02  0.7818608E-02  0.1130116E+00
         25   -1    0    0    0    0  0.00000000000E+00  0.00000000000E+00  0.99999998245E-14  0.12500000000E+03  0.12500000000E+03 0.  0.
        -13    1    3    3    0    0 -0.14898072462E+02 -0.56307054949E+01  0.41523625235E+02  0.44473363085E+02  0.10566000000E+00 0.  1.
         23    2    1    0    0    0  0.22674259327E+02  0.13162388644E+02  0.10234403422E+02  0.96855488559E+02  0.92676168132E+02 0.  0.
         13    1    3    3    0    0  0.37572331789E+02  0.18793094139E+02 -0.31289221813E+02  0.52382125473E+02  0.10566000000E+00 0. -1.
         22    1    1    0    0    0 -0.22674259327E+02 -0.13162388644E+02 -0.10234403422E+02  0.28144511441E+02  0.00000000000E+00 0.  1.
</event>
<event>
 5    1  0.9041381E-005  0.9118800E+02  0.7818608E-02  0.1130116E+00
         25   -1    0    0    0    0  0.00000000000E+00  0.00000000000E+00  0.99999998245E-14  0.12500000000E+03  0.12500000000E+03 0.  0.
        -13    1    3    3    0    0 -0.24802780642E+02 -0.14926398623E+02 -0.90671275438E+01  0.30334786457E+02  0.10566000000E+00 0. -1.
         23    2    1    0    0    0  0.45812822974E+01  0.35437155528E+02 -0.53987970364E+00  0.89263861296E+02  0.81798321034E+02 0.  0.
         13    1    3    3    0    0  0.29384062940E+02  0.50363554151E+02  0.85272478401E+01  0.58929074839E+02  0.10566000000E+00 0.  1.
         22    1    1    0    0    0 -0.45812822974E+01 -0.35437155528E+02  0.53987970364E+00  0.35736138704E+02  0.00000000000E+00 0.  1.
</event>
<event>
 5    1  0.9041381E-005  0.9118800E+02  0.7818608E-02  0.1130116E+00
         25   -1    0    0    0    0  0.00000000000E+00  0.00000000000E+00  0.99999998245E-14  0.12500000000E+03  0.12500000000E+03 0.  0.
        -13    1    3    3    0    0 -0.25658204495E+02  0.33062410383E+02 -0.37723817703E+02  0.56343269557E+02  0.10566000000E+00 0.  1.
         23    2    1    0    0    0 -0.41806808731E+01  0.28397401575E+02 -0.48467647565E+01  0.95890179709E+02  0.91364899865E+02 0.  0.
         13    1    3    3    0    0  0.21477523622E+02 -0.46650088084E+01  0.32877052946E+02  0.39546910152E+02  0.10566000000E+00 0. -1.
         22    1    1    0    0    0  0.41806808731E+01 -0.28397401575E+02  0.48467647565E+01  0.29109820291E+02  0.00000000000E+00 0.  1.
</event>
<event>
 5    1  0.9041381E-005  0.9118800E+02  0.7818608E-02  0.1130116E+00
         25   -1    0    0    0    0  0.00000000000E+00  0.00000000000E+00  0.99999998245E-14  0.12500000000E+03  0.12500000000E+03 0.  0.
        -13    1    3    3    0    0 -0.62771439987E+00 -0.35136909421E+02  0.24523550798E+02  0.42853379527E+02  0.10566000000E+00 0.  1.
         23    2    1    0    0    0  0.18508788918E+02 -0.23877575467E+01 -0.17466903662E+02  0.99438908927E+02  0.96097488166E+02 0.  0.
         13    1    3    3    0    0  0.19136503318E+02  0.32749151875E+02 -0.41990454460E+02  0.56585529401E+02  0.10566000000E+00 0. -1.
         22    1    1    0    0    0 -0.18508788918E+02  0.23877575467E+01  0.17466903662E+02  0.25561091073E+02  0.00000000000E+00 0. -1.
</event>
<event>
 5    1  0.9041381E-005  0.9118800E+02  0.7818608E-02  0.1130116E+00
         25   -1    0    0    0    0  0.00000000000E+00  0.00000000000E+00  0.99999998245E-14  0.12500000000E+03  0.12500000000E+03 0.  0.
        -13    1    3    3    0    0 -0.14211457552E+02  0.81987576530E+01 -0.45695110706E+02  0.48551410477E+02  0.10566000000E+00 0.  1.
         23    2    1    0    0    0  0.67610134256E+01 -0.22834363883E+02 -0.16828746916E+02  0.95839646791E+02  0.91295737567E+02 0.  0.
         13    1    3    3    0    0  0.20972470978E+02 -0.31033121536E+02  0.28866363790E+02  0.47288236314E+02  0.10566000000E+00 0. -1.
         22    1    1    0    0    0 -0.67610134256E+01  0.22834363883E+02  0.16828746916E+02  0.29160353209E+02  0.00000000000E+00 0.  1.
</event>
<event>
 5    1  0.9041381E-005  0.9118800E+02  0.7818608E-02  0.1130116E+00
         25   -1    0    0    0    0  0.00000000000E+00  0.00000000000E+00  0.99999998245E-14  0.12500000000E+03  0.12500000000E+03 0.  0.
        -13    1    3    3    0    0 -0.75228660480E+01 -0.38357593460E+02  0.36939446549E+02  0.53781338446E+02  0.10566000000E+00 0. -1.
         23    2    1    0    0    0 -0.85904862869E+01 -0.24011022603E+02 -0.57744043295E+01  0.98852927383E+02  0.95332218298E+02 0.  0.
         13    1    3    3    0    0 -0.10676202389E+01  0.14346570857E+02 -0.42713850879E+02  0.45071588937E+02  0.10566000000E+00 0.  1.
         22    1    1    0    0    0  0.85904862869E+01  0.24011022603E+02  0.57744043295E+01  0.26147072617E+02  0.00000000000E+00 0.  1.
</event>
<event>
 5    1  0.9041381E-005  0.9118800E+02  0.7818608E-02  0.1130116E+00
         25   -1    0    0    0    0  0.00000000000E+00  0.00000000000E+00  0.99999998245E-14  0.12500000000E+03  0.12500000000E+03 0.  0.
        -13    1    3    3    0    0  0.31175594509E+02  0.23581689167E+02 -0.24548144923E+02  0.46158816494E+02  0.10566000000E+00 0.  1.
         23    2    1    0    0    0  0.21965609841E+01  0.21617160573E+02  0.17387449290E+02  0.97171059952E+02  0.93100832370E+02 0.  0.
         13    1    3    3    0    0 -0.28979033525E+02 -0.19645285937E+01  0.41935594212E+02  0.51012243458E+02  0.10566000000E+00 0. -1.
         22    1    1    0    0    0 -0.21965609841E+01 -0.21617160573E+02 -0.17387449290E+02  0.27828940048E+02  0.00000000000E+00 0.  1.
</event>
<event>
 5    1  0.9041381E-005  0.9118800E+02  0.7818608E-02  0.1130116E+00
         25   -1    0    0    0    0  0.00000000000E+00  0.00000000000E+00  0.99999998245E-14  0.12500000000E+03  0.12500000000E+03 0.  0.
        -13    1    3    3    0    0 -0.11793502400E+02  0.50955050301E+02 -0.18636133720E+02  0.55523152776E+02  0.10566000000E+00 0. -1.
         23    2    1    0    0    0  0.91409240179E+01  0.15835417933E+02 -0.21819064582E+02  0.96532676061E+02  0.92239736639E+02 0.  0.
         13    1    3    3    0    0  0.20934426418E+02 -0.35119632369E+02 -0.31829308626E+01  0.41009523285E+02  0.10566000000E+00 0.  1.
         22    1    1    0    0    0 -0.91409240179E+01 -0.15835417933E+02  0.21819064582E+02  0.28467323939E+02  0.00000000000E+00 0. -1.
</event>
<event>
 5    1  0.9041381E-005  0.9118800E+02  0.7818608E-02  0.1130116E+00
         25   -1    0    0    0    0  0.00000000000E+00  0.00000000000E+00  0.99999998245E-14  0.12500000000E+03  0.12500000000E+03 0.  0.
        -13    1    3    3    0    0 -0.79817578367E+01 -0.39023474191E+02 -0.34256335894E+02  0.52536156207E+02  0.10566000000E+00 0. -1.
         23    2    1    0    0    0 -0.14361440298E+02 -0.16821812852E+01 -0.31285069221E+02  0.90534999529E+02  0.83718276871E+02 0.  0.
         13    1    3    3    0    0 -0.63796824611E+01  0.37341292906E+02  0.29712666733E+01  0.37998843322E+02  0.10566000000E+00 0.  1.
         22    1    1    0    0    0  0.14361440298E+02  0.16821812852E+01  0.31285069221E+02  0.34465000471E+02  0.00000000000E+00 0. -1.
</event>
<event>
 5    1  0.9041381E-005  0.9118800E+02  0.7818608E-02  0.1130116E+00
         25   -1    0    0    0    0  0.00000000000E+00  0.00000000000E+00  0.99999998245E-14  0.12500000000E+03  0.12500000000E+03 0.  0.
        -13    1    3    3    0    0 -0.30857380419E+02 -0.20645415185E+02  0.13786836509E+02  0.39604281580E+02  0.10566000000E+00 0. -1.
         23    2    1    0    0    0 -0.10748909199E+02  0.20796209120E+02 -0.17914880064E+02  0.95521799743E+02  0.90859506578E+02 0.  0.
         13    1    3    3    0    0  0.20108471220E+02  0.41441624304E+02 -0.31701716573E+02  0.55917518163E+02  0.10566000000E+00 0.  1.
         22    1    1    0    0    0  0.10748909199E+02 -0.20796209120E+02  0.17914880064E+02  0.29478200257E+02  0.00000000000E+00 0.  1.
</event>
<event>
 5    1  0.9041381E-005  0.9118800E+02  0.7818608E-02  0.1130116E+00
         25   -1    0    0    0    0  0.00000000000E+00  0.00000000000E+00  0.99999998245E-14  0.12500000000E+03  0.12500000000E+03 0.  0.
        -13    1    3    3    0    0 -0.25263514392E+02  0.24464216160E+02  0.32247726913E+02  0.47714464126E+02  0.10566000000E+00 0. -1.
         23    2    1    0    0    0  0.17449149544E+02  0.42314567706E+01  0.22913206312E+02  0.95889983344E+02  0.91364631209E+02 0.  0.
         13    1    3    3    0    0  0.42712663936E+02 -0.20232759389E+02 -0.93345206009E+01  0.48175519218E+02  0.10566000000E+00 0.  1.
         22    1    1    0    0    0 -0.17449149544E+02 -0.42314567706E+01 -0.22913206312E+02  0.29110016656E+02  0.00000000000E+00 0.  1.
</event>
<event>
 5    1  0.9041381E-005  0.9118800E+02  0.7818608E-02  0.1130116E+00
         25   -1    0    0    0    0  0.00000000000E+00  0.00000000000E+00  0.99999998245E-14  0.12500000000E+03  0.12500000000E+03 0.  0.
        -13    1    3    3    0    0 -0.15579317361E+02 -0.44164660179E+02 -0.14077756555E+02  0.48902216022E+02  0.10566000000E+00 0. -1.
         23    2    1    0    0    0  0.20898901875E+02 -0.15054147717E+02 -0.14233229268E+02  0.95572525109E+02  0.90929265241E+02 0.  0.
         13    1    3    3    0    0  0.36478219236E+02  0.29110512463E+02 -0.15547271295E+00  0.46670309087E+02  0.10566000000E+00 0.  1.
         22    1    1    0    0    0 -0.20898901875E+02  0.15054147717E+02  0.14233229268E+02  0.29427474891E+02  0.00000000000E+00 0.  1.
</event>
<event>
 5    1  0.9041381E-005  0.9118800E+02  0.7818608E-02  0.1130116E+00
         25   -1    0    0    0    0  0.00000000000E+00  0.00000000000E+00  0.99999998245E-14  0.12500000000E+03  0.12500000000E+03 0.  0.
        -13    1    3    3    0    0  0.20136155123E+02 -0.46623660041E+02  0.22236328892E+02  0.55440922660E+02  0.10566000000E+00 0. -1.
         23    2    1    0    0    0  0.11935146885E+02 -0.28238565079E+01  0.21779823628E+02  0.10000434810E+03  0.96830196862E+02 0.  0.
         13    1    3    3    0    0 -0.82010082374E+01  0.43799803533E+02 -0.45650526326E+00  0.44563425438E+02  0.10566000000E+00 0.  1.
         22    1    1    0    0    0 -0.11935146885E+02  0.28238565079E+01 -0.21779823628E+02  0.24995651903E+02  0.00000000000E+00 0. -1.
</event>
<event>
 5    1  0.9041381E-005  0.9118800E+02  0.7818608E-02  0.1130116E+00
         25   -1    0    0    0    0  0.00000000000E+00  0.00000000000E+00  0.99999998245E-14  0.12500000000E+03  0.12500000000E+03 0.  0.
        -13    1    3    3    0    0  0.27095257402E+02  0.73994873198E+00  0.30349471813E+02  0.40691548277E+02  0.10566000000E+00 0. -1.
         23    2    1    0    0    0  0.99186968777E+01 -0.20253974066E+02 -0.18009868306E+02  0.96138964509E+02  0.91704640707E+02 0.  0.
         13    1    3    3    0    0 -0.17176560525E+02 -0.20993922798E+02 -0.48359340120E+02  0.55447416231E+02  0.10566000000E+00 0.  1.
         22    1    1    0    0    0 -0.99186968777E+01  0.20253974066E+02  0.18009868306E+02  0.28861035491E+02  0.00000000000E+00 0.  1.
</event>
<event>
 5    1  0.9041381E-005  0.9118800E+02  0.7818608E-02  0.1130116E+00
         25   -1    0    0    0    0  0.00000000000E+00  0.00000000000E+00  0.99999998245E-14  0.12500000000E+03  0.12500000000E+03 0.  0.
        -13    1    3    3    0    0 -0.58587544608E+01 -0.39906856260E+02 -0.30497557917E+01  0.40449899317E+02  0.10566000000E+00 0. -1.
         23    2    1    0    0    0  0.29648351188E+02 -0.26685894017E+00  0.68233610096E+01  0.94575434312E+02  0.89548079700E+02 0.  0.
         13    1    3    3    0    0  0.35507105649E+02  0.39639997319E+02  0.98731168013E+01  0.54125534994E+02  0.10566000000E+00 0.  1.
         22    1    1    0    0    0 -0.29648351188E+02  0.26685894017E+00 -0.68233610096E+01  0.30424565688E+02  0.00000000000E+00 0.  1.
</event>
<event>
 5    1  0.9041381E-005  0.9118800E+02  0.7818608E-02  0.1130116E+00
         25   -1    0    0    0    0  0.00000000000E+00  0.00000000000E+00  0.99999998245E-14  0.12500000000E+03  0.12500000000E+03 0.  0.
        -13    1    3    3    0    0 -0.35979173132E+02  0.22866353640E+02 -0.37752036517E+02  0.56943818394E+02  0.10566000000E+00 0. -1.
         23    2    1    0    0    0 -0.25466251093E+02 -0.31369159163E+01 -0.73469041675E+01  0.98310166973E+02  0.94617872218E+02 0.  0.
         13    1    3    3    0    0  0.10512922040E+02 -0.26003269557E+02  0.30405132350E+02  0.41366348578E+02  0.10566000000E+00 0.  1.
         22    1    1    0    0    0  0.25466251093E+02  0.31369159163E+01  0.73469041675E+01  0.26689833027E+02  0.00000000000E+00 0. -1.
</event>
<event>
 5    1  0.9041381E-005  0.9118800E+02  0.7818608E-02  0.1130116E+00
         25   -1    0    0    0    0  0.00000000000E+00  0.00000000000E+00  0.99999998245E-14  0.12500000000E+03  0.12500000000E+03 0.  0.
        -13    1    3    3    0    0 -0.10493219682E+02  0.19468650504E+02  0.49571547938E+02  0.54281539595E+02  0.10566000000E+00 0.  1.
         23    2    1    0    0    0  0.23495433938E+00  0.25975203337E+02  0.78283667609E+01  0.97869763767E+02  0.94034254087E+02 0.  0.
         13    1    3    3    0    0  0.10728174021E+02  0.65065528323E+01 -0.41743181178E+02  0.43588224172E+02  0.10566000000E+00 0. -1.
         22    1    1    0    0    0 -0.23495433938E+00 -0.25975203337E+02 -0.78283667609E+01  0.27130236233E+02  0.00000000000E+00 0.  1.
</event>
<event>
 5    1  0.9041381E-005  0.9118800E+02  0.7818608E-02  0.1130116E+00
         25   -1    0    0    0    0  0.00000000000E+00  0.00000000000E+00  0.99999998245E-14  0.12500000000E+03  0.12500000000E+03 0.  0.
        -13    1    3    3    0    0  0.35057403738E+02  0.93353978280E+01 -0.39835584947E+01  0.36497275402E+02  0.10566000000E+00 0. -1.
         23    2    1    0    0    0 -0.22648498835E+02  0.17720090507E+02  0.59087740022E+01  0.95642382296E+02  0.91025246904E+02 0.  0.
         13    1    3    3    0    0 -0.57705902573E+02  0.83846926792E+01  0.98923324969E+01  0.59145106893E+02  0.10566000000E+00 0.  1.
         22    1    1    0    0    0  0.22648498835E+02 -0.17720090507E+02 -0.59087740022E+01  0.29357617704E+02  0.00000000000E+00 0.  1.
</event>
<event>
 5    1  0.9041381E-005  0.9118800E+02  0.7818608E-02  0.1130116E+00
         25   -1    0    0    0    0  0.00000000000E+00  0.00000000000E+00  0.99999998245E-14  0.12500000000E+03  0.12500000000E+03 0.  0.
        -13    1    3    3    0    0  0.21508219671E+01  0.59936231177E+02  0.12377952397E+02  0.61238898687E+02  0.10566000000E+00 0. -1.
         23    2    1    0    0    0  0.25290137408E+01  0.29390491101E+02 -0.28339021060E+01  0.95365090201E+02  0.90643656977E+02 0.  0.
         13    1    3    3    0    0  0.37819177375E+00 -0.30545740076E+02 -0.15211854503E+02  0.34126191514E+02  0.10566000000E+00 0.  1.
         22    1    1    0    0    0 -0.25290137408E+01 -0.29390491101E+02  0.28339021060E+01  0.29634909799E+02  0.00000000000E+00 0. -1.
</event>
<event>
 5    1  0.9041381E-005  0.9118800E+02  0.7818608E-02  0.1130116E+00
         25   -1    0    0    0    0  0.00000000000E+00  0.00000000000E+00  0.99999998245E-14  0.12500000000E+03  0.12500000000E+03 0.  0.
        -13    1    3    3    0    0  0.31526219244E+02  0.12490677942E+02 -0.43736090172E+02  0.55342355234E+02  0.10566000000E+00 0.  1.
         23    2    1    0    0    0  0.14336372092E+02  0.27161245764E+02 -0.18824340134E+02  0.88977498453E+02  0.81359539166E+02 0.  0.
         13    1    3    3    0    0 -0.17189847153E+02  0.14670567822E+02  0.24911750038E+02  0.33635143219E+02  0.10566000000E+00 0. -1.
         22    1    1    0    0    0 -0.14336372092E+02 -0.27161245764E+02  0.18824340134E+02  0.36022501547E+02  0.00000000000E+00 0.  1.
</event>
<event>
 5    1  0.9041381E-005  0.9118800E+02  0.7818608E-02  0.1130116E+00
         25   -1    0    0    0    0  0.00000000000E+00  0.00000000000E+00  0.99999998245E-14  0.12500000000E+03  0.12500000000E+03 0.  0.
        -13    1    3    3    0    0  0.39176243349E+01 -0.39200309560E+02  0.39395028948E+02  0.55713477004E+02  0.10566000000E+00 0. -1.
         23    2    1    0    0    0 -0.18331960185E+02 -0.19202397323E+02  0.13826219503E+02  0.95067456291E+02  0.90232278441E+02 0.  0.
         13    1    3    3    0    0 -0.22249584520E+02  0.19997912238E+02 -0.25568809445E+02  0.39353979286E+02  0.10566000000E+00 0.  1.
         22    1    1    0    0    0  0.18331960185E+02  0.19202397323E+02 -0.13826219503E+02  0.29932543709E+02  0.00000000000E+00 0. -1.
</event>
<event>
 5    1  0.9041381E-005  0.9118800E+02  0.7818608E-02  0.1130116E+00
         25   -1    0    0    0    0  0.00000000000E+00  0.00000000000E+00  0.99999998245E-14  0.12500000000E+03  0.12500000000E+03 0.  0.
        -13    1    3    3    0    0  0.25112338907E+02  0.37556484962E+02  0.36758685355E+02  0.58243722762E+02  0.10566000000E+00 0.  1.
         23    2    1    0    0    0 -0.45638260366E+01  0.18881786228E+02  0.20044964500E+02  0.97086724286E+02  0.92987531807E+02 0.  0.
         13    1    3    3    0    0 -0.29676164943E+02 -0.18674698734E+02 -0.16713720855E+02  0.38843001524E+02  0.10566000000E+00 0. -1.
         22    1    1    0    0    0  0.45638260366E+01 -0.18881786228E+02 -0.20044964500E+02  0.27913275714E+02  0.00000000000E+00 0.  1.
</event>
<event>
 5    1  0.9041381E-005  0.9118800E+02  0.7818608E-02  0.1130116E+00
         25   -1    0    0    0    0  0.00000000000E+00  0.00000000000E+00  0.99999998245E-14  0.12500000000E+03  0.12500000000E+03 0.  0.
        -13    1    3    3    0    0  0.21200206855E+02 -0.18461570282E+02 -0.19473374619E+02  0.34197979927E+02  0.10566000000E+00 0. -1.
         23    2    1    0    0    0 -0.14274912066E+02  0.28996785205E+01  0.25687200681E+02  0.95470124808E+02  0.90788386934E+02 0.  0.
         13    1    3    3    0    0 -0.35475118921E+02  0.21361248803E+02  0.45160575300E+02  0.61272144881E+02  0.10566000000E+00 0.  1.
         22    1    1    0    0    0  0.14274912066E+02 -0.28996785205E+01 -0.25687200681E+02  0.29529875192E+02  0.00000000000E+00 0.  1.
</event>
<event>
 5    1  0.9041381E-005  0.9118800E+02  0.7818608E-02  0.1130116E+00
         25   -1    0    0    0    0  0.00000000000E+00  0.00000000000E+00  0.99999998245E-14  0.12500000000E+03  0.12500000000E+03 0.  0.
        -13    1    3    3    0    0  0.21904213311E+02  0.23438018588E+02  0.21178709954E+02  0.38440658104E+02  0.10566000000E+00 0.  1.
         23    2    1    0    0    0 -0.19204989979E+01 -0.27225948141E+02  0.19507367683E+01  0.97636777556E+02  0.93724033145E+02 0.  0.
         13    1    3    3    0    0 -0.23824712309E+02 -0.50663966729E+02 -0.19227973185E+02  0.59196119452E+02  0.10566000000E+00 0. -1.
         22    1    1    0    0    0  0.19204989979E+01  0.27225948141E+02 -0.19507367683E+01  0.27363222444E+02  0.00000000000E+00 0. -1.
</event>
<event>
 5    1  0.9041381E-005  0.9118800E+02  0.7818608E-02  0.1130116E+00
         25   -1    0    0    0    0  0.00000000000E+00  0.00000000000E+00  0.99999998245E-14  0.12500000000E+03  0.12500000000E+03 0.  0.
        -13    1    3    3    0    0 -0.21253414498E+02 -0.26075914367E+02  0.76317324386E+01  0.34495150992E+02  0.10566000000E+00 0.  1.
         23    2    1    0    0    0  0.30344290045E+02  0.30476199848E+01 -0.16071294408E+01  0.94460733621E+02  0.89387825822E+02 0.  0.
         13    1    3    3    0    0  0.51597704543E+02  0.29123534352E+02 -0.92388618795E+01  0.59965582630E+02  0.10566000000E+00 0. -1.
         22    1    1    0    0    0 -0.30344290045E+02 -0.30476199848E+01  0.16071294408E+01  0.30539266379E+02  0.00000000000E+00 0. -1.
</event>
<event>
 5    1  0.9041381E-005  0.9118800E+02  0.7818608E-02  0.1130116E+00
         25   -1    0    0    0    0  0.00000000000E+00  0.00000000000E+00  0.99999998245E-14  0.12500000000E+03  0.12500000000E+03 0.  0.
        -13    1    3    3    0    0  0.38473145393E+02 -0.10042547626E+02  0.26986863796E+02  0.48055568469E+02  0.10566000000E+00 0.  1.
         23    2    1    0    0    0 -0.30425714972E+01 -0.26976158887E+02  0.85071363709E+01  0.96551067528E+02  0.92264656732E+02 0.  0.
         13    1    3    3    0    0 -0.41515716890E+02 -0.16933611260E+02 -0.18479727425E+02  0.48495499059E+02  0.10566000000E+00 0. -1.
         22    1    1    0    0    0  0.30425714972E+01  0.26976158887E+02 -0.85071363709E+01  0.28448932472E+02  0.00000000000E+00 0.  1.
</event>
<event>
 5    1  0.9041381E-005  0.9118800E+02  0.7818608E-02  0.1130116E+00
         25   -1    0    0    0    0  0.00000000000E+00  0.00000000000E+00  0.99999998245E-14  0.12500000000E+03  0.12500000000E+03 0.  0.
        -13    1    3    3    0    0  0.37966089049E+02  0.33950355159E+02 -0.27456151455E+02  0.57861057283E+02  0.10566000000E+00 0.  1.
         23    2    1    0    0    0  0.26370117769E+02  0.10578096014E+01 -0.11794872332E+02  0.96092888667E+02  0.91641814510E+02 0.  0.
         13    1    3    3    0    0 -0.11595971281E+02 -0.32892545558E+02  0.15661279123E+02  0.38231831384E+02  0.10566000000E+00 0. -1.
         22    1    1    0    0    0 -0.26370117769E+02 -0.10578096014E+01  0.11794872332E+02  0.28907111333E+02  0.00000000000E+00 0. -1.
</event>
<event>
 5    1  0.9041381E-005  0.9118800E+02  0.7818608E-02  0.1130116E+00
         25   -1    0    0    0    0  0.00000000000E+00  0.00000000000E+00  0.99999998245E-14  0.12500000000E+03  0.12500000000E+03 0.  0.
        -13    1    3    3    0    0  0.44051688331E+02 -0.26326925339E+02  0.31545884933E+02  0.60239623695E+02  0.10566000000E+00 0.  1.
         23    2    1    0    0    0  0.25477546333E+02 -0.16362624420E+02  0.47216225185E+01  0.94354697517E+02  0.89239421666E+02 0.  0.
         13    1    3    3    0    0 -0.18574141998E+02  0.99643009191E+01 -0.26824262415E+02  0.34115073822E+02  0.10566000000E+00 0. -1.
         22    1    1    0    0    0 -0.25477546333E+02  0.16362624420E+02 -0.47216225185E+01  0.30645302483E+02  0.00000000000E+00 0.  1.
</event>
<event>
 5    1  0.9041381E-005  0.9118800E+02  0.7818608E-02  0.1130116E+00
         25   -1    0    0    0    0  0.00000000000E+00  0.00000000000E+00  0.99999998245E-14  0.12500000000E+03  0.12500000000E+03 0.  0.
        -13    1    3    3    0    0  0.29198044545E+02  0.10494359029E+02  0.22194474833E+02  0.38147912837E+02  0.10566000000E+00 0.  1.
         23    2    1    0    0    0 -0.11505904176E-02  0.16071948274E+02  0.46026051611E+02  0.76248539001E+02  0.58627082055E+02 0.  0.
         13    1    3    3    0    0 -0.29199195136E+02  0.55775892446E+01  0.23831576778E+02  0.38100626164E+02  0.10566000000E+00 0. -1.
         22    1    1    0    0    0  0.11505904176E-02 -0.16071948274E+02 -0.46026051611E+02  0.48751460999E+02  0.00000000000E+00 0. -1.
</event>
<event>
 5    1  0.9041381E-005  0.9118800E+02  0.7818608E-02  0.1130116E+00
         25   -1    0    0    0    0  0.00000000000E+00  0.00000000000E+00  0.99999998245E-14  0.12500000000E+03  0.12500000000E+03 0.  0.
        -13    1    3    3    0    0 -0.34731424170E+02 -0.15738144544E+02  0.45214985432E+02  0.59146995614E+02  0.10566000000E+00 0. -1.
         23    2    1    0    0    0 -0.18476278201E+02  0.66380467060E+01  0.23932850749E+02  0.94044905666E+02  0.88804427911E+02 0.  0.
         13    1    3    3    0    0  0.16255145969E+02  0.22376191250E+02 -0.21282134682E+02  0.34897910052E+02  0.10566000000E+00 0.  1.
         22    1    1    0    0    0  0.18476278201E+02 -0.66380467060E+01 -0.23932850749E+02  0.30955094334E+02  0.00000000000E+00 0. -1.
</event>
<event>
 5    1  0.9041381E-005  0.9118800E+02  0.7818608E-02  0.1130116E+00
         25   -1    0    0    0    0  0.00000000000E+00  0.00000000000E+00  0.99999998245E-14  0.12500000000E+03  0.12500000000E+03 0.  0.
        -13    1    3    3    0    0  0.44867568526E+02  0.60556023309E+01  0.28457765108E+02  0.53475457773E+02  0.10566000000E+00 0. -1.
         23    2    1    0    0    0  0.78173892656E+01  0.22913479947E+02  0.15747026665E+02  0.96119072262E+02  0.91677522139E+02 0.  0.
         13    1    3    3    0    0 -0.37050179260E+02  0.16857877616E+02 -0.12710738444E+02  0.42643614490E+02  0.10566000000E+00 0.  1.
         22    1    1    0    0    0 -0.78173892656E+01 -0.22913479947E+02 -0.15747026665E+02  0.28880927738E+02  0.00000000000E+00 0.  1.
</event>
<event>
 5    1  0.9041381E-005  0.9118800E+02  0.7818608E-02  0.1130116E+00
         25   -1    0    0    0    0  0.00000000000E+00  0.00000000000E+00  0.99999998245E-14  0.12500000000E+03  0.12500000000E+03 0.  0.
        -13    1    3    3    0    0  0.32604989757E+02  0.51569161850E+01 -0.58990385640E+01  0.33533400687E+02  0.10566000000E+00 0.  1.
         23    2    1    0    0    0 -0.24143965295E+02  0.15876826852E+02 -0.15703257488E+02  0.92112358145E+02  0.86041208362E+02 0.  0.
         13    1    3    3    0    0 -0.56748955052E+02  0.10719910667E+02 -0.98042189240E+01  0.58578957459E+02  0.10566000000E+00 0. -1.
         22    1    1    0    0    0  0.24143965295E+02 -0.15876826852E+02  0.15703257488E+02  0.32887641855E+02  0.00000000000E+00 0. -1.
</event>
<event>
 5    1  0.9041381E-005  0.9118800E+02  0.7818608E-02  0.1130116E+00
         25   -1    0    0    0    0  0.00000000000E+00  0.00000000000E+00  0.99999998245E-14  0.12500000000E+03  0.12500000000E+03 0.  0.
        -13    1    3    3    0    0 -0.18664552233E+02 -0.40797579635E+02  0.20570198019E+01  0.44911585461E+02  0.10566000000E+00 0.  1.
         23    2    1    0    0    0  0.21945226690E+02 -0.11788656362E+02 -0.12813380258E+02  0.96986644133E+02  0.92852899972E+02 0.  0.
         13    1    3    3    0    0  0.40609778924E+02  0.29008923272E+02 -0.14870400060E+02  0.52075058671E+02  0.10566000000E+00 0. -1.
         22    1    1    0    0    0 -0.21945226690E+02  0.11788656362E+02  0.12813380258E+02  0.28013355867E+02  0.00000000000E+00 0.  1.
</event>
<event>
 5    1  0.9041381E-005  0.9118800E+02  0.7818608E-02  0.1130116E+00
         25   -1    0    0    0    0  0.00000000000E+00  0.00000000000E+00  0.99999998245E-14  0.12500000000E+03  0.12500000000E+03 0.  0.
        -13    1    3    3    0    0  0.27846484314E+02  0.19494404802E+02  0.34403947755E+02  0.48364256352E+02  0.10566000000E+00 0. -1.
         23    2    1    0    0    0  0.16342561554E+02  0.11642419393E+02 -0.15162099749E+02  0.99850158723E+02  0.96630945772E+02 0.  0.
         13    1    3    3    0    0 -0.11503922760E+02 -0.78519854097E+01 -0.49566047505E+02  0.51485902371E+02  0.10566000000E+00 0.  1.
         22    1    1    0    0    0 -0.16342561554E+02 -0.11642419393E+02  0.15162099749E+02  0.25149841277E+02  0.00000000000E+00 0.  1.
</event>
<event>
 5    1  0.9041381E-005  0.9118800E+02  0.7818608E-02  0.1130116E+00
         25   -1    0    0    0    0  0.00000000000E+00  0.00000000000E+00  0.99999998245E-14  0.12500000000E+03  0.12500000000E+03 0.  0.
        -13    1    3    3    0    0 -0.15910345182E+02  0.28904001784E+02 -0.31514092205E+02  0.45625974779E+02  0.10566000000E+00 0.  1.
         23    2    1    0    0    0 -0.24202763402E+02  0.46355932586E+01  0.13104172758E+02  0.97089754125E+02  0.92991604628E+02 0.  0.
         13    1    3    3    0    0 -0.82924182198E+01 -0.24268408526E+02  0.44618264962E+02  0.51463779346E+02  0.10566000000E+00 0. -1.
         22    1    1    0    0    0  0.24202763402E+02 -0.46355932586E+01 -0.13104172758E+02  0.27910245875E+02  0.00000000000E+00 0. -1.
</event>
<event>
 5    1  0.9041381E-005  0.9118800E+02  0.7818608E-02  0.1130116E+00
         25   -1    0    0    0    0  0.00000000000E+00  0.00000000000E+00  0.99999998245E-14  0.12500000000E+03  0.12500000000E+03 0.  0.
        -13    1    3    3    0    0 -0.19218513552E+02  0.46406298235E+02  0.30469496670E+02  0.58747741832E+02  0.10566000000E+00 0.  1.
         23    2    1    0    0    0 -0.88485547542E+01  0.11405697837E+02  0.25646903403E+02  0.95569564758E+02  0.90925195570E+02 0.  0.
         13    1    3    3    0    0  0.10369958798E+02 -0.35000600399E+02 -0.48225932667E+01  0.36821822926E+02  0.10566000000E+00 0. -1.
         22    1    1    0    0    0  0.88485547542E+01 -0.11405697837E+02 -0.25646903403E+02  0.29430435242E+02  0.00000000000E+00 0.  1.
</event>
<event>
 5    1  0.9041381E-005  0.9118800E+02  0.7818608E-02  0.1130116E+00
         25   -1    0    0    0    0  0.00000000000E+00  0.00000000000E+00  0.99999998245E-14  0.12500000000E+03  0.12500000000E+03 0.  0.
        -13    1    3    3    0    0 -0.50281730910E+02  0.33331808022E+02  0.15951408653E+02  0.62399683424E+02  0.10566000000E+00 0.  1.
         23    2    1    0    0    0 -0.24613774763E+02  0.14430668061E+02  0.55260654928E+01  0.95937662024E+02  0.91429839254E+02 0.  0.
         13    1    3    3    0    0  0.25667956146E+02 -0.18901139961E+02 -0.10425343160E+02  0.33537978600E+02  0.10566000000E+00 0. -1.
         22    1    1    0    0    0  0.24613774763E+02 -0.14430668061E+02 -0.55260654928E+01  0.29062337976E+02  0.00000000000E+00 0.  1.
</event>
<event>
 5    1  0.9041381E-005  0.9118800E+02  0.7818608E-02  0.1130116E+00
         25   -1    0    0    0    0  0.00000000000E+00  0.00000000000E+00  0.99999998245E-14  0.12500000000E+03  0.12500000000E+03 0.  0.
        -13    1    3    3    0    0  0.19464217136E+02 -0.76034314537E+00  0.44059401282E+02  0.48173393858E+02  0.10566000000E+00 0.  1.
         23    2    1    0    0    0 -0.15448384543E+02  0.17616667202E+02  0.17943356042E+02  0.95487907998E+02  0.90812868028E+02 0.  0.
         13    1    3    3    0    0 -0.34912601679E+02  0.18377010347E+02 -0.26116045240E+02  0.47314514140E+02  0.10566000000E+00 0. -1.
         22    1    1    0    0    0  0.15448384543E+02 -0.17616667202E+02 -0.17943356042E+02  0.29512092002E+02  0.00000000000E+00 0. -1.
</event>
<event>
 5    1  0.9041381E-005  0.9118800E+02  0.7818608E-02  0.1130116E+00
         25   -1    0    0    0    0  0.00000000000E+00  0.00000000000E+00  0.99999998245E-14  0.12500000000E+03  0.12500000000E+03 0.  0.
        -13    1    3    3    0    0 -0.64376392299E+00 -0.39918790347E+02 -0.60941873719E+00  0.39928771707E+02  0.10566000000E+00 0. -1.
         23    2    1    0    0    0 -0.28338582683E+02  0.81667482414E+01 -0.20357785743E+01  0.95437939184E+02  0.90744062042E+02 0.  0.
         13    1    3    3    0    0 -0.27694818760E+02  0.48085538589E+02 -0.14263598371E+01  0.55509167477E+02  0.10566000000E+00 0.  1.
         22    1    1    0    0    0  0.28338582683E+02 -0.81667482414E+01  0.20357785743E+01  0.29562060816E+02  0.00000000000E+00 0.  1.
</event>
<event>
 5    1  0.9041381E-005  0.9118800E+02  0.7818608E-02  0.1130116E+00
         25   -1    0    0    0    0  0.00000000000E+00  0.00000000000E+00  0.99999998245E-14  0.12500000000E+03  0.12500000000E+03 0.  0.
        -13    1    3    3    0    0  0.21830273508E+02  0.19990309406E+02  0.20316709325E+02  0.35901993724E+02  0.10566000000E+00 0.  1.
         23    2    1    0    0    0 -0.17222697388E+02 -0.22941830803E+02  0.77576034080E+01  0.95282508240E+02  0.90529702639E+02 0.  0.
         13    1    3    3    0    0 -0.39052970895E+02 -0.42932140209E+02 -0.12559105917E+02  0.59380514515E+02  0.10566000000E+00 0. -1.
         22    1    1    0    0    0  0.17222697388E+02  0.22941830803E+02 -0.77576034080E+01  0.29717491760E+02  0.00000000000E+00 0. -1.
</event>
<event>
 5    1  0.9041381E-005  0.9118800E+02  0.7818608E-02  0.1130116E+00
         25   -1    0    0    0    0  0.00000000000E+00  0.00000000000E+00  0.99999998245E-14  0.12500000000E+03  0.12500000000E+03 0.  0.
        -13    1    3    3    0    0  0.10112201957E+02  0.32442160640E+02  0.18011111596E+02  0.38459871560E+02  0.10566000000E+00 0.  1.
         23    2    1    0    0    0  0.20446783516E+02 -0.21491415015E+02  0.46877186632E+01  0.94967907469E+02  0.90094266561E+02 0.  0.
         13    1    3    3    0    0  0.10334581560E+02 -0.53933575656E+02 -0.13323392932E+02  0.56508035909E+02  0.10566000000E+00 0. -1.
         22    1    1    0    0    0 -0.20446783516E+02  0.21491415015E+02 -0.46877186632E+01  0.30032092531E+02  0.00000000000E+00 0. -1.
</event>
<event>
 5    1  0.9041381E-005  0.9118800E+02  0.7818608E-02  0.1130116E+00
         25   -1    0    0    0    0  0.00000000000E+00  0.00000000000E+00  0.99999998245E-14  0.12500000000E+03  0.12500000000E+03 0.  0.
        -13    1    3    3    0    0 -0.32542576910E+02  0.37983637615E+01 -0.22545309326E+02  0.39771208378E+02  0.10566000000E+00 0.  1.
         23    2    1    0    0    0 -0.90394122018E+01 -0.15352257453E+02  0.23872281842E+02  0.95212609678E+02  0.90433137839E+02 0.  0.
         13    1    3    3    0    0  0.23503164708E+02 -0.19150621214E+02  0.46417591168E+02  0.55441401300E+02  0.10566000000E+00 0. -1.
         22    1    1    0    0    0  0.90394122018E+01  0.15352257453E+02 -0.23872281842E+02  0.29787390322E+02  0.00000000000E+00 0. -1.
</event>
<event>
 5    1  0.9041381E-005  0.9118800E+02  0.7818608E-02  0.1130116E+00
         25   -1    0    0    0    0  0.00000000000E+00  0.00000000000E+00  0.99999998245E-14  0.12500000000E+03  0.12500000000E+03 0.  0.
        -13    1    3    3    0    0 -0.12198362258E+02  0.30060947448E+02  0.19940696051E+02  0.38080219620E+02  0.10566000000E+00 0.  1.
         23    2    1    0    0    0 -0.13529926581E+02 -0.11873639712E+02 -0.21437010239E+02  0.97007364517E+02  0.92880789883E+02 0.  0.
         13    1    3    3    0    0 -0.13315643230E+01 -0.41934587160E+02 -0.41377706290E+02  0.58927144897E+02  0.10566000000E+00 0. -1.
         22    1    1    0    0    0  0.13529926581E+02  0.11873639712E+02  0.21437010239E+02  0.27992635483E+02  0.00000000000E+00 0. -1.
</event>
<event>
 5    1  0.9041381E-005  0.9118800E+02  0.7818608E-02  0.1130116E+00
         25   -1    0    0    0    0  0.00000000000E+00  0.00000000000E+00  0.99999998245E-14  0.12500000000E+03  0.12500000000E+03 0.  0.
        -13    1    3    3    0    0 -0.25608771544E+02 -0.42710182170E+02 -0.37602986824E+02  0.62401639587E+02  0.10566000000E+00 0. -1.
         23    2    1    0    0    0 -0.14106874838E+02 -0.18784976157E+02 -0.18176706791E+02  0.95296937588E+02  0.90549623947E+02 0.  0.
         13    1    3    3    0    0  0.11501896706E+02  0.23925206013E+02  0.19426280033E+02  0.32895298001E+02  0.10566000000E+00 0.  1.
         22    1    1    0    0    0  0.14106874838E+02  0.18784976157E+02  0.18176706791E+02  0.29703062412E+02  0.00000000000E+00 0. -1.
</event>
<event>
 5    1  0.9041381E-005  0.9118800E+02  0.7818608E-02  0.1130116E+00
         25   -1    0    0    0    0  0.00000000000E+00  0.00000000000E+00  0.99999998245E-14  0.12500000000E+03  0.12500000000E+03 0.  0.
        -13    1    3    3    0    0 -0.27777606532E+02 -0.40895951217E+02 -0.31776448535E+02  0.58769278506E+02  0.10566000000E+00 0. -1.
         23    2    1    0    0    0  0.37019682500E+00 -0.25917450769E+02 -0.17634469453E+02  0.93649947162E+02  0.88246738130E+02 0.  0.
         13    1    3    3    0    0  0.28147803357E+02  0.14978500449E+02  0.14141979082E+02  0.34880668656E+02  0.10566000000E+00 0.  1.
         22    1    1    0    0    0 -0.37019682500E+00  0.25917450769E+02  0.17634469453E+02  0.31350052838E+02  0.00000000000E+00 0. -1.
</event>
<event>
 5    1  0.9041381E-005  0.9118800E+02  0.7818608E-02  0.1130116E+00
         25   -1    0    0    0    0  0.00000000000E+00  0.00000000000E+00  0.99999998245E-14  0.12500000000E+03  0.12500000000E+03 0.  0.
        -13    1    3    3    0    0 -0.36255169507E+02  0.19731339188E+02  0.13049180964E+02  0.43290360937E+02  0.10566000000E+00 0.  1.
         23    2    1    0    0    0 -0.12317817974E+02 -0.46956100409E+01 -0.26394557848E+02  0.95496609055E+02  0.90824843868E+02 0.  0.
         13    1    3    3    0    0  0.23937351534E+02 -0.24426949229E+02 -0.39443738812E+02  0.52206248118E+02  0.10566000000E+00 0. -1.
         22    1    1    0    0    0  0.12317817974E+02  0.46956100409E+01  0.26394557848E+02  0.29503390945E+02  0.00000000000E+00 0.  1.
</event>
<event>
 5    1  0.9041381E-005  0.9118800E+02  0.7818608E-02  0.1130116E+00
         25   -1    0    0    0    0  0.00000000000E+00  0.00000000000E+00  0.99999998245E-14  0.12500000000E+03  0.12500000000E+03 0.  0.
        -13    1    3    3    0    0  0.55096610861E+02 -0.68975856573E+01 -0.20945188799E+02  0.59345811260E+02  0.10566000000E+00 0.  1.
         23    2    1    0    0    0  0.24065506380E+02 -0.16721665972E+02 -0.13497857804E+02  0.92736167687E+02  0.86942750829E+02 0.  0.
         13    1    3    3    0    0 -0.31031104481E+02 -0.98240803151E+01  0.74473309947E+01  0.33390356427E+02  0.10566000000E+00 0. -1.
         22    1    1    0    0    0 -0.24065506380E+02  0.16721665972E+02  0.13497857804E+02  0.32263832313E+02  0.00000000000E+00 0.  1.
</event>
<event>
 5    1  0.9041381E-005  0.9118800E+02  0.7818608E-02  0.1130116E+00
         25   -1    0    0    0    0  0.00000000000E+00  0.00000000000E+00  0.99999998245E-14  0.12500000000E+03  0.12500000000E+03 0.  0.
        -13    1    3    3    0    0  0.39605777531E+02  0.76904342536E+01  0.20365191816E+02  0.45194165493E+02  0.10566000000E+00 0.  1.
         23    2    1    0    0    0 -0.87454637726E+01  0.69250488931E+00  0.28907617731E+02  0.94790513700E+02  0.89847807013E+02 0.  0.
         13    1    3    3    0    0 -0.48351241303E+02 -0.69979293642E+01  0.85424259149E+01  0.49596348208E+02  0.10566000000E+00 0. -1.
         22    1    1    0    0    0  0.87454637726E+01 -0.69250488931E+00 -0.28907617731E+02  0.30209486300E+02  0.00000000000E+00 0.  1.
</event>
<event>
 5    1  0.9041381E-005  0.9118800E+02  0.7818608E-02  0.1130116E+00
         25   -1    0    0    0    0  0.00000000000E+00  0.00000000000E+00  0.99999998245E-14  0.12500000000E+03  0.12500000000E+03 0.  0.
        -13    1    3    3    0    0 -0.30239687842E+02  0.40816709074E+02  0.17424626450E+02  0.53703549523E+02  0.10566000000E+00 0. -1.
         23    2    1    0    0    0 -0.30983413546E+02  0.33420538857E+01  0.12136708415E+02  0.91556900110E+02  0.85230423133E+02 0.  0.
         13    1    3    3    0    0 -0.74372570348E+00 -0.37474655189E+02 -0.52879180350E+01  0.37853350586E+02  0.10566000000E+00 0.  1.
         22    1    1    0    0    0  0.30983413546E+02 -0.33420538857E+01 -0.12136708415E+02  0.33443099890E+02  0.00000000000E+00 0. -1.
</event>
<event>
 5    1  0.9041381E-005  0.9118800E+02  0.7818608E-02  0.1130116E+00
         25   -1    0    0    0    0  0.00000000000E+00  0.00000000000E+00  0.99999998245E-14  0.12500000000E+03  0.12500000000E+03 0.  0.
        -13    1    3    3    0    0 -0.46036892183E+02 -0.20222504245E+02 -0.32094256799E+02  0.59652305935E+02  0.10566000000E+00 0.  1.
         23    2    1    0    0    0 -0.27973863533E+02  0.20528314336E+00 -0.83609658085E+01  0.95802655406E+02  0.91245075765E+02 0.  0.
         13    1    3    3    0    0  0.18063028650E+02  0.20427787388E+02  0.23733290991E+02  0.36150349471E+02  0.10566000000E+00 0. -1.
         22    1    1    0    0    0  0.27973863533E+02 -0.20528314336E+00  0.83609658085E+01  0.29197344594E+02  0.00000000000E+00 0.  1.
</event>
<event>
 5    1  0.9041381E-005  0.9118800E+02  0.7818608E-02  0.1130116E+00
         25   -1    0    0    0    0  0.00000000000E+00  0.00000000000E+00  0.99999998245E-14  0.12500000000E+03  0.12500000000E+03 0.  0.
        -13    1    3    3    0    0 -0.60602405738E+01 -0.18208641378E+02 -0.57546432539E+02  0.60662049081E+02  0.10566000000E+00 0. -1.
         23    2    1    0    0    0  0.45660463766E+01 -0.15896105023E+02 -0.24598809937E+02  0.95358198693E+02  0.90634152907E+02 0.  0.
         13    1    3    3    0    0  0.10626286950E+02  0.23125363554E+01  0.32947622602E+02  0.34696149612E+02  0.10566000000E+00 0.  1.
         22    1    1    0    0    0 -0.45660463766E+01  0.15896105023E+02  0.24598809937E+02  0.29641801307E+02  0.00000000000E+00 0. -1.
</event>
<event>
 5    1  0.9041381E-005  0.9118800E+02  0.7818608E-02  0.1130116E+00
         25   -1    0    0    0    0  0.00000000000E+00  0.00000000000E+00  0.99999998245E-14  0.12500000000E+03  0.12500000000E+03 0.  0.
        -13    1    3    3    0    0  0.48151643541E+01  0.41950205412E+02 -0.69354259161E+01  0.42791551018E+02  0.10566000000E+00 0.  1.
         23    2    1    0    0    0 -0.26898479482E+02  0.13304484822E+02 -0.21657576403E+02  0.87992053144E+02  0.79831154859E+02 0.  0.
         13    1    3    3    0    0 -0.31713643836E+02 -0.28645720590E+02 -0.14722150487E+02  0.45200502126E+02  0.10566000000E+00 0. -1.
         22    1    1    0    0    0  0.26898479482E+02 -0.13304484822E+02  0.21657576403E+02  0.37007946856E+02  0.00000000000E+00 0.  1.
</event>
<event>
 5    1  0.9041381E-005  0.9118800E+02  0.7818608E-02  0.1130116E+00
         25   -1    0    0    0    0  0.00000000000E+00  0.00000000000E+00  0.99999998245E-14  0.12500000000E+03  0.12500000000E+03 0.  0.
        -13    1    3    3    0    0  0.20104110045E+01 -0.76123375733E+01  0.52900030554E+02  0.53482836802E+02  0.10566000000E+00 0. -1.
         23    2    1    0    0    0 -0.14926012509E+02 -0.18399529647E+02  0.13433013475E+02  0.97764464542E+02  0.93894175195E+02 0.  0.
         13    1    3    3    0    0 -0.16936423514E+02 -0.10787192073E+02 -0.39467017078E+02  0.44281627740E+02  0.10566000000E+00 0.  1.
         22    1    1    0    0    0  0.14926012509E+02  0.18399529647E+02 -0.13433013475E+02  0.27235535458E+02  0.00000000000E+00 0.  1.
</event>
<event>
 5    1  0.9041381E-005  0.9118800E+02  0.7818608E-02  0.1130116E+00
         25   -1    0    0    0    0  0.00000000000E+00  0.00000000000E+00  0.99999998245E-14  0.12500000000E+03  0.12500000000E+03 0.  0.
        -13    1    3    3    0    0  0.15638814520E+02 -0.29805234633E+02 -0.12433221972E+02  0.35882038735E+02  0.10566000000E+00 0. -1.
         23    2    1    0    0    0  0.84159113909E+01  0.21965468097E+02  0.17098517941E+02  0.95919617110E+02  0.91405165486E+02 0.  0.
         13    1    3    3    0    0 -0.72229031290E+01  0.51770702730E+02  0.29531739913E+02  0.60037578375E+02  0.10566000000E+00 0.  1.
         22    1    1    0    0    0 -0.84159113909E+01 -0.21965468097E+02 -0.17098517941E+02  0.29080382890E+02  0.00000000000E+00 0.  1.
</event>
<event>
 5    1  0.9041381E-005  0.9118800E+02  0.7818608E-02  0.1130116E+00
         25   -1    0    0    0    0  0.00000000000E+00  0.00000000000E+00  0.99999998245E-14  0.12500000000E+03  0.12500000000E+03 0.  0.
        -13    1    3    3    0    0  0.35645864910E+00  0.10602620981E+02  0.33621757511E+02  0.35255870101E+02  0.10566000000E+00 0.  1.
         23    2    1    0    0    0 -0.18383093924E+02  0.61343028055E+01 -0.22917370145E+02  0.94987108311E+02  0.90120902558E+02 0.  0.
         13    1    3    3    0    0 -0.18739552574E+02 -0.44683181753E+01 -0.56539127656E+02  0.59731238210E+02  0.10566000000E+00 0. -1.
         22    1    1    0    0    0  0.18383093924E+02 -0.61343028055E+01  0.22917370145E+02  0.30012891689E+02  0.00000000000E+00 0. -1.
</event>
<event>
 5    1  0.9041381E-005  0.9118800E+02  0.7818608E-02  0.1130116E+00
         25   -1    0    0    0    0  0.00000000000E+00  0.00000000000E+00  0.99999998245E-14  0.12500000000E+03  0.12500000000E+03 0.  0.
        -13    1    3    3    0    0  0.28506720901E+02 -0.45180461824E+02  0.57757914833E+01  0.53733399283E+02  0.10566000000E+00 0.  1.
         23    2    1    0    0    0  0.76871984633E+01 -0.18406184029E+02 -0.20318844663E+02  0.96526572402E+02  0.92231464808E+02 0.  0.
         13    1    3    3    0    0 -0.20819522438E+02  0.26774277796E+02 -0.26094636146E+02  0.42793173120E+02  0.10566000000E+00 0. -1.
         22    1    1    0    0    0 -0.76871984633E+01  0.18406184029E+02  0.20318844663E+02  0.28473427598E+02  0.00000000000E+00 0.  1.
</event>
<event>
 5    1  0.9041381E-005  0.9118800E+02  0.7818608E-02  0.1130116E+00
         25   -1    0    0    0    0  0.00000000000E+00  0.00000000000E+00  0.99999998245E-14  0.12500000000E+03  0.12500000000E+03 0.  0.
        -13    1    3    3    0    0 -0.54107674111E+01 -0.10637308469E+01 -0.34924485220E+02  0.35357301356E+02  0.10566000000E+00 0.  1.
         23    2    1    0    0    0  0.18114355612E+01 -0.11549302399E+02  0.25414813559E+02  0.97025360898E+02  0.92905006455E+02 0.  0.
         13    1    3    3    0    0  0.72222029723E+01 -0.10485571552E+02  0.60339298778E+02  0.61668059542E+02  0.10566000000E+00 0. -1.
         22    1    1    0    0    0 -0.18114355612E+01  0.11549302399E+02 -0.25414813559E+02  0.27974639102E+02  0.00000000000E+00 0. -1.
</event>
<event>
 5    1  0.9041381E-005  0.9118800E+02  0.7818608E-02  0.1130116E+00
         25   -1    0    0    0    0  0.00000000000E+00  0.00000000000E+00  0.99999998245E-14  0.12500000000E+03  0.12500000000E+03 0.  0.
        -13    1    3    3    0    0 -0.55539799641E+02  0.91375246218E+01  0.60203222617E+00  0.56289762011E+02  0.10566000000E+00 0.  1.
         23    2    1    0    0    0 -0.20543925316E+02  0.82925161533E+01  0.18980154432E+02  0.95826982436E+02  0.91278396179E+02 0.  0.
         13    1    3    3    0    0  0.34995874325E+02 -0.84500846847E+00  0.18378122206E+02  0.39537220425E+02  0.10566000000E+00 0. -1.
         22    1    1    0    0    0  0.20543925316E+02 -0.82925161533E+01 -0.18980154432E+02  0.29173017564E+02  0.00000000000E+00 0.  1.
</event>
<event>
 5    1  0.9041381E-005  0.9118800E+02  0.7818608E-02  0.1130116E+00
         25   -1    0    0    0    0  0.00000000000E+00  0.00000000000E+00  0.99999998245E-14  0.12500000000E+03  0.12500000000E+03 0.  0.
        -13    1    3    3    0    0  0.49341387026E+01 -0.13604741525E+02 -0.56413631718E+02  0.58240395984E+02  0.10566000000E+00 0.  1.
         23    2    1    0    0    0 -0.91411713477E+01  0.52316034957E+01 -0.27770519792E+02  0.95299285223E+02  0.90552864702E+02 0.  0.
         13    1    3    3    0    0 -0.14075310050E+02  0.18836345021E+02  0.28643111926E+02  0.37058889239E+02  0.10566000000E+00 0. -1.
         22    1    1    0    0    0  0.91411713477E+01 -0.52316034957E+01  0.27770519792E+02  0.29700714777E+02  0.00000000000E+00 0.  1.
</event>
<event>
 5    1  0.9041381E-005  0.9118800E+02  0.7818608E-02  0.1130116E+00
         25   -1    0    0    0    0  0.00000000000E+00  0.00000000000E+00  0.99999998245E-14  0.12500000000E+03  0.12500000000E+03 0.  0.
        -13    1    3    3    0    0 -0.32349799222E+02  0.15782728237E+02 -0.42457682059E+02  0.55662105154E+02  0.10566000000E+00 0.  1.
         23    2    1    0    0    0 -0.91822647093E+01 -0.99881737059E+01 -0.29266377983E+02  0.92741691312E+02  0.86950691935E+02 0.  0.
         13    1    3    3    0    0  0.23167534513E+02 -0.25770901943E+02  0.13191304076E+02  0.37079586157E+02  0.10566000000E+00 0. -1.
         22    1    1    0    0    0  0.91822647093E+01  0.99881737059E+01  0.29266377983E+02  0.32258308688E+02  0.00000000000E+00 0.  1.
</event>
<event>
 5    1  0.9041381E-005  0.9118800E+02  0.7818608E-02  0.1130116E+00
         25   -1    0    0    0    0  0.00000000000E+00  0.00000000000E+00  0.99999998245E-14  0.12500000000E+03  0.12500000000E+03 0.  0.
        -13    1    3    3    0    0  0.26095994641E+02 -0.28545079428E+02 -0.47354495633E+02  0.61141490958E+02  0.10566000000E+00 0. -1.
         23    2    1    0    0    0  0.17652781386E+02 -0.18101839981E+02 -0.16456584153E+02  0.94831863443E+02  0.89905316087E+02 0.  0.
         13    1    3    3    0    0 -0.84432132551E+01  0.10443239448E+02  0.30897911481E+02  0.33690372485E+02  0.10566000000E+00 0.  1.
         22    1    1    0    0    0 -0.17652781386E+02  0.18101839981E+02  0.16456584153E+02  0.30168136557E+02  0.00000000000E+00 0. -1.
</event>
<event>
 5    1  0.9041381E-005  0.9118800E+02  0.7818608E-02  0.1130116E+00
         25   -1    0    0    0    0  0.00000000000E+00  0.00000000000E+00  0.99999998245E-14  0.12500000000E+03  0.12500000000E+03 0.  0.
        -13    1    3    3    0    0 -0.10891126273E+02  0.46485731837E+02  0.21941775633E+02  0.52545147996E+02  0.10566000000E+00 0.  1.
         23    2    1    0    0    0 -0.11002455124E+02  0.24464615819E+02 -0.14034013165E+02  0.94725836569E+02  0.89757780400E+02 0.  0.
         13    1    3    3    0    0 -0.11132885131E+00 -0.22021116019E+02 -0.35975788798E+02  0.42180688573E+02  0.10566000000E+00 0. -1.
         22    1    1    0    0    0  0.11002455124E+02 -0.24464615819E+02  0.14034013165E+02  0.30274163431E+02  0.00000000000E+00 0.  1.
</event>
<event>
 5    1  0.9041381E-005  0.9118800E+02  0.7818608E-02  0.1130116E+00
         25   -1    0    0    0    0  0.00000000000E+00  0.00000000000E+00  0.99999998245E-14  0.12500000000E+03  0.12500000000E+03 0.  0.
        -13    1    3    3    0    0  0.24518321523E+02 -0.16440758669E+02  0.26948939928E+02  0.39971279229E+02  0.10566000000E+00 0.  1.
         23    2    1    0    0    0  0.66201705150E+01  0.28499674057E+02 -0.78461815273E+00  0.95731011213E+02  0.91146874895E+02 0.  0.
         13    1    3    3    0    0 -0.17898151008E+02  0.44940432726E+02 -0.27733558080E+02  0.55759731984E+02  0.10566000000E+00 0. -1.
         22    1    1    0    0    0 -0.66201705150E+01 -0.28499674057E+02  0.78461815273E+00  0.29268988787E+02  0.00000000000E+00 0. -1.
</event>
<event>
 5    1  0.9041381E-005  0.9118800E+02  0.7818608E-02  0.1130116E+00
         25   -1    0    0    0    0  0.00000000000E+00  0.00000000000E+00  0.99999998245E-14  0.12500000000E+03  0.12500000000E+03 0.  0.
        -13    1    3    3    0    0 -0.78456483177E+01 -0.30534325555E+02  0.34129688784E+02  0.46462307898E+02  0.10566000000E+00 0. -1.
         23    2    1    0    0    0  0.21879132132E+02  0.68384963503E+01  0.95807048764E+01  0.10015545611E+03  0.97025069067E+02 0.  0.
         13    1    3    3    0    0  0.29724780450E+02  0.37372821905E+02 -0.24548983908E+02  0.53693148212E+02  0.10566000000E+00 0.  1.
         22    1    1    0    0    0 -0.21879132132E+02 -0.68384963503E+01 -0.95807048764E+01  0.24844543890E+02  0.00000000000E+00 0.  1.
</event>
<event>
 5    1  0.9041381E-005  0.9118800E+02  0.7818608E-02  0.1130116E+00
         25   -1    0    0    0    0  0.00000000000E+00  0.00000000000E+00  0.99999998245E-14  0.12500000000E+03  0.12500000000E+03 0.  0.
        -13    1    3    3    0    0  0.17639453085E+02  0.51975504286E+02 -0.16625400388E+02  0.57349964717E+02  0.10566000000E+00 0. -1.
         23    2    1    0    0    0  0.22226624068E+02  0.11943884860E+02 -0.51311259671E+01  0.99251064941E+02  0.95852836344E+02 0.  0.
         13    1    3    3    0    0  0.45871709826E+01 -0.40031619426E+02  0.11494274421E+02  0.41901100224E+02  0.10566000000E+00 0.  1.
         22    1    1    0    0    0 -0.22226624068E+02 -0.11943884860E+02  0.51311259671E+01  0.25748935059E+02  0.00000000000E+00 0. -1.
</event>
<event>
 5    1  0.9041381E-005  0.9118800E+02  0.7818608E-02  0.1130116E+00
         25   -1    0    0    0    0  0.00000000000E+00  0.00000000000E+00  0.99999998245E-14  0.12500000000E+03  0.12500000000E+03 0.  0.
        -13    1    3    3    0    0  0.17911497549E+02 -0.43160394132E+02 -0.34277242058E+02  0.57953273015E+02  0.10566000000E+00 0. -1.
         23    2    1    0    0    0  0.55264399194E+01 -0.76983724286E+01 -0.27225736845E+02  0.96172110328E+02  0.91749809710E+02 0.  0.
         13    1    3    3    0    0 -0.12385057629E+02  0.35462021703E+02  0.70515052128E+01  0.38218837313E+02  0.10566000000E+00 0.  1.
         22    1    1    0    0    0 -0.55264399194E+01  0.76983724286E+01  0.27225736845E+02  0.28827889672E+02  0.00000000000E+00 0. -1.
</event>
<event>
 5    1  0.9041381E-005  0.9118800E+02  0.7818608E-02  0.1130116E+00
         25   -1    0    0    0    0  0.00000000000E+00  0.00000000000E+00  0.99999998245E-14  0.12500000000E+03  0.12500000000E+03 0.  0.
        -13    1    3    3    0    0 -0.11868290562E+01  0.46313973260E+02 -0.38235919441E+02  0.60069870833E+02  0.10566000000E+00 0. -1.
         23    2    1    0    0    0  0.28437507233E+00  0.32840302748E+02 -0.11220936953E+02  0.90294441658E+02  0.83358325405E+02 0.  0.
         13    1    3    3    0    0  0.14712041285E+01 -0.13473670512E+02  0.27014982488E+02  0.30224570825E+02  0.10566000000E+00 0.  1.
         22    1    1    0    0    0 -0.28437507233E+00 -0.32840302748E+02  0.11220936953E+02  0.34705558342E+02  0.00000000000E+00 0. -1.
</event>
<event>
 5    1  0.9041381E-005  0.9118800E+02  0.7818608E-02  0.1130116E+00
         25   -1    0    0    0    0  0.00000000000E+00  0.00000000000E+00  0.99999998245E-14  0.12500000000E+03  0.12500000000E+03 0.  0.
        -13    1    3    3    0    0  0.33854508959E+02  0.10170650993E+02  0.16459037692E+02  0.38993345641E+02  0.10566000000E+00 0.  1.
         23    2    1    0    0    0 -0.13878465797E+02  0.23465949901E+02 -0.10951512748E+02  0.95619764312E+02  0.90994181561E+02 0.  0.
         13    1    3    3    0    0 -0.47732974755E+02  0.13295298908E+02 -0.27410550440E+02  0.56626418671E+02  0.10566000000E+00 0. -1.
         22    1    1    0    0    0  0.13878465797E+02 -0.23465949901E+02  0.10951512748E+02  0.29380235688E+02  0.00000000000E+00 0.  1.
</event>
<event>
 5    1  0.9041381E-005  0.9118800E+02  0.7818608E-02  0.1130116E+00
         25   -1    0    0    0    0  0.00000000000E+00  0.00000000000E+00  0.99999998245E-14  0.12500000000E+03  0.12500000000E+03 0.  0.
        -13    1    3    3    0    0 -0.87267257252E+01 -0.35728934402E+02 -0.34761761147E+01  0.36943300608E+02  0.10566000000E+00 0.  1.
         23    2    1    0    0    0 -0.19925206422E+02  0.21507822476E+02 -0.48557376099E+01  0.95281681300E+02  0.90528560825E+02 0.  0.
         13    1    3    3    0    0 -0.11198480696E+02  0.57236756878E+02 -0.13795614952E+01  0.58338380692E+02  0.10566000000E+00 0. -1.
         22    1    1    0    0    0  0.19925206422E+02 -0.21507822476E+02  0.48557376099E+01  0.29718318700E+02  0.00000000000E+00 0. -1.
</event>
<event>
 5    1  0.9041381E-005  0.9118800E+02  0.7818608E-02  0.1130116E+00
         25   -1    0    0    0    0  0.00000000000E+00  0.00000000000E+00  0.99999998245E-14  0.12500000000E+03  0.12500000000E+03 0.  0.
        -13    1    3    3    0    0 -0.20953628760E+02 -0.49588600151E+02  0.53122742343E+00  0.53836578548E+02  0.10566000000E+00 0. -1.
         23    2    1    0    0    0 -0.64656606682E+01 -0.30430478184E+02 -0.22100838619E+02  0.86838948678E+02  0.78004725302E+02 0.  0.
         13    1    3    3    0    0  0.14487968092E+02  0.19158121968E+02 -0.22632066043E+02  0.33002370129E+02  0.10566000000E+00 0.  1.
         22    1    1    0    0    0  0.64656606682E+01  0.30430478184E+02  0.22100838619E+02  0.38161051322E+02  0.00000000000E+00 0. -1.
</event>
<event>
 5    1  0.9041381E-005  0.9118800E+02  0.7818608E-02  0.1130116E+00
         25   -1    0    0    0    0  0.00000000000E+00  0.00000000000E+00  0.99999998245E-14  0.12500000000E+03  0.12500000000E+03 0.  0.
        -13    1    3    3    0    0  0.23757888303E+02 -0.25577877085E+02  0.39855383286E+02  0.52982334732E+02  0.10566000000E+00 0.  1.
         23    2    1    0    0    0 -0.95133225806E+01 -0.30335876030E+01  0.28582837489E+02  0.94723200975E+02  0.89754109899E+02 0.  0.
         13    1    3    3    0    0 -0.33271210884E+02  0.22544289482E+02 -0.11272545797E+02  0.41740866243E+02  0.10566000000E+00 0. -1.
         22    1    1    0    0    0  0.95133225806E+01  0.30335876030E+01 -0.28582837489E+02  0.30276799025E+02  0.00000000000E+00 0. -1.
</event>
<event>
 5    1  0.9041381E-005  0.9118800E+02  0.7818608E-02  0.1130116E+00
         25   -1    0    0    0    0  0.00000000000E+00  0.00000000000E+00  0.99999998245E-14  0.12500000000E+03  0.12500000000E+03 0.  0.
        -13    1    3    3    0    0 -0.38200631091E+02  0.95827680404E+01  0.38236114160E+02  0.54891978004E+02  0.10566000000E+00 0.  1.
         23    2    1    0    0    0 -0.62829469467E+01 -0.91381403894E+01  0.30297145113E+02  0.92737048584E+02  0.86944017310E+02 0.  0.
         13    1    3    3    0    0  0.31917684145E+02 -0.18720908430E+02 -0.79389690476E+01  0.37845070580E+02  0.10566000000E+00 0. -1.
         22    1    1    0    0    0  0.62829469467E+01  0.91381403894E+01 -0.30297145113E+02  0.32262951416E+02  0.00000000000E+00 0.  1.
</event>
<event>
 5    1  0.9041381E-005  0.9118800E+02  0.7818608E-02  0.1130116E+00
         25   -1    0    0    0    0  0.00000000000E+00  0.00000000000E+00  0.99999998245E-14  0.12500000000E+03  0.12500000000E+03 0.  0.
        -13    1    3    3    0    0  0.39254762601E+02 -0.82396925579E+01 -0.32247433228E+02  0.51465882234E+02  0.10566000000E+00 0.  1.
         23    2    1    0    0    0 -0.12039949146E+01 -0.19549242184E+02 -0.23555156528E+02  0.94365576996E+02  0.89254659537E+02 0.  0.
         13    1    3    3    0    0 -0.40458757515E+02 -0.11309549626E+02  0.86922767001E+01  0.42899694762E+02  0.10566000000E+00 0. -1.
         22    1    1    0    0    0  0.12039949146E+01  0.19549242184E+02  0.23555156528E+02  0.30634423004E+02  0.00000000000E+00 0.  1.
</event>
<event>
 5    1  0.9041381E-005  0.9118800E+02  0.7818608E-02  0.1130116E+00
         25   -1    0    0    0    0  0.00000000000E+00  0.00000000000E+00  0.99999998245E-14  0.12500000000E+03  0.12500000000E+03 0.  0.
        -13    1    3    3    0    0 -0.22679227129E+02  0.14431716084E+02  0.23844399629E+02  0.35933109106E+02  0.10566000000E+00 0.  1.
         23    2    1    0    0    0 -0.75940173241E+01 -0.22161571218E+02 -0.19419494360E+02  0.94571048340E+02  0.89541957120E+02 0.  0.
         13    1    3    3    0    0  0.15085209805E+02 -0.36593287302E+02 -0.43263893989E+02  0.58637939234E+02  0.10566000000E+00 0. -1.
         22    1    1    0    0    0  0.75940173241E+01  0.22161571218E+02  0.19419494360E+02  0.30428951660E+02  0.00000000000E+00 0.  1.
</event>
<event>
 5    1  0.9041381E-005  0.9118800E+02  0.7818608E-02  0.1130116E+00
         25   -1    0    0    0    0  0.00000000000E+00  0.00000000000E+00  0.99999998245E-14  0.12500000000E+03  0.12500000000E+03 0.  0.
        -13    1    3    3    0    0 -0.49803304873E+02 -0.18129052833E+02  0.11981297469E+02  0.54337780466E+02  0.10566000000E+00 0.  1.
         23    2    1    0    0    0 -0.25603385408E+02  0.12829574940E+02 -0.25851982199E+01  0.96245616207E+02  0.91849899574E+02 0.  0.
         13    1    3    3    0    0  0.24199919465E+02  0.30958627773E+02 -0.14566495689E+02  0.41907835740E+02  0.10566000000E+00 0. -1.
         22    1    1    0    0    0  0.25603385408E+02 -0.12829574940E+02  0.25851982199E+01  0.28754383793E+02  0.00000000000E+00 0.  1.
</event>
<event>
 5    1  0.9041381E-005  0.9118800E+02  0.7818608E-02  0.1130116E+00
         25   -1    0    0    0    0  0.00000000000E+00  0.00000000000E+00  0.99999998245E-14  0.12500000000E+03  0.12500000000E+03 0.  0.
        -13    1    3    3    0    0  0.15295515320E+02 -0.14792613195E+02  0.21900956813E+02  0.30535835790E+02  0.10566000000E+00 0. -1.
         23    2    1    0    0    0 -0.72704835107E+01  0.92945685724E+01 -0.30405118734E+02  0.92385276628E+02  0.86436792842E+02 0.  0.
         13    1    3    3    0    0 -0.22565998831E+02  0.24087181767E+02 -0.52306075547E+02  0.61849440837E+02  0.10566000000E+00 0.  1.
         22    1    1    0    0    0  0.72704835107E+01 -0.92945685724E+01  0.30405118734E+02  0.32614723372E+02  0.00000000000E+00 0.  1.
</event>
<event>
 5    1  0.9041381E-005  0.9118800E+02  0.7818608E-02  0.1130116E+00
         25   -1    0    0    0    0  0.00000000000E+00  0.00000000000E+00  0.99999998245E-14  0.12500000000E+03  0.12500000000E+03 0.  0.
        -13    1    3    3    0    0  0.32658494170E+02 -0.12589606746E+02 -0.23421160392E+02  0.42114574171E+02  0.10566000000E+00 0.  1.
         23    2    1    0    0    0 -0.12869555754E+02  0.16219877459E+02 -0.20176409004E+02  0.96089839669E+02  0.91637655563E+02 0.  0.
         13    1    3    3    0    0 -0.45528049924E+02  0.28809484204E+02  0.32447513871E+01  0.53975265498E+02  0.10566000000E+00 0. -1.
         22    1    1    0    0    0  0.12869555754E+02 -0.16219877459E+02  0.20176409004E+02  0.28910160331E+02  0.00000000000E+00 0.  1.
</event>
<event>
 5    1  0.9041381E-005  0.9118800E+02  0.7818608E-02  0.1130116E+00
         25   -1    0    0    0    0  0.00000000000E+00  0.00000000000E+00  0.99999998245E-14  0.12500000000E+03  0.12500000000E+03 0.  0.
        -13    1    3    3    0    0 -0.87824352527E+01  0.38854342440E+02 -0.27139584967E+01  0.39927031322E+02  0.10566000000E+00 0.  1.
         23    2    1    0    0    0  0.43879534485E+01 -0.57299212875E+01  0.28288567210E+02  0.95805322947E+02  0.91248730056E+02 0.  0.
         13    1    3    3    0    0  0.13170388701E+02 -0.44584263728E+02  0.31002525707E+02  0.55878291625E+02  0.10566000000E+00 0. -1.
         22    1    1    0    0    0 -0.43879534485E+01  0.57299212875E+01 -0.28288567210E+02  0.29194677053E+02  0.00000000000E+00 0. -1.
</event>
<event>
 5    1  0.9041381E-005  0.9118800E+02  0.7818608E-02  0.1130116E+00
         25   -1    0    0    0    0  0.00000000000E+00  0.00000000000E+00  0.99999998245E-14  0.12500000000E+03  0.12500000000E+03 0.  0.
        -13    1    3    3    0    0  0.36433146892E+02 -0.30576202645E+01 -0.22751965587E+02  0.43062586270E+02  0.10566000000E+00 0. -1.
         23    2    1    0    0    0 -0.14667348612E+02 -0.15507326303E+02 -0.20030647237E+02  0.95728254013E+02  0.91143093558E+02 0.  0.
         13    1    3    3    0    0 -0.51100495504E+02 -0.12449706038E+02  0.27213183504E+01  0.52665667743E+02  0.10566000000E+00 0.  1.
         22    1    1    0    0    0  0.14667348612E+02  0.15507326303E+02  0.20030647237E+02  0.29271745987E+02  0.00000000000E+00 0.  1.
</event>
<event>
 5    1  0.9041381E-005  0.9118800E+02  0.7818608E-02  0.1130116E+00
         25   -1    0    0    0    0  0.00000000000E+00  0.00000000000E+00  0.99999998245E-14  0.12500000000E+03  0.12500000000E+03 0.  0.
        -13    1    3    3    0    0  0.21027342132E+02  0.19367168821E-01  0.41273243612E+02  0.46321067502E+02  0.10566000000E+00 0. -1.
         23    2    1    0    0    0 -0.22140718218E+02 -0.35629887687E+00  0.22610862600E+02  0.93352101814E+02  0.87823831922E+02 0.  0.
         13    1    3    3    0    0 -0.43168060350E+02 -0.37566604570E+00 -0.18662381012E+02  0.47031034312E+02  0.10566000000E+00 0.  1.
         22    1    1    0    0    0  0.22140718218E+02  0.35629887687E+00 -0.22610862600E+02  0.31647898186E+02  0.00000000000E+00 0.  1.
</event>
<event>
 5    1  0.9041381E-005  0.9118800E+02  0.7818608E-02  0.1130116E+00
         25   -1    0    0    0    0  0.00000000000E+00  0.00000000000E+00  0.99999998245E-14  0.12500000000E+03  0.12500000000E+03 0.  0.
        -13    1    3    3    0    0  0.22935510584E+02 -0.33125659302E+02 -0.38370727681E+01  0.40473216346E+02  0.10566000000E+00 0. -1.
         23    2    1    0    0    0  0.23859052403E+01  0.17077994527E+02  0.19009463191E+02  0.99334651148E+02  0.95961777740E+02 0.  0.
         13    1    3    3    0    0 -0.20549605344E+02  0.50203653829E+02  0.22846535959E+02  0.58861434802E+02  0.10566000000E+00 0.  1.
         22    1    1    0    0    0 -0.23859052403E+01 -0.17077994527E+02 -0.19009463191E+02  0.25665348852E+02  0.00000000000E+00 0.  1.
</event>
<event>
 5    1  0.9041381E-005  0.9118800E+02  0.7818608E-02  0.1130116E+00
         25   -1    0    0    0    0  0.00000000000E+00  0.00000000000E+00  0.99999998245E-14  0.12500000000E+03  0.12500000000E+03 0.  0.
        -13    1    3    3    0    0  0.31341496087E+02  0.18127149530E+02 -0.43279233441E+02  0.56426821090E+02  0.10566000000E+00 0.  1.
         23    2    1    0    0    0  0.53800362209E+01 -0.55154627820E+01 -0.30095207248E+02  0.93934156719E+02  0.88648402015E+02 0.  0.
         13    1    3    3    0    0 -0.25961459866E+02 -0.23642612312E+02  0.13184026193E+02  0.37507335629E+02  0.10566000000E+00 0. -1.
         22    1    1    0    0    0 -0.53800362209E+01  0.55154627820E+01  0.30095207248E+02  0.31065843281E+02  0.00000000000E+00 0.  1.
</event>
<event>
 5    1  0.9041381E-005  0.9118800E+02  0.7818608E-02  0.1130116E+00
         25   -1    0    0    0    0  0.00000000000E+00  0.00000000000E+00  0.99999998245E-14  0.12500000000E+03  0.12500000000E+03 0.  0.
        -13    1    3    3    0    0 -0.14300238346E+02 -0.60194098095E+02 -0.54393880586E+01  0.62108166682E+02  0.10566000000E+00 0. -1.
         23    2    1    0    0    0 -0.97030982670E+01 -0.28284657510E+02 -0.66375005226E+01  0.94369486135E+02  0.89260134068E+02 0.  0.
         13    1    3    3    0    0  0.45971400787E+01  0.31909440584E+02 -0.11981124639E+01  0.32261319453E+02  0.10566000000E+00 0.  1.
         22    1    1    0    0    0  0.97030982670E+01  0.28284657510E+02  0.66375005226E+01  0.30630513865E+02  0.00000000000E+00 0. -1.
</event>
<event>
 5    1  0.9041381E-005  0.9118800E+02  0.7818608E-02  0.1130116E+00
         25   -1    0    0    0    0  0.00000000000E+00  0.00000000000E+00  0.99999998245E-14  0.12500000000E+03  0.12500000000E+03 0.  0.
        -13    1    3    3    0    0 -0.19700684565E+01  0.87162854638E+01 -0.38964102662E+02  0.39975833478E+02  0.10566000000E+00 0. -1.
         23    2    1    0    0    0 -0.98839956033E+01 -0.27247306092E+02  0.30637049025E+01  0.95853896554E+02  0.91315245926E+02 0.  0.
         13    1    3    3    0    0 -0.79139271468E+01 -0.35963591555E+02  0.42027807564E+02  0.55878063076E+02  0.10566000000E+00 0.  1.
         22    1    1    0    0    0  0.98839956033E+01  0.27247306092E+02 -0.30637049025E+01  0.29146103446E+02  0.00000000000E+00 0.  1.
</event>
<event>
 5    1  0.9041381E-005  0.9118800E+02  0.7818608E-02  0.1130116E+00
         25   -1    0    0    0    0  0.00000000000E+00  0.00000000000E+00  0.99999998245E-14  0.12500000000E+03  0.12500000000E+03 0.  0.
        -13    1    3    3    0    0 -0.30568640504E+02 -0.56051645600E+01 -0.46118668534E+02  0.55612969741E+02  0.10566000000E+00 0.  1.
         23    2    1    0    0    0 -0.26796981300E+02  0.78512477856E+01 -0.83954218763E+01  0.95841752332E+02  0.91298620378E+02 0.  0.
         13    1    3    3    0    0  0.37716592036E+01  0.13456412346E+02  0.37723246658E+02  0.40228782591E+02  0.10566000000E+00 0. -1.
         22    1    1    0    0    0  0.26796981300E+02 -0.78512477856E+01  0.83954218763E+01  0.29158247668E+02  0.00000000000E+00 0. -1.
</event>
<event>
 5    1  0.9041381E-005  0.9118800E+02  0.7818608E-02  0.1130116E+00
         25   -1    0    0    0    0  0.00000000000E+00  0.00000000000E+00  0.99999998245E-14  0.12500000000E+03  0.12500000000E+03 0.  0.
        -13    1    3    3    0    0 -0.64709144303E+01 -0.14303322674E+02  0.55743659793E+02  0.57912214119E+02  0.10566000000E+00 0.  1.
         23    2    1    0    0    0 -0.16745862454E+01  0.10146337961E+02  0.27842277616E+02  0.95319285117E+02  0.90580468530E+02 0.  0.
         13    1    3    3    0    0  0.47963281850E+01  0.24449660635E+02 -0.27901382176E+02  0.37407070997E+02  0.10566000000E+00 0. -1.
         22    1    1    0    0    0  0.16745862454E+01 -0.10146337961E+02 -0.27842277616E+02  0.29680714883E+02  0.00000000000E+00 0.  1.
</event>
<event>
 5    1  0.9041381E-005  0.9118800E+02  0.7818608E-02  0.1130116E+00
         25   -1    0    0    0    0  0.00000000000E+00  0.00000000000E+00  0.99999998245E-14  0.12500000000E+03  0.12500000000E+03 0.  0.
        -13    1    3    3    0    0 -0.21860350478E+02  0.24125318580E+02 -0.28024718879E+01  0.32676764410E+02  0.10566000000E+00 0. -1.
         23    2    1    0    0    0  0.16300521656E+02 -0.22352788741E+02 -0.14229550675E+02  0.93889964913E+02  0.88586066783E+02 0.  0.
         13    1    3    3    0    0  0.38160872134E+02 -0.46478107321E+02 -0.11427078787E+02  0.61213200502E+02  0.10566000000E+00 0.  1.
         22    1    1    0    0    0 -0.16300521656E+02  0.22352788741E+02  0.14229550675E+02  0.31110035087E+02  0.00000000000E+00 0.  1.
</event>
<event>
 5    1  0.9041381E-005  0.9118800E+02  0.7818608E-02  0.1130116E+00
         25   -1    0    0    0    0  0.00000000000E+00  0.00000000000E+00  0.99999998245E-14  0.12500000000E+03  0.12500000000E+03 0.  0.
        -13    1    3    3    0    0 -0.49129306622E+02 -0.23006960565E+02  0.19151815753E+02  0.57530967437E+02  0.10566000000E+00 0.  1.
         23    2    1    0    0    0 -0.28408435258E+02  0.11297939523E+01 -0.31707507254E+01  0.96392845504E+02  0.92050048213E+02 0.  0.
         13    1    3    3    0    0  0.20720871363E+02  0.24136754517E+02 -0.22322566479E+02  0.38861878067E+02  0.10566000000E+00 0. -1.
         22    1    1    0    0    0  0.28408435258E+02 -0.11297939523E+01  0.31707507254E+01  0.28607154496E+02  0.00000000000E+00 0.  1.
</event>
<event>
 5    1  0.9041381E-005  0.9118800E+02  0.7818608E-02  0.1130116E+00
         25   -1    0    0    0    0  0.00000000000E+00  0.00000000000E+00  0.99999998245E-14  0.12500000000E+03  0.12500000000E+03 0.  0.
        -13    1    3    3    0    0  0.19426640729E+02 -0.38024834025E+02 -0.20016003741E+02  0.47158604118E+02  0.10566000000E+00 0.  1.
         23    2    1    0    0    0 -0.33973397222E+01 -0.23385216640E+02  0.19004373867E+02  0.94675480209E+02  0.89687624856E+02 0.  0.
         13    1    3    3    0    0 -0.22823980451E+02  0.14639617385E+02  0.39020377607E+02  0.47516876091E+02  0.10566000000E+00 0. -1.
         22    1    1    0    0    0  0.33973397222E+01  0.23385216640E+02 -0.19004373867E+02  0.30324519791E+02  0.00000000000E+00 0. -1.
</event>
<event>
 5    1  0.9041381E-005  0.9118800E+02  0.7818608E-02  0.1130116E+00
         25   -1    0    0    0    0  0.00000000000E+00  0.00000000000E+00  0.99999998245E-14  0.12500000000E+03  0.12500000000E+03 0.  0.
        -13    1    3    3    0    0  0.12250034713E+02 -0.28167742864E+02  0.26896083485E+02  0.40827632302E+02  0.10566000000E+00 0. -1.
         23    2    1    0    0    0 -0.10236280198E+02  0.21613864142E+02  0.15828489520E+01  0.10103239757E+03  0.98148353998E+02 0.  0.
         13    1    3    3    0    0 -0.22486314910E+02  0.49781607006E+02 -0.25313234533E+02  0.60204765268E+02  0.10566000000E+00 0.  1.
         22    1    1    0    0    0  0.10236280198E+02 -0.21613864142E+02 -0.15828489520E+01  0.23967602430E+02  0.00000000000E+00 0.  1.
</event>
<event>
 4    1  0.9041381E-005  0.9118800E+02  0.7818608E-02  0.1130116E+00
         25   -1    0    0    0    0  0.00000000000E+00  0.00000000000E+00  0.99999998245E-14  0.12500000000E+03  0.12500000000E+03 0.  0.
        -13    1    1    0    0    0  0.48619759998E+02  0.27596468909E+02  0.25919637322E+02  0.61622113900E+02  0.10566000000E+00 0.  1.
         13    1    1    0    0    0 -0.25766597850E+01 -0.71634582665E+00 -0.58089531463E+01  0.63958914689E+01  0.10566000000E+00 0. -1.
         22    1    1    0    0    0 -0.46043100213E+02 -0.26880123082E+02 -0.20110684176E+02  0.56981994631E+02  0.00000000000E+00 0.  1.
</event>
<event>
 5    1  0.9041381E-005  0.9118800E+02  0.7818608E-02  0.1130116E+00
         25   -1    0    0    0    0  0.00000000000E+00  0.00000000000E+00  0.99999998245E-14  0.12500000000E+03  0.12500000000E+03 0.  0.
        -13    1    3    3    0    0 -0.14131567519E+02 -0.27151271444E+02 -0.19348574243E+02  0.36211479269E+02  0.10566000000E+00 0.  1.
         23    2    1    0    0    0 -0.81631237288E+01  0.15571605347E+02  0.22589254441E+02  0.96375082563E+02  0.92025923743E+02 0.  0.
         13    1    3    3    0    0  0.59684437902E+01  0.42722876791E+02  0.41937828684E+02  0.60163603294E+02  0.10566000000E+00 0. -1.
         22    1    1    0    0    0  0.81631237288E+01 -0.15571605347E+02 -0.22589254441E+02  0.28624917437E+02  0.00000000000E+00 0. -1.
</event>
<event>
 5    1  0.9041381E-005  0.9118800E+02  0.7818608E-02  0.1130116E+00
         25   -1    0    0    0    0  0.00000000000E+00  0.00000000000E+00  0.99999998245E-14  0.12500000000E+03  0.12500000000E+03 0.  0.
        -13    1    3    3    0    0 -0.35454987183E+02 -0.29525386257E+02  0.27156495309E+02  0.53537752579E+02  0.10566000000E+00 0. -1.
         23    2    1    0    0    0  0.11789881260E+01 -0.28741873759E+02  0.68546726768E+01  0.95428529667E+02  0.90731099501E+02 0.  0.
         13    1    3    3    0    0  0.36633975309E+02  0.78351249765E+00 -0.20301822632E+02  0.41890777087E+02  0.10566000000E+00 0.  1.
         22    1    1    0    0    0 -0.11789881260E+01  0.28741873759E+02 -0.68546726768E+01  0.29571470333E+02  0.00000000000E+00 0. -1.
</event>
<event>
 5    1  0.9041381E-005  0.9118800E+02  0.7818608E-02  0.1130116E+00
         25   -1    0    0    0    0  0.00000000000E+00  0.00000000000E+00  0.99999998245E-14  0.12500000000E+03  0.12500000000E+03 0.  0.
        -13    1    3    3    0    0 -0.32282110757E+02  0.23144366991E+02 -0.92176147336E+01  0.40777101218E+02  0.10566000000E+00 0. -1.
         23    2    1    0    0    0 -0.98411543212E+01 -0.20163014505E+02  0.17640419927E+02  0.96459154051E+02  0.92140048365E+02 0.  0.
         13    1    3    3    0    0  0.22440956436E+02 -0.43307381496E+02  0.26858034661E+02  0.55682052833E+02  0.10566000000E+00 0.  1.
         22    1    1    0    0    0  0.98411543212E+01  0.20163014505E+02 -0.17640419927E+02  0.28540845949E+02  0.00000000000E+00 0.  1.
</event>
<event>
 5    1  0.9041381E-005  0.9118800E+02  0.7818608E-02  0.1130116E+00
         25   -1    0    0    0    0  0.00000000000E+00  0.00000000000E+00  0.99999998245E-14  0.12500000000E+03  0.12500000000E+03 0.  0.
        -13    1    3    3    0    0  0.35095961215E+00  0.21287731219E+02 -0.24500582481E+02  0.32458902924E+02  0.10566000000E+00 0.  1.
         23    2    1    0    0    0  0.41011568100E+01 -0.18141413778E+02  0.23718103637E+02  0.94859017581E+02  0.89943061963E+02 0.  0.
         13    1    3    3    0    0  0.37501971978E+01 -0.39429144998E+02  0.48218686117E+02  0.62400114657E+02  0.10566000000E+00 0. -1.
         22    1    1    0    0    0 -0.41011568100E+01  0.18141413778E+02 -0.23718103637E+02  0.30140982419E+02  0.00000000000E+00 0. -1.
</event>
<event>
 5    1  0.9041381E-005  0.9118800E+02  0.7818608E-02  0.1130116E+00
         25   -1    0    0    0    0  0.00000000000E+00  0.00000000000E+00  0.99999998245E-14  0.12500000000E+03  0.12500000000E+03 0.  0.
        -13    1    3    3    0    0  0.23330535511E+01 -0.24670197085E+02 -0.51551098649E+02  0.57197803271E+02  0.10566000000E+00 0. -1.
         23    2    1    0    0    0 -0.15369083575E+02 -0.17793764050E+02 -0.19495987818E+02  0.94456255796E+02  0.89381563810E+02 0.  0.
         13    1    3    3    0    0 -0.17702137126E+02  0.68764330353E+01  0.32055110831E+02  0.37258452525E+02  0.10566000000E+00 0.  1.
         22    1    1    0    0    0  0.15369083575E+02  0.17793764050E+02  0.19495987818E+02  0.30543744204E+02  0.00000000000E+00 0. -1.
</event>
<event>
 5    1  0.9041381E-005  0.9118800E+02  0.7818608E-02  0.1130116E+00
         25   -1    0    0    0    0  0.00000000000E+00  0.00000000000E+00  0.99999998245E-14  0.12500000000E+03  0.12500000000E+03 0.  0.
        -13    1    3    3    0    0  0.93231383123E+01 -0.53542929092E+02 -0.55890831463E+01  0.54635292423E+02  0.10566000000E+00 0.  1.
         23    2    1    0    0    0  0.19916381494E+02 -0.19379939788E+02 -0.17293104326E+02  0.92269345022E+02  0.86268976206E+02 0.  0.
         13    1    3    3    0    0  0.10593243182E+02  0.34162989303E+02 -0.11704021180E+02  0.37634052599E+02  0.10566000000E+00 0. -1.
         22    1    1    0    0    0 -0.19916381494E+02  0.19379939788E+02  0.17293104326E+02  0.32730654978E+02  0.00000000000E+00 0. -1.
</event>
<event>
 5    1  0.9041381E-005  0.9118800E+02  0.7818608E-02  0.1130116E+00
         25   -1    0    0    0    0  0.00000000000E+00  0.00000000000E+00  0.99999998245E-14  0.12500000000E+03  0.12500000000E+03 0.  0.
        -13    1    3    3    0    0 -0.25480282215E+02 -0.53551592820E+02 -0.89227349660E+01  0.59972028802E+02  0.10566000000E+00 0.  1.
         23    2    1    0    0    0 -0.24364907949E+02 -0.22554029937E+02 -0.20939895723E+01  0.91732631633E+02  0.85487764669E+02 0.  0.
         13    1    3    3    0    0  0.11153742659E+01  0.30997562884E+02  0.68287453936E+01  0.31760602831E+02  0.10566000000E+00 0. -1.
         22    1    1    0    0    0  0.24364907949E+02  0.22554029937E+02  0.20939895723E+01  0.33267368367E+02  0.00000000000E+00 0.  1.
</event>
<event>
 5    1  0.9041381E-005  0.9118800E+02  0.7818608E-02  0.1130116E+00
         25   -1    0    0    0    0  0.00000000000E+00  0.00000000000E+00  0.99999998245E-14  0.12500000000E+03  0.12500000000E+03 0.  0.
        -13    1    3    3    0    0 -0.34719004118E+02 -0.17677011207E+02 -0.48186112306E+02  0.61966108119E+02  0.10566000000E+00 0.  1.
         23    2    1    0    0    0 -0.17325388320E+02 -0.26612846945E+01 -0.23365922250E+02  0.95790107167E+02  0.91227883851E+02 0.  0.
         13    1    3    3    0    0  0.17393615797E+02  0.15015726513E+02  0.24820190056E+02  0.33823999049E+02  0.10566000000E+00 0. -1.
         22    1    1    0    0    0  0.17325388320E+02  0.26612846945E+01  0.23365922250E+02  0.29209892833E+02  0.00000000000E+00 0.  1.
</event>
<event>
 5    1  0.9041381E-005  0.9118800E+02  0.7818608E-02  0.1130116E+00
         25   -1    0    0    0    0  0.00000000000E+00  0.00000000000E+00  0.99999998245E-14  0.12500000000E+03  0.12500000000E+03 0.  0.
        -13    1    3    3    0    0  0.66079832752E+01  0.32028765445E+02 -0.37111713682E+02  0.49465116146E+02  0.10566000000E+00 0.  1.
         23    2    1    0    0    0  0.27278543502E+02  0.45310197984E+01 -0.42802283607E+01  0.97018409073E+02  0.92895652580E+02 0.  0.
         13    1    3    3    0    0  0.20670560227E+02 -0.27497745647E+02  0.32831485321E+02  0.47553292927E+02  0.10566000000E+00 0. -1.
         22    1    1    0    0    0 -0.27278543502E+02 -0.45310197984E+01  0.42802283607E+01  0.27981590927E+02  0.00000000000E+00 0.  1.
</event>
<event>
 5    1  0.9041381E-005  0.9118800E+02  0.7818608E-02  0.1130116E+00
         25   -1    0    0    0    0  0.00000000000E+00  0.00000000000E+00  0.99999998245E-14  0.12500000000E+03  0.12500000000E+03 0.  0.
        -13    1    3    3    0    0 -0.19960295916E+02 -0.50146508818E+02  0.11659390932E+02  0.55218097764E+02  0.10566000000E+00 0.  1.
         23    2    1    0    0    0  0.27987127569E+01 -0.28716358670E+02  0.22612611318E+02  0.88342228123E+02  0.80377590352E+02 0.  0.
         13    1    3    3    0    0  0.22759008673E+02  0.21430150149E+02  0.10953220386E+02  0.33124130359E+02  0.10566000000E+00 0. -1.
         22    1    1    0    0    0 -0.27987127569E+01  0.28716358670E+02 -0.22612611318E+02  0.36657771877E+02  0.00000000000E+00 0.  1.
</event>
<event>
 5    1  0.9041381E-005  0.9118800E+02  0.7818608E-02  0.1130116E+00
         25   -1    0    0    0    0  0.00000000000E+00  0.00000000000E+00  0.99999998245E-14  0.12500000000E+03  0.12500000000E+03 0.  0.
        -13    1    3    3    0    0 -0.40822666274E+02  0.35098840389E+02  0.83362428354E+01  0.54478645238E+02  0.10566000000E+00 0.  1.
         23    2    1    0    0    0 -0.20782778050E+02 -0.10262390195E+01  0.18649108196E+02  0.97057804909E+02  0.92948648335E+02 0.  0.
         13    1    3    3    0    0  0.20039888225E+02 -0.36125079408E+02  0.10312865360E+02  0.42579159671E+02  0.10566000000E+00 0. -1.
         22    1    1    0    0    0  0.20782778050E+02  0.10262390195E+01 -0.18649108196E+02  0.27942195091E+02  0.00000000000E+00 0.  1.
</event>
<event>
 5    1  0.9041381E-005  0.9118800E+02  0.7818608E-02  0.1130116E+00
         25   -1    0    0    0    0  0.00000000000E+00  0.00000000000E+00  0.99999998245E-14  0.12500000000E+03  0.12500000000E+03 0.  0.
        -13    1    3    3    0    0 -0.47835688290E+02 -0.86577606343E+01  0.25268438689E+02  0.54787909718E+02  0.10566000000E+00 0.  1.
         23    2    1    0    0    0 -0.30836600627E+02 -0.62281988168E+01 -0.82743017074E+01  0.92470775179E+02  0.86560347705E+02 0.  0.
         13    1    3    3    0    0  0.16999087664E+02  0.24295618175E+01 -0.33542740397E+02  0.37682865461E+02  0.10566000000E+00 0. -1.
         22    1    1    0    0    0  0.30836600627E+02  0.62281988168E+01  0.82743017074E+01  0.32529224821E+02  0.00000000000E+00 0.  1.
</event>
<event>
 5    1  0.9041381E-005  0.9118800E+02  0.7818608E-02  0.1130116E+00
         25   -1    0    0    0    0  0.00000000000E+00  0.00000000000E+00  0.99999998245E-14  0.12500000000E+03  0.12500000000E+03 0.  0.
        -13    1    3    3    0    0 -0.21354657099E+01  0.46734609225E+02  0.42748869312E+01  0.46978396476E+02  0.10566000000E+00 0. -1.
         23    2    1    0    0    0 -0.23735891632E+02  0.91984470640E+01 -0.16142105120E+02  0.94857479573E+02  0.89940924464E+02 0.  0.
         13    1    3    3    0    0 -0.21600425922E+02 -0.37536162161E+02 -0.20416992051E+02  0.47879083097E+02  0.10566000000E+00 0.  1.
         22    1    1    0    0    0  0.23735891632E+02 -0.91984470640E+01  0.16142105120E+02  0.30142520427E+02  0.00000000000E+00 0.  1.
</event>
<event>
 5    1  0.9041381E-005  0.9118800E+02  0.7818608E-02  0.1130116E+00
         25   -1    0    0    0    0  0.00000000000E+00  0.00000000000E+00  0.99999998245E-14  0.12500000000E+03  0.12500000000E+03 0.  0.
        -13    1    3    3    0    0  0.32058449202E+01  0.26863134461E+02 -0.54546738526E+02  0.60887299846E+02  0.10566000000E+00 0. -1.
         23    2    1    0    0    0 -0.32732494832E+01  0.40574463781E+01 -0.28164177107E+02  0.96357410986E+02  0.92001917081E+02 0.  0.
         13    1    3    3    0    0 -0.64790944034E+01 -0.22805688083E+02  0.26382561419E+02  0.35470111140E+02  0.10566000000E+00 0.  1.
         22    1    1    0    0    0  0.32732494832E+01 -0.40574463781E+01  0.28164177107E+02  0.28642589014E+02  0.00000000000E+00 0. -1.
</event>
<event>
 5    1  0.9041381E-005  0.9118800E+02  0.7818608E-02  0.1130116E+00
         25   -1    0    0    0    0  0.00000000000E+00  0.00000000000E+00  0.99999998245E-14  0.12500000000E+03  0.12500000000E+03 0.  0.
        -13    1    3    3    0    0  0.16135206761E+02  0.11702691178E+02 -0.42725372902E+02  0.47146224999E+02  0.10566000000E+00 0.  1.
         23    2    1    0    0    0  0.24261035391E+02  0.16428942321E+02  0.45511184731E+01  0.95348344677E+02  0.90620561515E+02 0.  0.
         13    1    3    3    0    0  0.81258286296E+01  0.47262511426E+01  0.47276491375E+02  0.48202119679E+02  0.10566000000E+00 0. -1.
         22    1    1    0    0    0 -0.24261035391E+02 -0.16428942321E+02 -0.45511184731E+01  0.29651655323E+02  0.00000000000E+00 0.  1.
</event>
<event>
 5    1  0.9041381E-005  0.9118800E+02  0.7818608E-02  0.1130116E+00
         25   -1    0    0    0    0  0.00000000000E+00  0.00000000000E+00  0.99999998245E-14  0.12500000000E+03  0.12500000000E+03 0.  0.
        -13    1    3    3    0    0 -0.10271787806E+02  0.58642486989E+02 -0.84654896362E+01  0.60134238033E+02  0.10566000000E+00 0.  1.
         23    2    1    0    0    0  0.20160260440E+01  0.25830376029E+02 -0.13911306256E+02  0.95592566781E+02  0.90956812252E+02 0.  0.
         13    1    3    3    0    0  0.12287813850E+02 -0.32812110960E+02 -0.54458166201E+01  0.35458328748E+02  0.10566000000E+00 0. -1.
         22    1    1    0    0    0 -0.20160260440E+01 -0.25830376029E+02  0.13911306256E+02  0.29407433219E+02  0.00000000000E+00 0.  1.
</event>
<event>
 5    1  0.9041381E-005  0.9118800E+02  0.7818608E-02  0.1130116E+00
         25   -1    0    0    0    0  0.00000000000E+00  0.00000000000E+00  0.99999998245E-14  0.12500000000E+03  0.12500000000E+03 0.  0.
        -13    1    3    3    0    0  0.39338255343E+01  0.60305120578E+01 -0.59765900725E+02  0.60198140441E+02  0.10566000000E+00 0.  1.
         23    2    1    0    0    0 -0.92909839412E+01 -0.18336695961E+01 -0.26741456512E+02  0.96631175154E+02  0.92373122652E+02 0.  0.
         13    1    3    3    0    0 -0.13224809475E+02 -0.78641816539E+01  0.33024444214E+02  0.36433034713E+02  0.10566000000E+00 0. -1.
         22    1    1    0    0    0  0.92909839412E+01  0.18336695961E+01  0.26741456512E+02  0.28368824846E+02  0.00000000000E+00 0.  1.
</event>
<event>
 5    1  0.9041381E-005  0.9118800E+02  0.7818608E-02  0.1130116E+00
         25   -1    0    0    0    0  0.00000000000E+00  0.00000000000E+00  0.99999998245E-14  0.12500000000E+03  0.12500000000E+03 0.  0.
        -13    1    3    3    0    0  0.44259454986E+01  0.16398778616E+02  0.34760761982E+02  0.38688895969E+02  0.10566000000E+00 0.  1.
         23    2    1    0    0    0 -0.21618151479E+02 -0.17311333554E+02 -0.48791543841E+01  0.96878248805E+02  0.92706861673E+02 0.  0.
         13    1    3    3    0    0 -0.26044096978E+02 -0.33710112170E+02 -0.39639916367E+02  0.58189352836E+02  0.10566000000E+00 0. -1.
         22    1    1    0    0    0  0.21618151479E+02  0.17311333554E+02  0.48791543841E+01  0.28121751195E+02  0.00000000000E+00 0. -1.
</event>
<event>
 5    1  0.9041381E-005  0.9118800E+02  0.7818608E-02  0.1130116E+00
         25   -1    0    0    0    0  0.00000000000E+00  0.00000000000E+00  0.99999998245E-14  0.12500000000E+03  0.12500000000E+03 0.  0.
        -13    1    3    3    0    0 -0.55572108451E+02  0.12778060272E+02  0.17702320550E+00  0.57022632027E+02  0.10566000000E+00 0. -1.
         23    2    1    0    0    0 -0.21141838375E+02 -0.13127421848E+02 -0.27134356492E+00  0.10011265057E+03  0.96969905862E+02 0.  0.
         13    1    3    3    0    0  0.34430270077E+02 -0.25905482120E+02 -0.44836677043E+00  0.43090018545E+02  0.10566000000E+00 0.  1.
         22    1    1    0    0    0  0.21141838375E+02  0.13127421848E+02  0.27134356492E+00  0.24887349428E+02  0.00000000000E+00 0. -1.
</event>
<event>
 5    1  0.9041381E-005  0.9118800E+02  0.7818608E-02  0.1130116E+00
         25   -1    0    0    0    0  0.00000000000E+00  0.00000000000E+00  0.99999998245E-14  0.12500000000E+03  0.12500000000E+03 0.  0.
        -13    1    3    3    0    0  0.37944352136E+01 -0.32218518262E+02 -0.19517089864E+02  0.37859722904E+02  0.10566000000E+00 0.  1.
         23    2    1    0    0    0  0.28043764079E+02  0.12053106837E+02  0.51533586147E+01  0.94043785871E+02  0.88802851688E+02 0.  0.
         13    1    3    3    0    0  0.24249328866E+02  0.44271625099E+02  0.24670448479E+02  0.56184062967E+02  0.10566000000E+00 0. -1.
         22    1    1    0    0    0 -0.28043764079E+02 -0.12053106837E+02 -0.51533586147E+01  0.30956214129E+02  0.00000000000E+00 0. -1.
</event>
<event>
 5    1  0.9041381E-005  0.9118800E+02  0.7818608E-02  0.1130116E+00
         25   -1    0    0    0    0  0.00000000000E+00  0.00000000000E+00  0.99999998245E-14  0.12500000000E+03  0.12500000000E+03 0.  0.
        -13    1    3    3    0    0  0.23637147585E+02  0.15741863632E+02 -0.20906833508E+02  0.35265108364E+02  0.10566000000E+00 0. -1.
         23    2    1    0    0    0 -0.20230020401E+02  0.29470174718E+02 -0.24950477082E+02  0.81407899455E+02  0.68752998944E+02 0.  0.
         13    1    3    3    0    0 -0.43867167985E+02  0.13728311086E+02 -0.40436435740E+01  0.46142791091E+02  0.10566000000E+00 0.  1.
         22    1    1    0    0    0  0.20230020401E+02 -0.29470174718E+02  0.24950477082E+02  0.43592100545E+02  0.00000000000E+00 0. -1.
</event>
<event>
 5    1  0.9041381E-005  0.9118800E+02  0.7818608E-02  0.1130116E+00
         25   -1    0    0    0    0  0.00000000000E+00  0.00000000000E+00  0.99999998245E-14  0.12500000000E+03  0.12500000000E+03 0.  0.
        -13    1    3    3    0    0 -0.16169390426E+02 -0.33562117545E+02 -0.16052671136E+02  0.40565556023E+02  0.10566000000E+00 0.  1.
         23    2    1    0    0    0  0.17644041704E+02 -0.50725984806E+01  0.20171399449E+02  0.97724941453E+02  0.93841543909E+02 0.  0.
         13    1    3    3    0    0  0.33813432130E+02  0.28489519064E+02  0.36224070585E+02  0.57159385430E+02  0.10566000000E+00 0. -1.
         22    1    1    0    0    0 -0.17644041704E+02  0.50725984806E+01 -0.20171399449E+02  0.27275058547E+02  0.00000000000E+00 0. -1.
</event>
<event>
 5    1  0.9041381E-005  0.9118800E+02  0.7818608E-02  0.1130116E+00
         25   -1    0    0    0    0  0.00000000000E+00  0.00000000000E+00  0.99999998245E-14  0.12500000000E+03  0.12500000000E+03 0.  0.
        -13    1    3    3    0    0  0.32784917342E+02 -0.18763496834E+02  0.15679972605E+02  0.40899783905E+02  0.10566000000E+00 0. -1.
         23    2    1    0    0    0 -0.36768849471E-01  0.19811270474E+02 -0.15031011304E+02  0.10013196649E+03  0.96994802041E+02 0.  0.
         13    1    3    3    0    0 -0.32821686191E+02  0.38574767308E+02 -0.30710983909E+02  0.59232182587E+02  0.10566000000E+00 0.  1.
         22    1    1    0    0    0  0.36768849471E-01 -0.19811270474E+02  0.15031011304E+02  0.24868033508E+02  0.00000000000E+00 0.  1.
</event>
<event>
 5    1  0.9041381E-005  0.9118800E+02  0.7818608E-02  0.1130116E+00
         25   -1    0    0    0    0  0.00000000000E+00  0.00000000000E+00  0.99999998245E-14  0.12500000000E+03  0.12500000000E+03 0.  0.
        -13    1    3    3    0    0 -0.91320448644E+01 -0.30729913579E+01 -0.41923349542E+02  0.43016461037E+02  0.10566000000E+00 0. -1.
         23    2    1    0    0    0 -0.42026845939E+01  0.29454674625E+02 -0.13987939245E+01  0.95214146991E+02  0.90435262745E+02 0.  0.
         13    1    3    3    0    0  0.49293602705E+01  0.32527665982E+02  0.40524555617E+02  0.52197685954E+02  0.10566000000E+00 0.  1.
         22    1    1    0    0    0  0.42026845939E+01 -0.29454674625E+02  0.13987939245E+01  0.29785853009E+02  0.00000000000E+00 0.  1.
</event>
<event>
 5    1  0.9041381E-005  0.9118800E+02  0.7818608E-02  0.1130116E+00
         25   -1    0    0    0    0  0.00000000000E+00  0.00000000000E+00  0.99999998245E-14  0.12500000000E+03  0.12500000000E+03 0.  0.
        -13    1    3    3    0    0 -0.82112034828E+01 -0.25738508492E+02 -0.22709633391E+02  0.35293530495E+02  0.10566000000E+00 0.  1.
         23    2    1    0    0    0  0.23451885414E+02  0.14648383713E+02  0.93587408658E+01  0.95808355554E+02  0.91252884275E+02 0.  0.
         13    1    3    3    0    0  0.31663088896E+02  0.40386892205E+02  0.32068374257E+02  0.60514825059E+02  0.10566000000E+00 0. -1.
         22    1    1    0    0    0 -0.23451885414E+02 -0.14648383713E+02 -0.93587408658E+01  0.29191644446E+02  0.00000000000E+00 0. -1.
</event>
<event>
 5    1  0.9041381E-005  0.9118800E+02  0.7818608E-02  0.1130116E+00
         25   -1    0    0    0    0  0.00000000000E+00  0.00000000000E+00  0.99999998245E-14  0.12500000000E+03  0.12500000000E+03 0.  0.
        -13    1    3    3    0    0  0.39262561604E+02 -0.13396584590E+02  0.15466153725E+02  0.44274488111E+02  0.10566000000E+00 0.  1.
         23    2    1    0    0    0  0.11641643928E+02  0.25194444203E+02 -0.63853934936E+01  0.96520864793E+02  0.92223729041E+02 0.  0.
         13    1    3    3    0    0 -0.27620917676E+02  0.38591028793E+02 -0.21851547218E+02  0.52246376682E+02  0.10566000000E+00 0. -1.
         22    1    1    0    0    0 -0.11641643928E+02 -0.25194444203E+02  0.63853934936E+01  0.28479135207E+02  0.00000000000E+00 0.  1.
</event>
<event>
 5    1  0.9041381E-005  0.9118800E+02  0.7818608E-02  0.1130116E+00
         25   -1    0    0    0    0  0.00000000000E+00  0.00000000000E+00  0.99999998245E-14  0.12500000000E+03  0.12500000000E+03 0.  0.
        -13    1    3    3    0    0  0.98975588102E+00 -0.46588299448E+02 -0.36186038209E+02  0.58999065988E+02  0.10566000000E+00 0.  1.
         23    2    1    0    0    0 -0.10378795520E+02 -0.13943335927E+02 -0.23387889345E+02  0.95860175340E+02  0.91323840452E+02 0.  0.
         13    1    3    3    0    0 -0.11368551401E+02  0.32644963521E+02  0.12798148864E+02  0.36861109351E+02  0.10566000000E+00 0. -1.
         22    1    1    0    0    0  0.10378795520E+02  0.13943335927E+02  0.23387889345E+02  0.29139824660E+02  0.00000000000E+00 0.  1.
</event>
<event>
 5    1  0.9041381E-005  0.9118800E+02  0.7818608E-02  0.1130116E+00
         25   -1    0    0    0    0  0.00000000000E+00  0.00000000000E+00  0.99999998245E-14  0.12500000000E+03  0.12500000000E+03 0.  0.
        -13    1    3    3    0    0  0.55003310207E+02 -0.34865286763E+01 -0.15442605352E+02  0.57236397861E+02  0.10566000000E+00 0.  1.
         23    2    1    0    0    0  0.25113180582E+02 -0.14747836139E+02  0.54052156462E+01  0.95379283163E+02  0.90663227335E+02 0.  0.
         13    1    3    3    0    0 -0.29890129626E+02 -0.11261307463E+02  0.20847820998E+02  0.38142885303E+02  0.10566000000E+00 0. -1.
         22    1    1    0    0    0 -0.25113180582E+02  0.14747836139E+02 -0.54052156462E+01  0.29620716837E+02  0.00000000000E+00 0.  1.
</event>
<event>
 5    1  0.9041381E-005  0.9118800E+02  0.7818608E-02  0.1130116E+00
         25   -1    0    0    0    0  0.00000000000E+00  0.00000000000E+00  0.99999998245E-14  0.12500000000E+03  0.12500000000E+03 0.  0.
        -13    1    3    3    0    0 -0.42179362097E+02  0.27718658160E+02  0.97036435460E+00  0.50481435876E+02  0.10566000000E+00 0.  1.
         23    2    1    0    0    0 -0.39177027986E+00  0.28481354976E+02 -0.11777638531E+02  0.94177056685E+02  0.88990247619E+02 0.  0.
         13    1    3    3    0    0  0.41787591817E+02  0.76269681629E+00 -0.12748002885E+02  0.43695620809E+02  0.10566000000E+00 0. -1.
         22    1    1    0    0    0  0.39177027986E+00 -0.28481354976E+02  0.11777638531E+02  0.30822943315E+02  0.00000000000E+00 0.  1.
</event>
<event>
 5    1  0.9041381E-005  0.9118800E+02  0.7818608E-02  0.1130116E+00
         25   -1    0    0    0    0  0.00000000000E+00  0.00000000000E+00  0.99999998245E-14  0.12500000000E+03  0.12500000000E+03 0.  0.
        -13    1    3    3    0    0  0.15821238218E+02  0.68179594883E+01  0.31232083214E+02  0.35668618368E+02  0.10566000000E+00 0.  1.
         23    2    1    0    0    0 -0.96649869996E+01  0.19311902267E+02 -0.20849298101E+02  0.94982425578E+02  0.90114407253E+02 0.  0.
         13    1    3    3    0    0 -0.25486225218E+02  0.12493942778E+02 -0.52081381315E+02  0.59313807210E+02  0.10566000000E+00 0. -1.
         22    1    1    0    0    0  0.96649869996E+01 -0.19311902267E+02  0.20849298101E+02  0.30017574422E+02  0.00000000000E+00 0. -1.
</event>
<event>
 5    1  0.9041381E-005  0.9118800E+02  0.7818608E-02  0.1130116E+00
         25   -1    0    0    0    0  0.00000000000E+00  0.00000000000E+00  0.99999998245E-14  0.12500000000E+03  0.12500000000E+03 0.  0.
        -13    1    3    3    0    0 -0.32260410600E+02  0.42682404699E+02  0.74799335479E+01  0.54022979674E+02  0.10566000000E+00 0. -1.
         23    2    1    0    0    0 -0.55300031887E+01  0.10428209670E+02  0.23363384653E+02  0.98824128771E+02  0.95294449958E+02 0.  0.
         13    1    3    3    0    0  0.26730407411E+02 -0.32254195030E+02  0.15883451105E+02  0.44801149097E+02  0.10566000000E+00 0.  1.
         22    1    1    0    0    0  0.55300031887E+01 -0.10428209670E+02 -0.23363384653E+02  0.26175871229E+02  0.00000000000E+00 0. -1.
</event>
<event>
 5    1  0.9041381E-005  0.9118800E+02  0.7818608E-02  0.1130116E+00
         25   -1    0    0    0    0  0.00000000000E+00  0.00000000000E+00  0.99999998245E-14  0.12500000000E+03  0.12500000000E+03 0.  0.
        -13    1    3    3    0    0 -0.23017047224E+02  0.30301443349E+02  0.79308480113E+01  0.38869929845E+02  0.10566000000E+00 0.  1.
         23    2    1    0    0    0 -0.49863099262E+01 -0.24629393068E+02  0.12630802293E+02  0.96875145225E+02  0.92702676910E+02 0.  0.
         13    1    3    3    0    0  0.18030737298E+02 -0.54930836417E+02  0.46999542814E+01  0.58005215380E+02  0.10566000000E+00 0. -1.
         22    1    1    0    0    0  0.49863099262E+01  0.24629393068E+02 -0.12630802293E+02  0.28124854775E+02  0.00000000000E+00 0. -1.
</event>
<event>
 5    1  0.9041381E-005  0.9118800E+02  0.7818608E-02  0.1130116E+00
         25   -1    0    0    0    0  0.00000000000E+00  0.00000000000E+00  0.99999998245E-14  0.12500000000E+03  0.12500000000E+03 0.  0.
        -13    1    3    3    0    0  0.18778682613E+02 -0.49673837313E+02  0.19595934769E+02  0.56605131019E+02  0.10566000000E+00 0. -1.
         23    2    1    0    0    0  0.16309963366E+02 -0.21949341983E+02 -0.87069640991E+01  0.96301572477E+02  0.91926019816E+02 0.  0.
         13    1    3    3    0    0 -0.24687192474E+01  0.27724495331E+02 -0.28302898869E+02  0.39696441458E+02  0.10566000000E+00 0.  1.
         22    1    1    0    0    0 -0.16309963366E+02  0.21949341983E+02  0.87069640991E+01  0.28698427523E+02  0.00000000000E+00 0. -1.
</event>
<event>
 5    1  0.9041381E-005  0.9118800E+02  0.7818608E-02  0.1130116E+00
         25   -1    0    0    0    0  0.00000000000E+00  0.00000000000E+00  0.99999998245E-14  0.12500000000E+03  0.12500000000E+03 0.  0.
        -13    1    3    3    0    0  0.23513098397E+02 -0.17268254994E+02 -0.17256671554E+02  0.33894871351E+02  0.10566000000E+00 0.  1.
         23    2    1    0    0    0 -0.23520793167E+02  0.12748761794E+02  0.10556416079E+02  0.96238975003E+02  0.91840861008E+02 0.  0.
         13    1    3    3    0    0 -0.47033891564E+02  0.30017016788E+02  0.27813087632E+02  0.62344103652E+02  0.10566000000E+00 0. -1.
         22    1    1    0    0    0  0.23520793167E+02 -0.12748761794E+02 -0.10556416079E+02  0.28761024997E+02  0.00000000000E+00 0. -1.
</event>
<event>
 5    1  0.9041381E-005  0.9118800E+02  0.7818608E-02  0.1130116E+00
         25   -1    0    0    0    0  0.00000000000E+00  0.00000000000E+00  0.99999998245E-14  0.12500000000E+03  0.12500000000E+03 0.  0.
        -13    1    3    3    0    0 -0.23082324038E+02  0.37845716716E+02  0.37372079931E+02  0.57980819924E+02  0.10566000000E+00 0. -1.
         23    2    1    0    0    0 -0.12586065038E+02  0.26657745508E+02  0.33138325579E+01  0.95334769258E+02  0.90601833947E+02 0.  0.
         13    1    3    3    0    0  0.10496259000E+02 -0.11187971207E+02 -0.34058247373E+02  0.37353949334E+02  0.10566000000E+00 0.  1.
         22    1    1    0    0    0  0.12586065038E+02 -0.26657745508E+02 -0.33138325579E+01  0.29665230742E+02  0.00000000000E+00 0. -1.
</event>
<event>
 5    1  0.9041381E-005  0.9118800E+02  0.7818608E-02  0.1130116E+00
         25   -1    0    0    0    0  0.00000000000E+00  0.00000000000E+00  0.99999998245E-14  0.12500000000E+03  0.12500000000E+03 0.  0.
        -13    1    3    3    0    0 -0.41805338101E+02  0.26563033730E+00 -0.36189558492E+02  0.55294232621E+02  0.10566000000E+00 0.  1.
         23    2    1    0    0    0 -0.60747031724E+01 -0.14619894881E+02 -0.24683495404E+02  0.95675636574E+02  0.91070901739E+02 0.  0.
         13    1    3    3    0    0  0.35730634928E+02 -0.14885525219E+02  0.11506063089E+02  0.40381403954E+02  0.10566000000E+00 0. -1.
         22    1    1    0    0    0  0.60747031724E+01  0.14619894881E+02  0.24683495404E+02  0.29324363426E+02  0.00000000000E+00 0.  1.
</event>
<event>
 5    1  0.9041381E-005  0.9118800E+02  0.7818608E-02  0.1130116E+00
         25   -1    0    0    0    0  0.00000000000E+00  0.00000000000E+00  0.99999998245E-14  0.12500000000E+03  0.12500000000E+03 0.  0.
        -13    1    3    3    0    0  0.28476005514E+02  0.44227157932E+02  0.30843814281E+02  0.60977671587E+02  0.10566000000E+00 0.  1.
         23    2    1    0    0    0  0.21761605919E+02  0.16676570882E+02  0.11704409343E+02  0.95189453097E+02  0.90401124298E+02 0.  0.
         13    1    3    3    0    0 -0.67143995949E+01 -0.27550587050E+02 -0.19139404937E+02  0.34211781510E+02  0.10566000000E+00 0. -1.
         22    1    1    0    0    0 -0.21761605919E+02 -0.16676570882E+02 -0.11704409343E+02  0.29810546903E+02  0.00000000000E+00 0.  1.
</event>
<event>
 5    1  0.9041381E-005  0.9118800E+02  0.7818608E-02  0.1130116E+00
         25   -1    0    0    0    0  0.00000000000E+00  0.00000000000E+00  0.99999998245E-14  0.12500000000E+03  0.12500000000E+03 0.  0.
        -13    1    3    3    0    0  0.42749246104E+02 -0.10437120104E+02 -0.38004177948E+02  0.58144305173E+02  0.10566000000E+00 0. -1.
         23    2    1    0    0    0  0.18529912306E+02 -0.20477556207E+02 -0.12624217460E+02  0.94634578469E+02  0.89630600897E+02 0.  0.
         13    1    3    3    0    0 -0.24219333798E+02 -0.10040436103E+02  0.25379960488E+02  0.36490273295E+02  0.10566000000E+00 0.  1.
         22    1    1    0    0    0 -0.18529912306E+02  0.20477556207E+02  0.12624217460E+02  0.30365421531E+02  0.00000000000E+00 0. -1.
</event>
<event>
 5    1  0.9041381E-005  0.9118800E+02  0.7818608E-02  0.1130116E+00
         25   -1    0    0    0    0  0.00000000000E+00  0.00000000000E+00  0.99999998245E-14  0.12500000000E+03  0.12500000000E+03 0.  0.
        -13    1    3    3    0    0  0.26114027722E+02  0.46046925650E+02  0.81782417802E+01  0.53564508850E+02  0.10566000000E+00 0.  1.
         23    2    1    0    0    0  0.24242074531E+02  0.94655132230E+01 -0.13035387333E+02  0.95893378055E+02  0.91369275545E+02 0.  0.
         13    1    3    3    0    0 -0.18719531910E+01 -0.36581412427E+02 -0.21213629113E+02  0.42328869204E+02  0.10566000000E+00 0. -1.
         22    1    1    0    0    0 -0.24242074531E+02 -0.94655132230E+01  0.13035387333E+02  0.29106621945E+02  0.00000000000E+00 0. -1.
</event>
<event>
 5    1  0.9041381E-005  0.9118800E+02  0.7818608E-02  0.1130116E+00
         25   -1    0    0    0    0  0.00000000000E+00  0.00000000000E+00  0.99999998245E-14  0.12500000000E+03  0.12500000000E+03 0.  0.
        -13    1    3    3    0    0 -0.98039240385E+00  0.39126787338E+02 -0.19580002837E+01  0.39188156193E+02  0.10566000000E+00 0.  1.
         23    2    1    0    0    0  0.29471132781E+01 -0.10740740223E+02 -0.27482757794E+02  0.95346147752E+02  0.90617531074E+02 0.  0.
         13    1    3    3    0    0  0.39275056819E+01 -0.49867527561E+02 -0.25524757510E+02  0.56157991559E+02  0.10566000000E+00 0. -1.
         22    1    1    0    0    0 -0.29471132781E+01  0.10740740223E+02  0.27482757794E+02  0.29653852248E+02  0.00000000000E+00 0. -1.
</event>
<event>
 5    1  0.9041381E-005  0.9118800E+02  0.7818608E-02  0.1130116E+00
         25   -1    0    0    0    0  0.00000000000E+00  0.00000000000E+00  0.99999998245E-14  0.12500000000E+03  0.12500000000E+03 0.  0.
        -13    1    3    3    0    0  0.52696340974E+02 -0.19532168959E+02  0.11397483454E+02  0.57343907866E+02  0.10566000000E+00 0.  1.
         23    2    1    0    0    0  0.27757632666E+02  0.16659948939E+01 -0.88341557209E+01  0.95822885380E+02  0.91272785347E+02 0.  0.
         13    1    3    3    0    0 -0.24938708307E+02  0.21198163853E+02 -0.20231639175E+02  0.38478977514E+02  0.10566000000E+00 0. -1.
         22    1    1    0    0    0 -0.27757632666E+02 -0.16659948939E+01  0.88341557209E+01  0.29177114620E+02  0.00000000000E+00 0.  1.
</event>
<event>
 5    1  0.9041381E-005  0.9118800E+02  0.7818608E-02  0.1130116E+00
         25   -1    0    0    0    0  0.00000000000E+00  0.00000000000E+00  0.99999998245E-14  0.12500000000E+03  0.12500000000E+03 0.  0.
        -13    1    3    3    0    0 -0.10120300027E+02  0.30191930710E+02 -0.11271108924E+02  0.33779020309E+02  0.10566000000E+00 0.  1.
         23    2    1    0    0    0 -0.14763149619E+01 -0.15806624721E+02  0.26625061001E+02  0.94001245763E+02  0.88742951499E+02 0.  0.
         13    1    3    3    0    0  0.86439850649E+01 -0.45998555431E+02  0.37896169926E+02  0.60222225454E+02  0.10566000000E+00 0. -1.
         22    1    1    0    0    0  0.14763149619E+01  0.15806624721E+02 -0.26625061001E+02  0.30998754237E+02  0.00000000000E+00 0. -1.
</event>
<event>
 5    1  0.9041381E-005  0.9118800E+02  0.7818608E-02  0.1130116E+00
         25   -1    0    0    0    0  0.00000000000E+00  0.00000000000E+00  0.99999998245E-14  0.12500000000E+03  0.12500000000E+03 0.  0.
        -13    1    3    3    0    0 -0.49684808866E+02 -0.21862843097E+02 -0.30622806916E+01  0.54368675424E+02  0.10566000000E+00 0. -1.
         23    2    1    0    0    0 -0.24911844994E+02  0.32203998494E+01  0.16749571874E+02  0.94808624507E+02  0.89872999988E+02 0.  0.
         13    1    3    3    0    0  0.24772963872E+02  0.25083242947E+02  0.19811852565E+02  0.40439949083E+02  0.10566000000E+00 0.  1.
         22    1    1    0    0    0  0.24911844994E+02 -0.32203998494E+01 -0.16749571874E+02  0.30191375493E+02  0.00000000000E+00 0. -1.
</event>
<event>
 5    1  0.9041381E-005  0.9118800E+02  0.7818608E-02  0.1130116E+00
         25   -1    0    0    0    0  0.00000000000E+00  0.00000000000E+00  0.99999998245E-14  0.12500000000E+03  0.12500000000E+03 0.  0.
        -13    1    3    3    0    0  0.58675337228E+01  0.84126103844E+01 -0.48945971436E+02  0.50009191649E+02  0.10566000000E+00 0.  1.
         23    2    1    0    0    0 -0.51301094717E+01  0.23336809768E+02 -0.13732734845E+01  0.10106653821E+03  0.98191825279E+02 0.  0.
         13    1    3    3    0    0 -0.10997643195E+02  0.14924199384E+02  0.47572697952E+02  0.51057346558E+02  0.10566000000E+00 0. -1.
         22    1    1    0    0    0  0.51301094717E+01 -0.23336809768E+02  0.13732734845E+01  0.23933461793E+02  0.00000000000E+00 0.  1.
</event>
<event>
 5    1  0.9041381E-005  0.9118800E+02  0.7818608E-02  0.1130116E+00
         25   -1    0    0    0    0  0.00000000000E+00  0.00000000000E+00  0.99999998245E-14  0.12500000000E+03  0.12500000000E+03 0.  0.
        -13    1    3    3    0    0  0.31067638551E+02 -0.47138734942E+02 -0.26660603091E+01  0.56518824640E+02  0.10566000000E+00 0. -1.
         23    2    1    0    0    0  0.14467117995E+02 -0.14254645034E+02 -0.19341162158E+02  0.96954091889E+02  0.92809067296E+02 0.  0.
         13    1    3    3    0    0 -0.16600520556E+02  0.32884089908E+02 -0.16675101849E+02  0.40435267249E+02  0.10566000000E+00 0.  1.
         22    1    1    0    0    0 -0.14467117995E+02  0.14254645034E+02  0.19341162158E+02  0.28045908111E+02  0.00000000000E+00 0. -1.
</event>
<event>
 5    1  0.9041381E-005  0.9118800E+02  0.7818608E-02  0.1130116E+00
         25   -1    0    0    0    0  0.00000000000E+00  0.00000000000E+00  0.99999998245E-14  0.12500000000E+03  0.12500000000E+03 0.  0.
        -13    1    3    3    0    0 -0.24204169184E+02  0.28755635450E+02 -0.21960249766E+02  0.43531507094E+02  0.10566000000E+00 0.  1.
         23    2    1    0    0    0  0.23835467158E+02  0.90719812840E+01 -0.13537461011E+02  0.96126254319E+02  0.91687314170E+02 0.  0.
         13    1    3    3    0    0  0.48039636342E+02 -0.19683654166E+02  0.84227887545E+01  0.52594747225E+02  0.10566000000E+00 0. -1.
         22    1    1    0    0    0 -0.23835467158E+02 -0.90719812840E+01  0.13537461011E+02  0.28873745681E+02  0.00000000000E+00 0. -1.
</event>
<event>
 5    1  0.9041381E-005  0.9118800E+02  0.7818608E-02  0.1130116E+00
         25   -1    0    0    0    0  0.00000000000E+00  0.00000000000E+00  0.99999998245E-14  0.12500000000E+03  0.12500000000E+03 0.  0.
        -13    1    3    3    0    0 -0.52506627367E+02  0.16882489724E+02 -0.18582407620E+02  0.58200355786E+02  0.10566000000E+00 0.  1.
         23    2    1    0    0    0 -0.37855559823E+02  0.14932353327E+01 -0.24030977875E+02  0.80136194333E+02  0.66400667039E+02 0.  0.
         13    1    3    3    0    0  0.14651067543E+02 -0.15389254391E+02 -0.54485702553E+01  0.21935838546E+02  0.10566000000E+00 0. -1.
         22    1    1    0    0    0  0.37855559823E+02 -0.14932353327E+01  0.24030977875E+02  0.44863805667E+02  0.00000000000E+00 0.  1.
</event>
<event>
 5    1  0.9041381E-005  0.9118800E+02  0.7818608E-02  0.1130116E+00
         25   -1    0    0    0    0  0.00000000000E+00  0.00000000000E+00  0.99999998245E-14  0.12500000000E+03  0.12500000000E+03 0.  0.
        -13    1    3    3    0    0 -0.30706440440E+02  0.39514798087E+02  0.65929311936E+01  0.50475564961E+02  0.10566000000E+00 0. -1.
         23    2    1    0    0    0 -0.20651338127E+02  0.26864815780E+02  0.30552168868E+02  0.79375104210E+02  0.64952105836E+02 0.  0.
         13    1    3    3    0    0  0.10055102313E+02 -0.12649982307E+02  0.23959237674E+02  0.28899539250E+02  0.10566000000E+00 0.  1.
         22    1    1    0    0    0  0.20651338127E+02 -0.26864815780E+02 -0.30552168868E+02  0.45624895790E+02  0.00000000000E+00 0. -1.
</event>
<event>
 5    1  0.9041381E-005  0.9118800E+02  0.7818608E-02  0.1130116E+00
         25   -1    0    0    0    0  0.00000000000E+00  0.00000000000E+00  0.99999998245E-14  0.12500000000E+03  0.12500000000E+03 0.  0.
        -13    1    3    3    0    0 -0.17899818822E+02  0.50620026741E+02 -0.11699312375E+02  0.54951575912E+02  0.10566000000E+00 0.  1.
         23    2    1    0    0    0 -0.26057019455E+02  0.12118696525E+02  0.82028964043E+00  0.96251018393E+02  0.91857251201E+02 0.  0.
         13    1    3    3    0    0 -0.81572006330E+01 -0.38501330216E+02  0.12519602015E+02  0.41299442481E+02  0.10566000000E+00 0. -1.
         22    1    1    0    0    0  0.26057019455E+02 -0.12118696525E+02 -0.82028964043E+00  0.28748981607E+02  0.00000000000E+00 0.  1.
</event>
<event>
 5    1  0.9041381E-005  0.9118800E+02  0.7818608E-02  0.1130116E+00
         25   -1    0    0    0    0  0.00000000000E+00  0.00000000000E+00  0.99999998245E-14  0.12500000000E+03  0.12500000000E+03 0.  0.
        -13    1    3    3    0    0  0.17055713079E+02  0.50265445842E+02 -0.11927200132E+01  0.53093748590E+02  0.10566000000E+00 0. -1.
         23    2    1    0    0    0  0.22709486379E+02  0.10637430302E+02 -0.15402167412E+02  0.95570381314E+02  0.90926318129E+02 0.  0.
         13    1    3    3    0    0  0.56537732999E+01 -0.39628015540E+02 -0.14209447399E+02  0.42476632724E+02  0.10566000000E+00 0.  1.
         22    1    1    0    0    0 -0.22709486379E+02 -0.10637430302E+02  0.15402167412E+02  0.29429618686E+02  0.00000000000E+00 0. -1.
</event>
<event>
 5    1  0.9041381E-005  0.9118800E+02  0.7818608E-02  0.1130116E+00
         25   -1    0    0    0    0  0.00000000000E+00  0.00000000000E+00  0.99999998245E-14  0.12500000000E+03  0.12500000000E+03 0.  0.
        -13    1    3    3    0    0 -0.42094538740E+02 -0.26510715948E+02 -0.31150780295E+02  0.58695404666E+02  0.10566000000E+00 0.  1.
         23    2    1    0    0    0 -0.10578570433E+02 -0.56273698402E+01 -0.25371023900E+02  0.96941805163E+02  0.92792517429E+02 0.  0.
         13    1    3    3    0    0  0.31515968307E+02  0.20883346108E+02  0.57797563946E+01  0.38246400498E+02  0.10566000000E+00 0. -1.
         22    1    1    0    0    0  0.10578570433E+02  0.56273698402E+01  0.25371023900E+02  0.28058194837E+02  0.00000000000E+00 0.  1.
</event>
<event>
 5    1  0.9041381E-005  0.9118800E+02  0.7818608E-02  0.1130116E+00
         25   -1    0    0    0    0  0.00000000000E+00  0.00000000000E+00  0.99999998245E-14  0.12500000000E+03  0.12500000000E+03 0.  0.
        -13    1    3    3    0    0  0.29756242830E+02  0.49512519807E+02 -0.34377068414E+01  0.57868407593E+02  0.10566000000E+00 0.  1.
         23    2    1    0    0    0  0.42814515070E+01  0.23538165079E+02 -0.15841101924E+02  0.96306506793E+02  0.91932729200E+02 0.  0.
         13    1    3    3    0    0 -0.25474791323E+02 -0.25974354728E+02 -0.12403395082E+02  0.38438099200E+02  0.10566000000E+00 0. -1.
         22    1    1    0    0    0 -0.42814515070E+01 -0.23538165079E+02  0.15841101924E+02  0.28693493207E+02  0.00000000000E+00 0.  1.
</event>
<event>
 5    1  0.9041381E-005  0.9118800E+02  0.7818608E-02  0.1130116E+00
         25   -1    0    0    0    0  0.00000000000E+00  0.00000000000E+00  0.99999998245E-14  0.12500000000E+03  0.12500000000E+03 0.  0.
        -13    1    3    3    0    0 -0.29842446810E+02 -0.11060028052E+01 -0.20668599322E+02  0.36317998785E+02  0.10566000000E+00 0.  1.
         23    2    1    0    0    0  0.16466820224E+02  0.25800857640E+02  0.16654903732E+01  0.94346871588E+02  0.89228459009E+02 0.  0.
         13    1    3    3    0    0  0.46309267034E+02  0.26906860445E+02  0.22334089695E+02  0.58028872803E+02  0.10566000000E+00 0. -1.
         22    1    1    0    0    0 -0.16466820224E+02 -0.25800857640E+02 -0.16654903732E+01  0.30653128412E+02  0.00000000000E+00 0. -1.
</event>
<event>
 5    1  0.9041381E-005  0.9118800E+02  0.7818608E-02  0.1130116E+00
         25   -1    0    0    0    0  0.00000000000E+00  0.00000000000E+00  0.99999998245E-14  0.12500000000E+03  0.12500000000E+03 0.  0.
        -13    1    3    3    0    0 -0.40594362156E+02  0.25196767871E+02  0.29327155763E+02  0.56061328732E+02  0.10566000000E+00 0. -1.
         23    2    1    0    0    0 -0.29625581016E+02  0.71290234439E+01 -0.26726283990E+01  0.94411751139E+02  0.89319302420E+02 0.  0.
         13    1    3    3    0    0  0.10968781139E+02 -0.18067744427E+02 -0.31999784162E+02  0.38350422407E+02  0.10566000000E+00 0.  1.
         22    1    1    0    0    0  0.29625581016E+02 -0.71290234439E+01  0.26726283990E+01  0.30588248861E+02  0.00000000000E+00 0. -1.
</event>
<event>
 5    1  0.9041381E-005  0.9118800E+02  0.7818608E-02  0.1130116E+00
         25   -1    0    0    0    0  0.00000000000E+00  0.00000000000E+00  0.99999998245E-14  0.12500000000E+03  0.12500000000E+03 0.  0.
        -13    1    3    3    0    0  0.44164662352E+02 -0.24690741001E+02 -0.17737143427E+02  0.53616858476E+02  0.10566000000E+00 0. -1.
         23    2    1    0    0    0  0.81984895240E+01 -0.78569554546E+01 -0.28129407030E+02  0.94665028113E+02  0.89673056312E+02 0.  0.
         13    1    3    3    0    0 -0.35966172828E+02  0.16833785546E+02 -0.10392263603E+02  0.41048169637E+02  0.10566000000E+00 0.  1.
         22    1    1    0    0    0 -0.81984895240E+01  0.78569554546E+01  0.28129407030E+02  0.30334971887E+02  0.00000000000E+00 0. -1.
</event>
<event>
 5    1  0.9041381E-005  0.9118800E+02  0.7818608E-02  0.1130116E+00
         25   -1    0    0    0    0  0.00000000000E+00  0.00000000000E+00  0.99999998245E-14  0.12500000000E+03  0.12500000000E+03 0.  0.
        -13    1    3    3    0    0 -0.77940778300E+01 -0.18974255826E+02 -0.37010681709E+02  0.42315148091E+02  0.10566000000E+00 0. -1.
         23    2    1    0    0    0  0.27609950836E+02 -0.14458904384E+02  0.14079600742E+00  0.93832883921E+02  0.88505485594E+02 0.  0.
         13    1    3    3    0    0  0.35404028666E+02  0.45153514420E+01  0.37151477717E+02  0.51517735830E+02  0.10566000000E+00 0.  1.
         22    1    1    0    0    0 -0.27609950836E+02  0.14458904384E+02 -0.14079600742E+00  0.31167116079E+02  0.00000000000E+00 0.  1.
</event>
<event>
 5    1  0.9041381E-005  0.9118800E+02  0.7818608E-02  0.1130116E+00
         25   -1    0    0    0    0  0.00000000000E+00  0.00000000000E+00  0.99999998245E-14  0.12500000000E+03  0.12500000000E+03 0.  0.
        -13    1    3    3    0    0 -0.16820764883E+02 -0.21961355423E+02  0.38870093175E+02  0.47708852122E+02  0.10566000000E+00 0.  1.
         23    2    1    0    0    0 -0.26213792766E+02  0.94729800238E+00 -0.52005701249E+01  0.98258529691E+02  0.94549629416E+02 0.  0.
         13    1    3    3    0    0 -0.93930278830E+01  0.22908653425E+02 -0.44070663300E+02  0.50549677569E+02  0.10566000000E+00 0. -1.
         22    1    1    0    0    0  0.26213792766E+02 -0.94729800238E+00  0.52005701249E+01  0.26741470309E+02  0.00000000000E+00 0. -1.
</event>
<event>
 5    1  0.9041381E-005  0.9118800E+02  0.7818608E-02  0.1130116E+00
         25   -1    0    0    0    0  0.00000000000E+00  0.00000000000E+00  0.99999998245E-14  0.12500000000E+03  0.12500000000E+03 0.  0.
        -13    1    3    3    0    0 -0.25576251387E+02  0.42790779619E+02  0.29131593249E+02  0.57739556152E+02  0.10566000000E+00 0.  1.
         23    2    1    0    0    0  0.43869423514E+01  0.24558756592E+02  0.16820084221E+02  0.94911912295E+02  0.90016543334E+02 0.  0.
         13    1    3    3    0    0  0.29963193739E+02 -0.18232023027E+02 -0.12311509028E+02  0.37172356143E+02  0.10566000000E+00 0. -1.
         22    1    1    0    0    0 -0.43869423514E+01 -0.24558756592E+02 -0.16820084221E+02  0.30088087705E+02  0.00000000000E+00 0.  1.
</event>
<event>
 5    1  0.9041381E-005  0.9118800E+02  0.7818608E-02  0.1130116E+00
         25   -1    0    0    0    0  0.00000000000E+00  0.00000000000E+00  0.99999998245E-14  0.12500000000E+03  0.12500000000E+03 0.  0.
        -13    1    3    3    0    0 -0.32779405459E+02 -0.25884383102E+02  0.35227275527E+02  0.54639388868E+02  0.10566000000E+00 0.  1.
         23    2    1    0    0    0 -0.27147040836E+02 -0.25795357846E+00  0.91204977623E+00  0.97836417743E+02  0.93989916671E+02 0.  0.
         13    1    3    3    0    0  0.56323646220E+01  0.25626429523E+02 -0.34315225750E+02  0.43197028876E+02  0.10566000000E+00 0. -1.
         22    1    1    0    0    0  0.27147040836E+02  0.25795357846E+00 -0.91204977623E+00  0.27163582257E+02  0.00000000000E+00 0. -1.
</event>
<event>
 5    1  0.9041381E-005  0.9118800E+02  0.7818608E-02  0.1130116E+00
         25   -1    0    0    0    0  0.00000000000E+00  0.00000000000E+00  0.99999998245E-14  0.12500000000E+03  0.12500000000E+03 0.  0.
        -13    1    3    3    0    0  0.16828152028E+02  0.17951897923E+02 -0.39137835514E+02  0.46230278741E+02  0.10566000000E+00 0.  1.
         23    2    1    0    0    0 -0.24523375069E+02  0.57150269217E+01 -0.15944503228E+02  0.95195895573E+02  0.90410032039E+02 0.  0.
         13    1    3    3    0    0 -0.41351527097E+02 -0.12236871001E+02  0.23193332286E+02  0.48965616832E+02  0.10566000000E+00 0. -1.
         22    1    1    0    0    0  0.24523375069E+02 -0.57150269217E+01  0.15944503228E+02  0.29804104427E+02  0.00000000000E+00 0.  1.
</event>
<event>
 5    1  0.9041381E-005  0.9118800E+02  0.7818608E-02  0.1130116E+00
         25   -1    0    0    0    0  0.00000000000E+00  0.00000000000E+00  0.99999998245E-14  0.12500000000E+03  0.12500000000E+03 0.  0.
        -13    1    3    3    0    0 -0.81785170531E+01  0.53829678688E+01  0.32855887584E+02  0.34283888304E+02  0.10566000000E+00 0. -1.
         23    2    1    0    0    0 -0.35629480891E+01 -0.14133461087E+02 -0.25300588584E+02  0.95801213996E+02  0.91243101104E+02 0.  0.
         13    1    3    3    0    0  0.46155689640E+01 -0.19516428956E+02 -0.58156476168E+02  0.61517325693E+02  0.10566000000E+00 0.  1.
         22    1    1    0    0    0  0.35629480891E+01  0.14133461087E+02  0.25300588584E+02  0.29198786004E+02  0.00000000000E+00 0.  1.
</event>
<event>
 5    1  0.9041381E-005  0.9118800E+02  0.7818608E-02  0.1130116E+00
         25   -1    0    0    0    0  0.00000000000E+00  0.00000000000E+00  0.99999998245E-14  0.12500000000E+03  0.12500000000E+03 0.  0.
        -13    1    3    3    0    0 -0.23923033534E+02 -0.53844986929E+02 -0.72998919056E+01  0.59370815530E+02  0.10566000000E+00 0.  1.
         23    2    1    0    0    0 -0.16953698651E+02 -0.22232424725E+02  0.90176319013E+01  0.95622690862E+02  0.90998201716E+02 0.  0.
         13    1    3    3    0    0  0.69693348829E+01  0.31612562205E+02  0.16317523807E+02  0.36251875332E+02  0.10566000000E+00 0. -1.
         22    1    1    0    0    0  0.16953698651E+02  0.22232424725E+02 -0.90176319013E+01  0.29377309138E+02  0.00000000000E+00 0.  1.
</event>
<event>
 5    1  0.9041381E-005  0.9118800E+02  0.7818608E-02  0.1130116E+00
         25   -1    0    0    0    0  0.00000000000E+00  0.00000000000E+00  0.99999998245E-14  0.12500000000E+03  0.12500000000E+03 0.  0.
        -13    1    3    3    0    0  0.13186440748E+02 -0.26985731859E+02 -0.16250699593E+02  0.34149792750E+02  0.10566000000E+00 0.  1.
         23    2    1    0    0    0 -0.23199792946E+02  0.19517762923E+02 -0.46012639206E+01  0.94334953254E+02  0.89211761071E+02 0.  0.
         13    1    3    3    0    0 -0.36386233694E+02  0.46503494782E+02  0.11649435672E+02  0.60185160504E+02  0.10566000000E+00 0. -1.
         22    1    1    0    0    0  0.23199792946E+02 -0.19517762923E+02  0.46012639206E+01  0.30665046746E+02  0.00000000000E+00 0. -1.
</event>
<event>
 5    1  0.9041381E-005  0.9118800E+02  0.7818608E-02  0.1130116E+00
         25   -1    0    0    0    0  0.00000000000E+00  0.00000000000E+00  0.99999998245E-14  0.12500000000E+03  0.12500000000E+03 0.  0.
        -13    1    3    3    0    0 -0.14303342088E+02  0.18176845884E+02  0.24685731009E+02  0.33828683105E+02  0.10566000000E+00 0.  1.
         23    2    1    0    0    0  0.16811229347E+01 -0.26243540801E+02 -0.14310596191E+02  0.95061015858E+02  0.90223355982E+02 0.  0.
         13    1    3    3    0    0  0.15984465022E+02 -0.44420386684E+02 -0.38996327200E+02  0.61232332753E+02  0.10566000000E+00 0. -1.
         22    1    1    0    0    0 -0.16811229347E+01  0.26243540801E+02  0.14310596191E+02  0.29938984142E+02  0.00000000000E+00 0. -1.
</event>
<event>
 5    1  0.9041381E-005  0.9118800E+02  0.7818608E-02  0.1130116E+00
         25   -1    0    0    0    0  0.00000000000E+00  0.00000000000E+00  0.99999998245E-14  0.12500000000E+03  0.12500000000E+03 0.  0.
        -13    1    3    3    0    0 -0.41248814145E+02 -0.43262647665E+02 -0.49758537913E+00  0.59777755951E+02  0.10566000000E+00 0. -1.
         23    2    1    0    0    0 -0.26675689644E+02 -0.10949183041E+02  0.52562454704E+01  0.95689504547E+02  0.91089934333E+02 0.  0.
         13    1    3    3    0    0  0.14573124501E+02  0.32313464624E+02  0.57538308495E+01  0.35911748596E+02  0.10566000000E+00 0.  1.
         22    1    1    0    0    0  0.26675689644E+02  0.10949183041E+02 -0.52562454704E+01  0.29310495453E+02  0.00000000000E+00 0. -1.
</event>
<event>
 5    1  0.9041381E-005  0.9118800E+02  0.7818608E-02  0.1130116E+00
         25   -1    0    0    0    0  0.00000000000E+00  0.00000000000E+00  0.99999998245E-14  0.12500000000E+03  0.12500000000E+03 0.  0.
        -13    1    3    3    0    0  0.32699632370E+02 -0.16535999418E+02 -0.34547540259E+02  0.50361184814E+02  0.10566000000E+00 0. -1.
         23    2    1    0    0    0  0.19399547569E+02 -0.18032649834E+02  0.98570246364E+01  0.96739075730E+02  0.92519019301E+02 0.  0.
         13    1    3    3    0    0 -0.13300084800E+02 -0.14966504159E+01  0.44404564896E+02  0.46377890916E+02  0.10566000000E+00 0.  1.
         22    1    1    0    0    0 -0.19399547569E+02  0.18032649834E+02 -0.98570246364E+01  0.28260924270E+02  0.00000000000E+00 0. -1.
</event>
<event>
 5    1  0.9041381E-005  0.9118800E+02  0.7818608E-02  0.1130116E+00
         25   -1    0    0    0    0  0.00000000000E+00  0.00000000000E+00  0.99999998245E-14  0.12500000000E+03  0.12500000000E+03 0.  0.
        -13    1    3    3    0    0 -0.12724067965E+02 -0.45917248682E+02  0.12260372097E+01  0.47663507670E+02  0.10566000000E+00 0.  1.
         23    2    1    0    0    0  0.21522187975E+02 -0.16431362618E+02 -0.12894032312E+02  0.95009162700E+02  0.90151487370E+02 0.  0.
         13    1    3    3    0    0  0.34246255939E+02  0.29485886065E+02 -0.14120069522E+02  0.47345655030E+02  0.10566000000E+00 0. -1.
         22    1    1    0    0    0 -0.21522187975E+02  0.16431362618E+02  0.12894032312E+02  0.29990837300E+02  0.00000000000E+00 0.  1.
</event>
<event>
 5    1  0.9041381E-005  0.9118800E+02  0.7818608E-02  0.1130116E+00
         25   -1    0    0    0    0  0.00000000000E+00  0.00000000000E+00  0.99999998245E-14  0.12500000000E+03  0.12500000000E+03 0.  0.
        -13    1    3    3    0    0 -0.26930720994E+02 -0.31961325273E+02  0.15013809617E+02  0.44409635100E+02  0.10566000000E+00 0.  1.
         23    2    1    0    0    0 -0.25025663271E+02  0.12398914810E+02 -0.99551680102E+01  0.95350003698E+02  0.90622849902E+02 0.  0.
         13    1    3    3    0    0  0.19050577230E+01  0.44360240083E+02 -0.24968977627E+02  0.50940368598E+02  0.10566000000E+00 0. -1.
         22    1    1    0    0    0  0.25025663271E+02 -0.12398914810E+02  0.99551680102E+01  0.29649996302E+02  0.00000000000E+00 0.  1.
</event>
<event>
 5    1  0.9041381E-005  0.9118800E+02  0.7818608E-02  0.1130116E+00
         25   -1    0    0    0    0  0.00000000000E+00  0.00000000000E+00  0.99999998245E-14  0.12500000000E+03  0.12500000000E+03 0.  0.
        -13    1    3    3    0    0 -0.29283761131E+02 -0.29626375660E+02 -0.12815940390E+02  0.43583486470E+02  0.10566000000E+00 0.  1.
         23    2    1    0    0    0 -0.23513772816E+02  0.19349099053E+02  0.50367418927E-01  0.94548601295E+02  0.89510615704E+02 0.  0.
         13    1    3    3    0    0  0.57699883149E+01  0.48975474713E+02  0.12866307809E+02  0.50965114825E+02  0.10566000000E+00 0. -1.
         22    1    1    0    0    0  0.23513772816E+02 -0.19349099053E+02 -0.50367418927E-01  0.30451398705E+02  0.00000000000E+00 0. -1.
</event>
<event>
 5    1  0.9041381E-005  0.9118800E+02  0.7818608E-02  0.1130116E+00
         25   -1    0    0    0    0  0.00000000000E+00  0.00000000000E+00  0.99999998245E-14  0.12500000000E+03  0.12500000000E+03 0.  0.
        -13    1    3    3    0    0  0.60354587668E+01 -0.31626867463E+02 -0.41942972967E+02  0.52876361953E+02  0.10566000000E+00 0. -1.
         23    2    1    0    0    0  0.24713233133E+02 -0.47874568375E+01 -0.12424970023E+02  0.96927887238E+02  0.92773766817E+02 0.  0.
         13    1    3    3    0    0  0.18677774366E+02  0.26839410626E+02  0.29518002945E+02  0.44051525285E+02  0.10566000000E+00 0.  1.
         22    1    1    0    0    0 -0.24713233133E+02  0.47874568375E+01  0.12424970023E+02  0.28072112762E+02  0.00000000000E+00 0. -1.
</event>
<event>
 5    1  0.9041381E-005  0.9118800E+02  0.7818608E-02  0.1130116E+00
         25   -1    0    0    0    0  0.00000000000E+00  0.00000000000E+00  0.99999998245E-14  0.12500000000E+03  0.12500000000E+03 0.  0.
        -13    1    3    3    0    0 -0.12735227063E+02  0.41821081984E+02  0.67466175411E+01  0.44234793081E+02  0.10566000000E+00 0. -1.
         23    2    1    0    0    0  0.25425587920E+02  0.25837808131E+01  0.47531730284E+01  0.99005210172E+02  0.95531683452E+02 0.  0.
         13    1    3    3    0    0  0.38160814983E+02 -0.39237301171E+02 -0.19934445128E+01  0.54770417091E+02  0.10566000000E+00 0.  1.
         22    1    1    0    0    0 -0.25425587920E+02 -0.25837808131E+01 -0.47531730284E+01  0.25994789828E+02  0.00000000000E+00 0. -1.
</event>
<event>
 5    1  0.9041381E-005  0.9118800E+02  0.7818608E-02  0.1130116E+00
         25   -1    0    0    0    0  0.00000000000E+00  0.00000000000E+00  0.99999998245E-14  0.12500000000E+03  0.12500000000E+03 0.  0.
        -13    1    3    3    0    0 -0.44680695669E+02  0.25469541560E+01  0.29482718894E+02  0.53591915606E+02  0.10566000000E+00 0.  1.
         23    2    1    0    0    0 -0.27499901891E+02  0.55213925269E+01 -0.87541947329E+01  0.95616904437E+02  0.90990252825E+02 0.  0.
         13    1    3    3    0    0  0.17180793777E+02  0.29744383709E+01 -0.38236913627E+02  0.42024988830E+02  0.10566000000E+00 0. -1.
         22    1    1    0    0    0  0.27499901891E+02 -0.55213925269E+01  0.87541947329E+01  0.29383095563E+02  0.00000000000E+00 0.  1.
</event>
<event>
 5    1  0.9041381E-005  0.9118800E+02  0.7818608E-02  0.1130116E+00
         25   -1    0    0    0    0  0.00000000000E+00  0.00000000000E+00  0.99999998245E-14  0.12500000000E+03  0.12500000000E+03 0.  0.
        -13    1    3    3    0    0  0.17666251165E+02  0.14547088901E+02 -0.29565655927E+02  0.37387877717E+02  0.10566000000E+00 0.  1.
         23    2    1    0    0    0 -0.58423636909E+01 -0.29374349646E+02 -0.53742993912E+00  0.95045460084E+02  0.90201801651E+02 0.  0.
         13    1    3    3    0    0 -0.23508614856E+02 -0.43921438547E+02  0.29028225988E+02  0.57657582368E+02  0.10566000000E+00 0. -1.
         22    1    1    0    0    0  0.58423636909E+01  0.29374349646E+02  0.53742993912E+00  0.29954539916E+02  0.00000000000E+00 0. -1.
</event>
<event>
 5    1  0.9041381E-005  0.9118800E+02  0.7818608E-02  0.1130116E+00
         25   -1    0    0    0    0  0.00000000000E+00  0.00000000000E+00  0.99999998245E-14  0.12500000000E+03  0.12500000000E+03 0.  0.
        -13    1    3    3    0    0 -0.23968035534E+02 -0.54323494461E+02  0.10682627237E+02  0.60329416262E+02  0.10566000000E+00 0.  1.
         23    2    1    0    0    0 -0.20044900167E+02 -0.19523706654E+02 -0.25202676747E+00  0.97017207756E+02  0.92894036079E+02 0.  0.
         13    1    3    3    0    0  0.39231353665E+01  0.34799787807E+02 -0.10934654005E+02  0.36687791494E+02  0.10566000000E+00 0. -1.
         22    1    1    0    0    0  0.20044900167E+02  0.19523706654E+02  0.25202676747E+00  0.27982792244E+02  0.00000000000E+00 0.  1.
</event>
<event>
 5    1  0.9041381E-005  0.9118800E+02  0.7818608E-02  0.1130116E+00
         25   -1    0    0    0    0  0.00000000000E+00  0.00000000000E+00  0.99999998245E-14  0.12500000000E+03  0.12500000000E+03 0.  0.
        -13    1    3    3    0    0  0.32704054458E+02 -0.36940614867E+02 -0.15001452417E+02  0.51567615258E+02  0.10566000000E+00 0.  1.
         23    2    1    0    0    0 -0.91168509223E+01 -0.27545182811E+02 -0.56066022826E+01  0.95448552388E+02  0.90758680560E+02 0.  0.
         13    1    3    3    0    0 -0.41820905380E+02  0.93954320559E+01  0.93948501345E+01  0.43880937130E+02  0.10566000000E+00 0. -1.
         22    1    1    0    0    0  0.91168509223E+01  0.27545182811E+02  0.56066022826E+01  0.29551447612E+02  0.00000000000E+00 0.  1.
</event>
<event>
 5    1  0.9041381E-005  0.9118800E+02  0.7818608E-02  0.1130116E+00
         25   -1    0    0    0    0  0.00000000000E+00  0.00000000000E+00  0.99999998245E-14  0.12500000000E+03  0.12500000000E+03 0.  0.
        -13    1    3    3    0    0  0.30898543913E+01  0.29355512355E+02  0.97768673001E+01  0.31094880673E+02  0.10566000000E+00 0.  1.
         23    2    1    0    0    0 -0.18606181965E+02 -0.27122714176E+02  0.32027440715E+01  0.91953227068E+02  0.85809712545E+02 0.  0.
         13    1    3    3    0    0 -0.21696036357E+02 -0.56478226532E+02 -0.65741232285E+01  0.60858346396E+02  0.10566000000E+00 0. -1.
         22    1    1    0    0    0  0.18606181965E+02  0.27122714176E+02 -0.32027440715E+01  0.33046772932E+02  0.00000000000E+00 0. -1.
</event>
<event>
 5    1  0.9041381E-005  0.9118800E+02  0.7818608E-02  0.1130116E+00
         25   -1    0    0    0    0  0.00000000000E+00  0.00000000000E+00  0.99999998245E-14  0.12500000000E+03  0.12500000000E+03 0.  0.
        -13    1    3    3    0    0 -0.28077425562E+01 -0.28435359096E+02  0.20833530888E+02  0.35362412792E+02  0.10566000000E+00 0. -1.
         23    2    1    0    0    0  0.22709244885E+02  0.95704229332E+01 -0.17257384546E+02  0.94914785695E+02  0.90020533346E+02 0.  0.
         13    1    3    3    0    0  0.25516987442E+02  0.38005782029E+02 -0.38090915435E+02  0.59552372903E+02  0.10566000000E+00 0.  1.
         22    1    1    0    0    0 -0.22709244885E+02 -0.95704229332E+01  0.17257384546E+02  0.30085214305E+02  0.00000000000E+00 0.  1.
</event>
<event>
 5    1  0.9041381E-005  0.9118800E+02  0.7818608E-02  0.1130116E+00
         25   -1    0    0    0    0  0.00000000000E+00  0.00000000000E+00  0.99999998245E-14  0.12500000000E+03  0.12500000000E+03 0.  0.
        -13    1    3    3    0    0 -0.23471275437E+01  0.52573635491E+02 -0.27059439545E+02  0.59175337675E+02  0.10566000000E+00 0. -1.
         23    2    1    0    0    0  0.82039075323E+01  0.31840197919E+02 -0.40925237353E+01  0.91866164532E+02  0.85682793681E+02 0.  0.
         13    1    3    3    0    0  0.10551035076E+02 -0.20733437572E+02  0.22966915810E+02  0.32690826857E+02  0.10566000000E+00 0.  1.
         22    1    1    0    0    0 -0.82039075323E+01 -0.31840197919E+02  0.40925237353E+01  0.33133835468E+02  0.00000000000E+00 0. -1.
</event>
